MODEL 1
REMARK VINA RESULT:    -7.346      0.000      0.000
REMARK INTER + INTRA:         -10.424
REMARK INTER:                  -9.708
REMARK INTRA:                  -0.716
REMARK UNBOUND:                -0.716
REMARK SMILES Nn1c(SCC(=O)Nc2cccc(C(F)(F)F)c2)nncc1=O
REMARK SMILES IDX 5 1 4 2 3 3 2 4 22 5 19 6 21 7 23 8 20 9 1 10 6 13 7 14 8 15
REMARK SMILES IDX 9 17 10 18 18 19 11 20 13 21 12 22 14 23 15 24 16 25 17 26
REMARK H PARENT 1 11 1 12 8 16
ROOT
ATOM      1  C   UNL     1      12.860 -23.156 -48.366  1.00  0.00     0.178 C 
ENDROOT
BRANCH   1   2
ATOM      2  S   UNL     1      11.499 -22.206 -49.104  1.00  0.00    -0.074 SA
BRANCH   2   3
ATOM      3  C   UNL     1      12.364 -21.301 -50.334  1.00  0.00     0.211 C 
ATOM      4  N   UNL     1      12.984 -20.128 -49.947  1.00  0.00    -0.199 N 
ATOM      5  C   UNL     1      13.624 -19.358 -50.894  1.00  0.00     0.291 C 
ATOM      6  N   UNL     1      12.365 -21.752 -51.551  1.00  0.00    -0.123 NA
ATOM      7  C   UNL     1      13.651 -19.963 -52.259  1.00  0.00     0.209 C 
ATOM      8  O   UNL     1      14.135 -18.259 -50.723  1.00  0.00    -0.266 OA
ATOM      9  N   UNL     1      13.068 -21.079 -52.555  1.00  0.00    -0.151 NA
BRANCH   4  10
ATOM     10  N   UNL     1      12.987 -19.663 -48.592  1.00  0.00    -0.334 NA
ATOM     11  H   UNL     1      12.915 -18.644 -48.611  1.00  0.00     0.178 HD
ATOM     12  H   UNL     1      13.908 -19.878 -48.194  1.00  0.00     0.178 HD
ENDBRANCH   4  10
ENDBRANCH   2   3
ENDBRANCH   1   2
BRANCH   1  13
ATOM     13  C   UNL     1      13.058 -22.789 -46.900  1.00  0.00     0.234 C 
ATOM     14  O   UNL     1      12.403 -21.888 -46.384  1.00  0.00    -0.274 OA
ATOM     15  N   UNL     1      14.021 -23.559 -46.271  1.00  0.00    -0.325 N 
ATOM     16  H   UNL     1      14.584 -24.162 -46.875  1.00  0.00     0.169 HD
BRANCH  15  17
ATOM     17  C   UNL     1      14.428 -23.503 -44.923  1.00  0.00     0.041 A 
ATOM     18  C   UNL     1      15.602 -22.792 -44.644  1.00  0.00     0.026 A 
ATOM     19  C   UNL     1      13.741 -24.113 -43.871  1.00  0.00     0.039 A 
ATOM     20  C   UNL     1      16.076 -22.682 -43.336  1.00  0.00     0.003 A 
ATOM     21  C   UNL     1      14.211 -24.016 -42.549  1.00  0.00     0.058 A 
ATOM     22  C   UNL     1      15.382 -23.288 -42.291  1.00  0.00     0.013 A 
BRANCH  21  23
ATOM     23  C   UNL     1      13.441 -24.667 -41.428  1.00  0.00     0.416 C 
ATOM     24  F   UNL     1      12.317 -25.312 -41.853  1.00  0.00    -0.166 F 
ATOM     25  F   UNL     1      13.020 -23.781 -40.483  1.00  0.00    -0.166 F 
ATOM     26  F   UNL     1      14.175 -25.605 -40.766  1.00  0.00    -0.166 F 
ENDBRANCH  21  23
ENDBRANCH  15  17
ENDBRANCH   1  13
TORSDOF 6
ENDMDL
MODEL 2
REMARK VINA RESULT:    -7.294      2.386      3.113
REMARK INTER + INTRA:         -10.356
REMARK INTER:                  -9.686
REMARK INTRA:                  -0.670
REMARK UNBOUND:                -0.716
REMARK SMILES Nn1c(SCC(=O)Nc2cccc(C(F)(F)F)c2)nncc1=O
REMARK SMILES IDX 5 1 4 2 3 3 2 4 22 5 19 6 21 7 23 8 20 9 1 10 6 13 7 14 8 15
REMARK SMILES IDX 9 17 10 18 18 19 11 20 13 21 12 22 14 23 15 24 16 25 17 26
REMARK H PARENT 1 11 1 12 8 16
ROOT
ATOM      1  C   UNL     1      14.702 -22.114 -47.845  1.00  0.00     0.178 C 
ENDROOT
BRANCH   1   2
ATOM      2  S   UNL     1      13.247 -21.065 -47.560  1.00  0.00    -0.074 SA
BRANCH   2   3
ATOM      3  C   UNL     1      11.969 -22.117 -48.142  1.00  0.00     0.211 C 
ATOM      4  N   UNL     1      11.569 -21.970 -49.457  1.00  0.00    -0.199 N 
ATOM      5  C   UNL     1      10.529 -22.737 -49.936  1.00  0.00     0.291 C 
ATOM      6  N   UNL     1      11.438 -22.965 -47.316  1.00  0.00    -0.123 NA
ATOM      7  C   UNL     1      10.007 -23.741 -48.961  1.00  0.00     0.209 C 
ATOM      8  O   UNL     1      10.006 -22.657 -51.040  1.00  0.00    -0.266 OA
ATOM      9  N   UNL     1      10.440 -23.844 -47.746  1.00  0.00    -0.151 NA
BRANCH   4  10
ATOM     10  N   UNL     1      12.187 -21.042 -50.356  1.00  0.00    -0.334 NA
ATOM     11  H   UNL     1      11.466 -20.391 -50.677  1.00  0.00     0.178 HD
ATOM     12  H   UNL     1      12.487 -21.567 -51.184  1.00  0.00     0.178 HD
ENDBRANCH   4  10
ENDBRANCH   2   3
ENDBRANCH   1   2
BRANCH   1  13
ATOM     13  C   UNL     1      14.984 -23.006 -46.643  1.00  0.00     0.234 C 
ATOM     14  O   UNL     1      15.259 -24.193 -46.793  1.00  0.00    -0.274 OA
ATOM     15  N   UNL     1      14.886 -22.339 -45.434  1.00  0.00    -0.325 N 
ATOM     16  H   UNL     1      14.498 -21.394 -45.469  1.00  0.00     0.169 HD
BRANCH  15  17
ATOM     17  C   UNL     1      15.110 -22.854 -44.142  1.00  0.00     0.041 A 
ATOM     18  C   UNL     1      16.409 -22.741 -43.630  1.00  0.00     0.026 A 
ATOM     19  C   UNL     1      14.127 -23.468 -43.362  1.00  0.00     0.039 A 
ATOM     20  C   UNL     1      16.719 -23.221 -42.357  1.00  0.00     0.003 A 
ATOM     21  C   UNL     1      14.428 -23.964 -42.080  1.00  0.00     0.058 A 
ATOM     22  C   UNL     1      15.732 -23.828 -41.583  1.00  0.00     0.013 A 
BRANCH  21  23
ATOM     23  C   UNL     1      13.345 -24.606 -41.250  1.00  0.00     0.416 C 
ATOM     24  F   UNL     1      13.715 -25.807 -40.720  1.00  0.00    -0.166 F 
ATOM     25  F   UNL     1      12.206 -24.853 -41.955  1.00  0.00    -0.166 F 
ATOM     26  F   UNL     1      12.974 -23.835 -40.191  1.00  0.00    -0.166 F 
ENDBRANCH  21  23
ENDBRANCH  15  17
ENDBRANCH   1  13
TORSDOF 6
ENDMDL
MODEL 3
REMARK VINA RESULT:    -7.194      2.606      3.466
REMARK INTER + INTRA:         -10.224
REMARK INTER:                  -9.451
REMARK INTRA:                  -0.772
REMARK UNBOUND:                -0.716
REMARK SMILES Nn1c(SCC(=O)Nc2cccc(C(F)(F)F)c2)nncc1=O
REMARK SMILES IDX 5 1 4 2 3 3 2 4 22 5 19 6 21 7 23 8 20 9 1 10 6 13 7 14 8 15
REMARK SMILES IDX 9 17 10 18 18 19 11 20 13 21 12 22 14 23 15 24 16 25 17 26
REMARK H PARENT 1 11 1 12 8 16
ROOT
ATOM      1  C   UNL     1      14.617 -21.952 -47.927  1.00  0.00     0.178 C 
ENDROOT
BRANCH   1   2
ATOM      2  S   UNL     1      13.140 -20.910 -47.740  1.00  0.00    -0.074 SA
BRANCH   2   3
ATOM      3  C   UNL     1      11.898 -21.998 -48.332  1.00  0.00     0.211 C 
ATOM      4  N   UNL     1      11.601 -21.955 -49.681  1.00  0.00    -0.199 N 
ATOM      5  C   UNL     1      10.590 -22.752 -50.176  1.00  0.00     0.291 C 
ATOM      6  N   UNL     1      11.296 -22.775 -47.484  1.00  0.00    -0.123 NA
ATOM      7  C   UNL     1       9.985 -23.671 -49.168  1.00  0.00     0.209 C 
ATOM      8  O   UNL     1      10.154 -22.757 -51.320  1.00  0.00    -0.266 OA
ATOM      9  N   UNL     1      10.322 -23.679 -47.919  1.00  0.00    -0.151 NA
BRANCH   4  10
ATOM     10  N   UNL     1      12.296 -21.105 -50.601  1.00  0.00    -0.334 NA
ATOM     11  H   UNL     1      12.928 -20.511 -50.061  1.00  0.00     0.178 HD
ATOM     12  H   UNL     1      11.604 -20.477 -51.024  1.00  0.00     0.178 HD
ENDBRANCH   4  10
ENDBRANCH   2   3
ENDBRANCH   1   2
BRANCH   1  13
ATOM     13  C   UNL     1      14.808 -22.860 -46.718  1.00  0.00     0.234 C 
ATOM     14  O   UNL     1      15.637 -23.767 -46.739  1.00  0.00    -0.274 OA
ATOM     15  N   UNL     1      13.969 -22.548 -45.662  1.00  0.00    -0.325 N 
ATOM     16  H   UNL     1      13.233 -21.867 -45.857  1.00  0.00     0.169 HD
BRANCH  15  17
ATOM     17  C   UNL     1      13.907 -23.164 -44.397  1.00  0.00     0.041 A 
ATOM     18  C   UNL     1      12.705 -23.800 -44.060  1.00  0.00     0.026 A 
ATOM     19  C   UNL     1      14.955 -23.167 -43.474  1.00  0.00     0.039 A 
ATOM     20  C   UNL     1      12.557 -24.439 -42.828  1.00  0.00     0.003 A 
ATOM     21  C   UNL     1      14.816 -23.800 -42.225  1.00  0.00     0.058 A 
ATOM     22  C   UNL     1      13.609 -24.443 -41.915  1.00  0.00     0.013 A 
BRANCH  21  23
ATOM     23  C   UNL     1      15.970 -23.806 -41.254  1.00  0.00     0.416 C 
ATOM     24  F   UNL     1      15.572 -23.818 -39.949  1.00  0.00    -0.166 F 
ATOM     25  F   UNL     1      16.780 -22.719 -41.380  1.00  0.00    -0.166 F 
ATOM     26  F   UNL     1      16.773 -24.895 -41.405  1.00  0.00    -0.166 F 
ENDBRANCH  21  23
ENDBRANCH  15  17
ENDBRANCH   1  13
TORSDOF 6
ENDMDL
MODEL 4
REMARK VINA RESULT:    -7.070      2.519      3.170
REMARK INTER + INTRA:         -10.060
REMARK INTER:                  -9.263
REMARK INTRA:                  -0.797
REMARK UNBOUND:                -0.716
REMARK SMILES Nn1c(SCC(=O)Nc2cccc(C(F)(F)F)c2)nncc1=O
REMARK SMILES IDX 5 1 4 2 3 3 2 4 22 5 19 6 21 7 23 8 20 9 1 10 6 13 7 14 8 15
REMARK SMILES IDX 9 17 10 18 18 19 11 20 13 21 12 22 14 23 15 24 16 25 17 26
REMARK H PARENT 1 11 1 12 8 16
ROOT
ATOM      1  C   UNL     1      14.679 -21.963 -47.873  1.00  0.00     0.178 C 
ENDROOT
BRANCH   1   2
ATOM      2  S   UNL     1      13.195 -21.009 -47.442  1.00  0.00    -0.074 SA
BRANCH   2   3
ATOM      3  C   UNL     1      11.996 -21.797 -48.453  1.00  0.00     0.211 C 
ATOM      4  N   UNL     1      11.361 -22.912 -47.940  1.00  0.00    -0.199 N 
ATOM      5  C   UNL     1      10.456 -23.594 -48.724  1.00  0.00     0.291 C 
ATOM      6  N   UNL     1      11.774 -21.320 -49.639  1.00  0.00    -0.123 NA
ATOM      7  C   UNL     1      10.192 -22.959 -50.049  1.00  0.00     0.209 C 
ATOM      8  O   UNL     1       9.887 -24.642 -48.446  1.00  0.00    -0.266 OA
ATOM      9  N   UNL     1      10.805 -21.898 -50.465  1.00  0.00    -0.151 NA
BRANCH   4  10
ATOM     10  N   UNL     1      11.608 -23.405 -46.617  1.00  0.00    -0.334 NA
ATOM     11  H   UNL     1      12.316 -22.806 -46.187  1.00  0.00     0.178 HD
ATOM     12  H   UNL     1      12.035 -24.333 -46.709  1.00  0.00     0.178 HD
ENDBRANCH   4  10
ENDBRANCH   2   3
ENDBRANCH   1   2
BRANCH   1  13
ATOM     13  C   UNL     1      15.189 -22.761 -46.680  1.00  0.00     0.234 C 
ATOM     14  O   UNL     1      15.990 -23.679 -46.834  1.00  0.00    -0.274 OA
ATOM     15  N   UNL     1      14.654 -22.341 -45.474  1.00  0.00    -0.325 N 
ATOM     16  H   UNL     1      13.886 -21.670 -45.530  1.00  0.00     0.169 HD
BRANCH  15  17
ATOM     17  C   UNL     1      14.930 -22.839 -44.186  1.00  0.00     0.041 A 
ATOM     18  C   UNL     1      16.230 -22.650 -43.698  1.00  0.00     0.026 A 
ATOM     19  C   UNL     1      13.999 -23.507 -43.387  1.00  0.00     0.039 A 
ATOM     20  C   UNL     1      16.590 -23.109 -42.430  1.00  0.00     0.003 A 
ATOM     21  C   UNL     1      14.351 -23.981 -42.110  1.00  0.00     0.058 A 
ATOM     22  C   UNL     1      15.654 -23.769 -41.637  1.00  0.00     0.013 A 
BRANCH  21  23
ATOM     23  C   UNL     1      13.322 -24.682 -41.259  1.00  0.00     0.416 C 
ATOM     24  F   UNL     1      12.855 -23.909 -40.237  1.00  0.00    -0.166 F 
ATOM     25  F   UNL     1      13.795 -25.817 -40.674  1.00  0.00    -0.166 F 
ATOM     26  F   UNL     1      12.223 -25.055 -41.971  1.00  0.00    -0.166 F 
ENDBRANCH  21  23
ENDBRANCH  15  17
ENDBRANCH   1  13
TORSDOF 6
ENDMDL
MODEL 5
REMARK VINA RESULT:    -6.960      1.999      2.593
REMARK INTER + INTRA:          -9.914
REMARK INTER:                  -9.165
REMARK INTRA:                  -0.750
REMARK UNBOUND:                -0.716
REMARK SMILES Nn1c(SCC(=O)Nc2cccc(C(F)(F)F)c2)nncc1=O
REMARK SMILES IDX 5 1 4 2 3 3 2 4 22 5 19 6 21 7 23 8 20 9 1 10 6 13 7 14 8 15
REMARK SMILES IDX 9 17 10 18 18 19 11 20 13 21 12 22 14 23 15 24 16 25 17 26
REMARK H PARENT 1 11 1 12 8 16
ROOT
ATOM      1  C   UNL     1      10.615 -24.571 -47.154  1.00  0.00     0.178 C 
ENDROOT
BRANCH   1   2
ATOM      2  S   UNL     1      11.327 -24.720 -48.818  1.00  0.00    -0.074 SA
BRANCH   2   3
ATOM      3  C   UNL     1      12.310 -23.267 -48.882  1.00  0.00     0.211 C 
ATOM      4  N   UNL     1      11.836 -22.208 -49.633  1.00  0.00    -0.199 N 
ATOM      5  C   UNL     1      12.605 -21.070 -49.756  1.00  0.00     0.291 C 
ATOM      6  N   UNL     1      13.442 -23.255 -48.249  1.00  0.00    -0.123 NA
ATOM      7  C   UNL     1      13.862 -21.090 -48.950  1.00  0.00     0.209 C 
ATOM      8  O   UNL     1      12.364 -20.094 -50.455  1.00  0.00    -0.266 OA
ATOM      9  N   UNL     1      14.241 -22.108 -48.248  1.00  0.00    -0.151 NA
BRANCH   4  10
ATOM     10  N   UNL     1      10.571 -22.237 -50.304  1.00  0.00    -0.334 NA
ATOM     11  H   UNL     1      10.681 -22.791 -51.156  1.00  0.00     0.178 HD
ATOM     12  H   UNL     1      10.361 -21.281 -50.610  1.00  0.00     0.178 HD
ENDBRANCH   4  10
ENDBRANCH   2   3
ENDBRANCH   1   2
BRANCH   1  13
ATOM     13  C   UNL     1      11.640 -24.919 -46.082  1.00  0.00     0.234 C 
ATOM     14  O   UNL     1      12.043 -26.072 -45.949  1.00  0.00    -0.274 OA
ATOM     15  N   UNL     1      12.025 -23.829 -45.320  1.00  0.00    -0.325 N 
ATOM     16  H   UNL     1      11.485 -22.972 -45.453  1.00  0.00     0.169 HD
BRANCH  15  17
ATOM     17  C   UNL     1      12.968 -23.795 -44.274  1.00  0.00     0.041 A 
ATOM     18  C   UNL     1      14.206 -23.202 -44.553  1.00  0.00     0.026 A 
ATOM     19  C   UNL     1      12.742 -24.320 -42.999  1.00  0.00     0.039 A 
ATOM     20  C   UNL     1      15.196 -23.123 -43.574  1.00  0.00     0.003 A 
ATOM     21  C   UNL     1      13.736 -24.254 -42.005  1.00  0.00     0.058 A 
ATOM     22  C   UNL     1      14.962 -23.643 -42.303  1.00  0.00     0.013 A 
BRANCH  21  23
ATOM     23  C   UNL     1      13.461 -24.810 -40.630  1.00  0.00     0.416 C 
ATOM     24  F   UNL     1      12.909 -23.895 -39.782  1.00  0.00    -0.166 F 
ATOM     25  F   UNL     1      14.581 -25.263 -40.003  1.00  0.00    -0.166 F 
ATOM     26  F   UNL     1      12.593 -25.859 -40.657  1.00  0.00    -0.166 F 
ENDBRANCH  21  23
ENDBRANCH  15  17
ENDBRANCH   1  13
TORSDOF 6
ENDMDL
MODEL 6
REMARK VINA RESULT:    -6.909      2.742      3.260
REMARK INTER + INTRA:          -9.847
REMARK INTER:                  -9.164
REMARK INTRA:                  -0.684
REMARK UNBOUND:                -0.716
REMARK SMILES Nn1c(SCC(=O)Nc2cccc(C(F)(F)F)c2)nncc1=O
REMARK SMILES IDX 5 1 4 2 3 3 2 4 22 5 19 6 21 7 23 8 20 9 1 10 6 13 7 14 8 15
REMARK SMILES IDX 9 17 10 18 18 19 11 20 13 21 12 22 14 23 15 24 16 25 17 26
REMARK H PARENT 1 11 1 12 8 16
ROOT
ATOM      1  C   UNL     1      12.284 -23.760 -48.872  1.00  0.00     0.178 C 
ENDROOT
BRANCH   1   2
ATOM      2  S   UNL     1      11.575 -22.094 -48.737  1.00  0.00    -0.074 SA
BRANCH   2   3
ATOM      3  C   UNL     1      12.384 -21.288 -50.069  1.00  0.00     0.211 C 
ATOM      4  N   UNL     1      13.018 -20.089 -49.801  1.00  0.00    -0.199 N 
ATOM      5  C   UNL     1      13.615 -19.396 -50.833  1.00  0.00     0.291 C 
ATOM      6  N   UNL     1      12.333 -21.831 -51.247  1.00  0.00    -0.123 NA
ATOM      7  C   UNL     1      13.584 -20.104 -52.146  1.00  0.00     0.209 C 
ATOM      8  O   UNL     1      14.131 -18.288 -50.769  1.00  0.00    -0.266 OA
ATOM      9  N   UNL     1      12.991 -21.240 -52.329  1.00  0.00    -0.151 NA
BRANCH   4  10
ATOM     10  N   UNL     1      13.079 -19.521 -48.488  1.00  0.00    -0.334 NA
ATOM     11  H   UNL     1      12.258 -18.925 -48.366  1.00  0.00     0.178 HD
ATOM     12  H   UNL     1      13.893 -18.897 -48.459  1.00  0.00     0.178 HD
ENDBRANCH   4  10
ENDBRANCH   2   3
ENDBRANCH   1   2
BRANCH   1  13
ATOM     13  C   UNL     1      13.141 -24.096 -47.657  1.00  0.00     0.234 C 
ATOM     14  O   UNL     1      13.371 -25.263 -47.354  1.00  0.00    -0.274 OA
ATOM     15  N   UNL     1      13.590 -22.975 -46.980  1.00  0.00    -0.325 N 
ATOM     16  H   UNL     1      13.186 -22.082 -47.267  1.00  0.00     0.169 HD
BRANCH  15  17
ATOM     17  C   UNL     1      14.420 -22.927 -45.842  1.00  0.00     0.041 A 
ATOM     18  C   UNL     1      13.803 -23.119 -44.599  1.00  0.00     0.026 A 
ATOM     19  C   UNL     1      15.796 -22.695 -45.885  1.00  0.00     0.039 A 
ATOM     20  C   UNL     1      14.550 -23.091 -43.421  1.00  0.00     0.003 A 
ATOM     21  C   UNL     1      16.560 -22.657 -44.704  1.00  0.00     0.058 A 
ATOM     22  C   UNL     1      15.923 -22.865 -43.472  1.00  0.00     0.013 A 
BRANCH  21  23
ATOM     23  C   UNL     1      18.048 -22.424 -44.778  1.00  0.00     0.416 C 
ATOM     24  F   UNL     1      18.705 -22.785 -43.639  1.00  0.00    -0.166 F 
ATOM     25  F   UNL     1      18.374 -21.119 -44.992  1.00  0.00    -0.166 F 
ATOM     26  F   UNL     1      18.636 -23.130 -45.783  1.00  0.00    -0.166 F 
ENDBRANCH  21  23
ENDBRANCH  15  17
ENDBRANCH   1  13
TORSDOF 6
ENDMDL
MODEL 7
REMARK VINA RESULT:    -6.870      5.231      8.831
REMARK INTER + INTRA:          -9.795
REMARK INTER:                  -9.100
REMARK INTRA:                  -0.695
REMARK UNBOUND:                -0.716
REMARK SMILES Nn1c(SCC(=O)Nc2cccc(C(F)(F)F)c2)nncc1=O
REMARK SMILES IDX 5 1 4 2 3 3 2 4 22 5 19 6 21 7 23 8 20 9 1 10 6 13 7 14 8 15
REMARK SMILES IDX 9 17 10 18 18 19 11 20 13 21 12 22 14 23 15 24 16 25 17 26
REMARK H PARENT 1 11 1 12 8 16
ROOT
ATOM      1  C   UNL     1      16.268 -22.335 -43.191  1.00  0.00     0.178 C 
ENDROOT
BRANCH   1   2
ATOM      2  S   UNL     1      16.695 -23.908 -42.388  1.00  0.00    -0.074 SA
BRANCH   2   3
ATOM      3  C   UNL     1      15.260 -24.175 -41.414  1.00  0.00     0.211 C 
ATOM      4  N   UNL     1      15.433 -24.327 -40.051  1.00  0.00    -0.199 N 
ATOM      5  C   UNL     1      14.338 -24.597 -39.258  1.00  0.00     0.291 C 
ATOM      6  N   UNL     1      14.109 -24.243 -42.009  1.00  0.00    -0.123 NA
ATOM      7  C   UNL     1      13.036 -24.593 -39.988  1.00  0.00     0.209 C 
ATOM      8  O   UNL     1      14.344 -24.845 -38.059  1.00  0.00    -0.266 OA
ATOM      9  N   UNL     1      12.937 -24.423 -41.267  1.00  0.00    -0.151 NA
BRANCH   4  10
ATOM     10  N   UNL     1      16.713 -24.225 -39.415  1.00  0.00    -0.334 NA
ATOM     11  H   UNL     1      17.336 -24.905 -39.856  1.00  0.00     0.178 HD
ATOM     12  H   UNL     1      16.599 -24.529 -38.442  1.00  0.00     0.178 HD
ENDBRANCH   4  10
ENDBRANCH   2   3
ENDBRANCH   1   2
BRANCH   1  13
ATOM     13  C   UNL     1      15.982 -22.532 -44.675  1.00  0.00     0.234 C 
ATOM     14  O   UNL     1      16.901 -22.662 -45.479  1.00  0.00    -0.274 OA
ATOM     15  N   UNL     1      14.630 -22.537 -44.974  1.00  0.00    -0.325 N 
ATOM     16  H   UNL     1      13.999 -22.263 -44.219  1.00  0.00     0.169 HD
BRANCH  15  17
ATOM     17  C   UNL     1      14.024 -22.723 -46.232  1.00  0.00     0.041 A 
ATOM     18  C   UNL     1      13.539 -24.006 -46.520  1.00  0.00     0.026 A 
ATOM     19  C   UNL     1      13.892 -21.719 -47.194  1.00  0.00     0.039 A 
ATOM     20  C   UNL     1      12.921 -24.278 -47.741  1.00  0.00     0.003 A 
ATOM     21  C   UNL     1      13.278 -21.982 -48.433  1.00  0.00     0.058 A 
ATOM     22  C   UNL     1      12.788 -23.269 -48.693  1.00  0.00     0.013 A 
BRANCH  21  23
ATOM     23  C   UNL     1      13.130 -20.876 -49.447  1.00  0.00     0.416 C 
ATOM     24  F   UNL     1      13.259 -19.631 -48.905  1.00  0.00    -0.166 F 
ATOM     25  F   UNL     1      11.919 -20.881 -50.070  1.00  0.00    -0.166 F 
ATOM     26  F   UNL     1      14.063 -20.947 -50.436  1.00  0.00    -0.166 F 
ENDBRANCH  21  23
ENDBRANCH  15  17
ENDBRANCH   1  13
TORSDOF 6
ENDMDL
MODEL 8
REMARK VINA RESULT:    -6.821      1.908      2.228
REMARK INTER + INTRA:          -9.730
REMARK INTER:                  -8.765
REMARK INTRA:                  -0.965
REMARK UNBOUND:                -0.716
REMARK SMILES Nn1c(SCC(=O)Nc2cccc(C(F)(F)F)c2)nncc1=O
REMARK SMILES IDX 5 1 4 2 3 3 2 4 22 5 19 6 21 7 23 8 20 9 1 10 6 13 7 14 8 15
REMARK SMILES IDX 9 17 10 18 18 19 11 20 13 21 12 22 14 23 15 24 16 25 17 26
REMARK H PARENT 1 11 1 12 8 16
ROOT
ATOM      1  C   UNL     1      12.828 -25.289 -47.531  1.00  0.00     0.178 C 
ENDROOT
BRANCH   1   2
ATOM      2  S   UNL     1      11.397 -24.198 -47.285  1.00  0.00    -0.074 SA
BRANCH   2   3
ATOM      3  C   UNL     1      11.795 -22.887 -48.383  1.00  0.00     0.211 C 
ATOM      4  N   UNL     1      12.383 -21.759 -47.844  1.00  0.00    -0.199 N 
ATOM      5  C   UNL     1      12.657 -20.684 -48.663  1.00  0.00     0.291 C 
ATOM      6  N   UNL     1      11.502 -23.020 -49.640  1.00  0.00    -0.123 NA
ATOM      7  C   UNL     1      12.363 -20.923 -50.107  1.00  0.00     0.209 C 
ATOM      8  O   UNL     1      13.088 -19.591 -48.319  1.00  0.00    -0.266 OA
ATOM      9  N   UNL     1      11.830 -22.014 -50.554  1.00  0.00    -0.151 NA
BRANCH   4  10
ATOM     10  N   UNL     1      12.717 -21.646 -46.456  1.00  0.00    -0.334 NA
ATOM     11  H   UNL     1      13.355 -22.411 -46.225  1.00  0.00     0.178 HD
ATOM     12  H   UNL     1      11.861 -21.816 -45.917  1.00  0.00     0.178 HD
ENDBRANCH   4  10
ENDBRANCH   2   3
ENDBRANCH   1   2
BRANCH   1  13
ATOM     13  C   UNL     1      13.719 -25.317 -46.296  1.00  0.00     0.234 C 
ATOM     14  O   UNL     1      14.655 -26.109 -46.214  1.00  0.00    -0.274 OA
ATOM     15  N   UNL     1      13.350 -24.390 -45.335  1.00  0.00    -0.325 N 
ATOM     16  H   UNL     1      12.460 -23.913 -45.487  1.00  0.00     0.169 HD
BRANCH  15  17
ATOM     17  C   UNL     1      13.972 -24.135 -44.098  1.00  0.00     0.041 A 
ATOM     18  C   UNL     1      15.151 -23.378 -44.124  1.00  0.00     0.026 A 
ATOM     19  C   UNL     1      13.491 -24.594 -42.869  1.00  0.00     0.039 A 
ATOM     20  C   UNL     1      15.830 -23.074 -42.944  1.00  0.00     0.003 A 
ATOM     21  C   UNL     1      14.171 -24.302 -41.673  1.00  0.00     0.058 A 
ATOM     22  C   UNL     1      15.341 -23.530 -41.722  1.00  0.00     0.013 A 
BRANCH  21  23
ATOM     23  C   UNL     1      13.621 -24.793 -40.357  1.00  0.00     0.416 C 
ATOM     24  F   UNL     1      12.697 -25.785 -40.499  1.00  0.00    -0.166 F 
ATOM     25  F   UNL     1      13.002 -23.816 -39.638  1.00  0.00    -0.166 F 
ATOM     26  F   UNL     1      14.588 -25.303 -39.545  1.00  0.00    -0.166 F 
ENDBRANCH  21  23
ENDBRANCH  15  17
ENDBRANCH   1  13
TORSDOF 6
ENDMDL
MODEL 9
REMARK VINA RESULT:    -6.812      2.658      3.565
REMARK INTER + INTRA:          -9.719
REMARK INTER:                  -9.271
REMARK INTRA:                  -0.447
REMARK UNBOUND:                -0.716
REMARK SMILES Nn1c(SCC(=O)Nc2cccc(C(F)(F)F)c2)nncc1=O
REMARK SMILES IDX 5 1 4 2 3 3 2 4 22 5 19 6 21 7 23 8 20 9 1 10 6 13 7 14 8 15
REMARK SMILES IDX 9 17 10 18 18 19 11 20 13 21 12 22 14 23 15 24 16 25 17 26
REMARK H PARENT 1 11 1 12 8 16
ROOT
ATOM      1  C   UNL     1      14.462 -23.129 -45.467  1.00  0.00     0.178 C 
ENDROOT
BRANCH   1   2
ATOM      2  S   UNL     1      12.648 -23.045 -45.425  1.00  0.00    -0.074 SA
BRANCH   2   3
ATOM      3  C   UNL     1      12.284 -23.039 -47.142  1.00  0.00     0.211 C 
ATOM      4  N   UNL     1      12.238 -21.815 -47.781  1.00  0.00    -0.199 N 
ATOM      5  C   UNL     1      11.898 -21.763 -49.116  1.00  0.00     0.291 C 
ATOM      6  N   UNL     1      12.049 -24.171 -47.730  1.00  0.00    -0.123 NA
ATOM      7  C   UNL     1      11.709 -23.099 -49.753  1.00  0.00     0.209 C 
ATOM      8  O   UNL     1      11.728 -20.755 -49.791  1.00  0.00    -0.266 OA
ATOM      9  N   UNL     1      11.786 -24.215 -49.103  1.00  0.00    -0.151 NA
BRANCH   4  10
ATOM     10  N   UNL     1      12.524 -20.580 -47.113  1.00  0.00    -0.334 NA
ATOM     11  H   UNL     1      13.392 -20.703 -46.588  1.00  0.00     0.178 HD
ATOM     12  H   UNL     1      11.787 -20.429 -46.416  1.00  0.00     0.178 HD
ENDBRANCH   4  10
ENDBRANCH   2   3
ENDBRANCH   1   2
BRANCH   1  13
ATOM     13  C   UNL     1      15.048 -23.107 -44.060  1.00  0.00     0.234 C 
ATOM     14  O   UNL     1      15.795 -22.199 -43.705  1.00  0.00    -0.274 OA
ATOM     15  N   UNL     1      14.655 -24.188 -43.288  1.00  0.00    -0.325 N 
ATOM     16  H   UNL     1      14.158 -24.935 -43.777  1.00  0.00     0.169 HD
BRANCH  15  17
ATOM     17  C   UNL     1      14.988 -24.457 -41.947  1.00  0.00     0.041 A 
ATOM     18  C   UNL     1      16.274 -24.957 -41.700  1.00  0.00     0.026 A 
ATOM     19  C   UNL     1      14.120 -24.265 -40.870  1.00  0.00     0.039 A 
ATOM     20  C   UNL     1      16.689 -25.249 -40.400  1.00  0.00     0.003 A 
ATOM     21  C   UNL     1      14.523 -24.563 -39.555  1.00  0.00     0.058 A 
ATOM     22  C   UNL     1      15.819 -25.049 -39.330  1.00  0.00     0.013 A 
BRANCH  21  23
ATOM     23  C   UNL     1      13.573 -24.329 -38.407  1.00  0.00     0.416 C 
ATOM     24  F   UNL     1      12.440 -23.665 -38.775  1.00  0.00    -0.166 F 
ATOM     25  F   UNL     1      14.121 -23.590 -37.402  1.00  0.00    -0.166 F 
ATOM     26  F   UNL     1      13.151 -25.490 -37.835  1.00  0.00    -0.166 F 
ENDBRANCH  21  23
ENDBRANCH  15  17
ENDBRANCH   1  13
TORSDOF 6
ENDMDL
