REMARK SMILES Cc1ccc(C)c(C(=O)Nc2ccc(Cl)cc2C)c1
REMARK SMILES IDX 8 1 9 2 10 3 7 5 2 6 3 7 19 8 4 9 5 10 1 11 6 12 11 13 12 14
REMARK SMILES IDX 17 15 13 16 16 17 14 18 18 19 15 20
REMARK H PARENT 10 4
ROOT
ATOM      1  C   UNL     1      -0.507  -1.555  -0.167  1.00  0.00     0.255 C 
ATOM      2  O   UNL     1      -0.836  -2.680   0.182  1.00  0.00    -0.269 OA
ATOM      3  N   UNL     1      -0.167  -0.479   0.631  1.00  0.00    -0.322 N 
ATOM      4  H   UNL     1      -0.023   0.395   0.144  1.00  0.00     0.170 HD
ENDROOT
BRANCH   1   5
ATOM      5  C   UNL     1      -0.509  -1.239  -1.618  1.00  0.00     0.043 A 
ATOM      6  C   UNL     1      -1.821  -1.089  -3.659  1.00  0.00    -0.050 A 
ATOM      7  C   UNL     1      -0.692  -0.599  -4.323  1.00  0.00     0.004 A 
ATOM      8  C   UNL     1      -1.725  -1.398  -2.299  1.00  0.00     0.017 A 
ATOM      9  C   UNL     1       0.527  -0.460  -3.651  1.00  0.00     0.004 A 
ATOM     10  C   UNL     1       0.643  -0.797  -2.294  1.00  0.00    -0.038 A 
ATOM     11  C   UNL     1      -3.130  -1.225  -4.379  1.00  0.00     0.044 C 
ATOM     12  C   UNL     1       1.979  -0.665  -1.619  1.00  0.00     0.045 C 
ENDBRANCH   1   5
BRANCH   3  13
ATOM     13  C   UNL     1      -0.047  -0.445   2.039  1.00  0.00     0.044 A 
ATOM     14  C   UNL     1      -0.217  -1.588   2.831  1.00  0.00     0.028 A 
ATOM     15  C   UNL     1       0.266   0.782   2.666  1.00  0.00    -0.026 A 
ATOM     16  C   UNL     1      -0.088  -1.527   4.222  1.00  0.00     0.022 A 
ATOM     17  C   UNL     1       0.394   0.829   4.067  1.00  0.00     0.026 A 
ATOM     18  C   UNL     1       0.217  -0.319   4.835  1.00  0.00     0.041 A 
ATOM     19  C   UNL     1       0.469   2.056   1.890  1.00  0.00     0.046 C 
ATOM     20  Cl  UNL     1       0.378  -0.240   6.545  1.00  0.00    -0.084 Cl
ENDBRANCH   3  13
TORSDOF 2
