MODEL 1
REMARK VINA RESULT:    -7.995      0.000      0.000
REMARK INTER + INTRA:         -11.322
REMARK INTER:                 -10.799
REMARK INTRA:                  -0.522
REMARK UNBOUND:                -0.522
REMARK SMILES Oc1cccc(/C=N/Nc2nncn2/N=C/c2cccc(O)c2)c1
REMARK SMILES IDX 10 1 11 2 12 3 13 4 14 5 9 6 8 8 7 9 6 10 2 11 3 12 24 13
REMARK SMILES IDX 4 14 5 15 1 16 15 18 16 19 17 20 18 21 23 22 19 23 21 24
REMARK SMILES IDX 20 25 22 26
REMARK H PARENT 9 7 1 17 22 27
ROOT
ATOM      1  C   UNL     1      12.315 -22.352 -47.272  1.00  0.00     0.265 A 
ATOM      2  N   UNL     1      11.200 -22.680 -47.901  1.00  0.00    -0.108 NA
ATOM      3  N   UNL     1      10.738 -23.865 -47.387  1.00  0.00    -0.135 NA
ATOM      4  C   UNL     1      11.562 -24.217 -46.429  1.00  0.00     0.252 A 
ATOM      5  N   UNL     1      12.536 -23.268 -46.237  1.00  0.00    -0.185 N 
ENDROOT
BRANCH   1   6
ATOM      6  N   UNL     1      13.124 -21.310 -47.613  1.00  0.00    -0.244 N 
ATOM      7  H   UNL     1      13.001 -20.507 -46.997  1.00  0.00     0.193 HD
BRANCH   6   8
ATOM      8  N   UNL     1      13.582 -21.082 -48.875  1.00  0.00    -0.180 NA
ATOM      9  C   UNL     1      13.215 -19.960 -49.408  1.00  0.00     0.141 C 
BRANCH   9  10
ATOM     10  C   UNL     1      13.651 -19.568 -50.762  1.00  0.00    -0.002 A 
ATOM     11  C   UNL     1      13.988 -20.142 -53.072  1.00  0.00     0.116 A 
ATOM     12  C   UNL     1      14.445 -18.854 -53.335  1.00  0.00     0.046 A 
ATOM     13  C   UNL     1      13.588 -20.513 -51.791  1.00  0.00     0.056 A 
ATOM     14  C   UNL     1      14.507 -17.915 -52.306  1.00  0.00     0.004 A 
ATOM     15  C   UNL     1      14.111 -18.271 -51.017  1.00  0.00     0.010 A 
BRANCH  11  16
ATOM     16  O   UNL     1      13.947 -21.022 -54.113  1.00  0.00    -0.508 OA
ATOM     17  H   UNL     1      14.489 -21.798 -53.899  1.00  0.00     0.293 HD
ENDBRANCH  11  16
ENDBRANCH   9  10
ENDBRANCH   6   8
ENDBRANCH   1   6
BRANCH   5  18
ATOM     18  N   UNL     1      13.464 -23.364 -45.229  1.00  0.00    -0.172 NA
ATOM     19  C   UNL     1      13.016 -23.837 -44.112  1.00  0.00     0.142 C 
BRANCH  19  20
ATOM     20  C   UNL     1      13.862 -23.905 -42.903  1.00  0.00    -0.002 A 
ATOM     21  C   UNL     1      13.390 -24.494 -41.726  1.00  0.00     0.010 A 
ATOM     22  C   UNL     1      15.157 -23.388 -42.963  1.00  0.00     0.056 A 
ATOM     23  C   UNL     1      14.218 -24.562 -40.603  1.00  0.00     0.004 A 
ATOM     24  C   UNL     1      15.970 -23.462 -41.837  1.00  0.00     0.116 A 
ATOM     25  C   UNL     1      15.513 -24.044 -40.657  1.00  0.00     0.046 A 
BRANCH  24  26
ATOM     26  O   UNL     1      17.230 -22.948 -41.933  1.00  0.00    -0.508 OA
ATOM     27  H   UNL     1      17.489 -22.925 -42.869  1.00  0.00     0.293 HD
ENDBRANCH  24  26
ENDBRANCH  19  20
ENDBRANCH   5  18
TORSDOF 7
ENDMDL
MODEL 2
REMARK VINA RESULT:    -7.855      2.334      3.171
REMARK INTER + INTRA:         -11.133
REMARK INTER:                 -10.584
REMARK INTRA:                  -0.549
REMARK UNBOUND:                -0.522
REMARK SMILES Oc1cccc(/C=N/Nc2nncn2/N=C/c2cccc(O)c2)c1
REMARK SMILES IDX 10 1 11 2 12 3 13 4 14 5 9 6 8 8 7 9 6 10 2 11 3 12 24 13
REMARK SMILES IDX 4 14 5 15 1 16 15 18 16 19 17 20 18 21 23 22 19 23 21 24
REMARK SMILES IDX 20 25 22 26
REMARK H PARENT 9 7 1 17 22 27
ROOT
ATOM      1  C   UNL     1      11.820 -21.954 -50.024  1.00  0.00     0.265 A 
ATOM      2  N   UNL     1      11.136 -22.666 -50.903  1.00  0.00    -0.108 NA
ATOM      3  N   UNL     1      10.940 -23.924 -50.391  1.00  0.00    -0.135 NA
ATOM      4  C   UNL     1      11.478 -23.941 -49.195  1.00  0.00     0.252 A 
ATOM      5  N   UNL     1      11.977 -22.707 -48.856  1.00  0.00    -0.185 N 
ENDROOT
BRANCH   1   6
ATOM      6  N   UNL     1      12.314 -20.705 -50.252  1.00  0.00    -0.244 N 
ATOM      7  H   UNL     1      11.605 -19.981 -50.134  1.00  0.00     0.193 HD
BRANCH   6   8
ATOM      8  N   UNL     1      13.368 -20.438 -51.072  1.00  0.00    -0.180 NA
ATOM      9  C   UNL     1      13.313 -19.307 -51.701  1.00  0.00     0.141 C 
BRANCH   9  10
ATOM     10  C   UNL     1      14.394 -18.875 -52.609  1.00  0.00    -0.002 A 
ATOM     11  C   UNL     1      15.589 -17.099 -53.701  1.00  0.00     0.116 A 
ATOM     12  C   UNL     1      16.437 -18.025 -54.300  1.00  0.00     0.046 A 
ATOM     13  C   UNL     1      14.563 -17.509 -52.854  1.00  0.00     0.056 A 
ATOM     14  C   UNL     1      16.264 -19.387 -54.055  1.00  0.00     0.004 A 
ATOM     15  C   UNL     1      15.240 -19.815 -53.209  1.00  0.00     0.010 A 
BRANCH  11  16
ATOM     16  O   UNL     1      15.801 -15.780 -53.974  1.00  0.00    -0.508 OA
ATOM     17  H   UNL     1      14.954 -15.307 -53.955  1.00  0.00     0.293 HD
ENDBRANCH  11  16
ENDBRANCH   9  10
ENDBRANCH   6   8
ENDBRANCH   1   6
BRANCH   5  18
ATOM     18  N   UNL     1      12.509 -22.447 -47.617  1.00  0.00    -0.172 NA
ATOM     19  C   UNL     1      13.718 -22.873 -47.438  1.00  0.00     0.142 C 
BRANCH  19  20
ATOM     20  C   UNL     1      14.392 -22.766 -46.128  1.00  0.00    -0.002 A 
ATOM     21  C   UNL     1      13.754 -23.181 -44.954  1.00  0.00     0.010 A 
ATOM     22  C   UNL     1      15.693 -22.263 -46.084  1.00  0.00     0.056 A 
ATOM     23  C   UNL     1      14.422 -23.086 -43.731  1.00  0.00     0.004 A 
ATOM     24  C   UNL     1      16.346 -22.175 -44.860  1.00  0.00     0.116 A 
ATOM     25  C   UNL     1      15.722 -22.581 -43.682  1.00  0.00     0.046 A 
BRANCH  24  26
ATOM     26  O   UNL     1      17.616 -21.678 -44.855  1.00  0.00    -0.508 OA
ATOM     27  H   UNL     1      17.890 -21.512 -45.772  1.00  0.00     0.293 HD
ENDBRANCH  24  26
ENDBRANCH  19  20
ENDBRANCH   5  18
TORSDOF 7
ENDMDL
MODEL 3
REMARK VINA RESULT:    -7.827      4.306      8.329
REMARK INTER + INTRA:         -11.094
REMARK INTER:                 -10.263
REMARK INTRA:                  -0.831
REMARK UNBOUND:                -0.522
REMARK SMILES Oc1cccc(/C=N/Nc2nncn2/N=C/c2cccc(O)c2)c1
REMARK SMILES IDX 10 1 11 2 12 3 13 4 14 5 9 6 8 8 7 9 6 10 2 11 3 12 24 13
REMARK SMILES IDX 4 14 5 15 1 16 15 18 16 19 17 20 18 21 23 22 19 23 21 24
REMARK SMILES IDX 20 25 22 26
REMARK H PARENT 9 7 1 17 22 27
ROOT
ATOM      1  C   UNL     1      12.019 -24.084 -45.310  1.00  0.00     0.265 A 
ATOM      2  N   UNL     1      11.126 -24.030 -46.283  1.00  0.00    -0.108 NA
ATOM      3  N   UNL     1      11.489 -23.038 -47.158  1.00  0.00    -0.135 NA
ATOM      4  C   UNL     1      12.617 -22.531 -46.720  1.00  0.00     0.252 A 
ATOM      5  N   UNL     1      13.061 -23.199 -45.605  1.00  0.00    -0.185 N 
ENDROOT
BRANCH   1   6
ATOM      6  N   UNL     1      11.906 -24.856 -44.194  1.00  0.00    -0.244 N 
ATOM      7  H   UNL     1      10.939 -24.950 -43.884  1.00  0.00     0.193 HD
BRANCH   6   8
ATOM      8  N   UNL     1      12.891 -25.002 -43.264  1.00  0.00    -0.180 NA
ATOM      9  C   UNL     1      12.674 -24.422 -42.127  1.00  0.00     0.141 C 
BRANCH   9  10
ATOM     10  C   UNL     1      13.644 -24.510 -41.017  1.00  0.00    -0.002 A 
ATOM     11  C   UNL     1      14.136 -24.260 -38.678  1.00  0.00     0.116 A 
ATOM     12  C   UNL     1      15.443 -24.686 -38.897  1.00  0.00     0.046 A 
ATOM     13  C   UNL     1      13.226 -24.167 -39.728  1.00  0.00     0.056 A 
ATOM     14  C   UNL     1      15.856 -25.024 -40.185  1.00  0.00     0.004 A 
ATOM     15  C   UNL     1      14.957 -24.936 -41.249  1.00  0.00     0.010 A 
BRANCH  11  16
ATOM     16  O   UNL     1      13.783 -23.941 -37.400  1.00  0.00    -0.508 OA
ATOM     17  H   UNL     1      14.135 -24.611 -36.793  1.00  0.00     0.293 HD
ENDBRANCH  11  16
ENDBRANCH   9  10
ENDBRANCH   6   8
ENDBRANCH   1   6
BRANCH   5  18
ATOM     18  N   UNL     1      14.267 -22.913 -45.012  1.00  0.00    -0.172 NA
ATOM     19  C   UNL     1      15.260 -23.642 -45.408  1.00  0.00     0.142 C 
BRANCH  19  20
ATOM     20  C   UNL     1      16.598 -23.531 -44.791  1.00  0.00    -0.002 A 
ATOM     21  C   UNL     1      17.107 -24.556 -43.987  1.00  0.00     0.010 A 
ATOM     22  C   UNL     1      17.359 -22.390 -45.045  1.00  0.00     0.056 A 
ATOM     23  C   UNL     1      18.383 -24.433 -43.432  1.00  0.00     0.004 A 
ATOM     24  C   UNL     1      18.628 -22.281 -44.487  1.00  0.00     0.116 A 
ATOM     25  C   UNL     1      19.147 -23.292 -43.681  1.00  0.00     0.046 A 
BRANCH  24  26
ATOM     26  O   UNL     1      19.343 -21.152 -44.758  1.00  0.00    -0.508 OA
ATOM     27  H   UNL     1      18.772 -20.379 -44.619  1.00  0.00     0.293 HD
ENDBRANCH  24  26
ENDBRANCH  19  20
ENDBRANCH   5  18
TORSDOF 7
ENDMDL
MODEL 4
REMARK VINA RESULT:    -7.612      1.268      8.925
REMARK INTER + INTRA:         -10.804
REMARK INTER:                 -10.591
REMARK INTRA:                  -0.213
REMARK UNBOUND:                -0.522
REMARK SMILES Oc1cccc(/C=N/Nc2nncn2/N=C/c2cccc(O)c2)c1
REMARK SMILES IDX 10 1 11 2 12 3 13 4 14 5 9 6 8 8 7 9 6 10 2 11 3 12 24 13
REMARK SMILES IDX 4 14 5 15 1 16 15 18 16 19 17 20 18 21 23 22 19 23 21 24
REMARK SMILES IDX 20 25 22 26
REMARK H PARENT 9 7 1 17 22 27
ROOT
ATOM      1  C   UNL     1      11.514 -22.662 -48.013  1.00  0.00     0.265 A 
ATOM      2  N   UNL     1      10.524 -23.406 -47.553  1.00  0.00    -0.108 NA
ATOM      3  N   UNL     1       9.627 -23.621 -48.568  1.00  0.00    -0.135 NA
ATOM      4  C   UNL     1      10.107 -23.033 -49.637  1.00  0.00     0.252 A 
ATOM      5  N   UNL     1      11.340 -22.480 -49.389  1.00  0.00    -0.185 N 
ENDROOT
BRANCH   1   6
ATOM      6  N   UNL     1      12.513 -22.138 -47.249  1.00  0.00    -0.244 N 
ATOM      7  H   UNL     1      13.333 -21.888 -47.803  1.00  0.00     0.193 HD
BRANCH   6   8
ATOM      8  N   UNL     1      12.697 -22.426 -45.931  1.00  0.00    -0.180 NA
ATOM      9  C   UNL     1      13.826 -22.988 -45.635  1.00  0.00     0.141 C 
BRANCH   9  10
ATOM     10  C   UNL     1      14.172 -23.339 -44.244  1.00  0.00    -0.002 A 
ATOM     11  C   UNL     1      15.708 -23.206 -42.400  1.00  0.00     0.116 A 
ATOM     12  C   UNL     1      14.846 -23.966 -41.615  1.00  0.00     0.046 A 
ATOM     13  C   UNL     1      15.384 -22.885 -43.716  1.00  0.00     0.056 A 
ATOM     14  C   UNL     1      13.639 -24.419 -42.146  1.00  0.00     0.004 A 
ATOM     15  C   UNL     1      13.300 -24.107 -43.463  1.00  0.00     0.010 A 
BRANCH  11  16
ATOM     16  O   UNL     1      16.876 -22.789 -41.832  1.00  0.00    -0.508 OA
ATOM     17  H   UNL     1      16.995 -21.841 -42.002  1.00  0.00     0.293 HD
ENDBRANCH  11  16
ENDBRANCH   9  10
ENDBRANCH   6   8
ENDBRANCH   1   6
BRANCH   5  18
ATOM     18  N   UNL     1      12.089 -21.885 -50.376  1.00  0.00    -0.172 NA
ATOM     19  C   UNL     1      12.654 -20.771 -50.040  1.00  0.00     0.142 C 
BRANCH  19  20
ATOM     20  C   UNL     1      13.404 -19.957 -51.018  1.00  0.00    -0.002 A 
ATOM     21  C   UNL     1      13.701 -18.615 -50.761  1.00  0.00     0.010 A 
ATOM     22  C   UNL     1      13.835 -20.560 -52.201  1.00  0.00     0.056 A 
ATOM     23  C   UNL     1      14.429 -17.873 -51.695  1.00  0.00     0.004 A 
ATOM     24  C   UNL     1      14.558 -19.810 -53.121  1.00  0.00     0.116 A 
ATOM     25  C   UNL     1      14.859 -18.471 -52.880  1.00  0.00     0.046 A 
BRANCH  24  26
ATOM     26  O   UNL     1      14.963 -20.433 -54.265  1.00  0.00    -0.508 OA
ATOM     27  H   UNL     1      14.709 -21.369 -54.219  1.00  0.00     0.293 HD
ENDBRANCH  24  26
ENDBRANCH  19  20
ENDBRANCH   5  18
TORSDOF 7
ENDMDL
MODEL 5
REMARK VINA RESULT:    -7.607      1.754      2.077
REMARK INTER + INTRA:         -10.798
REMARK INTER:                 -10.382
REMARK INTRA:                  -0.416
REMARK UNBOUND:                -0.522
REMARK SMILES Oc1cccc(/C=N/Nc2nncn2/N=C/c2cccc(O)c2)c1
REMARK SMILES IDX 10 1 11 2 12 3 13 4 14 5 9 6 8 8 7 9 6 10 2 11 3 12 24 13
REMARK SMILES IDX 4 14 5 15 1 16 15 18 16 19 17 20 18 21 23 22 19 23 21 24
REMARK SMILES IDX 20 25 22 26
REMARK H PARENT 9 7 1 17 22 27
ROOT
ATOM      1  C   UNL     1      12.309 -22.232 -47.174  1.00  0.00     0.265 A 
ATOM      2  N   UNL     1      11.192 -22.666 -47.733  1.00  0.00    -0.108 NA
ATOM      3  N   UNL     1      10.930 -23.929 -47.267  1.00  0.00    -0.135 NA
ATOM      4  C   UNL     1      11.874 -24.226 -46.406  1.00  0.00     0.252 A 
ATOM      5  N   UNL     1      12.734 -23.169 -46.227  1.00  0.00    -0.185 N 
ENDROOT
BRANCH   1   6
ATOM      6  N   UNL     1      12.946 -21.074 -47.507  1.00  0.00    -0.244 N 
ATOM      7  H   UNL     1      12.576 -20.270 -46.999  1.00  0.00     0.193 HD
BRANCH   6   8
ATOM      8  N   UNL     1      13.544 -20.851 -48.709  1.00  0.00    -0.180 NA
ATOM      9  C   UNL     1      12.989 -19.943 -49.448  1.00  0.00     0.141 C 
BRANCH   9  10
ATOM     10  C   UNL     1      13.539 -19.580 -50.769  1.00  0.00    -0.002 A 
ATOM     11  C   UNL     1      14.015 -20.183 -53.046  1.00  0.00     0.116 A 
ATOM     12  C   UNL     1      14.548 -18.918 -53.280  1.00  0.00     0.046 A 
ATOM     13  C   UNL     1      13.508 -20.528 -51.796  1.00  0.00     0.056 A 
ATOM     14  C   UNL     1      14.578 -17.977 -52.252  1.00  0.00     0.004 A 
ATOM     15  C   UNL     1      14.075 -18.306 -50.993  1.00  0.00     0.010 A 
BRANCH  11  16
ATOM     16  O   UNL     1      14.009 -21.066 -54.085  1.00  0.00    -0.508 OA
ATOM     17  H   UNL     1      13.540 -21.872 -53.819  1.00  0.00     0.293 HD
ENDBRANCH  11  16
ENDBRANCH   9  10
ENDBRANCH   6   8
ENDBRANCH   1   6
BRANCH   5  18
ATOM     18  N   UNL     1      13.753 -23.202 -45.307  1.00  0.00    -0.172 NA
ATOM     19  C   UNL     1      14.936 -22.998 -45.790  1.00  0.00     0.142 C 
BRANCH  19  20
ATOM     20  C   UNL     1      16.146 -23.105 -44.949  1.00  0.00    -0.002 A 
ATOM     21  C   UNL     1      16.234 -24.063 -43.934  1.00  0.00     0.010 A 
ATOM     22  C   UNL     1      17.215 -22.245 -45.202  1.00  0.00     0.056 A 
ATOM     23  C   UNL     1      17.398 -24.156 -43.166  1.00  0.00     0.004 A 
ATOM     24  C   UNL     1      18.367 -22.349 -44.431  1.00  0.00     0.116 A 
ATOM     25  C   UNL     1      18.469 -23.296 -43.414  1.00  0.00     0.046 A 
BRANCH  24  26
ATOM     26  O   UNL     1      19.392 -21.492 -44.708  1.00  0.00    -0.508 OA
ATOM     27  H   UNL     1      19.835 -21.255 -43.876  1.00  0.00     0.293 HD
ENDBRANCH  24  26
ENDBRANCH  19  20
ENDBRANCH   5  18
TORSDOF 7
ENDMDL
MODEL 6
REMARK VINA RESULT:    -7.597      4.202      9.534
REMARK INTER + INTRA:         -10.784
REMARK INTER:                 -10.090
REMARK INTRA:                  -0.694
REMARK UNBOUND:                -0.522
REMARK SMILES Oc1cccc(/C=N/Nc2nncn2/N=C/c2cccc(O)c2)c1
REMARK SMILES IDX 10 1 11 2 12 3 13 4 14 5 9 6 8 8 7 9 6 10 2 11 3 12 24 13
REMARK SMILES IDX 4 14 5 15 1 16 15 18 16 19 17 20 18 21 23 22 19 23 21 24
REMARK SMILES IDX 20 25 22 26
REMARK H PARENT 9 7 1 17 22 27
ROOT
ATOM      1  C   UNL     1      18.718 -23.542 -43.720  1.00  0.00     0.265 A 
ATOM      2  N   UNL     1      19.956 -23.135 -43.502  1.00  0.00    -0.108 NA
ATOM      3  N   UNL     1      20.151 -21.949 -44.163  1.00  0.00    -0.135 NA
ATOM      4  C   UNL     1      19.016 -21.639 -44.742  1.00  0.00     0.252 A 
ATOM      5  N   UNL     1      18.036 -22.552 -44.436  1.00  0.00    -0.185 N 
ENDROOT
BRANCH   1   6
ATOM      6  N   UNL     1      18.217 -24.748 -43.333  1.00  0.00    -0.244 N 
ATOM      7  H   UNL     1      18.596 -25.519 -43.884  1.00  0.00     0.193 HD
BRANCH   6   8
ATOM      8  N   UNL     1      16.996 -24.917 -42.754  1.00  0.00    -0.180 NA
ATOM      9  C   UNL     1      16.759 -24.169 -41.724  1.00  0.00     0.141 C 
BRANCH   9  10
ATOM     10  C   UNL     1      15.471 -24.228 -41.006  1.00  0.00    -0.002 A 
ATOM     11  C   UNL     1      14.261 -24.229 -38.929  1.00  0.00     0.116 A 
ATOM     12  C   UNL     1      13.056 -24.315 -39.620  1.00  0.00     0.046 A 
ATOM     13  C   UNL     1      15.476 -24.185 -39.608  1.00  0.00     0.056 A 
ATOM     14  C   UNL     1      13.056 -24.360 -41.014  1.00  0.00     0.004 A 
ATOM     15  C   UNL     1      14.264 -24.318 -41.710  1.00  0.00     0.010 A 
BRANCH  11  16
ATOM     16  O   UNL     1      14.205 -24.188 -37.567  1.00  0.00    -0.508 OA
ATOM     17  H   UNL     1      14.608 -23.363 -37.254  1.00  0.00     0.293 HD
ENDBRANCH  11  16
ENDBRANCH   9  10
ENDBRANCH   6   8
ENDBRANCH   1   6
BRANCH   5  18
ATOM     18  N   UNL     1      16.736 -22.397 -44.849  1.00  0.00    -0.172 NA
ATOM     19  C   UNL     1      16.503 -22.747 -46.072  1.00  0.00     0.142 C 
BRANCH  19  20
ATOM     20  C   UNL     1      15.181 -22.544 -46.699  1.00  0.00    -0.002 A 
ATOM     21  C   UNL     1      15.070 -22.044 -48.001  1.00  0.00     0.010 A 
ATOM     22  C   UNL     1      14.037 -22.881 -45.974  1.00  0.00     0.056 A 
ATOM     23  C   UNL     1      13.808 -21.879 -48.576  1.00  0.00     0.004 A 
ATOM     24  C   UNL     1      12.787 -22.712 -46.560  1.00  0.00     0.116 A 
ATOM     25  C   UNL     1      12.662 -22.213 -47.854  1.00  0.00     0.046 A 
BRANCH  24  26
ATOM     26  O   UNL     1      11.692 -23.054 -45.822  1.00  0.00    -0.508 OA
ATOM     27  H   UNL     1      10.894 -22.874 -46.344  1.00  0.00     0.293 HD
ENDBRANCH  24  26
ENDBRANCH  19  20
ENDBRANCH   5  18
TORSDOF 7
ENDMDL
MODEL 7
REMARK VINA RESULT:    -7.502      1.854      8.619
REMARK INTER + INTRA:         -10.656
REMARK INTER:                 -10.179
REMARK INTRA:                  -0.477
REMARK UNBOUND:                -0.522
REMARK SMILES Oc1cccc(/C=N/Nc2nncn2/N=C/c2cccc(O)c2)c1
REMARK SMILES IDX 10 1 11 2 12 3 13 4 14 5 9 6 8 8 7 9 6 10 2 11 3 12 24 13
REMARK SMILES IDX 4 14 5 15 1 16 15 18 16 19 17 20 18 21 23 22 19 23 21 24
REMARK SMILES IDX 20 25 22 26
REMARK H PARENT 9 7 1 17 22 27
ROOT
ATOM      1  C   UNL     1      12.639 -22.457 -46.891  1.00  0.00     0.265 A 
ATOM      2  N   UNL     1      11.799 -23.236 -46.231  1.00  0.00    -0.108 NA
ATOM      3  N   UNL     1      10.880 -23.740 -47.115  1.00  0.00    -0.135 NA
ATOM      4  C   UNL     1      11.199 -23.286 -48.304  1.00  0.00     0.252 A 
ATOM      5  N   UNL     1      12.351 -22.539 -48.258  1.00  0.00    -0.185 N 
ENDROOT
BRANCH   1   6
ATOM      6  N   UNL     1      13.597 -21.681 -46.313  1.00  0.00    -0.244 N 
ATOM      7  H   UNL     1      13.476 -20.691 -46.528  1.00  0.00     0.193 HD
BRANCH   6   8
ATOM      8  N   UNL     1      14.850 -22.118 -46.005  1.00  0.00    -0.180 NA
ATOM      9  C   UNL     1      15.030 -22.471 -44.772  1.00  0.00     0.141 C 
BRANCH   9  10
ATOM     10  C   UNL     1      16.330 -22.983 -44.297  1.00  0.00    -0.002 A 
ATOM     11  C   UNL     1      18.731 -22.874 -44.328  1.00  0.00     0.116 A 
ATOM     12  C   UNL     1      18.800 -23.913 -43.404  1.00  0.00     0.046 A 
ATOM     13  C   UNL     1      17.504 -22.399 -44.783  1.00  0.00     0.056 A 
ATOM     14  C   UNL     1      17.627 -24.494 -42.923  1.00  0.00     0.004 A 
ATOM     15  C   UNL     1      16.389 -24.031 -43.370  1.00  0.00     0.010 A 
BRANCH  11  16
ATOM     16  O   UNL     1      19.907 -22.341 -44.766  1.00  0.00    -0.508 OA
ATOM     17  H   UNL     1      20.646 -22.782 -44.317  1.00  0.00     0.293 HD
ENDBRANCH  11  16
ENDBRANCH   9  10
ENDBRANCH   6   8
ENDBRANCH   1   6
BRANCH   5  18
ATOM     18  N   UNL     1      12.939 -22.029 -49.389  1.00  0.00    -0.172 NA
ATOM     19  C   UNL     1      12.945 -20.738 -49.472  1.00  0.00     0.142 C 
BRANCH  19  20
ATOM     20  C   UNL     1      13.444 -20.040 -50.674  1.00  0.00    -0.002 A 
ATOM     21  C   UNL     1      13.830 -18.696 -50.618  1.00  0.00     0.010 A 
ATOM     22  C   UNL     1      13.547 -20.754 -51.868  1.00  0.00     0.056 A 
ATOM     23  C   UNL     1      14.317 -18.066 -51.765  1.00  0.00     0.004 A 
ATOM     24  C   UNL     1      14.033 -20.113 -53.002  1.00  0.00     0.116 A 
ATOM     25  C   UNL     1      14.419 -18.775 -52.963  1.00  0.00     0.046 A 
BRANCH  24  26
ATOM     26  O   UNL     1      14.120 -20.843 -54.152  1.00  0.00    -0.508 OA
ATOM     27  H   UNL     1      13.233 -21.158 -54.390  1.00  0.00     0.293 HD
ENDBRANCH  24  26
ENDBRANCH  19  20
ENDBRANCH   5  18
TORSDOF 7
ENDMDL
MODEL 8
REMARK VINA RESULT:    -7.390      3.975      6.788
REMARK INTER + INTRA:         -10.504
REMARK INTER:                  -9.780
REMARK INTRA:                  -0.724
REMARK UNBOUND:                -0.522
REMARK SMILES Oc1cccc(/C=N/Nc2nncn2/N=C/c2cccc(O)c2)c1
REMARK SMILES IDX 10 1 11 2 12 3 13 4 14 5 9 6 8 8 7 9 6 10 2 11 3 12 24 13
REMARK SMILES IDX 4 14 5 15 1 16 15 18 16 19 17 20 18 21 23 22 19 23 21 24
REMARK SMILES IDX 20 25 22 26
REMARK H PARENT 9 7 1 17 22 27
ROOT
ATOM      1  C   UNL     1      12.552 -22.068 -46.897  1.00  0.00     0.265 A 
ATOM      2  N   UNL     1      12.624 -22.373 -45.613  1.00  0.00    -0.108 NA
ATOM      3  N   UNL     1      11.921 -23.531 -45.397  1.00  0.00    -0.135 NA
ATOM      4  C   UNL     1      11.464 -23.928 -46.560  1.00  0.00     0.252 A 
ATOM      5  N   UNL     1      11.894 -23.104 -47.571  1.00  0.00    -0.185 N 
ENDROOT
BRANCH   1   6
ATOM      6  N   UNL     1      13.016 -20.913 -47.449  1.00  0.00    -0.244 N 
ATOM      7  H   UNL     1      12.585 -20.086 -47.035  1.00  0.00     0.193 HD
BRANCH   6   8
ATOM      8  N   UNL     1      13.498 -20.813 -48.719  1.00  0.00    -0.180 NA
ATOM      9  C   UNL     1      13.159 -19.742 -49.362  1.00  0.00     0.141 C 
BRANCH   9  10
ATOM     10  C   UNL     1      13.622 -19.488 -50.740  1.00  0.00    -0.002 A 
ATOM     11  C   UNL     1      13.913 -20.259 -52.998  1.00  0.00     0.116 A 
ATOM     12  C   UNL     1      14.467 -19.033 -53.356  1.00  0.00     0.046 A 
ATOM     13  C   UNL     1      13.487 -20.500 -51.695  1.00  0.00     0.056 A 
ATOM     14  C   UNL     1      14.603 -18.027 -52.400  1.00  0.00     0.004 A 
ATOM     15  C   UNL     1      14.181 -18.253 -51.089  1.00  0.00     0.010 A 
BRANCH  11  16
ATOM     16  O   UNL     1      13.803 -21.209 -53.971  1.00  0.00    -0.508 OA
ATOM     17  H   UNL     1      14.565 -21.808 -53.921  1.00  0.00     0.293 HD
ENDBRANCH  11  16
ENDBRANCH   9  10
ENDBRANCH   6   8
ENDBRANCH   1   6
BRANCH   5  18
ATOM     18  N   UNL     1      11.623 -23.361 -48.892  1.00  0.00    -0.172 NA
ATOM     19  C   UNL     1      10.425 -23.061 -49.276  1.00  0.00     0.142 C 
BRANCH  19  20
ATOM     20  C   UNL     1       9.945 -23.375 -50.637  1.00  0.00    -0.002 A 
ATOM     21  C   UNL     1      10.714 -24.151 -51.511  1.00  0.00     0.010 A 
ATOM     22  C   UNL     1       8.693 -22.901 -51.032  1.00  0.00     0.056 A 
ATOM     23  C   UNL     1      10.228 -24.449 -52.786  1.00  0.00     0.004 A 
ATOM     24  C   UNL     1       8.221 -23.206 -52.303  1.00  0.00     0.116 A 
ATOM     25  C   UNL     1       8.977 -23.975 -53.186  1.00  0.00     0.046 A 
BRANCH  24  26
ATOM     26  O   UNL     1       6.993 -22.727 -52.654  1.00  0.00    -0.508 OA
ATOM     27  H   UNL     1       6.489 -23.439 -53.081  1.00  0.00     0.293 HD
ENDBRANCH  24  26
ENDBRANCH  19  20
ENDBRANCH   5  18
TORSDOF 7
ENDMDL
MODEL 9
REMARK VINA RESULT:    -7.318      4.007      5.430
REMARK INTER + INTRA:         -10.407
REMARK INTER:                  -9.955
REMARK INTRA:                  -0.453
REMARK UNBOUND:                -0.522
REMARK SMILES Oc1cccc(/C=N/Nc2nncn2/N=C/c2cccc(O)c2)c1
REMARK SMILES IDX 10 1 11 2 12 3 13 4 14 5 9 6 8 8 7 9 6 10 2 11 3 12 24 13
REMARK SMILES IDX 4 14 5 15 1 16 15 18 16 19 17 20 18 21 23 22 19 23 21 24
REMARK SMILES IDX 20 25 22 26
REMARK H PARENT 9 7 1 17 22 27
ROOT
ATOM      1  C   UNL     1      11.635 -22.503 -48.141  1.00  0.00     0.265 A 
ATOM      2  N   UNL     1      11.873 -21.713 -49.174  1.00  0.00    -0.108 NA
ATOM      3  N   UNL     1      12.664 -20.672 -48.758  1.00  0.00    -0.135 NA
ATOM      4  C   UNL     1      12.921 -20.867 -47.487  1.00  0.00     0.252 A 
ATOM      5  N   UNL     1      12.379 -22.050 -47.046  1.00  0.00    -0.185 N 
ENDROOT
BRANCH   1   6
ATOM      6  N   UNL     1      10.774 -23.559 -48.152  1.00  0.00    -0.244 N 
ATOM      7  H   UNL     1      11.237 -24.433 -48.402  1.00  0.00     0.193 HD
BRANCH   6   8
ATOM      8  N   UNL     1       9.438 -23.452 -48.392  1.00  0.00    -0.180 NA
ATOM      9  C   UNL     1       9.072 -23.680 -49.613  1.00  0.00     0.141 C 
BRANCH   9  10
ATOM     10  C   UNL     1       7.654 -23.620 -50.019  1.00  0.00    -0.002 A 
ATOM     11  C   UNL     1       5.957 -22.748 -51.481  1.00  0.00     0.116 A 
ATOM     12  C   UNL     1       4.989 -23.502 -50.823  1.00  0.00     0.046 A 
ATOM     13  C   UNL     1       7.292 -22.798 -51.090  1.00  0.00     0.056 A 
ATOM     14  C   UNL     1       5.353 -24.319 -49.753  1.00  0.00     0.004 A 
ATOM     15  C   UNL     1       6.687 -24.379 -49.348  1.00  0.00     0.010 A 
BRANCH  11  16
ATOM     16  O   UNL     1       5.548 -21.965 -52.520  1.00  0.00    -0.508 OA
ATOM     17  H   UNL     1       5.194 -21.131 -52.173  1.00  0.00     0.293 HD
ENDBRANCH  11  16
ENDBRANCH   9  10
ENDBRANCH   6   8
ENDBRANCH   1   6
BRANCH   5  18
ATOM     18  N   UNL     1      12.586 -22.522 -45.773  1.00  0.00    -0.172 NA
ATOM     19  C   UNL     1      13.822 -22.546 -45.391  1.00  0.00     0.142 C 
BRANCH  19  20
ATOM     20  C   UNL     1      14.221 -23.124 -44.091  1.00  0.00    -0.002 A 
ATOM     21  C   UNL     1      13.429 -24.088 -43.459  1.00  0.00     0.010 A 
ATOM     22  C   UNL     1      15.420 -22.706 -43.513  1.00  0.00     0.056 A 
ATOM     23  C   UNL     1      13.840 -24.632 -42.239  1.00  0.00     0.004 A 
ATOM     24  C   UNL     1      15.817 -23.256 -42.299  1.00  0.00     0.116 A 
ATOM     25  C   UNL     1      15.037 -24.215 -41.656  1.00  0.00     0.046 A 
BRANCH  24  26
ATOM     26  O   UNL     1      16.995 -22.824 -41.764  1.00  0.00    -0.508 OA
ATOM     27  H   UNL     1      17.177 -23.332 -40.956  1.00  0.00     0.293 HD
ENDBRANCH  24  26
ENDBRANCH  19  20
ENDBRANCH   5  18
TORSDOF 7
ENDMDL
