REMARK SMILES [H]/N=C1\NC(=[NH2+])NC(C)(C)N1c1cccc(OCCOc2ccc(NC(=O)/C=C\C(=O)[O-])cc2)c1
REMARK SMILES IDX 19 1 18 2 17 3 16 4 12 5 13 6 35 7 14 8 15 9 11 10 2 11 3 12
REMARK SMILES IDX 4 13 5 14 8 15 6 16 7 17 1 18 9 20 10 21 20 25 21 26 22 27
REMARK SMILES IDX 34 28 23 29 33 30 24 31 25 32 26 33 27 34 28 36 29 37 30 38
REMARK SMILES IDX 31 39 32 40
REMARK H PARENT 4 19 6 22 6 23 7 24 25 35
ROOT
ATOM      1  C   UNL     1       4.875  -1.148   1.180  1.00  0.00     0.271 C 
ENDROOT
BRANCH   1   2
ATOM      2  C   UNL     1       4.241  -1.704  -0.100  1.00  0.00     0.271 C 
BRANCH   2   3
ATOM      3  O   UNL     1       3.233  -0.787  -0.540  1.00  0.00    -0.490 OA
BRANCH   3   4
ATOM      4  C   UNL     1       2.211  -1.321  -1.271  1.00  0.00     0.121 A 
ATOM      5  C   UNL     1      -0.156  -1.084  -1.842  1.00  0.00     0.053 A 
ATOM      6  C   UNL     1      -0.033  -2.196  -2.683  1.00  0.00     0.027 A 
ATOM      7  C   UNL     1       0.986  -0.665  -1.137  1.00  0.00     0.073 A 
ATOM      8  C   UNL     1       1.196  -2.847  -2.833  1.00  0.00     0.006 A 
ATOM      9  C   UNL     1       2.321  -2.405  -2.135  1.00  0.00     0.046 A 
BRANCH   5  10
ATOM     10  N   UNL     1      -1.369  -0.389  -1.673  1.00  0.00    -0.264 N 
ATOM     11  N   UNL     1      -1.733  -1.068   0.580  1.00  0.00    -0.254 NA
ATOM     12  C   UNL     1      -1.888  -0.271  -0.412  1.00  0.00     0.267 C 
ATOM     13  N   UNL     1      -2.647   0.864  -0.201  1.00  0.00    -0.214 N 
ATOM     14  C   UNL     1      -2.898   1.801  -1.084  1.00  0.00     0.350 C 
ATOM     15  C   UNL     1      -1.966   0.340  -2.795  1.00  0.00     0.161 C 
ATOM     16  N   UNL     1      -3.508   2.933  -0.739  1.00  0.00    -0.290 N 
ATOM     17  N   UNL     1      -2.548   1.615  -2.359  1.00  0.00    -0.254 N 
ATOM     18  H   UNL     1      -2.200  -0.672   1.413  1.00  0.00     0.193 HD
ATOM     19  H   UNL     1      -2.922   1.041   0.771  1.00  0.00     0.270 HD
ATOM     20  C   UNL     1      -0.961   0.687  -3.913  1.00  0.00     0.078 C 
ATOM     21  C   UNL     1      -3.103  -0.507  -3.394  1.00  0.00     0.078 C 
ATOM     22  H   UNL     1      -3.724   3.701  -1.346  1.00  0.00     0.256 HD
ATOM     23  H   UNL     1      -3.730   3.071   0.274  1.00  0.00     0.256 HD
ATOM     24  H   UNL     1      -2.679   2.380  -3.000  1.00  0.00     0.262 HD
ENDBRANCH   5  10
ENDBRANCH   3   4
ENDBRANCH   2   3
ENDBRANCH   1   2
BRANCH   1  25
ATOM     25  O   UNL     1       4.141  -1.568   2.343  1.00  0.00    -0.490 OA
BRANCH  25  26
ATOM     26  C   UNL     1       3.072  -0.764   2.626  1.00  0.00     0.119 A 
ATOM     27  C   UNL     1       1.802  -1.322   2.545  1.00  0.00     0.048 A 
ATOM     28  C   UNL     1       3.231   0.544   3.075  1.00  0.00     0.048 A 
ATOM     29  C   UNL     1       0.683  -0.550   2.867  1.00  0.00     0.030 A 
ATOM     30  C   UNL     1       2.106   1.312   3.405  1.00  0.00     0.030 A 
ATOM     31  C   UNL     1       0.821   0.775   3.296  1.00  0.00     0.041 A 
BRANCH  31  32
ATOM     32  N   UNL     1      -0.362   1.475   3.613  1.00  0.00    -0.323 N 
ATOM     33  C   UNL     1      -0.472   2.711   4.195  1.00  0.00     0.248 C 
ATOM     34  O   UNL     1       0.442   3.470   4.503  1.00  0.00    -0.270 OA
ATOM     35  H   UNL     1      -1.243   1.000   3.395  1.00  0.00     0.170 HD
BRANCH  33  36
ATOM     36  C   UNL     1      -1.858   3.106   4.586  1.00  0.00     0.073 C 
ATOM     37  C   UNL     1      -3.020   2.937   3.938  1.00  0.00     0.030 C 
BRANCH  37  38
ATOM     38  C   UNL     1      -3.189   2.308   2.598  1.00  0.00     0.064 C 
ATOM     39  O   UNL     1      -2.727   1.145   2.413  1.00  0.00    -0.545 OA
ATOM     40  O   UNL     1      -3.776   2.996   1.715  1.00  0.00    -0.545 OA
ENDBRANCH  37  38
ENDBRANCH  33  36
ENDBRANCH  31  32
ENDBRANCH  25  26
ENDBRANCH   1  25
TORSDOF 9
