REMARK SMILES COc1ccc(C2=NN(c3ccc(/C=N/N)cc3)[C@H](c3ccc(OC)cc3)C2)cc1
REMARK SMILES IDX 10 1 11 2 12 3 13 4 17 5 18 6 9 7 7 8 8 9 28 10 19 11 6 12
REMARK SMILES IDX 3 13 4 14 30 15 5 16 29 17 2 18 1 19 20 20 21 21 27 22 22 23
REMARK SMILES IDX 26 24 23 25 24 26 25 27 14 28 15 29 16 30
REMARK H PARENT 16 31 16 32
ROOT
ATOM      1  C   UNL     1      -0.262  -1.071   1.500  1.00  0.00     0.060 A 
ATOM      2  C   UNL     1      -1.003  -2.184   1.070  1.00  0.00     0.028 A 
ATOM      3  C   UNL     1      -0.638  -3.493   1.417  1.00  0.00     0.012 A 
ATOM      4  C   UNL     1       0.486  -3.713   2.211  1.00  0.00    -0.005 A 
ATOM      5  C   UNL     1       1.243  -2.632   2.653  1.00  0.00     0.012 A 
ATOM      6  C   UNL     1       0.868  -1.331   2.297  1.00  0.00     0.028 A 
ENDROOT
BRANCH   1   7
ATOM      7  N   UNL     1      -0.608   0.236   1.161  1.00  0.00    -0.257 N 
ATOM      8  C   UNL     1      -0.536   2.374   1.327  1.00  0.00     0.071 C 
ATOM      9  N   UNL     1       0.118   1.294   1.629  1.00  0.00    -0.176 NA
ATOM     10  C   UNL     1      -1.858   2.150   0.647  1.00  0.00     0.091 C 
ATOM     11  C   UNL     1      -1.785   0.644   0.391  1.00  0.00     0.144 C 
BRANCH   8  12
ATOM     12  C   UNL     1      -0.045   3.734   1.654  1.00  0.00    -0.002 A 
ATOM     13  C   UNL     1       0.950   6.283   2.300  1.00  0.00     0.118 A 
ATOM     14  C   UNL     1       1.715   5.146   2.559  1.00  0.00     0.047 A 
ATOM     15  C   UNL     1      -0.313   6.137   1.719  1.00  0.00     0.047 A 
ATOM     16  C   UNL     1       1.219   3.877   2.238  1.00  0.00     0.014 A 
ATOM     17  C   UNL     1      -0.813   4.872   1.395  1.00  0.00     0.014 A 
BRANCH  13  18
ATOM     18  O   UNL     1       1.311   7.574   2.563  1.00  0.00    -0.497 OA
ATOM     19  C   UNL     1       2.591   7.776   3.151  1.00  0.00     0.278 C 
ENDBRANCH  13  18
ENDBRANCH   8  12
BRANCH  11  20
ATOM     20  C   UNL     1      -1.671   0.352  -1.098  1.00  0.00    -0.023 A 
ATOM     21  C   UNL     1      -0.446   0.403  -1.777  1.00  0.00     0.010 A 
ATOM     22  C   UNL     1      -2.829   0.063  -1.838  1.00  0.00     0.010 A 
ATOM     23  C   UNL     1      -0.382   0.156  -3.151  1.00  0.00     0.047 A 
ATOM     24  C   UNL     1      -2.763  -0.184  -3.215  1.00  0.00     0.047 A 
ATOM     25  C   UNL     1      -1.537  -0.139  -3.877  1.00  0.00     0.118 A 
BRANCH  25  26
ATOM     26  O   UNL     1      -1.334  -0.359  -5.211  1.00  0.00    -0.497 OA
ATOM     27  C   UNL     1      -2.475  -0.689  -5.991  1.00  0.00     0.278 C 
ENDBRANCH  25  26
ENDBRANCH  11  20
ENDBRANCH   1   7
BRANCH   4  28
ATOM     28  C   UNL     1       0.851  -5.098   2.567  1.00  0.00     0.140 C 
ATOM     29  N   UNL     1       1.878  -5.372   3.310  1.00  0.00    -0.191 NA
BRANCH  29  30
ATOM     30  N   UNL     1       2.069  -6.699   3.552  1.00  0.00    -0.323 N 
ATOM     31  H   UNL     1       2.759  -6.870   4.283  1.00  0.00     0.179 HD
ATOM     32  H   UNL     1       1.229  -7.265   3.660  1.00  0.00     0.179 HD
ENDBRANCH  29  30
ENDBRANCH   4  28
TORSDOF 7
