REMARK SMILES [H]/N=c1\[nH]c(-c2ccccc2)c(C(=O)Nc2cccc(C)c2C)s1
REMARK SMILES IDX 13 1 14 2 15 3 12 5 2 6 3 7 4 8 24 9 5 10 1 11 6 13 7 14
REMARK SMILES IDX 11 15 8 16 10 17 9 18 16 19 17 20 22 21 18 22 20 23 19 24
REMARK SMILES IDX 23 25 21 26
REMARK H PARENT 15 4 4 12
ROOT
ATOM      1  C   UNL     1      -0.318   0.111  -0.279  1.00  0.00     0.268 C 
ATOM      2  O   UNL     1       0.355  -0.773  -0.796  1.00  0.00    -0.268 OA
ATOM      3  N   UNL     1      -1.664   0.037   0.026  1.00  0.00    -0.321 N 
ATOM      4  H   UNL     1      -2.047   0.874   0.447  1.00  0.00     0.170 HD
ENDROOT
BRANCH   1   5
ATOM      5  C   UNL     1       0.301   1.425   0.089  1.00  0.00     0.120 C 
ATOM      6  N   UNL     1       0.645   4.953   1.375  1.00  0.00    -0.275 NA
ATOM      7  C   UNL     1       0.733   3.776   0.883  1.00  0.00     0.180 C 
ATOM      8  N   UNL     1       1.812   3.119   0.382  1.00  0.00    -0.330 N 
ATOM      9  S   UNL     1      -0.684   2.721   0.783  1.00  0.00    -0.091 SA
ATOM     10  C   UNL     1       1.587   1.817  -0.041  1.00  0.00     0.071 C 
ATOM     11  H   UNL     1       1.561   5.405   1.348  1.00  0.00     0.190 HD
ATOM     12  H   UNL     1       2.752   3.485   0.394  1.00  0.00     0.169 HD
BRANCH  10  13
ATOM     13  C   UNL     1       2.727   1.058  -0.559  1.00  0.00    -0.000 A 
ATOM     14  C   UNL     1       3.232  -0.047   0.138  1.00  0.00     0.010 A 
ATOM     15  C   UNL     1       3.359   1.466  -1.742  1.00  0.00     0.010 A 
ATOM     16  C   UNL     1       4.345  -0.738  -0.345  1.00  0.00     0.001 A 
ATOM     17  C   UNL     1       4.473   0.774  -2.223  1.00  0.00     0.001 A 
ATOM     18  C   UNL     1       4.965  -0.327  -1.524  1.00  0.00     0.000 A 
ENDBRANCH  10  13
ENDBRANCH   1   5
BRANCH   3  19
ATOM     19  C   UNL     1      -2.564  -1.038  -0.175  1.00  0.00     0.044 A 
ATOM     20  C   UNL     1      -2.156  -2.245  -0.753  1.00  0.00     0.026 A 
ATOM     21  C   UNL     1      -3.919  -0.882   0.224  1.00  0.00    -0.025 A 
ATOM     22  C   UNL     1      -3.057  -3.290  -0.941  1.00  0.00     0.002 A 
ATOM     23  C   UNL     1      -4.831  -1.951   0.029  1.00  0.00    -0.046 A 
ATOM     24  C   UNL     1      -4.383  -3.145  -0.554  1.00  0.00     0.004 A 
ATOM     25  C   UNL     1      -4.383   0.413   0.850  1.00  0.00     0.047 C 
ATOM     26  C   UNL     1      -6.281  -1.857   0.426  1.00  0.00     0.044 C 
ENDBRANCH   3  19
TORSDOF 3
