MODEL 1
REMARK VINA RESULT:    -6.430      0.000      0.000
REMARK INTER + INTRA:          -7.676
REMARK INTER:                  -7.558
REMARK INTRA:                  -0.118
REMARK UNBOUND:                -0.118
REMARK SMILES CC(C)CCn1cn[c-]2c(=O)nc(N)nc21
REMARK SMILES IDX 4 1 2 2 1 3 3 4 5 5 6 6 7 7 16 8 8 9 15 10 9 11 13 12 10 13
REMARK SMILES IDX 12 14 14 15 11 16
REMARK H PARENT 14 17 14 18
ROOT
ATOM      1  C   UNL     1      13.357 -24.262 -40.327  1.00  0.00     0.023 C 
ENDROOT
BRANCH   1   2
ATOM      2  C   UNL     1      14.023 -24.650 -38.990  1.00  0.00    -0.016 C 
ATOM      3  C   UNL     1      14.104 -26.160 -38.770  1.00  0.00     0.007 C 
ATOM      4  C   UNL     1      13.382 -23.964 -37.786  1.00  0.00     0.007 C 
ENDBRANCH   1   2
BRANCH   1   5
ATOM      5  C   UNL     1      13.984 -24.796 -41.620  1.00  0.00     0.103 C 
BRANCH   5   6
ATOM      6  N   UNL     1      15.029 -23.947 -42.134  1.00  0.00    -0.409 N 
ATOM      7  C   UNL     1      16.229 -23.681 -41.520  1.00  0.00    -0.084 C 
ATOM      8  C   UNL     1      15.086 -23.420 -43.400  1.00  0.00     0.068 C 
ATOM      9  N   UNL     1      17.088 -22.991 -42.232  1.00  0.00    -0.418 NA
ATOM     10  N   UNL     1      14.274 -23.410 -44.386  1.00  0.00    -0.215 NA
ATOM     11  C   UNL     1      16.412 -22.792 -43.437  1.00  0.00     0.017 C 
ATOM     12  C   UNL     1      14.712 -22.776 -45.516  1.00  0.00     0.222 C 
ATOM     13  C   UNL     1      16.795 -22.109 -44.666  1.00  0.00     0.219 C 
ATOM     14  N   UNL     1      15.848 -22.167 -45.661  1.00  0.00    -0.189 NA
ATOM     15  N   UNL     1      13.852 -22.778 -46.562  1.00  0.00    -0.368 N 
ATOM     16  O   UNL     1      17.870 -21.535 -44.787  1.00  0.00    -0.287 OA
ATOM     17  H   UNL     1      14.043 -22.040 -47.228  1.00  0.00     0.159 HD
ATOM     18  H   UNL     1      12.883 -22.859 -46.288  1.00  0.00     0.159 HD
ENDBRANCH   5   6
ENDBRANCH   1   5
TORSDOF 3
ENDMDL
MODEL 2
REMARK VINA RESULT:    -6.060      2.078      3.093
REMARK INTER + INTRA:          -7.241
REMARK INTER:                  -7.075
REMARK INTRA:                  -0.165
REMARK UNBOUND:                -0.118
REMARK SMILES CC(C)CCn1cn[c-]2c(=O)nc(N)nc21
REMARK SMILES IDX 4 1 2 2 1 3 3 4 5 5 6 6 7 7 16 8 8 9 15 10 9 11 13 12 10 13
REMARK SMILES IDX 12 14 14 15 11 16
REMARK H PARENT 14 17 14 18
ROOT
ATOM      1  C   UNL     1      13.386 -24.249 -40.733  1.00  0.00     0.023 C 
ENDROOT
BRANCH   1   2
ATOM      2  C   UNL     1      14.051 -24.672 -39.406  1.00  0.00    -0.016 C 
ATOM      3  C   UNL     1      13.438 -23.998 -38.180  1.00  0.00     0.007 C 
ATOM      4  C   UNL     1      15.568 -24.493 -39.417  1.00  0.00     0.007 C 
ENDBRANCH   1   2
BRANCH   1   5
ATOM      5  C   UNL     1      13.949 -24.832 -42.033  1.00  0.00     0.103 C 
BRANCH   5   6
ATOM      6  N   UNL     1      13.352 -24.261 -43.214  1.00  0.00    -0.409 N 
ATOM      7  C   UNL     1      12.006 -24.123 -43.453  1.00  0.00    -0.084 C 
ATOM      8  C   UNL     1      14.020 -23.587 -44.206  1.00  0.00     0.068 C 
ATOM      9  N   UNL     1      11.690 -23.450 -44.533  1.00  0.00    -0.418 NA
ATOM     10  N   UNL     1      15.257 -23.370 -44.443  1.00  0.00    -0.215 NA
ATOM     11  C   UNL     1      12.933 -23.088 -45.056  1.00  0.00     0.017 C 
ATOM     12  C   UNL     1      15.530 -22.622 -45.555  1.00  0.00     0.222 C 
ATOM     13  C   UNL     1      13.305 -22.324 -46.240  1.00  0.00     0.219 C 
ATOM     14  N   UNL     1      14.660 -22.148 -46.392  1.00  0.00    -0.189 NA
ATOM     15  N   UNL     1      16.841 -22.385 -45.797  1.00  0.00    -0.368 N 
ATOM     16  O   UNL     1      12.472 -21.886 -47.023  1.00  0.00    -0.287 OA
ATOM     17  H   UNL     1      17.025 -22.145 -46.763  1.00  0.00     0.159 HD
ATOM     18  H   UNL     1      17.456 -23.089 -45.413  1.00  0.00     0.159 HD
ENDBRANCH   5   6
ENDBRANCH   1   5
TORSDOF 3
ENDMDL
MODEL 3
REMARK VINA RESULT:    -6.030      3.036      6.175
REMARK INTER + INTRA:          -7.206
REMARK INTER:                  -6.969
REMARK INTRA:                  -0.236
REMARK UNBOUND:                -0.118
REMARK SMILES CC(C)CCn1cn[c-]2c(=O)nc(N)nc21
REMARK SMILES IDX 4 1 2 2 1 3 3 4 5 5 6 6 7 7 16 8 8 9 15 10 9 11 13 12 10 13
REMARK SMILES IDX 12 14 14 15 11 16
REMARK H PARENT 14 17 14 18
ROOT
ATOM      1  C   UNL     1      13.955 -22.731 -47.963  1.00  0.00     0.023 C 
ENDROOT
BRANCH   1   2
ATOM      2  C   UNL     1      13.154 -21.554 -48.560  1.00  0.00    -0.016 C 
ATOM      3  C   UNL     1      13.834 -20.911 -49.768  1.00  0.00     0.007 C 
ATOM      4  C   UNL     1      12.788 -20.496 -47.521  1.00  0.00     0.007 C 
ENDBRANCH   1   2
BRANCH   1   5
ATOM      5  C   UNL     1      15.300 -22.417 -47.300  1.00  0.00     0.103 C 
BRANCH   5   6
ATOM      6  N   UNL     1      15.278 -22.583 -45.869  1.00  0.00    -0.409 N 
ATOM      7  C   UNL     1      14.177 -22.895 -45.109  1.00  0.00    -0.084 C 
ATOM      8  C   UNL     1      16.378 -22.650 -45.051  1.00  0.00     0.068 C 
ATOM      9  N   UNL     1      14.414 -23.133 -43.841  1.00  0.00    -0.418 NA
ATOM     10  N   UNL     1      17.631 -22.488 -45.246  1.00  0.00    -0.215 NA
ATOM     11  C   UNL     1      15.799 -22.986 -43.745  1.00  0.00     0.017 C 
ATOM     12  C   UNL     1      18.433 -22.656 -44.152  1.00  0.00     0.222 C 
ATOM     13  C   UNL     1      16.716 -23.119 -42.620  1.00  0.00     0.219 C 
ATOM     14  N   UNL     1      18.039 -22.930 -42.947  1.00  0.00    -0.189 NA
ATOM     15  N   UNL     1      19.761 -22.496 -44.365  1.00  0.00    -0.368 N 
ATOM     16  O   UNL     1      16.328 -23.374 -41.488  1.00  0.00    -0.287 OA
ATOM     17  H   UNL     1      20.272 -22.287 -43.517  1.00  0.00     0.159 HD
ATOM     18  H   UNL     1      19.973 -21.890 -45.146  1.00  0.00     0.159 HD
ENDBRANCH   5   6
ENDBRANCH   1   5
TORSDOF 3
ENDMDL
MODEL 4
REMARK VINA RESULT:    -5.967      1.517      2.641
REMARK INTER + INTRA:          -7.132
REMARK INTER:                  -6.829
REMARK INTRA:                  -0.303
REMARK UNBOUND:                -0.118
REMARK SMILES CC(C)CCn1cn[c-]2c(=O)nc(N)nc21
REMARK SMILES IDX 4 1 2 2 1 3 3 4 5 5 6 6 7 7 16 8 8 9 15 10 9 11 13 12 10 13
REMARK SMILES IDX 12 14 14 15 11 16
REMARK H PARENT 14 17 14 18
ROOT
ATOM      1  C   UNL     1      15.601 -24.201 -39.444  1.00  0.00     0.023 C 
ENDROOT
BRANCH   1   2
ATOM      2  C   UNL     1      14.457 -24.769 -38.578  1.00  0.00    -0.016 C 
ATOM      3  C   UNL     1      14.115 -26.222 -38.904  1.00  0.00     0.007 C 
ATOM      4  C   UNL     1      13.201 -23.900 -38.606  1.00  0.00     0.007 C 
ENDBRANCH   1   2
BRANCH   1   5
ATOM      5  C   UNL     1      16.048 -25.015 -40.663  1.00  0.00     0.103 C 
BRANCH   5   6
ATOM      6  N   UNL     1      15.675 -24.409 -41.916  1.00  0.00    -0.409 N 
ATOM      7  C   UNL     1      14.393 -24.151 -42.338  1.00  0.00    -0.084 C 
ATOM      8  C   UNL     1      16.533 -23.814 -42.806  1.00  0.00     0.068 C 
ATOM      9  N   UNL     1      14.293 -23.467 -43.453  1.00  0.00    -0.418 NA
ATOM     10  N   UNL     1      17.805 -23.715 -42.871  1.00  0.00    -0.215 NA
ATOM     11  C   UNL     1      15.625 -23.230 -43.800  1.00  0.00     0.017 C 
ATOM     12  C   UNL     1      18.298 -23.012 -43.935  1.00  0.00     0.222 C 
ATOM     13  C   UNL     1      16.226 -22.520 -44.922  1.00  0.00     0.219 C 
ATOM     14  N   UNL     1      17.600 -22.472 -44.886  1.00  0.00    -0.189 NA
ATOM     15  N   UNL     1      19.646 -22.901 -43.994  1.00  0.00    -0.368 N 
ATOM     16  O   UNL     1      15.554 -22.019 -45.813  1.00  0.00    -0.287 OA
ATOM     17  H   UNL     1      19.982 -22.693 -44.925  1.00  0.00     0.159 HD
ATOM     18  H   UNL     1      20.133 -23.653 -43.527  1.00  0.00     0.159 HD
ENDBRANCH   5   6
ENDBRANCH   1   5
TORSDOF 3
ENDMDL
MODEL 5
REMARK VINA RESULT:    -5.906     15.771     17.054
REMARK INTER + INTRA:          -7.060
REMARK INTER:                  -6.861
REMARK INTRA:                  -0.199
REMARK UNBOUND:                -0.118
REMARK SMILES CC(C)CCn1cn[c-]2c(=O)nc(N)nc21
REMARK SMILES IDX 4 1 2 2 1 3 3 4 5 5 6 6 7 7 16 8 8 9 15 10 9 11 13 12 10 13
REMARK SMILES IDX 12 14 14 15 11 16
REMARK H PARENT 14 17 14 18
ROOT
ATOM      1  C   UNL     1      -2.926 -24.219 -38.542  1.00  0.00     0.023 C 
ENDROOT
BRANCH   1   2
ATOM      2  C   UNL     1      -3.914 -25.345 -38.171  1.00  0.00    -0.016 C 
ATOM      3  C   UNL     1      -3.570 -26.042 -36.856  1.00  0.00     0.007 C 
ATOM      4  C   UNL     1      -4.099 -26.367 -39.291  1.00  0.00     0.007 C 
ENDBRANCH   1   2
BRANCH   1   5
ATOM      5  C   UNL     1      -1.899 -24.503 -39.644  1.00  0.00     0.103 C 
BRANCH   5   6
ATOM      6  N   UNL     1      -1.585 -23.342 -40.437  1.00  0.00    -0.409 N 
ATOM      7  C   UNL     1      -2.196 -22.977 -41.612  1.00  0.00    -0.084 C 
ATOM      8  C   UNL     1      -0.766 -22.308 -40.058  1.00  0.00     0.068 C 
ATOM      9  N   UNL     1      -1.845 -21.808 -42.093  1.00  0.00    -0.418 NA
ATOM     10  N   UNL     1      -0.008 -22.111 -39.048  1.00  0.00    -0.215 NA
ATOM     11  C   UNL     1      -0.932 -21.338 -41.147  1.00  0.00     0.017 C 
ATOM     12  C   UNL     1       0.656 -20.915 -39.023  1.00  0.00     0.222 C 
ATOM     13  C   UNL     1      -0.168 -20.100 -41.063  1.00  0.00     0.219 C 
ATOM     14  N   UNL     1       0.608 -19.993 -39.933  1.00  0.00    -0.189 NA
ATOM     15  N   UNL     1       1.449 -20.706 -37.945  1.00  0.00    -0.368 N 
ATOM     16  O   UNL     1      -0.221 -19.240 -41.933  1.00  0.00    -0.287 OA
ATOM     17  H   UNL     1       2.162 -20.007 -38.114  1.00  0.00     0.159 HD
ATOM     18  H   UNL     1       1.785 -21.558 -37.520  1.00  0.00     0.159 HD
ENDBRANCH   5   6
ENDBRANCH   1   5
TORSDOF 3
ENDMDL
MODEL 6
REMARK VINA RESULT:    -5.844      2.568      6.103
REMARK INTER + INTRA:          -6.987
REMARK INTER:                  -6.776
REMARK INTRA:                  -0.211
REMARK UNBOUND:                -0.118
REMARK SMILES CC(C)CCn1cn[c-]2c(=O)nc(N)nc21
REMARK SMILES IDX 4 1 2 2 1 3 3 4 5 5 6 6 7 7 16 8 8 9 15 10 9 11 13 12 10 13
REMARK SMILES IDX 12 14 14 15 11 16
REMARK H PARENT 14 17 14 18
ROOT
ATOM      1  C   UNL     1      14.574 -21.961 -48.311  1.00  0.00     0.023 C 
ENDROOT
BRANCH   1   2
ATOM      2  C   UNL     1      13.338 -21.120 -48.692  1.00  0.00    -0.016 C 
ATOM      3  C   UNL     1      13.544 -20.275 -49.949  1.00  0.00     0.007 C 
ATOM      4  C   UNL     1      12.828 -20.256 -47.540  1.00  0.00     0.007 C 
ENDBRANCH   1   2
BRANCH   1   5
ATOM      5  C   UNL     1      14.373 -23.129 -47.341  1.00  0.00     0.103 C 
BRANCH   5   6
ATOM      6  N   UNL     1      15.187 -23.026 -46.156  1.00  0.00    -0.409 N 
ATOM      7  C   UNL     1      16.402 -22.392 -46.063  1.00  0.00    -0.084 C 
ATOM      8  C   UNL     1      14.801 -23.370 -44.884  1.00  0.00     0.068 C 
ATOM      9  N   UNL     1      16.902 -22.302 -44.854  1.00  0.00    -0.418 NA
ATOM     10  N   UNL     1      13.762 -23.937 -44.403  1.00  0.00    -0.215 NA
ATOM     11  C   UNL     1      15.927 -22.913 -44.062  1.00  0.00     0.017 C 
ATOM     12  C   UNL     1      13.742 -24.096 -43.045  1.00  0.00     0.222 C 
ATOM     13  C   UNL     1      15.846 -23.145 -42.626  1.00  0.00     0.219 C 
ATOM     14  N   UNL     1      14.683 -23.756 -42.220  1.00  0.00    -0.189 NA
ATOM     15  N   UNL     1      12.634 -24.688 -42.538  1.00  0.00    -0.368 N 
ATOM     16  O   UNL     1      16.744 -22.822 -41.860  1.00  0.00    -0.287 OA
ATOM     17  H   UNL     1      12.789 -25.092 -41.624  1.00  0.00     0.159 HD
ATOM     18  H   UNL     1      12.165 -25.295 -43.195  1.00  0.00     0.159 HD
ENDBRANCH   5   6
ENDBRANCH   1   5
TORSDOF 3
ENDMDL
MODEL 7
REMARK VINA RESULT:    -5.735      4.740      6.706
REMARK INTER + INTRA:          -6.858
REMARK INTER:                  -6.709
REMARK INTRA:                  -0.149
REMARK UNBOUND:                -0.118
REMARK SMILES CC(C)CCn1cn[c-]2c(=O)nc(N)nc21
REMARK SMILES IDX 4 1 2 2 1 3 3 4 5 5 6 6 7 7 16 8 8 9 15 10 9 11 13 12 10 13
REMARK SMILES IDX 12 14 14 15 11 16
REMARK H PARENT 14 17 14 18
ROOT
ATOM      1  C   UNL     1      15.581 -22.645 -46.426  1.00  0.00     0.023 C 
ENDROOT
BRANCH   1   2
ATOM      2  C   UNL     1      16.705 -22.662 -45.368  1.00  0.00    -0.016 C 
ATOM      3  C   UNL     1      17.529 -23.949 -45.381  1.00  0.00     0.007 C 
ATOM      4  C   UNL     1      16.200 -22.359 -43.959  1.00  0.00     0.007 C 
ENDBRANCH   1   2
BRANCH   1   5
ATOM      5  C   UNL     1      14.186 -22.196 -45.980  1.00  0.00     0.103 C 
BRANCH   5   6
ATOM      6  N   UNL     1      13.166 -22.461 -46.963  1.00  0.00    -0.409 N 
ATOM      7  C   UNL     1      12.103 -23.319 -46.813  1.00  0.00    -0.084 C 
ATOM      8  C   UNL     1      12.972 -21.763 -48.128  1.00  0.00     0.068 C 
ATOM      9  N   UNL     1      11.220 -23.301 -47.782  1.00  0.00    -0.418 NA
ATOM     10  N   UNL     1      13.625 -20.834 -48.716  1.00  0.00    -0.215 NA
ATOM     11  C   UNL     1      11.725 -22.331 -48.652  1.00  0.00     0.017 C 
ATOM     12  C   UNL     1      13.088 -20.375 -49.887  1.00  0.00     0.222 C 
ATOM     13  C   UNL     1      11.232 -21.811 -49.920  1.00  0.00     0.219 C 
ATOM     14  N   UNL     1      12.009 -20.813 -50.459  1.00  0.00    -0.189 NA
ATOM     15  N   UNL     1      13.777 -19.384 -50.502  1.00  0.00    -0.368 N 
ATOM     16  O   UNL     1      10.214 -22.237 -50.449  1.00  0.00    -0.287 OA
ATOM     17  H   UNL     1      13.563 -19.311 -51.488  1.00  0.00     0.159 HD
ATOM     18  H   UNL     1      14.763 -19.383 -50.282  1.00  0.00     0.159 HD
ENDBRANCH   5   6
ENDBRANCH   1   5
TORSDOF 3
ENDMDL
MODEL 8
REMARK VINA RESULT:    -5.702     22.482     23.776
REMARK INTER + INTRA:          -6.820
REMARK INTER:                  -6.650
REMARK INTRA:                  -0.169
REMARK UNBOUND:                -0.118
REMARK SMILES CC(C)CCn1cn[c-]2c(=O)nc(N)nc21
REMARK SMILES IDX 4 1 2 2 1 3 3 4 5 5 6 6 7 7 16 8 8 9 15 10 9 11 13 12 10 13
REMARK SMILES IDX 12 14 14 15 11 16
REMARK H PARENT 14 17 14 18
ROOT
ATOM      1  C   UNL     1       3.829  -5.837 -32.854  1.00  0.00     0.023 C 
ENDROOT
BRANCH   1   2
ATOM      2  C   UNL     1       4.290  -4.436 -32.400  1.00  0.00    -0.016 C 
ATOM      3  C   UNL     1       3.793  -3.312 -33.308  1.00  0.00     0.007 C 
ATOM      4  C   UNL     1       5.802  -4.341 -32.203  1.00  0.00     0.007 C 
ENDBRANCH   1   2
BRANCH   1   5
ATOM      5  C   UNL     1       2.371  -6.003 -33.292  1.00  0.00     0.103 C 
BRANCH   5   6
ATOM      6  N   UNL     1       1.659  -6.995 -32.526  1.00  0.00    -0.409 N 
ATOM      7  C   UNL     1       1.469  -6.980 -31.165  1.00  0.00    -0.084 C 
ATOM      8  C   UNL     1       0.892  -8.009 -33.041  1.00  0.00     0.068 C 
ATOM      9  N   UNL     1       0.672  -7.911 -30.696  1.00  0.00    -0.418 NA
ATOM     10  N   UNL     1       0.674  -8.433 -34.227  1.00  0.00    -0.215 NA
ATOM     11  C   UNL     1       0.279  -8.600 -31.845  1.00  0.00     0.017 C 
ATOM     12  C   UNL     1      -0.189  -9.488 -34.336  1.00  0.00     0.222 C 
ATOM     13  C   UNL     1      -0.606  -9.741 -32.040  1.00  0.00     0.219 C 
ATOM     14  N   UNL     1      -0.771 -10.106 -33.356  1.00  0.00    -0.189 NA
ATOM     15  N   UNL     1      -0.425  -9.927 -35.595  1.00  0.00    -0.368 N 
ATOM     16  O   UNL     1      -1.145 -10.317 -31.104  1.00  0.00    -0.287 OA
ATOM     17  H   UNL     1      -0.768 -10.879 -35.621  1.00  0.00     0.159 HD
ATOM     18  H   UNL     1       0.329  -9.733 -36.238  1.00  0.00     0.159 HD
ENDBRANCH   5   6
ENDBRANCH   1   5
TORSDOF 3
ENDMDL
MODEL 9
REMARK VINA RESULT:    -5.448      1.607      2.073
REMARK INTER + INTRA:          -6.521
REMARK INTER:                  -6.234
REMARK INTRA:                  -0.288
REMARK UNBOUND:                -0.118
REMARK SMILES CC(C)CCn1cn[c-]2c(=O)nc(N)nc21
REMARK SMILES IDX 4 1 2 2 1 3 3 4 5 5 6 6 7 7 16 8 8 9 15 10 9 11 13 12 10 13
REMARK SMILES IDX 12 14 14 15 11 16
REMARK H PARENT 14 17 14 18
ROOT
ATOM      1  C   UNL     1      15.394 -24.534 -39.780  1.00  0.00     0.023 C 
ENDROOT
BRANCH   1   2
ATOM      2  C   UNL     1      13.879 -24.288 -39.627  1.00  0.00    -0.016 C 
ATOM      3  C   UNL     1      13.426 -24.184 -38.171  1.00  0.00     0.007 C 
ATOM      4  C   UNL     1      13.031 -25.308 -40.383  1.00  0.00     0.007 C 
ENDBRANCH   1   2
BRANCH   1   5
ATOM      5  C   UNL     1      15.893 -25.126 -41.102  1.00  0.00     0.103 C 
BRANCH   5   6
ATOM      6  N   UNL     1      15.875 -24.179 -42.188  1.00  0.00    -0.409 N 
ATOM      7  C   UNL     1      16.727 -23.113 -42.345  1.00  0.00    -0.084 C 
ATOM      8  C   UNL     1      15.137 -24.292 -43.340  1.00  0.00     0.068 C 
ATOM      9  N   UNL     1      16.618 -22.463 -43.479  1.00  0.00    -0.418 NA
ATOM     10  N   UNL     1      14.241 -25.114 -43.734  1.00  0.00    -0.215 NA
ATOM     11  C   UNL     1      15.616 -23.167 -44.151  1.00  0.00     0.017 C 
ATOM     12  C   UNL     1      13.739 -24.896 -44.987  1.00  0.00     0.222 C 
ATOM     13  C   UNL     1      15.011 -22.983 -45.464  1.00  0.00     0.219 C 
ATOM     14  N   UNL     1      14.064 -23.927 -45.785  1.00  0.00    -0.189 NA
ATOM     15  N   UNL     1      12.798 -25.776 -45.404  1.00  0.00    -0.368 N 
ATOM     16  O   UNL     1      15.326 -22.061 -46.205  1.00  0.00    -0.287 OA
ATOM     17  H   UNL     1      12.220 -25.408 -46.149  1.00  0.00     0.159 HD
ATOM     18  H   UNL     1      12.287 -26.209 -44.648  1.00  0.00     0.159 HD
ENDBRANCH   5   6
ENDBRANCH   1   5
TORSDOF 3
ENDMDL
