MODEL 1
REMARK VINA RESULT:    -7.994      0.000      0.000
REMARK INTER + INTRA:         -10.180
REMARK INTER:                  -9.629
REMARK INTRA:                  -0.551
REMARK UNBOUND:                -0.551
REMARK SMILES Nc1c(-c2ccccc2Cl)cnn1-c1cccc([N+](=O)[O-])c1
REMARK SMILES IDX 14 1 15 2 16 3 17 4 18 5 22 6 13 7 2 8 3 9 11 10 12 11 1 12
REMARK SMILES IDX 4 15 5 16 9 17 6 18 8 19 7 20 10 21 19 22 20 23 21 24
REMARK H PARENT 1 13 1 14
ROOT
ATOM      1  C   UNL     1      14.027 -23.147 -46.258  1.00  0.00     0.074 A 
ATOM      2  C   UNL     1      15.227 -22.705 -46.845  1.00  0.00     0.029 A 
ATOM      3  C   UNL     1      15.219 -21.996 -48.050  1.00  0.00     0.009 A 
ATOM      4  C   UNL     1      14.013 -21.727 -48.693  1.00  0.00     0.086 A 
ATOM      5  C   UNL     1      12.818 -22.184 -48.125  1.00  0.00     0.271 A 
ATOM      6  C   UNL     1      12.816 -22.900 -46.916  1.00  0.00     0.114 A 
ENDROOT
BRANCH   1   7
ATOM      7  N   UNL     1      14.085 -23.875 -45.028  1.00  0.00    -0.217 N 
ATOM      8  C   UNL     1      14.481 -23.453 -43.746  1.00  0.00     0.135 A 
ATOM      9  C   UNL     1      14.123 -24.477 -42.888  1.00  0.00     0.046 A 
ATOM     10  C   UNL     1      13.662 -25.509 -43.722  1.00  0.00     0.146 A 
ATOM     11  N   UNL     1      13.704 -25.185 -45.013  1.00  0.00    -0.174 NA
BRANCH   8  12
ATOM     12  N   UNL     1      15.100 -22.271 -43.462  1.00  0.00    -0.383 N 
ATOM     13  H   UNL     1      14.536 -21.421 -43.471  1.00  0.00     0.158 HD
ATOM     14  H   UNL     1      15.785 -22.237 -42.709  1.00  0.00     0.158 HD
ENDBRANCH   8  12
BRANCH   9  15
ATOM     15  C   UNL     1      14.303 -24.469 -41.450  1.00  0.00     0.006 A 
ATOM     16  C   UNL     1      13.195 -24.189 -40.633  1.00  0.00     0.010 A 
ATOM     17  C   UNL     1      15.548 -24.716 -40.852  1.00  0.00     0.049 A 
ATOM     18  C   UNL     1      13.328 -24.164 -39.243  1.00  0.00     0.001 A 
ATOM     19  C   UNL     1      15.674 -24.690 -39.458  1.00  0.00     0.021 A 
ATOM     20  C   UNL     1      14.565 -24.415 -38.656  1.00  0.00     0.002 A 
ATOM     21  Cl  UNL     1      16.966 -25.066 -41.778  1.00  0.00    -0.084 Cl
ENDBRANCH   9  15
ENDBRANCH   1   7
BRANCH   5  22
ATOM     22  N   UNL     1      11.546 -21.912 -48.803  1.00  0.00     0.062 N 
ATOM     23  O   UNL     1      11.541 -21.054 -49.697  1.00  0.00    -0.258 OA
ATOM     24  O   UNL     1      10.549 -22.547 -48.431  1.00  0.00    -0.258 OA
ENDBRANCH   5  22
TORSDOF 4
ENDMDL
MODEL 2
REMARK VINA RESULT:    -7.243      4.141      7.441
REMARK INTER + INTRA:          -9.276
REMARK INTER:                  -8.826
REMARK INTRA:                  -0.449
REMARK UNBOUND:                -0.551
REMARK SMILES Nc1c(-c2ccccc2Cl)cnn1-c1cccc([N+](=O)[O-])c1
REMARK SMILES IDX 14 1 15 2 16 3 17 4 18 5 22 6 13 7 2 8 3 9 11 10 12 11 1 12
REMARK SMILES IDX 4 15 5 16 9 17 6 18 8 19 7 20 10 21 19 22 20 23 21 24
REMARK H PARENT 1 13 1 14
ROOT
ATOM      1  C   UNL     1      14.893 -24.711 -41.883  1.00  0.00     0.074 A 
ATOM      2  C   UNL     1      16.279 -24.952 -41.850  1.00  0.00     0.029 A 
ATOM      3  C   UNL     1      16.920 -25.301 -40.658  1.00  0.00     0.009 A 
ATOM      4  C   UNL     1      16.189 -25.405 -39.478  1.00  0.00     0.086 A 
ATOM      5  C   UNL     1      14.814 -25.145 -39.500  1.00  0.00     0.271 A 
ATOM      6  C   UNL     1      14.161 -24.790 -40.692  1.00  0.00     0.114 A 
ENDROOT
BRANCH   1   7
ATOM      7  N   UNL     1      14.281 -24.350 -43.124  1.00  0.00    -0.217 N 
ATOM      8  C   UNL     1      14.545 -23.266 -43.981  1.00  0.00     0.135 A 
ATOM      9  C   UNL     1      13.837 -23.525 -45.141  1.00  0.00     0.046 A 
ATOM     10  C   UNL     1      13.081 -24.675 -44.858  1.00  0.00     0.146 A 
ATOM     11  N   UNL     1      13.284 -25.136 -43.626  1.00  0.00    -0.174 NA
BRANCH   8  12
ATOM     12  N   UNL     1      15.335 -22.197 -43.678  1.00  0.00    -0.383 N 
ATOM     13  H   UNL     1      16.325 -22.250 -43.915  1.00  0.00     0.158 HD
ATOM     14  H   UNL     1      14.981 -21.255 -43.837  1.00  0.00     0.158 HD
ENDBRANCH   8  12
BRANCH   9  15
ATOM     15  C   UNL     1      13.837 -22.693 -46.328  1.00  0.00     0.006 A 
ATOM     16  C   UNL     1      12.659 -22.011 -46.673  1.00  0.00     0.010 A 
ATOM     17  C   UNL     1      14.969 -22.561 -47.146  1.00  0.00     0.049 A 
ATOM     18  C   UNL     1      12.615 -21.205 -47.813  1.00  0.00     0.001 A 
ATOM     19  C   UNL     1      14.919 -21.751 -48.287  1.00  0.00     0.021 A 
ATOM     20  C   UNL     1      13.744 -21.074 -48.619  1.00  0.00     0.002 A 
ATOM     21  Cl  UNL     1      16.460 -23.365 -46.800  1.00  0.00    -0.084 Cl
ENDBRANCH   9  15
ENDBRANCH   1   7
BRANCH   5  22
ATOM     22  N   UNL     1      14.041 -25.243 -38.256  1.00  0.00     0.062 N 
ATOM     23  O   UNL     1      13.721 -24.188 -37.692  1.00  0.00    -0.258 OA
ATOM     24  O   UNL     1      13.767 -26.377 -37.839  1.00  0.00    -0.258 OA
ENDBRANCH   5  22
TORSDOF 4
ENDMDL
MODEL 3
REMARK VINA RESULT:    -7.084      3.904      7.463
REMARK INTER + INTRA:          -9.084
REMARK INTER:                  -8.680
REMARK INTRA:                  -0.404
REMARK UNBOUND:                -0.551
REMARK SMILES Nc1c(-c2ccccc2Cl)cnn1-c1cccc([N+](=O)[O-])c1
REMARK SMILES IDX 14 1 15 2 16 3 17 4 18 5 22 6 13 7 2 8 3 9 11 10 12 11 1 12
REMARK SMILES IDX 4 15 5 16 9 17 6 18 8 19 7 20 10 21 19 22 20 23 21 24
REMARK H PARENT 1 13 1 14
ROOT
ATOM      1  C   UNL     1      13.921 -24.297 -41.969  1.00  0.00     0.074 A 
ATOM      2  C   UNL     1      13.032 -24.215 -40.881  1.00  0.00     0.029 A 
ATOM      3  C   UNL     1      13.422 -24.617 -39.601  1.00  0.00     0.009 A 
ATOM      4  C   UNL     1      14.704 -25.118 -39.388  1.00  0.00     0.086 A 
ATOM      5  C   UNL     1      15.586 -25.223 -40.470  1.00  0.00     0.271 A 
ATOM      6  C   UNL     1      15.201 -24.825 -41.761  1.00  0.00     0.114 A 
ENDROOT
BRANCH   1   7
ATOM      7  N   UNL     1      13.475 -23.880 -43.262  1.00  0.00    -0.217 N 
ATOM      8  C   UNL     1      14.062 -22.988 -44.177  1.00  0.00     0.135 A 
ATOM      9  C   UNL     1      13.343 -23.129 -45.350  1.00  0.00     0.046 A 
ATOM     10  C   UNL     1      12.282 -23.992 -45.028  1.00  0.00     0.146 A 
ATOM     11  N   UNL     1      12.310 -24.390 -43.758  1.00  0.00    -0.174 NA
BRANCH   8  12
ATOM     12  N   UNL     1      15.116 -22.165 -43.909  1.00  0.00    -0.383 N 
ATOM     13  H   UNL     1      15.235 -21.837 -42.950  1.00  0.00     0.158 HD
ATOM     14  H   UNL     1      16.021 -22.359 -44.334  1.00  0.00     0.158 HD
ENDBRANCH   8  12
BRANCH   9  15
ATOM     15  C   UNL     1      13.616 -22.430 -46.591  1.00  0.00     0.006 A 
ATOM     16  C   UNL     1      12.664 -21.518 -47.073  1.00  0.00     0.010 A 
ATOM     17  C   UNL     1      14.790 -22.648 -47.328  1.00  0.00     0.049 A 
ATOM     18  C   UNL     1      12.885 -20.829 -48.268  1.00  0.00     0.001 A 
ATOM     19  C   UNL     1      15.006 -21.954 -48.524  1.00  0.00     0.021 A 
ATOM     20  C   UNL     1      14.055 -21.046 -48.992  1.00  0.00     0.002 A 
ATOM     21  Cl  UNL     1      16.015 -23.754 -46.811  1.00  0.00    -0.084 Cl
ENDBRANCH   9  15
ENDBRANCH   1   7
BRANCH   5  22
ATOM     22  N   UNL     1      16.934 -25.760 -40.253  1.00  0.00     0.062 N 
ATOM     23  O   UNL     1      17.804 -25.489 -41.092  1.00  0.00    -0.258 OA
ATOM     24  O   UNL     1      17.118 -26.463 -39.249  1.00  0.00    -0.258 OA
ENDBRANCH   5  22
TORSDOF 4
ENDMDL
MODEL 4
REMARK VINA RESULT:    -6.674      2.176      2.952
REMARK INTER + INTRA:          -8.591
REMARK INTER:                  -8.778
REMARK INTRA:                   0.187
REMARK UNBOUND:                -0.551
REMARK SMILES Nc1c(-c2ccccc2Cl)cnn1-c1cccc([N+](=O)[O-])c1
REMARK SMILES IDX 14 1 15 2 16 3 17 4 18 5 22 6 13 7 2 8 3 9 11 10 12 11 1 12
REMARK SMILES IDX 4 15 5 16 9 17 6 18 8 19 7 20 10 21 19 22 20 23 21 24
REMARK H PARENT 1 13 1 14
ROOT
ATOM      1  C   UNL     1      12.295 -22.944 -47.609  1.00  0.00     0.074 A 
ATOM      2  C   UNL     1      11.509 -23.805 -48.398  1.00  0.00     0.029 A 
ATOM      3  C   UNL     1      11.217 -23.493 -49.729  1.00  0.00     0.009 A 
ATOM      4  C   UNL     1      11.696 -22.312 -50.290  1.00  0.00     0.086 A 
ATOM      5  C   UNL     1      12.459 -21.441 -49.504  1.00  0.00     0.271 A 
ATOM      6  C   UNL     1      12.755 -21.744 -48.164  1.00  0.00     0.114 A 
ENDROOT
BRANCH   1   7
ATOM      7  N   UNL     1      12.563 -23.302 -46.250  1.00  0.00    -0.217 N 
ATOM      8  C   UNL     1      13.788 -23.408 -45.568  1.00  0.00     0.135 A 
ATOM      9  C   UNL     1      13.460 -23.553 -44.232  1.00  0.00     0.046 A 
ATOM     10  C   UNL     1      12.060 -23.665 -44.209  1.00  0.00     0.146 A 
ATOM     11  N   UNL     1      11.517 -23.589 -45.422  1.00  0.00    -0.174 NA
BRANCH   8  12
ATOM     12  N   UNL     1      15.020 -23.382 -46.153  1.00  0.00    -0.383 N 
ATOM     13  H   UNL     1      15.129 -23.838 -47.058  1.00  0.00     0.158 HD
ATOM     14  H   UNL     1      15.571 -22.527 -46.116  1.00  0.00     0.158 HD
ENDBRANCH   8  12
BRANCH   9  15
ATOM     15  C   UNL     1      14.410 -23.662 -43.142  1.00  0.00     0.006 A 
ATOM     16  C   UNL     1      15.563 -22.861 -43.171  1.00  0.00     0.010 A 
ATOM     17  C   UNL     1      14.220 -24.549 -42.072  1.00  0.00     0.049 A 
ATOM     18  C   UNL     1      16.507 -22.941 -42.144  1.00  0.00     0.001 A 
ATOM     19  C   UNL     1      15.169 -24.623 -41.045  1.00  0.00     0.021 A 
ATOM     20  C   UNL     1      16.309 -23.820 -41.082  1.00  0.00     0.002 A 
ATOM     21  Cl  UNL     1      12.831 -25.573 -41.955  1.00  0.00    -0.084 Cl
ENDBRANCH   9  15
ENDBRANCH   1   7
BRANCH   5  22
ATOM     22  N   UNL     1      12.957 -20.191 -50.087  1.00  0.00     0.062 N 
ATOM     23  O   UNL     1      13.001 -20.109 -51.323  1.00  0.00    -0.258 OA
ATOM     24  O   UNL     1      13.316 -19.296 -49.308  1.00  0.00    -0.258 OA
ENDBRANCH   5  22
TORSDOF 4
ENDMDL
MODEL 5
REMARK VINA RESULT:    -6.648      1.831      2.562
REMARK INTER + INTRA:          -8.559
REMARK INTER:                  -8.141
REMARK INTRA:                  -0.419
REMARK UNBOUND:                -0.551
REMARK SMILES Nc1c(-c2ccccc2Cl)cnn1-c1cccc([N+](=O)[O-])c1
REMARK SMILES IDX 14 1 15 2 16 3 17 4 18 5 22 6 13 7 2 8 3 9 11 10 12 11 1 12
REMARK SMILES IDX 4 15 5 16 9 17 6 18 8 19 7 20 10 21 19 22 20 23 21 24
REMARK H PARENT 1 13 1 14
ROOT
ATOM      1  C   UNL     1      12.700 -23.626 -48.030  1.00  0.00     0.074 A 
ATOM      2  C   UNL     1      11.735 -24.342 -48.762  1.00  0.00     0.029 A 
ATOM      3  C   UNL     1      11.179 -23.812 -49.930  1.00  0.00     0.009 A 
ATOM      4  C   UNL     1      11.572 -22.554 -50.381  1.00  0.00     0.086 A 
ATOM      5  C   UNL     1      12.516 -21.828 -49.645  1.00  0.00     0.271 A 
ATOM      6  C   UNL     1      13.077 -22.350 -48.467  1.00  0.00     0.114 A 
ENDROOT
BRANCH   1   7
ATOM      7  N   UNL     1      13.235 -24.205 -46.837  1.00  0.00    -0.217 N 
ATOM      8  C   UNL     1      13.452 -23.632 -45.572  1.00  0.00     0.135 A 
ATOM      9  C   UNL     1      13.762 -24.686 -44.731  1.00  0.00     0.046 A 
ATOM     10  C   UNL     1      13.851 -25.809 -45.571  1.00  0.00     0.146 A 
ATOM     11  N   UNL     1      13.608 -25.518 -46.847  1.00  0.00    -0.174 NA
BRANCH   8  12
ATOM     12  N   UNL     1      13.374 -22.301 -45.286  1.00  0.00    -0.383 N 
ATOM     13  H   UNL     1      12.447 -21.879 -45.224  1.00  0.00     0.158 HD
ATOM     14  H   UNL     1      13.994 -21.905 -44.582  1.00  0.00     0.158 HD
ENDBRANCH   8  12
BRANCH   9  15
ATOM     15  C   UNL     1      14.029 -24.577 -43.311  1.00  0.00     0.006 A 
ATOM     16  C   UNL     1      12.960 -24.722 -42.411  1.00  0.00     0.010 A 
ATOM     17  C   UNL     1      15.313 -24.316 -42.810  1.00  0.00     0.049 A 
ATOM     18  C   UNL     1      13.172 -24.617 -41.035  1.00  0.00     0.001 A 
ATOM     19  C   UNL     1      15.520 -24.212 -41.429  1.00  0.00     0.021 A 
ATOM     20  C   UNL     1      14.451 -24.363 -40.544  1.00  0.00     0.002 A 
ATOM     21  Cl  UNL     1      16.687 -24.121 -43.842  1.00  0.00    -0.084 Cl
ENDBRANCH   9  15
ENDBRANCH   1   7
BRANCH   5  22
ATOM     22  N   UNL     1      12.925 -20.498 -50.110  1.00  0.00     0.062 N 
ATOM     23  O   UNL     1      13.198 -19.646 -49.252  1.00  0.00    -0.258 OA
ATOM     24  O   UNL     1      12.960 -20.302 -51.333  1.00  0.00    -0.258 OA
ENDBRANCH   5  22
TORSDOF 4
ENDMDL
MODEL 6
REMARK VINA RESULT:    -6.602      3.520      5.245
REMARK INTER + INTRA:          -8.503
REMARK INTER:                  -7.905
REMARK INTRA:                  -0.599
REMARK UNBOUND:                -0.551
REMARK SMILES Nc1c(-c2ccccc2Cl)cnn1-c1cccc([N+](=O)[O-])c1
REMARK SMILES IDX 14 1 15 2 16 3 17 4 18 5 22 6 13 7 2 8 3 9 11 10 12 11 1 12
REMARK SMILES IDX 4 15 5 16 9 17 6 18 8 19 7 20 10 21 19 22 20 23 21 24
REMARK H PARENT 1 13 1 14
ROOT
ATOM      1  C   UNL     1      10.459 -23.762 -49.044  1.00  0.00     0.074 A 
ATOM      2  C   UNL     1      10.520 -23.110 -50.289  1.00  0.00     0.029 A 
ATOM      3  C   UNL     1       9.367 -22.916 -51.056  1.00  0.00     0.009 A 
ATOM      4  C   UNL     1       8.137 -23.379 -50.595  1.00  0.00     0.086 A 
ATOM      5  C   UNL     1       8.075 -24.049 -49.367  1.00  0.00     0.271 A 
ATOM      6  C   UNL     1       9.228 -24.252 -48.591  1.00  0.00     0.114 A 
ENDROOT
BRANCH   1   7
ATOM      7  N   UNL     1      11.666 -23.944 -48.298  1.00  0.00    -0.217 N 
ATOM      8  C   UNL     1      12.410 -23.019 -47.543  1.00  0.00     0.135 A 
ATOM      9  C   UNL     1      13.343 -23.769 -46.848  1.00  0.00     0.046 A 
ATOM     10  C   UNL     1      13.195 -25.078 -47.334  1.00  0.00     0.146 A 
ATOM     11  N   UNL     1      12.241 -25.181 -48.257  1.00  0.00    -0.174 NA
BRANCH   8  12
ATOM     12  N   UNL     1      12.220 -21.669 -47.541  1.00  0.00    -0.383 N 
ATOM     13  H   UNL     1      13.017 -21.073 -47.765  1.00  0.00     0.158 HD
ATOM     14  H   UNL     1      11.366 -21.286 -47.942  1.00  0.00     0.158 HD
ENDBRANCH   8  12
BRANCH   9  15
ATOM     15  C   UNL     1      14.309 -23.241 -45.905  1.00  0.00     0.006 A 
ATOM     16  C   UNL     1      15.506 -22.697 -46.400  1.00  0.00     0.010 A 
ATOM     17  C   UNL     1      14.094 -23.271 -44.519  1.00  0.00     0.049 A 
ATOM     18  C   UNL     1      16.466 -22.184 -45.525  1.00  0.00     0.001 A 
ATOM     19  C   UNL     1      15.060 -22.755 -43.648  1.00  0.00     0.021 A 
ATOM     20  C   UNL     1      16.243 -22.212 -44.151  1.00  0.00     0.002 A 
ATOM     21  Cl  UNL     1      12.652 -23.923 -43.821  1.00  0.00    -0.084 Cl
ENDBRANCH   9  15
ENDBRANCH   1   7
BRANCH   5  22
ATOM     22  N   UNL     1       6.783 -24.548 -48.883  1.00  0.00     0.062 N 
ATOM     23  O   UNL     1       6.653 -25.773 -48.746  1.00  0.00    -0.258 OA
ATOM     24  O   UNL     1       5.895 -23.715 -48.652  1.00  0.00    -0.258 OA
ENDBRANCH   5  22
TORSDOF 4
ENDMDL
MODEL 7
REMARK VINA RESULT:    -6.517      3.892      7.673
REMARK INTER + INTRA:          -8.401
REMARK INTER:                  -7.738
REMARK INTRA:                  -0.663
REMARK UNBOUND:                -0.551
REMARK SMILES Nc1c(-c2ccccc2Cl)cnn1-c1cccc([N+](=O)[O-])c1
REMARK SMILES IDX 14 1 15 2 16 3 17 4 18 5 22 6 13 7 2 8 3 9 11 10 12 11 1 12
REMARK SMILES IDX 4 15 5 16 9 17 6 18 8 19 7 20 10 21 19 22 20 23 21 24
REMARK H PARENT 1 13 1 14
ROOT
ATOM      1  C   UNL     1      13.994 -24.564 -43.542  1.00  0.00     0.074 A 
ATOM      2  C   UNL     1      12.988 -25.267 -42.854  1.00  0.00     0.029 A 
ATOM      3  C   UNL     1      13.051 -25.442 -41.469  1.00  0.00     0.009 A 
ATOM      4  C   UNL     1      14.126 -24.925 -40.750  1.00  0.00     0.086 A 
ATOM      5  C   UNL     1      15.141 -24.244 -41.431  1.00  0.00     0.271 A 
ATOM      6  C   UNL     1      15.088 -24.067 -42.824  1.00  0.00     0.114 A 
ENDROOT
BRANCH   1   7
ATOM      7  N   UNL     1      13.890 -24.416 -44.961  1.00  0.00    -0.217 N 
ATOM      8  C   UNL     1      13.361 -23.359 -45.723  1.00  0.00     0.135 A 
ATOM      9  C   UNL     1      13.723 -23.625 -47.032  1.00  0.00     0.046 A 
ATOM     10  C   UNL     1      14.324 -24.894 -46.995  1.00  0.00     0.146 A 
ATOM     11  N   UNL     1      14.363 -25.409 -45.768  1.00  0.00    -0.174 NA
BRANCH   8  12
ATOM     12  N   UNL     1      12.636 -22.316 -45.228  1.00  0.00    -0.383 N 
ATOM     13  H   UNL     1      12.975 -21.370 -45.405  1.00  0.00     0.158 HD
ATOM     14  H   UNL     1      11.619 -22.346 -45.282  1.00  0.00     0.158 HD
ENDBRANCH   8  12
BRANCH   9  15
ATOM     15  C   UNL     1      13.426 -22.781 -48.173  1.00  0.00     0.006 A 
ATOM     16  C   UNL     1      14.343 -21.776 -48.524  1.00  0.00     0.010 A 
ATOM     17  C   UNL     1      12.250 -22.926 -48.924  1.00  0.00     0.049 A 
ATOM     18  C   UNL     1      14.091 -20.937 -49.612  1.00  0.00     0.001 A 
ATOM     19  C   UNL     1      12.004 -22.082 -50.013  1.00  0.00     0.021 A 
ATOM     20  C   UNL     1      12.924 -21.090 -50.356  1.00  0.00     0.002 A 
ATOM     21  Cl  UNL     1      11.065 -24.133 -48.563  1.00  0.00    -0.084 Cl
ENDBRANCH   9  15
ENDBRANCH   1   7
BRANCH   5  22
ATOM     22  N   UNL     1      16.281 -23.708 -40.679  1.00  0.00     0.062 N 
ATOM     23  O   UNL     1      16.569 -24.251 -39.604  1.00  0.00    -0.258 OA
ATOM     24  O   UNL     1      16.878 -22.733 -41.159  1.00  0.00    -0.258 OA
ENDBRANCH   5  22
TORSDOF 4
ENDMDL
MODEL 8
REMARK VINA RESULT:    -6.499      3.630      7.395
REMARK INTER + INTRA:          -8.380
REMARK INTER:                  -8.026
REMARK INTRA:                  -0.353
REMARK UNBOUND:                -0.551
REMARK SMILES Nc1c(-c2ccccc2Cl)cnn1-c1cccc([N+](=O)[O-])c1
REMARK SMILES IDX 14 1 15 2 16 3 17 4 18 5 22 6 13 7 2 8 3 9 11 10 12 11 1 12
REMARK SMILES IDX 4 15 5 16 9 17 6 18 8 19 7 20 10 21 19 22 20 23 21 24
REMARK H PARENT 1 13 1 14
ROOT
ATOM      1  C   UNL     1      15.276 -23.583 -43.431  1.00  0.00     0.074 A 
ATOM      2  C   UNL     1      16.464 -23.171 -42.799  1.00  0.00     0.029 A 
ATOM      3  C   UNL     1      16.636 -23.323 -41.420  1.00  0.00     0.009 A 
ATOM      4  C   UNL     1      15.619 -23.879 -40.648  1.00  0.00     0.086 A 
ATOM      5  C   UNL     1      14.426 -24.270 -41.268  1.00  0.00     0.271 A 
ATOM      6  C   UNL     1      14.243 -24.119 -42.653  1.00  0.00     0.114 A 
ENDROOT
BRANCH   1   7
ATOM      7  N   UNL     1      15.144 -23.402 -44.843  1.00  0.00    -0.217 N 
ATOM      8  C   UNL     1      14.055 -22.928 -45.596  1.00  0.00     0.135 A 
ATOM      9  C   UNL     1      14.541 -22.735 -46.877  1.00  0.00     0.046 A 
ATOM     10  C   UNL     1      15.853 -23.237 -46.849  1.00  0.00     0.146 A 
ATOM     11  N   UNL     1      16.200 -23.707 -45.653  1.00  0.00    -0.174 NA
BRANCH   8  12
ATOM     12  N   UNL     1      12.793 -22.730 -45.117  1.00  0.00    -0.383 N 
ATOM     13  H   UNL     1      12.567 -23.104 -44.196  1.00  0.00     0.158 HD
ATOM     14  H   UNL     1      12.345 -21.826 -45.255  1.00  0.00     0.158 HD
ENDBRANCH   8  12
BRANCH   9  15
ATOM     15  C   UNL     1      13.779 -22.215 -47.994  1.00  0.00     0.006 A 
ATOM     16  C   UNL     1      14.011 -20.895 -48.413  1.00  0.00     0.010 A 
ATOM     17  C   UNL     1      12.809 -22.982 -48.658  1.00  0.00     0.049 A 
ATOM     18  C   UNL     1      13.293 -20.353 -49.481  1.00  0.00     0.001 A 
ATOM     19  C   UNL     1      12.093 -22.434 -49.728  1.00  0.00     0.021 A 
ATOM     20  C   UNL     1      12.335 -21.122 -50.139  1.00  0.00     0.002 A 
ATOM     21  Cl  UNL     1      12.455 -24.615 -48.210  1.00  0.00    -0.084 Cl
ENDBRANCH   9  15
ENDBRANCH   1   7
BRANCH   5  22
ATOM     22  N   UNL     1      13.348 -24.847 -40.457  1.00  0.00     0.062 N 
ATOM     23  O   UNL     1      12.780 -25.860 -40.890  1.00  0.00    -0.258 OA
ATOM     24  O   UNL     1      13.061 -24.278 -39.394  1.00  0.00    -0.258 OA
ENDBRANCH   5  22
TORSDOF 4
ENDMDL
MODEL 9
REMARK VINA RESULT:    -6.490      4.208      8.026
REMARK INTER + INTRA:          -8.369
REMARK INTER:                  -7.808
REMARK INTRA:                  -0.562
REMARK UNBOUND:                -0.551
REMARK SMILES Nc1c(-c2ccccc2Cl)cnn1-c1cccc([N+](=O)[O-])c1
REMARK SMILES IDX 14 1 15 2 16 3 17 4 18 5 22 6 13 7 2 8 3 9 11 10 12 11 1 12
REMARK SMILES IDX 4 15 5 16 9 17 6 18 8 19 7 20 10 21 19 22 20 23 21 24
REMARK H PARENT 1 13 1 14
ROOT
ATOM      1  C   UNL     1      13.400 -23.108 -45.204  1.00  0.00     0.074 A 
ATOM      2  C   UNL     1      12.663 -23.839 -44.254  1.00  0.00     0.029 A 
ATOM      3  C   UNL     1      13.211 -24.157 -43.008  1.00  0.00     0.009 A 
ATOM      4  C   UNL     1      14.508 -23.758 -42.695  1.00  0.00     0.086 A 
ATOM      5  C   UNL     1      15.254 -23.050 -43.644  1.00  0.00     0.271 A 
ATOM      6  C   UNL     1      14.713 -22.729 -44.901  1.00  0.00     0.114 A 
ENDROOT
BRANCH   1   7
ATOM      7  N   UNL     1      12.800 -22.812 -46.468  1.00  0.00    -0.217 N 
ATOM      8  C   UNL     1      12.300 -23.678 -47.456  1.00  0.00     0.135 A 
ATOM      9  C   UNL     1      11.626 -22.871 -48.356  1.00  0.00     0.046 A 
ATOM     10  C   UNL     1      11.881 -21.557 -47.929  1.00  0.00     0.146 A 
ATOM     11  N   UNL     1      12.645 -21.508 -46.840  1.00  0.00    -0.174 NA
BRANCH   8  12
ATOM     12  N   UNL     1      12.481 -25.030 -47.485  1.00  0.00    -0.383 N 
ATOM     13  H   UNL     1      12.470 -25.495 -48.392  1.00  0.00     0.158 HD
ATOM     14  H   UNL     1      13.182 -25.451 -46.877  1.00  0.00     0.158 HD
ENDBRANCH   8  12
BRANCH   9  15
ATOM     15  C   UNL     1      10.911 -23.335 -49.528  1.00  0.00     0.006 A 
ATOM     16  C   UNL     1      11.507 -23.173 -50.789  1.00  0.00     0.010 A 
ATOM     17  C   UNL     1       9.641 -23.924 -49.443  1.00  0.00     0.049 A 
ATOM     18  C   UNL     1      10.849 -23.600 -51.944  1.00  0.00     0.001 A 
ATOM     19  C   UNL     1       8.986 -24.351 -50.604  1.00  0.00     0.021 A 
ATOM     20  C   UNL     1       9.590 -24.189 -51.852  1.00  0.00     0.002 A 
ATOM     21  Cl  UNL     1       8.830 -24.161 -47.933  1.00  0.00    -0.084 Cl
ENDBRANCH   9  15
ENDBRANCH   1   7
BRANCH   5  22
ATOM     22  N   UNL     1      16.625 -22.636 -43.323  1.00  0.00     0.062 N 
ATOM     23  O   UNL     1      17.088 -22.978 -42.226  1.00  0.00    -0.258 OA
ATOM     24  O   UNL     1      17.232 -21.958 -44.163  1.00  0.00    -0.258 OA
ENDBRANCH   5  22
TORSDOF 4
ENDMDL
