MODEL 1
REMARK VINA RESULT:    -7.059      0.000      0.000
REMARK INTER + INTRA:         -12.023
REMARK INTER:                 -10.979
REMARK INTRA:                  -1.044
REMARK UNBOUND:                -1.044
REMARK SMILES Cc1cn([C@H]2C[C@H](N=[N+]=[N-])[C@@H](COC(=O)[C@@H]([NH3+])CCC(=O)[O-])O2)c(=O)[nH]c1=O
REMARK SMILES IDX 14 1 15 2 13 3 12 4 11 5 5 6 6 7 23 8 7 9 4 10 2 11 3 12
REMARK SMILES IDX 27 13 26 14 28 15 24 16 25 17 1 18 8 20 9 21 10 22 16 23
REMARK SMILES IDX 17 24 18 28 19 29 20 30 21 31 22 32
REMARK H PARENT 26 19 17 25 17 26 17 27
ROOT
ATOM      1  C   UNL     1      15.940 -23.705 -41.500  1.00  0.00     0.364 C 
ATOM      2  O   UNL     1      16.716 -22.770 -41.333  1.00  0.00    -0.245 OA
ENDROOT
BRANCH   1   3
ATOM      3  O   UNL     1      14.812 -23.665 -42.258  1.00  0.00    -0.459 OA
BRANCH   3   4
ATOM      4  C   UNL     1      14.826 -22.721 -43.342  1.00  0.00     0.265 C 
BRANCH   4   5
ATOM      5  C   UNL     1      15.569 -23.243 -44.573  1.00  0.00     0.167 C 
ATOM      6  C   UNL     1      15.131 -23.614 -46.835  1.00  0.00     0.224 C 
ATOM      7  C   UNL     1      16.438 -22.833 -46.707  1.00  0.00     0.067 C 
ATOM      8  O   UNL     1      14.631 -23.822 -45.498  1.00  0.00    -0.351 OA
ATOM      9  C   UNL     1      16.301 -22.160 -45.359  1.00  0.00     0.110 C 
BRANCH   6  10
ATOM     10  N   UNL     1      14.137 -22.927 -47.661  1.00  0.00    -0.274 N 
ATOM     11  C   UNL     1      13.433 -21.013 -48.901  1.00  0.00     0.031 C 
ATOM     12  C   UNL     1      14.330 -21.642 -48.131  1.00  0.00     0.102 C 
ATOM     13  C   UNL     1      12.191 -21.736 -49.256  1.00  0.00     0.256 C 
ATOM     14  N   UNL     1      12.064 -22.990 -48.737  1.00  0.00    -0.274 N 
ATOM     15  O   UNL     1      11.334 -21.237 -49.978  1.00  0.00    -0.269 OA
ATOM     16  C   UNL     1      12.985 -23.643 -47.964  1.00  0.00     0.330 C 
ATOM     17  O   UNL     1      12.778 -24.796 -47.592  1.00  0.00    -0.248 OA
ATOM     18  C   UNL     1      13.596 -19.624 -49.426  1.00  0.00     0.052 C 
ATOM     19  H   UNL     1      11.227 -23.501 -48.972  1.00  0.00     0.175 HD
ENDBRANCH   6  10
BRANCH   9  20
ATOM     20  N   UNL     1      17.609 -21.868 -44.770  1.00  0.00    -0.088 NA
ATOM     21  N   UNL     1      18.203 -22.833 -44.252  1.00  0.00     0.001 N 
ATOM     22  N   UNL     1      18.740 -23.729 -43.798  1.00  0.00    -0.003 NA
ENDBRANCH   9  20
ENDBRANCH   4   5
ENDBRANCH   3   4
ENDBRANCH   1   3
BRANCH   1  23
ATOM     23  C   UNL     1      16.195 -25.099 -40.923  1.00  0.00     0.292 C 
BRANCH  23  24
ATOM     24  N   UNL     1      17.464 -25.660 -41.471  1.00  0.00    -0.346 N 
ATOM     25  H   UNL     1      17.583 -25.377 -42.484  1.00  0.00     0.345 HD
ATOM     26  H   UNL     1      17.397 -26.684 -41.560  1.00  0.00     0.345 HD
ATOM     27  H   UNL     1      18.320 -25.427 -40.973  1.00  0.00     0.345 HD
ENDBRANCH  23  24
BRANCH  23  28
ATOM     28  C   UNL     1      16.169 -25.123 -39.385  1.00  0.00     0.083 C 
BRANCH  28  29
ATOM     29  C   UNL     1      14.886 -25.658 -38.740  1.00  0.00     0.059 C 
BRANCH  29  30
ATOM     30  C   UNL     1      13.782 -24.622 -38.542  1.00  0.00     0.042 C 
ATOM     31  O   UNL     1      13.074 -24.383 -39.545  1.00  0.00    -0.550 OA
ATOM     32  O   UNL     1      13.812 -24.040 -37.413  1.00  0.00    -0.550 OA
ENDBRANCH  29  30
ENDBRANCH  28  29
ENDBRANCH  23  28
ENDBRANCH   1  23
TORSDOF 10
ENDMDL
MODEL 2
REMARK VINA RESULT:    -6.900      1.860      2.228
REMARK INTER + INTRA:         -11.776
REMARK INTER:                 -10.406
REMARK INTRA:                  -1.369
REMARK UNBOUND:                -1.044
REMARK SMILES Cc1cn([C@H]2C[C@H](N=[N+]=[N-])[C@@H](COC(=O)[C@@H]([NH3+])CCC(=O)[O-])O2)c(=O)[nH]c1=O
REMARK SMILES IDX 14 1 15 2 13 3 12 4 11 5 5 6 6 7 23 8 7 9 4 10 2 11 3 12
REMARK SMILES IDX 27 13 26 14 28 15 24 16 25 17 1 18 8 20 9 21 10 22 16 23
REMARK SMILES IDX 17 24 18 28 19 29 20 30 21 31 22 32
REMARK H PARENT 26 19 17 25 17 26 17 27
ROOT
ATOM      1  C   UNL     1      16.171 -23.562 -41.919  1.00  0.00     0.364 C 
ATOM      2  O   UNL     1      17.184 -22.932 -42.206  1.00  0.00    -0.245 OA
ENDROOT
BRANCH   1   3
ATOM      3  O   UNL     1      14.904 -23.217 -42.268  1.00  0.00    -0.459 OA
BRANCH   3   4
ATOM      4  C   UNL     1      14.665 -23.075 -43.678  1.00  0.00     0.265 C 
BRANCH   4   5
ATOM      5  C   UNL     1      13.568 -24.009 -44.190  1.00  0.00     0.167 C 
ATOM      6  C   UNL     1      11.916 -24.004 -45.839  1.00  0.00     0.224 C 
ATOM      7  C   UNL     1      12.701 -25.311 -45.933  1.00  0.00     0.067 C 
ATOM      8  O   UNL     1      12.500 -23.235 -44.768  1.00  0.00    -0.351 OA
ATOM      9  C   UNL     1      14.027 -24.956 -45.294  1.00  0.00     0.110 C 
BRANCH   6  10
ATOM     10  N   UNL     1      11.926 -23.244 -47.090  1.00  0.00    -0.274 N 
ATOM     11  C   UNL     1      13.050 -21.835 -48.654  1.00  0.00     0.031 C 
ATOM     12  C   UNL     1      13.027 -22.519 -47.503  1.00  0.00     0.102 C 
ATOM     13  C   UNL     1      11.841 -21.868 -49.508  1.00  0.00     0.256 C 
ATOM     14  N   UNL     1      10.789 -22.587 -49.022  1.00  0.00    -0.274 N 
ATOM     15  O   UNL     1      11.794 -21.289 -50.588  1.00  0.00    -0.269 OA
ATOM     16  C   UNL     1      10.768 -23.300 -47.856  1.00  0.00     0.330 C 
ATOM     17  O   UNL     1       9.772 -23.951 -47.545  1.00  0.00    -0.248 OA
ATOM     18  C   UNL     1      14.214 -21.032 -49.138  1.00  0.00     0.052 C 
ATOM     19  H   UNL     1       9.959 -22.626 -49.593  1.00  0.00     0.175 HD
ENDBRANCH   6  10
BRANCH   9  20
ATOM     20  N   UNL     1      14.688 -26.139 -44.739  1.00  0.00    -0.088 NA
ATOM     21  N   UNL     1      15.934 -26.128 -44.760  1.00  0.00     0.001 N 
ATOM     22  N   UNL     1      17.072 -26.095 -44.771  1.00  0.00    -0.003 NA
ENDBRANCH   9  20
ENDBRANCH   4   5
ENDBRANCH   3   4
ENDBRANCH   1   3
BRANCH   1  23
ATOM     23  C   UNL     1      16.218 -24.900 -41.175  1.00  0.00     0.292 C 
BRANCH  23  24
ATOM     24  N   UNL     1      17.412 -25.685 -41.602  1.00  0.00    -0.346 N 
ATOM     25  H   UNL     1      17.578 -26.491 -40.936  1.00  0.00     0.345 HD
ATOM     26  H   UNL     1      18.272 -25.137 -41.466  1.00  0.00     0.345 HD
ATOM     27  H   UNL     1      17.403 -26.054 -42.551  1.00  0.00     0.345 HD
ENDBRANCH  23  24
BRANCH  23  28
ATOM     28  C   UNL     1      16.149 -24.737 -39.648  1.00  0.00     0.083 C 
BRANCH  28  29
ATOM     29  C   UNL     1      14.948 -25.387 -38.953  1.00  0.00     0.059 C 
BRANCH  29  30
ATOM     30  C   UNL     1      13.785 -24.443 -38.654  1.00  0.00     0.042 C 
ATOM     31  O   UNL     1      13.107 -24.086 -39.642  1.00  0.00    -0.550 OA
ATOM     32  O   UNL     1      13.742 -24.038 -37.450  1.00  0.00    -0.550 OA
ENDBRANCH  29  30
ENDBRANCH  28  29
ENDBRANCH  23  28
ENDBRANCH   1  23
TORSDOF 10
ENDMDL
MODEL 3
REMARK VINA RESULT:    -6.768      2.468      8.912
REMARK INTER + INTRA:         -11.570
REMARK INTER:                 -10.828
REMARK INTRA:                  -0.742
REMARK UNBOUND:                -1.044
REMARK SMILES Cc1cn([C@H]2C[C@H](N=[N+]=[N-])[C@@H](COC(=O)[C@@H]([NH3+])CCC(=O)[O-])O2)c(=O)[nH]c1=O
REMARK SMILES IDX 14 1 15 2 13 3 12 4 11 5 5 6 6 7 23 8 7 9 4 10 2 11 3 12
REMARK SMILES IDX 27 13 26 14 28 15 24 16 25 17 1 18 8 20 9 21 10 22 16 23
REMARK SMILES IDX 17 24 18 28 19 29 20 30 21 31 22 32
REMARK H PARENT 26 19 17 25 17 26 17 27
ROOT
ATOM      1  C   UNL     1      12.559 -20.931 -47.510  1.00  0.00     0.364 C 
ATOM      2  O   UNL     1      12.654 -19.708 -47.523  1.00  0.00    -0.245 OA
ENDROOT
BRANCH   1   3
ATOM      3  O   UNL     1      12.681 -21.718 -46.409  1.00  0.00    -0.459 OA
BRANCH   3   4
ATOM      4  C   UNL     1      13.892 -22.488 -46.327  1.00  0.00     0.265 C 
BRANCH   4   5
ATOM      5  C   UNL     1      13.642 -23.946 -45.939  1.00  0.00     0.167 C 
ATOM      6  C   UNL     1      14.355 -25.452 -44.305  1.00  0.00     0.224 C 
ATOM      7  C   UNL     1      12.829 -25.489 -44.377  1.00  0.00     0.067 C 
ATOM      8  O   UNL     1      14.800 -24.477 -45.270  1.00  0.00    -0.351 OA
ATOM      9  C   UNL     1      12.485 -24.138 -44.964  1.00  0.00     0.110 C 
BRANCH   6  10
ATOM     10  N   UNL     1      14.852 -25.127 -42.968  1.00  0.00    -0.274 N 
ATOM     11  C   UNL     1      14.452 -24.557 -40.685  1.00  0.00     0.031 C 
ATOM     12  C   UNL     1      14.005 -24.839 -41.915  1.00  0.00     0.102 C 
ATOM     13  C   UNL     1      15.915 -24.558 -40.459  1.00  0.00     0.256 C 
ATOM     14  N   UNL     1      16.685 -24.829 -41.550  1.00  0.00    -0.274 N 
ATOM     15  O   UNL     1      16.400 -24.335 -39.355  1.00  0.00    -0.269 OA
ATOM     16  C   UNL     1      16.232 -25.135 -42.804  1.00  0.00     0.330 C 
ATOM     17  O   UNL     1      17.027 -25.409 -43.701  1.00  0.00    -0.248 OA
ATOM     18  C   UNL     1      13.574 -24.234 -39.520  1.00  0.00     0.052 C 
ATOM     19  H   UNL     1      17.685 -24.840 -41.414  1.00  0.00     0.175 HD
ENDBRANCH   6  10
BRANCH   9  20
ATOM     20  N   UNL     1      11.199 -24.168 -45.664  1.00  0.00    -0.088 NA
ATOM     21  N   UNL     1      11.144 -24.895 -46.674  1.00  0.00     0.001 N 
ATOM     22  N   UNL     1      11.105 -25.578 -47.584  1.00  0.00    -0.003 NA
ENDBRANCH   9  20
ENDBRANCH   4   5
ENDBRANCH   3   4
ENDBRANCH   1   3
BRANCH   1  23
ATOM     23  C   UNL     1      12.203 -21.741 -48.759  1.00  0.00     0.292 C 
BRANCH  23  24
ATOM     24  N   UNL     1      10.872 -22.392 -48.589  1.00  0.00    -0.346 N 
ATOM     25  H   UNL     1      10.683 -23.056 -49.392  1.00  0.00     0.345 HD
ATOM     26  H   UNL     1      10.115 -21.705 -48.720  1.00  0.00     0.345 HD
ATOM     27  H   UNL     1      10.714 -22.893 -47.718  1.00  0.00     0.345 HD
ENDBRANCH  23  24
BRANCH  23  28
ATOM     28  C   UNL     1      12.281 -20.912 -50.052  1.00  0.00     0.083 C 
BRANCH  28  29
ATOM     29  C   UNL     1      13.676 -20.742 -50.663  1.00  0.00     0.059 C 
BRANCH  29  30
ATOM     30  C   UNL     1      13.702 -20.078 -52.038  1.00  0.00     0.042 C 
ATOM     31  O   UNL     1      13.858 -18.837 -52.040  1.00  0.00    -0.550 OA
ATOM     32  O   UNL     1      13.428 -20.864 -52.999  1.00  0.00    -0.550 OA
ENDBRANCH  29  30
ENDBRANCH  28  29
ENDBRANCH  23  28
ENDBRANCH   1  23
TORSDOF 10
ENDMDL
MODEL 4
REMARK VINA RESULT:    -6.762      3.660      8.097
REMARK INTER + INTRA:         -11.562
REMARK INTER:                  -9.870
REMARK INTRA:                  -1.692
REMARK UNBOUND:                -1.044
REMARK SMILES Cc1cn([C@H]2C[C@H](N=[N+]=[N-])[C@@H](COC(=O)[C@@H]([NH3+])CCC(=O)[O-])O2)c(=O)[nH]c1=O
REMARK SMILES IDX 14 1 15 2 13 3 12 4 11 5 5 6 6 7 23 8 7 9 4 10 2 11 3 12
REMARK SMILES IDX 27 13 26 14 28 15 24 16 25 17 1 18 8 20 9 21 10 22 16 23
REMARK SMILES IDX 17 24 18 28 19 29 20 30 21 31 22 32
REMARK H PARENT 26 19 17 25 17 26 17 27
ROOT
ATOM      1  C   UNL     1      11.079 -25.309 -49.786  1.00  0.00     0.364 C 
ATOM      2  O   UNL     1      10.737 -25.735 -50.884  1.00  0.00    -0.245 OA
ENDROOT
BRANCH   1   3
ATOM      3  O   UNL     1      11.929 -24.270 -49.575  1.00  0.00    -0.459 OA
BRANCH   3   4
ATOM      4  C   UNL     1      11.479 -22.992 -50.055  1.00  0.00     0.265 C 
BRANCH   4   5
ATOM      5  C   UNL     1      11.648 -21.878 -49.021  1.00  0.00     0.167 C 
ATOM      6  C   UNL     1      12.445 -21.642 -46.840  1.00  0.00     0.224 C 
ATOM      7  C   UNL     1      13.076 -20.560 -47.716  1.00  0.00     0.067 C 
ATOM      8  O   UNL     1      11.594 -22.433 -47.694  1.00  0.00    -0.351 OA
ATOM      9  C   UNL     1      12.988 -21.153 -49.105  1.00  0.00     0.110 C 
BRANCH   6  10
ATOM     10  N   UNL     1      13.439 -22.483 -46.173  1.00  0.00    -0.274 N 
ATOM     11  C   UNL     1      15.685 -23.257 -45.940  1.00  0.00     0.031 C 
ATOM     12  C   UNL     1      14.767 -22.502 -46.556  1.00  0.00     0.102 C 
ATOM     13  C   UNL     1      15.247 -24.098 -44.803  1.00  0.00     0.256 C 
ATOM     14  N   UNL     1      13.919 -24.042 -44.500  1.00  0.00    -0.274 N 
ATOM     15  O   UNL     1      16.033 -24.796 -44.173  1.00  0.00    -0.269 OA
ATOM     16  C   UNL     1      12.981 -23.260 -45.115  1.00  0.00     0.330 C 
ATOM     17  O   UNL     1      11.817 -23.260 -44.720  1.00  0.00    -0.248 OA
ATOM     18  C   UNL     1      17.128 -23.314 -46.323  1.00  0.00     0.052 C 
ATOM     19  H   UNL     1      13.602 -24.604 -43.724  1.00  0.00     0.175 HD
ENDBRANCH   6  10
BRANCH   9  20
ATOM     20  N   UNL     1      12.965 -20.112 -50.133  1.00  0.00    -0.088 NA
ATOM     21  N   UNL     1      13.277 -20.473 -51.284  1.00  0.00     0.001 N 
ATOM     22  N   UNL     1      13.547 -20.823 -52.333  1.00  0.00    -0.003 NA
ENDBRANCH   9  20
ENDBRANCH   4   5
ENDBRANCH   3   4
ENDBRANCH   1   3
BRANCH   1  23
ATOM     23  C   UNL     1      10.511 -25.860 -48.475  1.00  0.00     0.292 C 
BRANCH  23  24
ATOM     24  N   UNL     1      11.219 -25.254 -47.311  1.00  0.00    -0.346 N 
ATOM     25  H   UNL     1      10.634 -25.352 -46.434  1.00  0.00     0.345 HD
ATOM     26  H   UNL     1      11.259 -24.229 -47.407  1.00  0.00     0.345 HD
ATOM     27  H   UNL     1      12.153 -25.602 -47.110  1.00  0.00     0.345 HD
ENDBRANCH  23  24
BRANCH  23  28
ATOM     28  C   UNL     1       8.985 -25.701 -48.372  1.00  0.00     0.083 C 
BRANCH  28  29
ATOM     29  C   UNL     1       8.459 -24.264 -48.293  1.00  0.00     0.059 C 
BRANCH  29  30
ATOM     30  C   UNL     1       7.448 -23.887 -49.373  1.00  0.00     0.042 C 
ATOM     31  O   UNL     1       6.248 -23.893 -49.022  1.00  0.00    -0.550 OA
ATOM     32  O   UNL     1       7.954 -23.742 -50.530  1.00  0.00    -0.550 OA
ENDBRANCH  29  30
ENDBRANCH  28  29
ENDBRANCH  23  28
ENDBRANCH   1  23
TORSDOF 10
ENDMDL
MODEL 5
REMARK VINA RESULT:    -6.762     23.775     25.079
REMARK INTER + INTRA:         -11.561
REMARK INTER:                 -10.033
REMARK INTRA:                  -1.528
REMARK UNBOUND:                -1.044
REMARK SMILES Cc1cn([C@H]2C[C@H](N=[N+]=[N-])[C@@H](COC(=O)[C@@H]([NH3+])CCC(=O)[O-])O2)c(=O)[nH]c1=O
REMARK SMILES IDX 14 1 15 2 13 3 12 4 11 5 5 6 6 7 23 8 7 9 4 10 2 11 3 12
REMARK SMILES IDX 27 13 26 14 28 15 24 16 25 17 1 18 8 20 9 21 10 22 16 23
REMARK SMILES IDX 17 24 18 28 19 29 20 30 21 31 22 32
REMARK H PARENT 26 19 17 25 17 26 17 27
ROOT
ATOM      1  C   UNL     1       2.354  -6.318 -31.950  1.00  0.00     0.364 C 
ATOM      2  O   UNL     1       1.967  -5.248 -31.492  1.00  0.00    -0.245 OA
ENDROOT
BRANCH   1   3
ATOM      3  O   UNL     1       1.841  -7.538 -31.640  1.00  0.00    -0.459 OA
BRANCH   3   4
ATOM      4  C   UNL     1       0.568  -7.524 -30.972  1.00  0.00     0.265 C 
BRANCH   4   5
ATOM      5  C   UNL     1      -0.583  -7.953 -31.883  1.00  0.00     0.167 C 
ATOM      6  C   UNL     1      -1.834  -7.057 -33.637  1.00  0.00     0.224 C 
ATOM      7  C   UNL     1      -1.351  -8.450 -34.038  1.00  0.00     0.067 C 
ATOM      8  O   UNL     1      -1.320  -6.795 -32.316  1.00  0.00    -0.351 OA
ATOM      9  C   UNL     1      -0.133  -8.652 -33.162  1.00  0.00     0.110 C 
BRANCH   6  10
ATOM     10  N   UNL     1      -1.410  -6.018 -34.576  1.00  0.00    -0.274 N 
ATOM     11  C   UNL     1       0.176  -4.380 -35.285  1.00  0.00     0.031 C 
ATOM     12  C   UNL     1      -0.227  -5.321 -34.421  1.00  0.00     0.102 C 
ATOM     13  C   UNL     1      -0.691  -4.087 -36.449  1.00  0.00     0.256 C 
ATOM     14  N   UNL     1      -1.851  -4.799 -36.520  1.00  0.00    -0.274 N 
ATOM     15  O   UNL     1      -0.379  -3.258 -37.296  1.00  0.00    -0.269 OA
ATOM     16  C   UNL     1      -2.258  -5.773 -35.650  1.00  0.00     0.330 C 
ATOM     17  O   UNL     1      -3.308  -6.382 -35.847  1.00  0.00    -0.248 OA
ATOM     18  C   UNL     1       1.442  -3.599 -35.154  1.00  0.00     0.052 C 
ATOM     19  H   UNL     1      -2.452  -4.617 -37.310  1.00  0.00     0.175 HD
ENDBRANCH   6  10
BRANCH   9  20
ATOM     20  N   UNL     1       0.130 -10.072 -32.928  1.00  0.00    -0.088 NA
ATOM     21  N   UNL     1      -0.689 -10.668 -32.202  1.00  0.00     0.001 N 
ATOM     22  N   UNL     1      -1.456 -11.201 -31.551  1.00  0.00    -0.003 NA
ENDBRANCH   9  20
ENDBRANCH   4   5
ENDBRANCH   3   4
ENDBRANCH   1   3
BRANCH   1  23
ATOM     23  C   UNL     1       3.445  -6.410 -33.020  1.00  0.00     0.292 C 
BRANCH  23  24
ATOM     24  N   UNL     1       2.866  -6.897 -34.306  1.00  0.00    -0.346 N 
ATOM     25  H   UNL     1       2.606  -7.920 -34.227  1.00  0.00     0.345 HD
ATOM     26  H   UNL     1       3.589  -6.933 -35.037  1.00  0.00     0.345 HD
ATOM     27  H   UNL     1       2.059  -6.392 -34.666  1.00  0.00     0.345 HD
ENDBRANCH  23  24
BRANCH  23  28
ATOM     28  C   UNL     1       4.220  -5.094 -33.197  1.00  0.00     0.083 C 
BRANCH  28  29
ATOM     29  C   UNL     1       5.592  -5.021 -32.519  1.00  0.00     0.059 C 
BRANCH  29  30
ATOM     30  C   UNL     1       5.712  -3.974 -31.414  1.00  0.00     0.042 C 
ATOM     31  O   UNL     1       6.770  -4.003 -30.749  1.00  0.00    -0.550 OA
ATOM     32  O   UNL     1       4.656  -3.290 -31.231  1.00  0.00    -0.550 OA
ENDBRANCH  29  30
ENDBRANCH  28  29
ENDBRANCH  23  28
ENDBRANCH   1  23
TORSDOF 10
ENDMDL
MODEL 6
REMARK VINA RESULT:    -6.741      2.771      7.267
REMARK INTER + INTRA:         -11.529
REMARK INTER:                 -10.045
REMARK INTRA:                  -1.484
REMARK UNBOUND:                -1.044
REMARK SMILES Cc1cn([C@H]2C[C@H](N=[N+]=[N-])[C@@H](COC(=O)[C@@H]([NH3+])CCC(=O)[O-])O2)c(=O)[nH]c1=O
REMARK SMILES IDX 14 1 15 2 13 3 12 4 11 5 5 6 6 7 23 8 7 9 4 10 2 11 3 12
REMARK SMILES IDX 27 13 26 14 28 15 24 16 25 17 1 18 8 20 9 21 10 22 16 23
REMARK SMILES IDX 17 24 18 28 19 29 20 30 21 31 22 32
REMARK H PARENT 26 19 17 25 17 26 17 27
ROOT
ATOM      1  C   UNL     1      12.552 -23.911 -45.093  1.00  0.00     0.364 C 
ATOM      2  O   UNL     1      11.545 -23.453 -44.563  1.00  0.00    -0.245 OA
ENDROOT
BRANCH   1   3
ATOM      3  O   UNL     1      13.114 -25.115 -44.807  1.00  0.00    -0.459 OA
BRANCH   3   4
ATOM      4  C   UNL     1      12.616 -25.767 -43.628  1.00  0.00     0.265 C 
BRANCH   4   5
ATOM      5  C   UNL     1      13.716 -26.070 -42.609  1.00  0.00     0.167 C 
ATOM      6  C   UNL     1      16.029 -25.820 -42.428  1.00  0.00     0.224 C 
ATOM      7  C   UNL     1      15.374 -25.275 -41.160  1.00  0.00     0.067 C 
ATOM      8  O   UNL     1      14.967 -26.277 -43.290  1.00  0.00    -0.351 OA
ATOM      9  C   UNL     1      13.973 -24.937 -41.621  1.00  0.00     0.110 C 
BRANCH   6  10
ATOM     10  N   UNL     1      16.861 -24.827 -43.110  1.00  0.00    -0.274 N 
ATOM     11  C   UNL     1      17.089 -22.996 -44.624  1.00  0.00     0.031 C 
ATOM     12  C   UNL     1      16.337 -23.918 -44.009  1.00  0.00     0.102 C 
ATOM     13  C   UNL     1      18.537 -22.960 -44.316  1.00  0.00     0.256 C 
ATOM     14  N   UNL     1      18.981 -23.902 -43.437  1.00  0.00    -0.274 N 
ATOM     15  O   UNL     1      19.285 -22.130 -44.819  1.00  0.00    -0.269 OA
ATOM     16  C   UNL     1      18.214 -24.835 -42.794  1.00  0.00     0.330 C 
ATOM     17  O   UNL     1      18.724 -25.605 -41.983  1.00  0.00    -0.248 OA
ATOM     18  C   UNL     1      16.568 -21.999 -45.606  1.00  0.00     0.052 C 
ATOM     19  H   UNL     1      19.964 -23.890 -43.211  1.00  0.00     0.175 HD
ENDBRANCH   6  10
BRANCH   9  20
ATOM     20  N   UNL     1      13.020 -24.973 -40.510  1.00  0.00    -0.088 NA
ATOM     21  N   UNL     1      13.369 -24.381 -39.471  1.00  0.00     0.001 N 
ATOM     22  N   UNL     1      13.695 -23.821 -38.535  1.00  0.00    -0.003 NA
ENDBRANCH   9  20
ENDBRANCH   4   5
ENDBRANCH   3   4
ENDBRANCH   1   3
BRANCH   1  23
ATOM     23  C   UNL     1      13.279 -23.194 -46.234  1.00  0.00     0.292 C 
BRANCH  23  24
ATOM     24  N   UNL     1      14.070 -24.173 -47.036  1.00  0.00    -0.346 N 
ATOM     25  H   UNL     1      13.914 -24.011 -48.070  1.00  0.00     0.345 HD
ATOM     26  H   UNL     1      13.688 -25.122 -46.925  1.00  0.00     0.345 HD
ATOM     27  H   UNL     1      15.073 -24.199 -46.867  1.00  0.00     0.345 HD
ENDBRANCH  23  24
BRANCH  23  28
ATOM     28  C   UNL     1      12.335 -22.356 -47.112  1.00  0.00     0.083 C 
BRANCH  28  29
ATOM     29  C   UNL     1      12.770 -20.913 -47.386  1.00  0.00     0.059 C 
BRANCH  29  30
ATOM     30  C   UNL     1      13.540 -20.707 -48.689  1.00  0.00     0.042 C 
ATOM     31  O   UNL     1      13.149 -19.763 -49.409  1.00  0.00    -0.550 OA
ATOM     32  O   UNL     1      14.399 -21.612 -48.932  1.00  0.00    -0.550 OA
ENDBRANCH  29  30
ENDBRANCH  28  29
ENDBRANCH  23  28
ENDBRANCH   1  23
TORSDOF 10
ENDMDL
MODEL 7
REMARK VINA RESULT:    -6.704      1.600      2.319
REMARK INTER + INTRA:         -11.471
REMARK INTER:                 -10.296
REMARK INTRA:                  -1.175
REMARK UNBOUND:                -1.044
REMARK SMILES Cc1cn([C@H]2C[C@H](N=[N+]=[N-])[C@@H](COC(=O)[C@@H]([NH3+])CCC(=O)[O-])O2)c(=O)[nH]c1=O
REMARK SMILES IDX 14 1 15 2 13 3 12 4 11 5 5 6 6 7 23 8 7 9 4 10 2 11 3 12
REMARK SMILES IDX 27 13 26 14 28 15 24 16 25 17 1 18 8 20 9 21 10 22 16 23
REMARK SMILES IDX 17 24 18 28 19 29 20 30 21 31 22 32
REMARK H PARENT 26 19 17 25 17 26 17 27
ROOT
ATOM      1  C   UNL     1      15.920 -24.664 -41.406  1.00  0.00     0.364 C 
ATOM      2  O   UNL     1      16.394 -23.719 -40.784  1.00  0.00    -0.245 OA
ENDROOT
BRANCH   1   3
ATOM      3  O   UNL     1      15.587 -24.650 -42.724  1.00  0.00    -0.459 OA
BRANCH   3   4
ATOM      4  C   UNL     1      16.543 -25.254 -43.611  1.00  0.00     0.265 C 
BRANCH   4   5
ATOM      5  C   UNL     1      16.928 -24.343 -44.777  1.00  0.00     0.167 C 
ATOM      6  C   UNL     1      15.975 -23.570 -46.763  1.00  0.00     0.224 C 
ATOM      7  C   UNL     1      16.542 -22.379 -45.993  1.00  0.00     0.067 C 
ATOM      8  O   UNL     1      16.221 -24.746 -45.965  1.00  0.00    -0.351 OA
ATOM      9  C   UNL     1      16.562 -22.877 -44.564  1.00  0.00     0.110 C 
BRANCH   6  10
ATOM     10  N   UNL     1      14.548 -23.430 -47.055  1.00  0.00    -0.274 N 
ATOM     11  C   UNL     1      12.271 -23.987 -46.605  1.00  0.00     0.031 C 
ATOM     12  C   UNL     1      13.579 -24.123 -46.355  1.00  0.00     0.102 C 
ATOM     13  C   UNL     1      11.861 -23.052 -47.678  1.00  0.00     0.256 C 
ATOM     14  N   UNL     1      12.874 -22.423 -48.337  1.00  0.00    -0.274 N 
ATOM     15  O   UNL     1      10.681 -22.855 -47.949  1.00  0.00    -0.269 OA
ATOM     16  C   UNL     1      14.210 -22.546 -48.073  1.00  0.00     0.330 C 
ATOM     17  O   UNL     1      15.032 -21.887 -48.708  1.00  0.00    -0.248 OA
ATOM     18  C   UNL     1      11.191 -24.720 -45.879  1.00  0.00     0.052 C 
ATOM     19  H   UNL     1      12.614 -21.778 -49.068  1.00  0.00     0.175 HD
ENDBRANCH   6  10
BRANCH   9  20
ATOM     20  N   UNL     1      17.578 -22.186 -43.768  1.00  0.00    -0.088 NA
ATOM     21  N   UNL     1      18.736 -22.202 -44.228  1.00  0.00     0.001 N 
ATOM     22  N   UNL     1      19.785 -22.212 -44.669  1.00  0.00    -0.003 NA
ENDBRANCH   9  20
ENDBRANCH   4   5
ENDBRANCH   3   4
ENDBRANCH   1   3
BRANCH   1  23
ATOM     23  C   UNL     1      15.710 -26.043 -40.775  1.00  0.00     0.292 C 
BRANCH  23  24
ATOM     24  N   UNL     1      16.792 -26.328 -39.789  1.00  0.00    -0.346 N 
ATOM     25  H   UNL     1      17.555 -25.597 -39.860  1.00  0.00     0.345 HD
ATOM     26  H   UNL     1      17.309 -27.178 -40.055  1.00  0.00     0.345 HD
ATOM     27  H   UNL     1      16.514 -26.403 -38.813  1.00  0.00     0.345 HD
ENDBRANCH  23  24
BRANCH  23  28
ATOM     28  C   UNL     1      14.310 -26.214 -40.164  1.00  0.00     0.083 C 
BRANCH  28  29
ATOM     29  C   UNL     1      14.161 -25.810 -38.693  1.00  0.00     0.059 C 
BRANCH  29  30
ATOM     30  C   UNL     1      13.628 -24.398 -38.461  1.00  0.00     0.042 C 
ATOM     31  O   UNL     1      13.735 -23.960 -37.295  1.00  0.00    -0.550 OA
ATOM     32  O   UNL     1      13.021 -23.902 -39.462  1.00  0.00    -0.550 OA
ENDBRANCH  29  30
ENDBRANCH  28  29
ENDBRANCH  23  28
ENDBRANCH   1  23
TORSDOF 10
ENDMDL
MODEL 8
REMARK VINA RESULT:    -6.630      3.328      5.617
REMARK INTER + INTRA:         -11.356
REMARK INTER:                 -10.000
REMARK INTRA:                  -1.356
REMARK UNBOUND:                -1.044
REMARK SMILES Cc1cn([C@H]2C[C@H](N=[N+]=[N-])[C@@H](COC(=O)[C@@H]([NH3+])CCC(=O)[O-])O2)c(=O)[nH]c1=O
REMARK SMILES IDX 14 1 15 2 13 3 12 4 11 5 5 6 6 7 23 8 7 9 4 10 2 11 3 12
REMARK SMILES IDX 27 13 26 14 28 15 24 16 25 17 1 18 8 20 9 21 10 22 16 23
REMARK SMILES IDX 17 24 18 28 19 29 20 30 21 31 22 32
REMARK H PARENT 26 19 17 25 17 26 17 27
ROOT
ATOM      1  C   UNL     1      12.412 -24.106 -44.386  1.00  0.00     0.364 C 
ATOM      2  O   UNL     1      11.553 -23.394 -43.876  1.00  0.00    -0.245 OA
ENDROOT
BRANCH   1   3
ATOM      3  O   UNL     1      12.174 -25.144 -45.230  1.00  0.00    -0.459 OA
BRANCH   3   4
ATOM      4  C   UNL     1      11.189 -24.903 -46.248  1.00  0.00     0.265 C 
BRANCH   4   5
ATOM      5  C   UNL     1      11.802 -24.421 -47.564  1.00  0.00     0.167 C 
ATOM      6  C   UNL     1      11.160 -24.191 -49.796  1.00  0.00     0.224 C 
ATOM      7  C   UNL     1      11.796 -22.883 -49.329  1.00  0.00     0.067 C 
ATOM      8  O   UNL     1      11.172 -25.092 -48.670  1.00  0.00    -0.351 OA
ATOM      9  C   UNL     1      11.608 -22.931 -47.829  1.00  0.00     0.110 C 
BRANCH   6  10
ATOM     10  N   UNL     1       9.799 -24.012 -50.304  1.00  0.00    -0.274 N 
ATOM     11  C   UNL     1       7.436 -24.061 -49.973  1.00  0.00     0.031 C 
ATOM     12  C   UNL     1       8.684 -24.239 -49.521  1.00  0.00     0.102 C 
ATOM     13  C   UNL     1       7.260 -23.600 -51.370  1.00  0.00     0.256 C 
ATOM     14  N   UNL     1       8.407 -23.419 -52.084  1.00  0.00    -0.274 N 
ATOM     15  O   UNL     1       6.151 -23.390 -51.848  1.00  0.00    -0.269 OA
ATOM     16  C   UNL     1       9.684 -23.584 -51.621  1.00  0.00     0.330 C 
ATOM     17  O   UNL     1      10.644 -23.343 -52.350  1.00  0.00    -0.248 OA
ATOM     18  C   UNL     1       6.202 -24.301 -49.166  1.00  0.00     0.052 C 
ATOM     19  H   UNL     1       8.308 -23.100 -53.036  1.00  0.00     0.175 HD
ENDBRANCH   6  10
BRANCH   9  20
ATOM     20  N   UNL     1      12.620 -22.132 -47.135  1.00  0.00    -0.088 NA
ATOM     21  N   UNL     1      12.633 -20.915 -47.403  1.00  0.00     0.001 N 
ATOM     22  N   UNL     1      12.621 -19.803 -47.645  1.00  0.00    -0.003 NA
ENDBRANCH   9  20
ENDBRANCH   4   5
ENDBRANCH   3   4
ENDBRANCH   1   3
BRANCH   1  23
ATOM     23  C   UNL     1      13.910 -23.856 -44.191  1.00  0.00     0.292 C 
BRANCH  23  24
ATOM     24  N   UNL     1      14.300 -22.557 -44.811  1.00  0.00    -0.346 N 
ATOM     25  H   UNL     1      13.520 -22.196 -45.430  1.00  0.00     0.345 HD
ATOM     26  H   UNL     1      15.050 -22.697 -45.502  1.00  0.00     0.345 HD
ATOM     27  H   UNL     1      14.573 -21.809 -44.177  1.00  0.00     0.345 HD
ENDBRANCH  23  24
BRANCH  23  28
ATOM     28  C   UNL     1      14.344 -23.947 -42.719  1.00  0.00     0.083 C 
BRANCH  28  29
ATOM     29  C   UNL     1      15.821 -24.267 -42.469  1.00  0.00     0.059 C 
BRANCH  29  30
ATOM     30  C   UNL     1      16.729 -23.048 -42.317  1.00  0.00     0.042 C 
ATOM     31  O   UNL     1      16.911 -22.647 -41.146  1.00  0.00    -0.550 OA
ATOM     32  O   UNL     1      17.076 -22.519 -43.420  1.00  0.00    -0.550 OA
ENDBRANCH  29  30
ENDBRANCH  28  29
ENDBRANCH  23  28
ENDBRANCH   1  23
TORSDOF 10
ENDMDL
MODEL 9
REMARK VINA RESULT:    -6.538      3.620      8.719
REMARK INTER + INTRA:         -11.213
REMARK INTER:                 -10.072
REMARK INTRA:                  -1.141
REMARK UNBOUND:                -1.044
REMARK SMILES Cc1cn([C@H]2C[C@H](N=[N+]=[N-])[C@@H](COC(=O)[C@@H]([NH3+])CCC(=O)[O-])O2)c(=O)[nH]c1=O
REMARK SMILES IDX 14 1 15 2 13 3 12 4 11 5 5 6 6 7 23 8 7 9 4 10 2 11 3 12
REMARK SMILES IDX 27 13 26 14 28 15 24 16 25 17 1 18 8 20 9 21 10 22 16 23
REMARK SMILES IDX 17 24 18 28 19 29 20 30 21 31 22 32
REMARK H PARENT 26 19 17 25 17 26 17 27
ROOT
ATOM      1  C   UNL     1      10.241 -23.955 -51.711  1.00  0.00     0.364 C 
ATOM      2  O   UNL     1      10.908 -24.894 -52.134  1.00  0.00    -0.245 OA
ENDROOT
BRANCH   1   3
ATOM      3  O   UNL     1      10.743 -22.803 -51.195  1.00  0.00    -0.459 OA
BRANCH   3   4
ATOM      4  C   UNL     1      11.816 -22.961 -50.251  1.00  0.00     0.265 C 
BRANCH   4   5
ATOM      5  C   UNL     1      11.797 -21.901 -49.149  1.00  0.00     0.167 C 
ATOM      6  C   UNL     1      12.388 -21.729 -46.898  1.00  0.00     0.224 C 
ATOM      7  C   UNL     1      12.987 -20.546 -47.656  1.00  0.00     0.067 C 
ATOM      8  O   UNL     1      11.685 -22.538 -47.863  1.00  0.00    -0.351 OA
ATOM      9  C   UNL     1      13.067 -21.059 -49.077  1.00  0.00     0.110 C 
BRANCH   6  10
ATOM     10  N   UNL     1      13.397 -22.520 -46.192  1.00  0.00    -0.274 N 
ATOM     11  C   UNL     1      15.648 -23.274 -45.949  1.00  0.00     0.031 C 
ATOM     12  C   UNL     1      14.716 -22.566 -46.600  1.00  0.00     0.102 C 
ATOM     13  C   UNL     1      15.234 -24.032 -44.746  1.00  0.00     0.256 C 
ATOM     14  N   UNL     1      13.913 -23.954 -44.421  1.00  0.00    -0.274 N 
ATOM     15  O   UNL     1      16.034 -24.682 -44.084  1.00  0.00    -0.269 OA
ATOM     16  C   UNL     1      12.961 -23.218 -45.072  1.00  0.00     0.330 C 
ATOM     17  O   UNL     1      11.805 -23.190 -44.654  1.00  0.00    -0.248 OA
ATOM     18  C   UNL     1      17.083 -23.359 -46.357  1.00  0.00     0.052 C 
ATOM     19  H   UNL     1      13.613 -24.459 -43.601  1.00  0.00     0.175 HD
ENDBRANCH   6  10
BRANCH   9  20
ATOM     20  N   UNL     1      13.034 -19.963 -50.047  1.00  0.00    -0.088 NA
ATOM     21  N   UNL     1      13.548 -20.200 -51.157  1.00  0.00     0.001 N 
ATOM     22  N   UNL     1      14.006 -20.437 -52.172  1.00  0.00    -0.003 NA
ENDBRANCH   9  20
ENDBRANCH   4   5
ENDBRANCH   3   4
ENDBRANCH   1   3
BRANCH   1  23
ATOM     23  C   UNL     1       8.712 -23.932 -51.786  1.00  0.00     0.292 C 
BRANCH  23  24
ATOM     24  N   UNL     1       8.268 -23.823 -53.206  1.00  0.00    -0.346 N 
ATOM     25  H   UNL     1       9.103 -23.684 -53.842  1.00  0.00     0.345 HD
ATOM     26  H   UNL     1       7.756 -22.943 -53.358  1.00  0.00     0.345 HD
ATOM     27  H   UNL     1       7.713 -24.594 -53.573  1.00  0.00     0.345 HD
ENDBRANCH  23  24
BRANCH  23  28
ATOM     28  C   UNL     1       8.061 -25.125 -51.066  1.00  0.00     0.083 C 
BRANCH  28  29
ATOM     29  C   UNL     1       7.578 -24.868 -49.635  1.00  0.00     0.059 C 
BRANCH  29  30
ATOM     30  C   UNL     1       8.688 -24.638 -48.611  1.00  0.00     0.042 C 
ATOM     31  O   UNL     1       9.508 -25.573 -48.477  1.00  0.00    -0.550 OA
ATOM     32  O   UNL     1       8.553 -23.573 -47.930  1.00  0.00    -0.550 OA
ENDBRANCH  29  30
ENDBRANCH  28  29
ENDBRANCH  23  28
ENDBRANCH   1  23
TORSDOF 10
ENDMDL
