MODEL 1
REMARK VINA RESULT:    -8.001      0.000      0.000
REMARK INTER + INTRA:         -10.666
REMARK INTER:                 -10.340
REMARK INTRA:                  -0.326
REMARK UNBOUND:                -0.326
REMARK SMILES O=C(N/N=C/c1ccc(O)c(O)c1)c1cc(-c2cccs2)[nH]n1
REMARK SMILES IDX 4 1 5 2 3 3 1 4 2 5 14 7 15 8 23 9 16 10 22 11 17 13 18 14
REMARK SMILES IDX 21 15 19 16 20 17 6 18 7 19 13 20 8 21 11 22 9 23 12 24
REMARK SMILES IDX 10 26
REMARK H PARENT 3 6 22 12 12 25 10 27
ROOT
ATOM      1  N   UNL     1      13.902 -20.980 -48.189  1.00  0.00    -0.180 NA
ATOM      2  C   UNL     1      13.040 -20.732 -49.124  1.00  0.00     0.141 C 
ENDROOT
BRANCH   1   3
ATOM      3  N   UNL     1      13.472 -21.615 -47.052  1.00  0.00    -0.242 N 
ATOM      4  O   UNL     1      13.050 -23.790 -47.802  1.00  0.00    -0.265 OA
ATOM      5  C   UNL     1      13.150 -22.960 -46.903  1.00  0.00     0.291 C 
ATOM      6  H   UNL     1      13.672 -21.127 -46.179  1.00  0.00     0.194 HD
BRANCH   5   7
ATOM      7  C   UNL     1      12.945 -23.321 -45.489  1.00  0.00     0.152 A 
ATOM      8  C   UNL     1      13.951 -23.531 -44.509  1.00  0.00     0.065 A 
ATOM      9  N   UNL     1      11.715 -23.488 -44.961  1.00  0.00    -0.170 NA
ATOM     10  C   UNL     1      13.284 -23.840 -43.343  1.00  0.00     0.076 A 
ATOM     11  N   UNL     1      11.956 -23.799 -43.674  1.00  0.00    -0.276 N 
ATOM     12  H   UNL     1      11.168 -23.974 -43.059  1.00  0.00     0.190 HD
BRANCH  10  13
ATOM     13  C   UNL     1      13.777 -24.150 -42.033  1.00  0.00     0.052 A 
ATOM     14  C   UNL     1      13.029 -24.484 -40.918  1.00  0.00     0.022 A 
ATOM     15  S   UNL     1      15.455 -24.142 -41.665  1.00  0.00    -0.142 S 
ATOM     16  C   UNL     1      13.835 -24.734 -39.768  1.00  0.00     0.012 A 
ATOM     17  C   UNL     1      15.176 -24.582 -40.037  1.00  0.00     0.065 A 
ENDBRANCH  10  13
ENDBRANCH   5   7
ENDBRANCH   1   3
BRANCH   2  18
ATOM     18  C   UNL     1      13.440 -20.093 -50.395  1.00  0.00    -0.002 A 
ATOM     19  C   UNL     1      13.824 -18.743 -50.376  1.00  0.00     0.014 A 
ATOM     20  C   UNL     1      13.434 -20.812 -51.594  1.00  0.00     0.060 A 
ATOM     21  C   UNL     1      14.208 -18.105 -51.559  1.00  0.00     0.051 A 
ATOM     22  C   UNL     1      13.818 -20.167 -52.761  1.00  0.00     0.158 A 
ATOM     23  C   UNL     1      14.202 -18.825 -52.748  1.00  0.00     0.157 A 
BRANCH  22  24
ATOM     24  O   UNL     1      13.818 -20.860 -53.938  1.00  0.00    -0.504 OA
ATOM     25  H   UNL     1      14.551 -20.472 -54.455  1.00  0.00     0.293 HD
ENDBRANCH  22  24
BRANCH  23  26
ATOM     26  O   UNL     1      14.566 -18.258 -53.938  1.00  0.00    -0.504 OA
ATOM     27  H   UNL     1      13.788 -18.252 -54.522  1.00  0.00     0.293 HD
ENDBRANCH  23  26
ENDBRANCH   2  18
TORSDOF 6
ENDMDL
MODEL 2
REMARK VINA RESULT:    -7.966      4.928     10.454
REMARK INTER + INTRA:         -10.620
REMARK INTER:                 -10.254
REMARK INTRA:                  -0.365
REMARK UNBOUND:                -0.326
REMARK SMILES O=C(N/N=C/c1ccc(O)c(O)c1)c1cc(-c2cccs2)[nH]n1
REMARK SMILES IDX 4 1 5 2 3 3 1 4 2 5 14 7 15 8 23 9 16 10 22 11 17 13 18 14
REMARK SMILES IDX 21 15 19 16 20 17 6 18 7 19 13 20 8 21 11 22 9 23 12 24
REMARK SMILES IDX 10 26
REMARK H PARENT 3 6 22 12 12 25 10 27
ROOT
ATOM      1  N   UNL     1      13.382 -19.993 -50.324  1.00  0.00    -0.180 NA
ATOM      2  C   UNL     1      13.971 -20.763 -49.467  1.00  0.00     0.141 C 
ENDROOT
BRANCH   1   3
ATOM      3  N   UNL     1      14.155 -19.214 -51.147  1.00  0.00    -0.242 N 
ATOM      4  O   UNL     1      13.034 -19.353 -53.195  1.00  0.00    -0.265 OA
ATOM      5  C   UNL     1      13.911 -18.883 -52.475  1.00  0.00     0.291 C 
ATOM      6  H   UNL     1      14.814 -18.598 -50.669  1.00  0.00     0.194 HD
BRANCH   5   7
ATOM      7  C   UNL     1      14.841 -17.849 -52.963  1.00  0.00     0.152 A 
ATOM      8  C   UNL     1      16.241 -17.789 -52.736  1.00  0.00     0.065 A 
ATOM      9  N   UNL     1      14.429 -16.811 -53.720  1.00  0.00    -0.170 NA
ATOM     10  C   UNL     1      16.681 -16.656 -53.388  1.00  0.00     0.076 A 
ATOM     11  N   UNL     1      15.558 -16.117 -53.954  1.00  0.00    -0.276 N 
ATOM     12  H   UNL     1      15.503 -15.272 -54.515  1.00  0.00     0.190 HD
BRANCH  10  13
ATOM     13  C   UNL     1      17.994 -16.090 -53.504  1.00  0.00     0.052 A 
ATOM     14  C   UNL     1      18.421 -14.870 -53.012  1.00  0.00     0.022 A 
ATOM     15  S   UNL     1      19.269 -16.904 -54.316  1.00  0.00    -0.142 S 
ATOM     16  C   UNL     1      19.793 -14.608 -53.302  1.00  0.00     0.012 A 
ATOM     17  C   UNL     1      20.374 -15.637 -54.009  1.00  0.00     0.065 A 
ENDBRANCH  10  13
ENDBRANCH   5   7
ENDBRANCH   1   3
BRANCH   2  18
ATOM     18  C   UNL     1      13.204 -21.664 -48.580  1.00  0.00    -0.002 A 
ATOM     19  C   UNL     1      12.246 -22.514 -49.154  1.00  0.00     0.014 A 
ATOM     20  C   UNL     1      13.423 -21.671 -47.200  1.00  0.00     0.060 A 
ATOM     21  C   UNL     1      11.502 -23.380 -48.347  1.00  0.00     0.051 A 
ATOM     22  C   UNL     1      12.678 -22.535 -46.410  1.00  0.00     0.158 A 
ATOM     23  C   UNL     1      11.725 -23.384 -46.975  1.00  0.00     0.157 A 
BRANCH  22  24
ATOM     24  O   UNL     1      12.885 -22.552 -45.060  1.00  0.00    -0.504 OA
ATOM     25  H   UNL     1      13.387 -21.733 -44.876  1.00  0.00     0.293 HD
ENDBRANCH  22  24
BRANCH  23  26
ATOM     26  O   UNL     1      11.029 -24.206 -46.132  1.00  0.00    -0.504 OA
ATOM     27  H   UNL     1      11.620 -24.929 -45.857  1.00  0.00     0.293 HD
ENDBRANCH  23  26
ENDBRANCH   2  18
TORSDOF 6
ENDMDL
MODEL 3
REMARK VINA RESULT:    -7.659      3.777      9.757
REMARK INTER + INTRA:         -10.223
REMARK INTER:                  -9.821
REMARK INTRA:                  -0.402
REMARK UNBOUND:                -0.326
REMARK SMILES O=C(N/N=C/c1ccc(O)c(O)c1)c1cc(-c2cccs2)[nH]n1
REMARK SMILES IDX 4 1 5 2 3 3 1 4 2 5 14 7 15 8 23 9 16 10 22 11 17 13 18 14
REMARK SMILES IDX 21 15 19 16 20 17 6 18 7 19 13 20 8 21 11 22 9 23 12 24
REMARK SMILES IDX 10 26
REMARK H PARENT 3 6 22 12 12 25 10 27
ROOT
ATOM      1  N   UNL     1      13.066 -22.666 -45.014  1.00  0.00    -0.180 NA
ATOM      2  C   UNL     1      14.079 -23.352 -44.592  1.00  0.00     0.141 C 
ENDROOT
BRANCH   1   3
ATOM      3  N   UNL     1      12.987 -22.365 -46.350  1.00  0.00    -0.242 N 
ATOM      4  O   UNL     1      11.132 -23.605 -47.050  1.00  0.00    -0.265 OA
ATOM      5  C   UNL     1      12.014 -22.775 -47.254  1.00  0.00     0.291 C 
ATOM      6  H   UNL     1      13.525 -21.549 -46.644  1.00  0.00     0.194 HD
BRANCH   5   7
ATOM      7  C   UNL     1      12.135 -22.074 -48.545  1.00  0.00     0.152 A 
ATOM      8  C   UNL     1      13.092 -21.084 -48.890  1.00  0.00     0.065 A 
ATOM      9  N   UNL     1      11.308 -22.328 -49.581  1.00  0.00    -0.170 NA
ATOM     10  C   UNL     1      12.816 -20.730 -50.194  1.00  0.00     0.076 A 
ATOM     11  N   UNL     1      11.745 -21.504 -50.551  1.00  0.00    -0.276 N 
ATOM     12  H   UNL     1      11.270 -21.511 -51.447  1.00  0.00     0.190 HD
BRANCH  10  13
ATOM     13  C   UNL     1      13.449 -19.781 -51.063  1.00  0.00     0.052 A 
ATOM     14  C   UNL     1      13.883 -18.510 -50.734  1.00  0.00     0.022 A 
ATOM     15  S   UNL     1      13.765 -20.127 -52.715  1.00  0.00    -0.142 S 
ATOM     16  C   UNL     1      14.472 -17.825 -51.838  1.00  0.00     0.012 A 
ATOM     17  C   UNL     1      14.471 -18.594 -52.979  1.00  0.00     0.065 A 
ENDBRANCH  10  13
ENDBRANCH   5   7
ENDBRANCH   1   3
BRANCH   2  18
ATOM     18  C   UNL     1      14.208 -23.752 -43.175  1.00  0.00    -0.002 A 
ATOM     19  C   UNL     1      13.077 -24.261 -42.517  1.00  0.00     0.014 A 
ATOM     20  C   UNL     1      15.425 -23.627 -42.499  1.00  0.00     0.060 A 
ATOM     21  C   UNL     1      13.160 -24.650 -41.177  1.00  0.00     0.051 A 
ATOM     22  C   UNL     1      15.494 -24.017 -41.169  1.00  0.00     0.158 A 
ATOM     23  C   UNL     1      14.374 -24.525 -40.510  1.00  0.00     0.157 A 
BRANCH  22  24
ATOM     24  O   UNL     1      16.679 -23.900 -40.501  1.00  0.00    -0.504 OA
ATOM     25  H   UNL     1      16.700 -24.669 -39.896  1.00  0.00     0.293 HD
ENDBRANCH  22  24
BRANCH  23  26
ATOM     26  O   UNL     1      14.520 -24.887 -39.200  1.00  0.00    -0.504 OA
ATOM     27  H   UNL     1      15.409 -25.265 -39.086  1.00  0.00     0.293 HD
ENDBRANCH  23  26
ENDBRANCH   2  18
TORSDOF 6
ENDMDL
MODEL 4
REMARK VINA RESULT:    -7.535      3.915      9.880
REMARK INTER + INTRA:         -10.063
REMARK INTER:                  -9.681
REMARK INTRA:                  -0.382
REMARK UNBOUND:                -0.326
REMARK SMILES O=C(N/N=C/c1ccc(O)c(O)c1)c1cc(-c2cccs2)[nH]n1
REMARK SMILES IDX 4 1 5 2 3 3 1 4 2 5 14 7 15 8 23 9 16 10 22 11 17 13 18 14
REMARK SMILES IDX 21 15 19 16 20 17 6 18 7 19 13 20 8 21 11 22 9 23 12 24
REMARK SMILES IDX 10 26
REMARK H PARENT 3 6 22 12 12 25 10 27
ROOT
ATOM      1  N   UNL     1      13.615 -22.393 -46.832  1.00  0.00    -0.180 NA
ATOM      2  C   UNL     1      14.748 -22.364 -46.206  1.00  0.00     0.141 C 
ENDROOT
BRANCH   1   3
ATOM      3  N   UNL     1      13.571 -21.955 -48.131  1.00  0.00    -0.242 N 
ATOM      4  O   UNL     1      11.505 -20.865 -48.239  1.00  0.00    -0.265 OA
ATOM      5  C   UNL     1      12.588 -21.175 -48.728  1.00  0.00     0.291 C 
ATOM      6  H   UNL     1      14.465 -21.963 -48.623  1.00  0.00     0.194 HD
BRANCH   5   7
ATOM      7  C   UNL     1      12.990 -20.718 -50.070  1.00  0.00     0.152 A 
ATOM      8  C   UNL     1      13.785 -19.582 -50.380  1.00  0.00     0.065 A 
ATOM      9  N   UNL     1      12.631 -21.376 -51.192  1.00  0.00    -0.170 NA
ATOM     10  C   UNL     1      13.898 -19.564 -51.754  1.00  0.00     0.076 A 
ATOM     11  N   UNL     1      13.192 -20.655 -52.181  1.00  0.00    -0.276 N 
ATOM     12  H   UNL     1      13.058 -20.959 -53.141  1.00  0.00     0.190 HD
BRANCH  10  13
ATOM     13  C   UNL     1      14.579 -18.653 -52.628  1.00  0.00     0.052 A 
ATOM     14  C   UNL     1      14.353 -17.295 -52.756  1.00  0.00     0.022 A 
ATOM     15  S   UNL     1      15.833 -19.168 -53.683  1.00  0.00    -0.142 S 
ATOM     16  C   UNL     1      15.208 -16.682 -53.719  1.00  0.00     0.012 A 
ATOM     17  C   UNL     1      16.064 -17.591 -54.299  1.00  0.00     0.065 A 
ENDBRANCH  10  13
ENDBRANCH   5   7
ENDBRANCH   1   3
BRANCH   2  18
ATOM     18  C   UNL     1      14.881 -22.863 -44.821  1.00  0.00    -0.002 A 
ATOM     19  C   UNL     1      13.861 -23.673 -44.299  1.00  0.00     0.014 A 
ATOM     20  C   UNL     1      15.996 -22.536 -44.043  1.00  0.00     0.060 A 
ATOM     21  C   UNL     1      13.952 -24.162 -42.992  1.00  0.00     0.051 A 
ATOM     22  C   UNL     1      16.074 -23.029 -42.748  1.00  0.00     0.158 A 
ATOM     23  C   UNL     1      15.063 -23.835 -42.224  1.00  0.00     0.157 A 
BRANCH  22  24
ATOM     24  O   UNL     1      17.159 -22.717 -41.981  1.00  0.00    -0.504 OA
ATOM     25  H   UNL     1      16.855 -22.838 -41.059  1.00  0.00     0.293 HD
ENDBRANCH  22  24
BRANCH  23  26
ATOM     26  O   UNL     1      15.211 -24.282 -40.940  1.00  0.00    -0.504 OA
ATOM     27  H   UNL     1      14.440 -24.832 -40.719  1.00  0.00     0.293 HD
ENDBRANCH  23  26
ENDBRANCH   2  18
TORSDOF 6
ENDMDL
MODEL 5
REMARK VINA RESULT:    -7.160      4.482      5.418
REMARK INTER + INTRA:          -9.578
REMARK INTER:                  -9.169
REMARK INTRA:                  -0.409
REMARK UNBOUND:                -0.326
REMARK SMILES O=C(N/N=C/c1ccc(O)c(O)c1)c1cc(-c2cccs2)[nH]n1
REMARK SMILES IDX 4 1 5 2 3 3 1 4 2 5 14 7 15 8 23 9 16 10 22 11 17 13 18 14
REMARK SMILES IDX 21 15 19 16 20 17 6 18 7 19 13 20 8 21 11 22 9 23 12 24
REMARK SMILES IDX 10 26
REMARK H PARENT 3 6 22 12 12 25 10 27
ROOT
ATOM      1  N   UNL     1      10.206 -23.145 -49.136  1.00  0.00    -0.180 NA
ATOM      2  C   UNL     1      10.447 -23.544 -50.344  1.00  0.00     0.141 C 
ENDROOT
BRANCH   1   3
ATOM      3  N   UNL     1      11.243 -23.103 -48.240  1.00  0.00    -0.242 N 
ATOM      4  O   UNL     1      11.989 -20.893 -48.416  1.00  0.00    -0.265 OA
ATOM      5  C   UNL     1      12.008 -21.998 -47.881  1.00  0.00     0.291 C 
ATOM      6  H   UNL     1      11.275 -23.876 -47.574  1.00  0.00     0.194 HD
BRANCH   5   7
ATOM      7  C   UNL     1      12.879 -22.286 -46.728  1.00  0.00     0.152 A 
ATOM      8  C   UNL     1      14.299 -22.279 -46.711  1.00  0.00     0.065 A 
ATOM      9  N   UNL     1      12.384 -22.590 -45.510  1.00  0.00    -0.170 NA
ATOM     10  C   UNL     1      14.664 -22.599 -45.421  1.00  0.00     0.076 A 
ATOM     11  N   UNL     1      13.482 -22.773 -44.753  1.00  0.00    -0.276 N 
ATOM     12  H   UNL     1      13.364 -23.016 -43.775  1.00  0.00     0.190 HD
BRANCH  10  13
ATOM     13  C   UNL     1      15.957 -22.742 -44.818  1.00  0.00     0.052 A 
ATOM     14  C   UNL     1      17.162 -22.275 -45.311  1.00  0.00     0.022 A 
ATOM     15  S   UNL     1      16.182 -23.558 -43.324  1.00  0.00    -0.142 S 
ATOM     16  C   UNL     1      18.264 -22.587 -44.461  1.00  0.00     0.012 A 
ATOM     17  C   UNL     1      17.868 -23.285 -43.342  1.00  0.00     0.065 A 
ENDBRANCH  10  13
ENDBRANCH   5   7
ENDBRANCH   1   3
BRANCH   2  18
ATOM     18  C   UNL     1       9.389 -23.571 -51.376  1.00  0.00    -0.002 A 
ATOM     19  C   UNL     1       9.568 -24.397 -52.497  1.00  0.00     0.014 A 
ATOM     20  C   UNL     1       8.236 -22.793 -51.245  1.00  0.00     0.060 A 
ATOM     21  C   UNL     1       8.589 -24.449 -53.494  1.00  0.00     0.051 A 
ATOM     22  C   UNL     1       7.272 -22.854 -52.241  1.00  0.00     0.158 A 
ATOM     23  C   UNL     1       7.443 -23.674 -53.358  1.00  0.00     0.157 A 
BRANCH  22  24
ATOM     24  O   UNL     1       6.140 -22.100 -52.122  1.00  0.00    -0.504 OA
ATOM     25  H   UNL     1       6.008 -21.708 -53.008  1.00  0.00     0.293 HD
ENDBRANCH  22  24
BRANCH  23  26
ATOM     26  O   UNL     1       6.450 -23.680 -54.298  1.00  0.00    -0.504 OA
ATOM     27  H   UNL     1       6.515 -24.509 -54.803  1.00  0.00     0.293 HD
ENDBRANCH  23  26
ENDBRANCH   2  18
TORSDOF 6
ENDMDL
MODEL 6
REMARK VINA RESULT:    -7.013      4.595      9.358
REMARK INTER + INTRA:          -9.389
REMARK INTER:                  -9.005
REMARK INTRA:                  -0.384
REMARK UNBOUND:                -0.326
REMARK SMILES O=C(N/N=C/c1ccc(O)c(O)c1)c1cc(-c2cccs2)[nH]n1
REMARK SMILES IDX 4 1 5 2 3 3 1 4 2 5 14 7 15 8 23 9 16 10 22 11 17 13 18 14
REMARK SMILES IDX 21 15 19 16 20 17 6 18 7 19 13 20 8 21 11 22 9 23 12 24
REMARK SMILES IDX 10 26
REMARK H PARENT 3 6 22 12 12 25 10 27
ROOT
ATOM      1  N   UNL     1      13.455 -22.659 -45.521  1.00  0.00    -0.180 NA
ATOM      2  C   UNL     1      13.261 -23.568 -44.620  1.00  0.00     0.141 C 
ENDROOT
BRANCH   1   3
ATOM      3  N   UNL     1      12.601 -22.603 -46.592  1.00  0.00    -0.242 N 
ATOM      4  O   UNL     1      12.792 -20.379 -47.291  1.00  0.00    -0.265 OA
ATOM      5  C   UNL     1      12.376 -21.525 -47.441  1.00  0.00     0.291 C 
ATOM      6  H   UNL     1      12.316 -23.508 -46.969  1.00  0.00     0.194 HD
BRANCH   5   7
ATOM      7  C   UNL     1      11.561 -21.906 -48.608  1.00  0.00     0.152 A 
ATOM      8  C   UNL     1      10.767 -23.075 -48.747  1.00  0.00     0.065 A 
ATOM      9  N   UNL     1      11.481 -21.134 -49.712  1.00  0.00    -0.170 NA
ATOM     10  C   UNL     1      10.190 -22.994 -49.996  1.00  0.00     0.076 A 
ATOM     11  N   UNL     1      10.652 -21.818 -50.523  1.00  0.00    -0.276 N 
ATOM     12  H   UNL     1      10.433 -21.430 -51.434  1.00  0.00     0.190 HD
BRANCH  10  13
ATOM     13  C   UNL     1       9.297 -23.886 -50.678  1.00  0.00     0.052 A 
ATOM     14  C   UNL     1       8.734 -23.705 -51.928  1.00  0.00     0.022 A 
ATOM     15  S   UNL     1       8.790 -25.373 -49.987  1.00  0.00    -0.142 S 
ATOM     16  C   UNL     1       7.888 -24.787 -52.314  1.00  0.00     0.012 A 
ATOM     17  C   UNL     1       7.831 -25.764 -51.345  1.00  0.00     0.065 A 
ENDBRANCH  10  13
ENDBRANCH   5   7
ENDBRANCH   1   3
BRANCH   2  18
ATOM     18  C   UNL     1      14.113 -23.660 -43.416  1.00  0.00    -0.002 A 
ATOM     19  C   UNL     1      13.599 -24.301 -42.278  1.00  0.00     0.014 A 
ATOM     20  C   UNL     1      15.402 -23.119 -43.403  1.00  0.00     0.060 A 
ATOM     21  C   UNL     1      14.375 -24.407 -41.120  1.00  0.00     0.051 A 
ATOM     22  C   UNL     1      16.162 -23.231 -42.248  1.00  0.00     0.158 A 
ATOM     23  C   UNL     1      15.657 -23.869 -41.114  1.00  0.00     0.157 A 
BRANCH  22  24
ATOM     24  O   UNL     1      17.423 -22.708 -42.226  1.00  0.00    -0.504 OA
ATOM     25  H   UNL     1      17.987 -23.403 -42.622  1.00  0.00     0.293 HD
ENDBRANCH  22  24
BRANCH  23  26
ATOM     26  O   UNL     1      16.466 -23.939 -40.014  1.00  0.00    -0.504 OA
ATOM     27  H   UNL     1      16.614 -23.035 -39.687  1.00  0.00     0.293 HD
ENDBRANCH  23  26
ENDBRANCH   2  18
TORSDOF 6
ENDMDL
MODEL 7
REMARK VINA RESULT:    -6.793      5.113      6.224
REMARK INTER + INTRA:          -9.104
REMARK INTER:                  -8.714
REMARK INTRA:                  -0.390
REMARK UNBOUND:                -0.326
REMARK SMILES O=C(N/N=C/c1ccc(O)c(O)c1)c1cc(-c2cccs2)[nH]n1
REMARK SMILES IDX 4 1 5 2 3 3 1 4 2 5 14 7 15 8 23 9 16 10 22 11 17 13 18 14
REMARK SMILES IDX 21 15 19 16 20 17 6 18 7 19 13 20 8 21 11 22 9 23 12 24
REMARK SMILES IDX 10 26
REMARK H PARENT 3 6 22 12 12 25 10 27
ROOT
ATOM      1  N   UNL     1      10.035 -23.304 -49.114  1.00  0.00    -0.180 NA
ATOM      2  C   UNL     1       8.900 -23.751 -48.682  1.00  0.00     0.141 C 
ENDROOT
BRANCH   1   3
ATOM      3  N   UNL     1      11.089 -23.235 -48.240  1.00  0.00    -0.242 N 
ATOM      4  O   UNL     1      11.870 -21.051 -48.543  1.00  0.00    -0.265 OA
ATOM      5  C   UNL     1      11.879 -22.127 -47.952  1.00  0.00     0.291 C 
ATOM      6  H   UNL     1      11.121 -23.974 -47.537  1.00  0.00     0.194 HD
BRANCH   5   7
ATOM      7  C   UNL     1      12.768 -22.371 -46.802  1.00  0.00     0.152 A 
ATOM      8  C   UNL     1      14.188 -22.352 -46.804  1.00  0.00     0.065 A 
ATOM      9  N   UNL     1      12.291 -22.643 -45.569  1.00  0.00    -0.170 NA
ATOM     10  C   UNL     1      14.571 -22.629 -45.508  1.00  0.00     0.076 A 
ATOM     11  N   UNL     1      13.399 -22.792 -44.821  1.00  0.00    -0.276 N 
ATOM     12  H   UNL     1      13.295 -23.006 -43.834  1.00  0.00     0.190 HD
BRANCH  10  13
ATOM     13  C   UNL     1      15.873 -22.741 -44.918  1.00  0.00     0.052 A 
ATOM     14  C   UNL     1      17.091 -22.548 -45.544  1.00  0.00     0.022 A 
ATOM     15  S   UNL     1      16.092 -23.153 -43.265  1.00  0.00    -0.142 S 
ATOM     16  C   UNL     1      18.199 -22.738 -44.665  1.00  0.00     0.012 A 
ATOM     17  C   UNL     1      17.794 -23.072 -43.393  1.00  0.00     0.065 A 
ENDBRANCH  10  13
ENDBRANCH   5   7
ENDBRANCH   1   3
BRANCH   2  18
ATOM     18  C   UNL     1       7.733 -23.897 -49.577  1.00  0.00    -0.002 A 
ATOM     19  C   UNL     1       6.618 -24.615 -49.114  1.00  0.00     0.014 A 
ATOM     20  C   UNL     1       7.734 -23.338 -50.858  1.00  0.00     0.060 A 
ATOM     21  C   UNL     1       5.496 -24.774 -49.933  1.00  0.00     0.051 A 
ATOM     22  C   UNL     1       6.614 -23.503 -51.660  1.00  0.00     0.158 A 
ATOM     23  C   UNL     1       5.503 -24.214 -51.205  1.00  0.00     0.157 A 
BRANCH  22  24
ATOM     24  O   UNL     1       6.605 -22.959 -52.912  1.00  0.00    -0.504 OA
ATOM     25  H   UNL     1       5.881 -22.302 -52.892  1.00  0.00     0.293 HD
ENDBRANCH  22  24
BRANCH  23  26
ATOM     26  O   UNL     1       4.437 -24.335 -52.054  1.00  0.00    -0.504 OA
ATOM     27  H   UNL     1       4.521 -25.180 -52.529  1.00  0.00     0.293 HD
ENDBRANCH  23  26
ENDBRANCH   2  18
TORSDOF 6
ENDMDL
MODEL 8
REMARK VINA RESULT:    -6.760      5.772      7.096
REMARK INTER + INTRA:          -9.061
REMARK INTER:                  -8.686
REMARK INTRA:                  -0.375
REMARK UNBOUND:                -0.326
REMARK SMILES O=C(N/N=C/c1ccc(O)c(O)c1)c1cc(-c2cccs2)[nH]n1
REMARK SMILES IDX 4 1 5 2 3 3 1 4 2 5 14 7 15 8 23 9 16 10 22 11 17 13 18 14
REMARK SMILES IDX 21 15 19 16 20 17 6 18 7 19 13 20 8 21 11 22 9 23 12 24
REMARK SMILES IDX 10 26
REMARK H PARENT 3 6 22 12 12 25 10 27
ROOT
ATOM      1  N   UNL     1      13.440 -19.982 -51.304  1.00  0.00    -0.180 NA
ATOM      2  C   UNL     1      13.777 -19.898 -52.551  1.00  0.00     0.141 C 
ENDROOT
BRANCH   1   3
ATOM      3  N   UNL     1      12.520 -20.929 -50.934  1.00  0.00    -0.242 N 
ATOM      4  O   UNL     1      13.096 -21.369 -48.710  1.00  0.00    -0.265 OA
ATOM      5  C   UNL     1      12.352 -21.501 -49.678  1.00  0.00     0.291 C 
ATOM      6  H   UNL     1      11.713 -21.017 -51.553  1.00  0.00     0.194 HD
BRANCH   5   7
ATOM      7  C   UNL     1      11.123 -22.311 -49.604  1.00  0.00     0.152 A 
ATOM      8  C   UNL     1      10.316 -22.735 -50.693  1.00  0.00     0.065 A 
ATOM      9  N   UNL     1      10.626 -22.759 -48.433  1.00  0.00    -0.170 NA
ATOM     10  C   UNL     1       9.288 -23.468 -50.139  1.00  0.00     0.076 A 
ATOM     11  N   UNL     1       9.526 -23.447 -48.792  1.00  0.00    -0.276 N 
ATOM     12  H   UNL     1       8.969 -23.888 -48.067  1.00  0.00     0.190 HD
BRANCH  10  13
ATOM     13  C   UNL     1       8.177 -24.138 -50.750  1.00  0.00     0.052 A 
ATOM     14  C   UNL     1       8.179 -25.392 -51.333  1.00  0.00     0.022 A 
ATOM     15  S   UNL     1       6.617 -23.424 -50.837  1.00  0.00    -0.142 S 
ATOM     16  C   UNL     1       6.901 -25.762 -51.848  1.00  0.00     0.012 A 
ATOM     17  C   UNL     1       5.960 -24.779 -51.644  1.00  0.00     0.065 A 
ENDBRANCH  10  13
ENDBRANCH   5   7
ENDBRANCH   1   3
BRANCH   2  18
ATOM     18  C   UNL     1      14.795 -18.934 -53.016  1.00  0.00    -0.002 A 
ATOM     19  C   UNL     1      14.445 -17.577 -53.100  1.00  0.00     0.014 A 
ATOM     20  C   UNL     1      16.080 -19.357 -53.368  1.00  0.00     0.060 A 
ATOM     21  C   UNL     1      15.382 -16.635 -53.535  1.00  0.00     0.051 A 
ATOM     22  C   UNL     1      17.001 -18.412 -53.798  1.00  0.00     0.158 A 
ATOM     23  C   UNL     1      16.658 -17.062 -53.883  1.00  0.00     0.157 A 
BRANCH  22  24
ATOM     24  O   UNL     1      18.259 -18.816 -54.142  1.00  0.00    -0.504 OA
ATOM     25  H   UNL     1      18.176 -19.776 -54.308  1.00  0.00     0.293 HD
ENDBRANCH  22  24
BRANCH  23  26
ATOM     26  O   UNL     1      17.619 -16.191 -54.316  1.00  0.00    -0.504 OA
ATOM     27  H   UNL     1      18.190 -15.967 -53.561  1.00  0.00     0.293 HD
ENDBRANCH  23  26
ENDBRANCH   2  18
TORSDOF 6
ENDMDL
MODEL 9
REMARK VINA RESULT:    -6.649      5.603      9.251
REMARK INTER + INTRA:          -8.918
REMARK INTER:                  -8.527
REMARK INTRA:                  -0.391
REMARK UNBOUND:                -0.326
REMARK SMILES O=C(N/N=C/c1ccc(O)c(O)c1)c1cc(-c2cccs2)[nH]n1
REMARK SMILES IDX 4 1 5 2 3 3 1 4 2 5 14 7 15 8 23 9 16 10 22 11 17 13 18 14
REMARK SMILES IDX 21 15 19 16 20 17 6 18 7 19 13 20 8 21 11 22 9 23 12 24
REMARK SMILES IDX 10 26
REMARK H PARENT 3 6 22 12 12 25 10 27
ROOT
ATOM      1  N   UNL     1      12.434 -22.651 -46.479  1.00  0.00    -0.180 NA
ATOM      2  C   UNL     1      13.718 -22.778 -46.590  1.00  0.00     0.141 C 
ENDROOT
BRANCH   1   3
ATOM      3  N   UNL     1      11.667 -22.725 -47.613  1.00  0.00    -0.242 N 
ATOM      4  O   UNL     1      10.819 -24.904 -47.521  1.00  0.00    -0.265 OA
ATOM      5  C   UNL     1      10.865 -23.784 -48.024  1.00  0.00     0.291 C 
ATOM      6  H   UNL     1      11.443 -21.829 -48.046  1.00  0.00     0.194 HD
BRANCH   5   7
ATOM      7  C   UNL     1      10.019 -23.417 -49.174  1.00  0.00     0.152 A 
ATOM      8  C   UNL     1       8.665 -23.789 -49.387  1.00  0.00     0.065 A 
ATOM      9  N   UNL     1      10.471 -22.643 -50.182  1.00  0.00    -0.170 NA
ATOM     10  C   UNL     1       8.298 -23.210 -50.583  1.00  0.00     0.076 A 
ATOM     11  N   UNL     1       9.414 -22.541 -51.009  1.00  0.00    -0.276 N 
ATOM     12  H   UNL     1       9.511 -21.995 -51.859  1.00  0.00     0.190 HD
BRANCH  10  13
ATOM     13  C   UNL     1       7.056 -23.242 -51.301  1.00  0.00     0.052 A 
ATOM     14  C   UNL     1       5.820 -22.823 -50.844  1.00  0.00     0.022 A 
ATOM     15  S   UNL     1       6.947 -23.838 -52.908  1.00  0.00    -0.142 S 
ATOM     16  C   UNL     1       4.788 -22.992 -51.815  1.00  0.00     0.012 A 
ATOM     17  C   UNL     1       5.267 -23.537 -52.985  1.00  0.00     0.065 A 
ENDBRANCH  10  13
ENDBRANCH   5   7
ENDBRANCH   1   3
BRANCH   2  18
ATOM     18  C   UNL     1      14.604 -22.754 -45.407  1.00  0.00    -0.002 A 
ATOM     19  C   UNL     1      14.117 -23.269 -44.195  1.00  0.00     0.014 A 
ATOM     20  C   UNL     1      15.897 -22.231 -45.487  1.00  0.00     0.060 A 
ATOM     21  C   UNL     1      14.927 -23.263 -43.055  1.00  0.00     0.051 A 
ATOM     22  C   UNL     1      16.690 -22.232 -44.349  1.00  0.00     0.158 A 
ATOM     23  C   UNL     1      16.213 -22.742 -43.141  1.00  0.00     0.157 A 
BRANCH  22  24
ATOM     24  O   UNL     1      17.956 -21.725 -44.417  1.00  0.00    -0.504 OA
ATOM     25  H   UNL     1      17.838 -20.755 -44.374  1.00  0.00     0.293 HD
ENDBRANCH  22  24
BRANCH  23  26
ATOM     26  O   UNL     1      17.053 -22.708 -42.062  1.00  0.00    -0.504 OA
ATOM     27  H   UNL     1      17.603 -21.909 -42.130  1.00  0.00     0.293 HD
ENDBRANCH  23  26
ENDBRANCH   2  18
TORSDOF 6
ENDMDL
