MODEL 1
REMARK VINA RESULT:    -7.518      0.000      0.000
REMARK INTER + INTRA:          -9.574
REMARK INTER:                  -9.057
REMARK INTRA:                  -0.517
REMARK UNBOUND:                -0.517
REMARK SMILES [NH3+]Cc1cc(-c2ccccn2)nc(-c2ccccc2)n1
REMARK SMILES IDX 2 1 1 2 3 6 4 7 20 8 5 9 13 10 12 11 6 12 7 13 11 14 8 15
REMARK SMILES IDX 10 16 9 17 14 18 15 19 19 20 16 21 18 22 17 23
REMARK H PARENT 1 3 1 4 1 5
ROOT
ATOM      1  C   UNL     1      19.338 -22.803 -43.801  1.00  0.00     0.316 C 
ENDROOT
BRANCH   1   2
ATOM      2  N   UNL     1      19.764 -21.576 -44.527  1.00  0.00    -0.353 N 
ATOM      3  H   UNL     1      19.308 -21.562 -45.448  1.00  0.00     0.344 HD
ATOM      4  H   UNL     1      19.393 -20.754 -44.033  1.00  0.00     0.344 HD
ATOM      5  H   UNL     1      20.778 -21.490 -44.636  1.00  0.00     0.344 HD
ENDBRANCH   1   2
BRANCH   1   6
ATOM      6  C   UNL     1      17.840 -22.962 -43.837  1.00  0.00     0.099 A 
ATOM      7  C   UNL     1      17.131 -22.684 -44.985  1.00  0.00     0.060 A 
ATOM      8  N   UNL     1      17.252 -23.387 -42.694  1.00  0.00    -0.227 NA
ATOM      9  C   UNL     1      15.759 -22.856 -44.934  1.00  0.00     0.093 A 
ATOM     10  C   UNL     1      15.908 -23.532 -42.721  1.00  0.00     0.160 A 
ATOM     11  N   UNL     1      15.151 -23.280 -43.802  1.00  0.00    -0.226 NA
BRANCH   9  12
ATOM     12  C   UNL     1      14.895 -22.587 -46.107  1.00  0.00     0.089 A 
ATOM     13  C   UNL     1      15.411 -22.292 -47.370  1.00  0.00     0.030 A 
ATOM     14  N   UNL     1      13.551 -22.644 -45.882  1.00  0.00    -0.255 NA
ATOM     15  C   UNL     1      14.536 -22.050 -48.427  1.00  0.00     0.004 A 
ATOM     16  C   UNL     1      12.727 -22.405 -46.929  1.00  0.00     0.112 A 
ATOM     17  C   UNL     1      13.168 -22.107 -48.206  1.00  0.00     0.020 A 
ENDBRANCH   9  12
BRANCH  10  18
ATOM     18  C   UNL     1      15.229 -23.994 -41.492  1.00  0.00     0.019 A 
ATOM     19  C   UNL     1      15.936 -24.220 -40.295  1.00  0.00     0.012 A 
ATOM     20  C   UNL     1      13.841 -24.229 -41.469  1.00  0.00     0.012 A 
ATOM     21  C   UNL     1      15.289 -24.658 -39.134  1.00  0.00     0.001 A 
ATOM     22  C   UNL     1      13.190 -24.666 -40.310  1.00  0.00     0.001 A 
ATOM     23  C   UNL     1      13.916 -24.881 -39.143  1.00  0.00     0.000 A 
ENDBRANCH  10  18
ENDBRANCH   1   6
TORSDOF 4
ENDMDL
MODEL 2
REMARK VINA RESULT:    -7.372      3.677      6.772
REMARK INTER + INTRA:          -9.398
REMARK INTER:                  -8.920
REMARK INTRA:                  -0.478
REMARK UNBOUND:                -0.517
REMARK SMILES [NH3+]Cc1cc(-c2ccccn2)nc(-c2ccccc2)n1
REMARK SMILES IDX 2 1 1 2 3 6 4 7 20 8 5 9 13 10 12 11 6 12 7 13 11 14 8 15
REMARK SMILES IDX 10 16 9 17 14 18 15 19 19 20 16 21 18 22 17 23
REMARK H PARENT 1 3 1 4 1 5
ROOT
ATOM      1  C   UNL     1      10.011 -23.455 -48.699  1.00  0.00     0.316 C 
ENDROOT
BRANCH   1   2
ATOM      2  N   UNL     1       9.184 -23.091 -49.881  1.00  0.00    -0.353 N 
ATOM      3  H   UNL     1       9.373 -22.111 -50.127  1.00  0.00     0.344 HD
ATOM      4  H   UNL     1       9.506 -23.636 -50.691  1.00  0.00     0.344 HD
ATOM      5  H   UNL     1       8.179 -23.231 -49.742  1.00  0.00     0.344 HD
ENDBRANCH   1   2
BRANCH   1   6
ATOM      6  C   UNL     1      11.331 -22.728 -48.716  1.00  0.00     0.099 A 
ATOM      7  C   UNL     1      11.660 -21.893 -49.761  1.00  0.00     0.060 A 
ATOM      8  N   UNL     1      12.151 -22.945 -47.661  1.00  0.00    -0.227 NA
ATOM      9  C   UNL     1      12.891 -21.264 -49.699  1.00  0.00     0.093 A 
ATOM     10  C   UNL     1      13.337 -22.295 -47.671  1.00  0.00     0.160 A 
ATOM     11  N   UNL     1      13.726 -21.467 -48.654  1.00  0.00    -0.226 NA
BRANCH   9  12
ATOM     12  C   UNL     1      13.352 -20.344 -50.766  1.00  0.00     0.089 A 
ATOM     13  C   UNL     1      13.770 -19.039 -50.505  1.00  0.00     0.030 A 
ATOM     14  N   UNL     1      13.344 -20.850 -52.032  1.00  0.00    -0.255 NA
ATOM     15  C   UNL     1      14.190 -18.231 -51.560  1.00  0.00     0.004 A 
ATOM     16  C   UNL     1      13.758 -20.042 -53.035  1.00  0.00     0.112 A 
ATOM     17  C   UNL     1      14.185 -18.739 -52.850  1.00  0.00     0.020 A 
ENDBRANCH   9  12
BRANCH  10  18
ATOM     18  C   UNL     1      14.259 -22.506 -46.536  1.00  0.00     0.019 A 
ATOM     19  C   UNL     1      13.794 -22.889 -45.262  1.00  0.00     0.012 A 
ATOM     20  C   UNL     1      15.649 -22.331 -46.682  1.00  0.00     0.012 A 
ATOM     21  C   UNL     1      14.672 -23.087 -44.191  1.00  0.00     0.001 A 
ATOM     22  C   UNL     1      16.530 -22.529 -45.614  1.00  0.00     0.001 A 
ATOM     23  C   UNL     1      16.040 -22.907 -44.368  1.00  0.00     0.000 A 
ENDBRANCH  10  18
ENDBRANCH   1   6
TORSDOF 4
ENDMDL
MODEL 3
REMARK VINA RESULT:    -7.119      1.082      5.972
REMARK INTER + INTRA:          -9.093
REMARK INTER:                  -8.571
REMARK INTRA:                  -0.522
REMARK UNBOUND:                -0.517
REMARK SMILES [NH3+]Cc1cc(-c2ccccn2)nc(-c2ccccc2)n1
REMARK SMILES IDX 2 1 1 2 3 6 4 7 20 8 5 9 13 10 12 11 6 12 7 13 11 14 8 15
REMARK SMILES IDX 10 16 9 17 14 18 15 19 19 20 16 21 18 22 17 23
REMARK H PARENT 1 3 1 4 1 5
ROOT
ATOM      1  C   UNL     1      19.005 -22.320 -44.473  1.00  0.00     0.316 C 
ENDROOT
BRANCH   1   2
ATOM      2  N   UNL     1      19.812 -23.374 -43.800  1.00  0.00    -0.353 N 
ATOM      3  H   UNL     1      20.339 -22.945 -43.030  1.00  0.00     0.344 HD
ATOM      4  H   UNL     1      19.173 -24.040 -43.347  1.00  0.00     0.344 HD
ATOM      5  H   UNL     1      20.449 -23.872 -44.428  1.00  0.00     0.344 HD
ENDBRANCH   1   2
BRANCH   1   6
ATOM      6  C   UNL     1      17.531 -22.607 -44.355  1.00  0.00     0.099 A 
ATOM      7  C   UNL     1      17.002 -23.099 -43.182  1.00  0.00     0.060 A 
ATOM      8  N   UNL     1      16.779 -22.355 -45.453  1.00  0.00    -0.227 NA
ATOM      9  C   UNL     1      15.639 -23.336 -43.158  1.00  0.00     0.093 A 
ATOM     10  C   UNL     1      15.455 -22.611 -45.353  1.00  0.00     0.160 A 
ATOM     11  N   UNL     1      14.869 -23.091 -44.244  1.00  0.00    -0.226 NA
BRANCH   9  12
ATOM     12  C   UNL     1      14.960 -23.864 -41.951  1.00  0.00     0.089 A 
ATOM     13  C   UNL     1      13.618 -24.242 -41.949  1.00  0.00     0.030 A 
ATOM     14  N   UNL     1      15.730 -23.961 -40.830  1.00  0.00    -0.255 NA
ATOM     15  C   UNL     1      13.046 -24.731 -40.775  1.00  0.00     0.004 A 
ATOM     16  C   UNL     1      15.148 -24.440 -39.707  1.00  0.00     0.112 A 
ATOM     17  C   UNL     1      13.823 -24.833 -39.631  1.00  0.00     0.020 A 
ENDBRANCH   9  12
BRANCH  10  18
ATOM     18  C   UNL     1      14.601 -22.349 -46.530  1.00  0.00     0.019 A 
ATOM     19  C   UNL     1      15.148 -21.994 -47.779  1.00  0.00     0.012 A 
ATOM     20  C   UNL     1      13.198 -22.443 -46.451  1.00  0.00     0.012 A 
ATOM     21  C   UNL     1      14.335 -21.747 -48.891  1.00  0.00     0.001 A 
ATOM     22  C   UNL     1      12.382 -22.197 -47.560  1.00  0.00     0.001 A 
ATOM     23  C   UNL     1      12.952 -21.849 -48.780  1.00  0.00     0.000 A 
ENDBRANCH  10  18
ENDBRANCH   1   6
TORSDOF 4
ENDMDL
MODEL 4
REMARK VINA RESULT:    -7.087      3.480      9.044
REMARK INTER + INTRA:          -9.055
REMARK INTER:                  -8.568
REMARK INTRA:                  -0.486
REMARK UNBOUND:                -0.517
REMARK SMILES [NH3+]Cc1cc(-c2ccccn2)nc(-c2ccccc2)n1
REMARK SMILES IDX 2 1 1 2 3 6 4 7 20 8 5 9 13 10 12 11 6 12 7 13 11 14 8 15
REMARK SMILES IDX 10 16 9 17 14 18 15 19 19 20 16 21 18 22 17 23
REMARK H PARENT 1 3 1 4 1 5
ROOT
ATOM      1  C   UNL     1       9.930 -23.144 -49.618  1.00  0.00     0.316 C 
ENDROOT
BRANCH   1   2
ATOM      2  N   UNL     1       9.170 -22.344 -50.616  1.00  0.00    -0.353 N 
ATOM      3  H   UNL     1       9.179 -21.359 -50.326  1.00  0.00     0.344 HD
ATOM      4  H   UNL     1       9.678 -22.363 -51.511  1.00  0.00     0.344 HD
ATOM      5  H   UNL     1       8.207 -22.662 -50.755  1.00  0.00     0.344 HD
ENDBRANCH   1   2
BRANCH   1   6
ATOM      6  C   UNL     1      11.266 -22.513 -49.322  1.00  0.00     0.099 A 
ATOM      7  C   UNL     1      11.950 -22.825 -48.167  1.00  0.00     0.060 A 
ATOM      8  N   UNL     1      11.738 -21.642 -50.244  1.00  0.00    -0.227 NA
ATOM      9  C   UNL     1      13.170 -22.202 -47.972  1.00  0.00     0.093 A 
ATOM     10  C   UNL     1      12.937 -21.073 -49.983  1.00  0.00     0.160 A 
ATOM     11  N   UNL     1      13.660 -21.327 -48.881  1.00  0.00    -0.226 NA
BRANCH   9  12
ATOM     12  C   UNL     1      13.994 -22.460 -46.767  1.00  0.00     0.089 A 
ATOM     13  C   UNL     1      15.383 -22.330 -46.764  1.00  0.00     0.030 A 
ATOM     14  N   UNL     1      13.310 -22.836 -45.649  1.00  0.00    -0.255 NA
ATOM     15  C   UNL     1      16.092 -22.590 -45.592  1.00  0.00     0.004 A 
ATOM     16  C   UNL     1      14.026 -23.081 -44.527  1.00  0.00     0.112 A 
ATOM     17  C   UNL     1      15.403 -22.973 -44.451  1.00  0.00     0.020 A 
ENDBRANCH   9  12
BRANCH  10  18
ATOM     18  C   UNL     1      13.486 -20.116 -50.967  1.00  0.00     0.019 A 
ATOM     19  C   UNL     1      13.811 -18.792 -50.611  1.00  0.00     0.012 A 
ATOM     20  C   UNL     1      13.707 -20.490 -52.306  1.00  0.00     0.012 A 
ATOM     21  C   UNL     1      14.331 -17.890 -51.546  1.00  0.00     0.001 A 
ATOM     22  C   UNL     1      14.226 -19.591 -53.244  1.00  0.00     0.001 A 
ATOM     23  C   UNL     1      14.538 -18.290 -52.862  1.00  0.00     0.000 A 
ENDBRANCH  10  18
ENDBRANCH   1   6
TORSDOF 4
ENDMDL
MODEL 5
REMARK VINA RESULT:    -6.933      4.714      8.145
REMARK INTER + INTRA:          -8.869
REMARK INTER:                  -8.369
REMARK INTRA:                  -0.499
REMARK UNBOUND:                -0.517
REMARK SMILES [NH3+]Cc1cc(-c2ccccn2)nc(-c2ccccc2)n1
REMARK SMILES IDX 2 1 1 2 3 6 4 7 20 8 5 9 13 10 12 11 6 12 7 13 11 14 8 15
REMARK SMILES IDX 10 16 9 17 14 18 15 19 19 20 16 21 18 22 17 23
REMARK H PARENT 1 3 1 4 1 5
ROOT
ATOM      1  C   UNL     1      13.241 -22.381 -46.217  1.00  0.00     0.316 C 
ENDROOT
BRANCH   1   2
ATOM      2  N   UNL     1      14.676 -21.989 -46.188  1.00  0.00    -0.353 N 
ATOM      3  H   UNL     1      15.159 -22.447 -46.971  1.00  0.00     0.344 HD
ATOM      4  H   UNL     1      14.748 -20.981 -46.383  1.00  0.00     0.344 HD
ATOM      5  H   UNL     1      15.148 -22.209 -45.306  1.00  0.00     0.344 HD
ENDBRANCH   1   2
BRANCH   1   6
ATOM      6  C   UNL     1      12.642 -22.147 -47.580  1.00  0.00     0.099 A 
ATOM      7  C   UNL     1      13.273 -21.332 -48.494  1.00  0.00     0.060 A 
ATOM      8  N   UNL     1      11.473 -22.777 -47.840  1.00  0.00    -0.227 NA
ATOM      9  C   UNL     1      12.657 -21.171 -49.723  1.00  0.00     0.093 A 
ATOM     10  C   UNL     1      10.931 -22.571 -49.061  1.00  0.00     0.160 A 
ATOM     11  N   UNL     1      11.487 -21.791 -50.003  1.00  0.00    -0.226 NA
BRANCH   9  12
ATOM     12  C   UNL     1      13.243 -20.318 -50.784  1.00  0.00     0.089 A 
ATOM     13  C   UNL     1      13.724 -19.033 -50.535  1.00  0.00     0.030 A 
ATOM     14  N   UNL     1      13.286 -20.867 -52.032  1.00  0.00    -0.255 NA
ATOM     15  C   UNL     1      14.262 -18.288 -51.584  1.00  0.00     0.004 A 
ATOM     16  C   UNL     1      13.815 -20.120 -53.028  1.00  0.00     0.112 A 
ATOM     17  C   UNL     1      14.310 -18.840 -52.855  1.00  0.00     0.020 A 
ENDBRANCH   9  12
BRANCH  10  18
ATOM     18  C   UNL     1       9.654 -23.242 -49.382  1.00  0.00     0.019 A 
ATOM     19  C   UNL     1       8.925 -23.954 -48.410  1.00  0.00     0.012 A 
ATOM     20  C   UNL     1       9.110 -23.195 -50.681  1.00  0.00     0.012 A 
ATOM     21  C   UNL     1       7.716 -24.587 -48.719  1.00  0.00     0.001 A 
ATOM     22  C   UNL     1       7.901 -23.826 -50.994  1.00  0.00     0.001 A 
ATOM     23  C   UNL     1       7.205 -24.522 -50.011  1.00  0.00     0.000 A 
ENDBRANCH  10  18
ENDBRANCH   1   6
TORSDOF 4
ENDMDL
MODEL 6
REMARK VINA RESULT:    -6.880      1.225      1.953
REMARK INTER + INTRA:          -8.805
REMARK INTER:                  -8.279
REMARK INTRA:                  -0.526
REMARK UNBOUND:                -0.517
REMARK SMILES [NH3+]Cc1cc(-c2ccccn2)nc(-c2ccccc2)n1
REMARK SMILES IDX 2 1 1 2 3 6 4 7 20 8 5 9 13 10 12 11 6 12 7 13 11 14 8 15
REMARK SMILES IDX 10 16 9 17 14 18 15 19 19 20 16 21 18 22 17 23
REMARK H PARENT 1 3 1 4 1 5
ROOT
ATOM      1  C   UNL     1      18.732 -22.245 -44.665  1.00  0.00     0.316 C 
ENDROOT
BRANCH   1   2
ATOM      2  N   UNL     1      19.412 -23.302 -43.867  1.00  0.00    -0.353 N 
ATOM      3  H   UNL     1      18.720 -23.746 -43.251  1.00  0.00     0.344 HD
ATOM      4  H   UNL     1      19.722 -24.048 -44.503  1.00  0.00     0.344 HD
ATOM      5  H   UNL     1      20.205 -22.960 -43.317  1.00  0.00     0.344 HD
ENDBRANCH   1   2
BRANCH   1   6
ATOM      6  C   UNL     1      17.247 -22.491 -44.737  1.00  0.00     0.099 A 
ATOM      7  C   UNL     1      16.536 -22.165 -45.871  1.00  0.00     0.060 A 
ATOM      8  N   UNL     1      16.674 -23.041 -43.641  1.00  0.00    -0.227 NA
ATOM      9  C   UNL     1      15.176 -22.424 -45.855  1.00  0.00     0.093 A 
ATOM     10  C   UNL     1      15.342 -23.264 -43.701  1.00  0.00     0.160 A 
ATOM     11  N   UNL     1      14.583 -22.972 -44.770  1.00  0.00    -0.226 NA
BRANCH   9  12
ATOM     12  C   UNL     1      14.310 -22.114 -47.017  1.00  0.00     0.089 A 
ATOM     13  C   UNL     1      12.918 -22.163 -46.951  1.00  0.00     0.030 A 
ATOM     14  N   UNL     1      14.957 -21.777 -48.169  1.00  0.00    -0.255 NA
ATOM     15  C   UNL     1      12.167 -21.859 -48.086  1.00  0.00     0.004 A 
ATOM     16  C   UNL     1      14.202 -21.487 -49.253  1.00  0.00     0.112 A 
ATOM     17  C   UNL     1      12.819 -21.514 -49.260  1.00  0.00     0.020 A 
ENDBRANCH   9  12
BRANCH  10  18
ATOM     18  C   UNL     1      14.680 -23.863 -42.523  1.00  0.00     0.019 A 
ATOM     19  C   UNL     1      13.357 -24.344 -42.581  1.00  0.00     0.012 A 
ATOM     20  C   UNL     1      15.348 -23.978 -41.288  1.00  0.00     0.012 A 
ATOM     21  C   UNL     1      12.734 -24.911 -41.463  1.00  0.00     0.001 A 
ATOM     22  C   UNL     1      14.729 -24.544 -40.169  1.00  0.00     0.001 A 
ATOM     23  C   UNL     1      13.421 -25.010 -40.258  1.00  0.00     0.000 A 
ENDBRANCH  10  18
ENDBRANCH   1   6
TORSDOF 4
ENDMDL
MODEL 7
REMARK VINA RESULT:    -6.727      3.493      7.878
REMARK INTER + INTRA:          -8.621
REMARK INTER:                  -8.113
REMARK INTRA:                  -0.508
REMARK UNBOUND:                -0.517
REMARK SMILES [NH3+]Cc1cc(-c2ccccn2)nc(-c2ccccc2)n1
REMARK SMILES IDX 2 1 1 2 3 6 4 7 20 8 5 9 13 10 12 11 6 12 7 13 11 14 8 15
REMARK SMILES IDX 10 16 9 17 14 18 15 19 19 20 16 21 18 22 17 23
REMARK H PARENT 1 3 1 4 1 5
ROOT
ATOM      1  C   UNL     1      13.413 -19.903 -51.320  1.00  0.00     0.316 C 
ENDROOT
BRANCH   1   2
ATOM      2  N   UNL     1      14.138 -18.725 -50.773  1.00  0.00    -0.353 N 
ATOM      3  H   UNL     1      13.545 -18.271 -50.067  1.00  0.00     0.344 HD
ATOM      4  H   UNL     1      14.963 -19.055 -50.255  1.00  0.00     0.344 HD
ATOM      5  H   UNL     1      14.420 -18.044 -51.484  1.00  0.00     0.344 HD
ENDBRANCH   1   2
BRANCH   1   6
ATOM      6  C   UNL     1      13.030 -20.862 -50.223  1.00  0.00     0.099 A 
ATOM      7  C   UNL     1      13.876 -21.090 -49.161  1.00  0.00     0.060 A 
ATOM      8  N   UNL     1      11.826 -21.469 -50.348  1.00  0.00    -0.227 NA
ATOM      9  C   UNL     1      13.448 -21.985 -48.196  1.00  0.00     0.093 A 
ATOM     10  C   UNL     1      11.476 -22.330 -49.366  1.00  0.00     0.160 A 
ATOM     11  N   UNL     1      12.249 -22.603 -48.302  1.00  0.00    -0.226 NA
BRANCH   9  12
ATOM     12  C   UNL     1      14.275 -22.308 -47.009  1.00  0.00     0.089 A 
ATOM     13  C   UNL     1      15.668 -22.235 -47.021  1.00  0.00     0.030 A 
ATOM     14  N   UNL     1      13.590 -22.684 -45.892  1.00  0.00    -0.255 NA
ATOM     15  C   UNL     1      16.380 -22.554 -45.866  1.00  0.00     0.004 A 
ATOM     16  C   UNL     1      14.309 -22.987 -44.787  1.00  0.00     0.112 A 
ATOM     17  C   UNL     1      15.690 -22.937 -44.726  1.00  0.00     0.020 A 
ENDBRANCH   9  12
BRANCH  10  18
ATOM     18  C   UNL     1      10.169 -23.013 -49.467  1.00  0.00     0.019 A 
ATOM     19  C   UNL     1       9.580 -23.654 -48.360  1.00  0.00     0.012 A 
ATOM     20  C   UNL     1       9.456 -23.050 -50.681  1.00  0.00     0.012 A 
ATOM     21  C   UNL     1       8.342 -24.299 -48.461  1.00  0.00     0.001 A 
ATOM     22  C   UNL     1       8.218 -23.693 -50.786  1.00  0.00     0.001 A 
ATOM     23  C   UNL     1       7.662 -24.318 -49.674  1.00  0.00     0.000 A 
ENDBRANCH  10  18
ENDBRANCH   1   6
TORSDOF 4
ENDMDL
MODEL 8
REMARK VINA RESULT:    -6.647     24.173     25.759
REMARK INTER + INTRA:          -8.525
REMARK INTER:                  -8.056
REMARK INTRA:                  -0.468
REMARK UNBOUND:                -0.517
REMARK SMILES [NH3+]Cc1cc(-c2ccccn2)nc(-c2ccccc2)n1
REMARK SMILES IDX 2 1 1 2 3 6 4 7 20 8 5 9 13 10 12 11 6 12 7 13 11 14 8 15
REMARK SMILES IDX 10 16 9 17 14 18 15 19 19 20 16 21 18 22 17 23
REMARK H PARENT 1 3 1 4 1 5
ROOT
ATOM      1  C   UNL     1       1.392  -8.341 -34.044  1.00  0.00     0.316 C 
ENDROOT
BRANCH   1   2
ATOM      2  N   UNL     1       1.795  -9.171 -32.877  1.00  0.00    -0.353 N 
ATOM      3  H   UNL     1       0.973  -9.322 -32.279  1.00  0.00     0.344 HD
ATOM      4  H   UNL     1       2.057 -10.107 -33.212  1.00  0.00     0.344 HD
ATOM      5  H   UNL     1       2.561  -8.770 -32.327  1.00  0.00     0.344 HD
ENDBRANCH   1   2
BRANCH   1   6
ATOM      6  C   UNL     1       1.782  -6.899 -33.844  1.00  0.00     0.099 A 
ATOM      7  C   UNL     1       2.736  -6.551 -32.914  1.00  0.00     0.060 A 
ATOM      8  N   UNL     1       1.147  -5.991 -34.622  1.00  0.00    -0.227 NA
ATOM      9  C   UNL     1       3.035  -5.205 -32.793  1.00  0.00     0.093 A 
ATOM     10  C   UNL     1       1.492  -4.695 -34.447  1.00  0.00     0.160 A 
ATOM     11  N   UNL     1       2.413  -4.281 -33.561  1.00  0.00    -0.226 NA
BRANCH   9  12
ATOM     12  C   UNL     1       4.045  -4.714 -31.826  1.00  0.00     0.089 A 
ATOM     13  C   UNL     1       5.368  -4.457 -32.186  1.00  0.00     0.030 A 
ATOM     14  N   UNL     1       3.604  -4.526 -30.550  1.00  0.00    -0.255 NA
ATOM     15  C   UNL     1       6.263  -3.996 -31.221  1.00  0.00     0.004 A 
ATOM     16  C   UNL     1       4.495  -4.077 -29.636  1.00  0.00     0.112 A 
ATOM     17  C   UNL     1       5.821  -3.802 -29.921  1.00  0.00     0.020 A 
ENDBRANCH   9  12
BRANCH  10  18
ATOM     18  C   UNL     1       0.821  -3.674 -35.278  1.00  0.00     0.019 A 
ATOM     19  C   UNL     1       0.400  -3.948 -36.594  1.00  0.00     0.012 A 
ATOM     20  C   UNL     1       0.574  -2.378 -34.785  1.00  0.00     0.012 A 
ATOM     21  C   UNL     1      -0.235  -2.977 -37.377  1.00  0.00     0.001 A 
ATOM     22  C   UNL     1      -0.062  -1.405 -35.563  1.00  0.00     0.001 A 
ATOM     23  C   UNL     1      -0.465  -1.706 -36.860  1.00  0.00     0.000 A 
ENDBRANCH  10  18
ENDBRANCH   1   6
TORSDOF 4
ENDMDL
MODEL 9
REMARK VINA RESULT:    -6.613      3.750      6.565
REMARK INTER + INTRA:          -8.484
REMARK INTER:                  -7.987
REMARK INTRA:                  -0.496
REMARK UNBOUND:                -0.517
REMARK SMILES [NH3+]Cc1cc(-c2ccccn2)nc(-c2ccccc2)n1
REMARK SMILES IDX 2 1 1 2 3 6 4 7 20 8 5 9 13 10 12 11 6 12 7 13 11 14 8 15
REMARK SMILES IDX 10 16 9 17 14 18 15 19 19 20 16 21 18 22 17 23
REMARK H PARENT 1 3 1 4 1 5
ROOT
ATOM      1  C   UNL     1      13.559 -19.525 -50.559  1.00  0.00     0.316 C 
ENDROOT
BRANCH   1   2
ATOM      2  N   UNL     1      13.325 -19.849 -51.992  1.00  0.00    -0.353 N 
ATOM      3  H   UNL     1      13.143 -18.977 -52.503  1.00  0.00     0.344 HD
ATOM      4  H   UNL     1      14.198 -20.217 -52.395  1.00  0.00     0.344 HD
ATOM      5  H   UNL     1      12.562 -20.514 -52.147  1.00  0.00     0.344 HD
ENDBRANCH   1   2
BRANCH   1   6
ATOM      6  C   UNL     1      13.075 -20.638 -49.665  1.00  0.00     0.099 A 
ATOM      7  C   UNL     1      11.875 -21.267 -49.914  1.00  0.00     0.060 A 
ATOM      8  N   UNL     1      13.878 -20.969 -48.627  1.00  0.00    -0.227 NA
ATOM      9  C   UNL     1      11.504 -22.278 -49.045  1.00  0.00     0.093 A 
ATOM     10  C   UNL     1      13.449 -21.967 -47.822  1.00  0.00     0.160 A 
ATOM     11  N   UNL     1      12.292 -22.625 -48.001  1.00  0.00    -0.226 NA
BRANCH   9  12
ATOM     12  C   UNL     1      10.235 -23.025 -49.214  1.00  0.00     0.089 A 
ATOM     13  C   UNL     1       9.641 -23.226 -50.460  1.00  0.00     0.030 A 
ATOM     14  N   UNL     1       9.673 -23.510 -48.070  1.00  0.00    -0.255 NA
ATOM     15  C   UNL     1       8.446 -23.939 -50.542  1.00  0.00     0.004 A 
ATOM     16  C   UNL     1       8.514 -24.198 -48.182  1.00  0.00     0.112 A 
ATOM     17  C   UNL     1       7.869 -24.436 -49.383  1.00  0.00     0.020 A 
ENDBRANCH   9  12
BRANCH  10  18
ATOM     18  C   UNL     1      14.298 -22.357 -46.678  1.00  0.00     0.019 A 
ATOM     19  C   UNL     1      13.745 -22.758 -45.446  1.00  0.00     0.012 A 
ATOM     20  C   UNL     1      15.704 -22.345 -46.773  1.00  0.00     0.012 A 
ATOM     21  C   UNL     1      14.555 -23.127 -44.365  1.00  0.00     0.001 A 
ATOM     22  C   UNL     1      16.516 -22.714 -45.696  1.00  0.00     0.001 A 
ATOM     23  C   UNL     1      15.940 -23.105 -44.492  1.00  0.00     0.000 A 
ENDBRANCH  10  18
ENDBRANCH   1   6
TORSDOF 4
ENDMDL
