REMARK SMILES C/C(COc1ccccc1)=N\NC(=O)c1nnn(-c2nonc2N)c1CSc1nncn1C
REMARK SMILES IDX 15 1 16 2 17 3 18 4 25 5 13 6 12 7 14 8 11 10 2 11 1 12 3 13
REMARK SMILES IDX 4 14 5 15 6 16 10 17 7 18 9 19 8 20 26 21 27 22 28 23 29 24
REMARK SMILES IDX 32 25 30 26 31 27 33 28 19 29 20 30 23 31 21 32 22 33 24 34
REMARK H PARENT 12 9 24 35 24 36
ROOT
ATOM      1  C   UNL     1       2.754   0.102   1.826  1.00  0.00     0.176 A 
ATOM      2  N   UNL     1       3.954   0.520   2.329  1.00  0.00    -0.124 NA
ATOM      3  N   UNL     1       4.891   0.286   1.429  1.00  0.00    -0.060 NA
ATOM      4  N   UNL     1       4.331  -0.309   0.340  1.00  0.00    -0.191 N 
ATOM      5  C   UNL     1       2.962  -0.462   0.571  1.00  0.00     0.090 A 
ENDROOT
BRANCH   1   6
ATOM      6  C   UNL     1       1.518   0.232   2.599  1.00  0.00     0.293 C 
ATOM      7  N   UNL     1       0.399   0.547   1.834  1.00  0.00    -0.241 N 
ATOM      8  O   UNL     1       1.509   0.093   3.819  1.00  0.00    -0.265 OA
ATOM      9  H   UNL     1       0.491   0.721   0.841  1.00  0.00     0.194 HD
BRANCH   7  10
ATOM     10  N   UNL     1      -0.841   0.520   2.402  1.00  0.00    -0.179 NA
ATOM     11  C   UNL     1      -1.869   0.907   1.704  1.00  0.00     0.073 C 
ATOM     12  C   UNL     1      -1.795   1.471   0.305  1.00  0.00     0.067 C 
BRANCH  11  13
ATOM     13  C   UNL     1      -3.257   0.741   2.323  1.00  0.00     0.282 C 
BRANCH  13  14
ATOM     14  O   UNL     1      -3.842  -0.519   2.002  1.00  0.00    -0.488 OA
BRANCH  14  15
ATOM     15  C   UNL     1      -4.360  -0.572   0.739  1.00  0.00     0.119 A 
ATOM     16  C   UNL     1      -3.798  -1.485  -0.151  1.00  0.00     0.046 A 
ATOM     17  C   UNL     1      -5.455   0.202   0.357  1.00  0.00     0.046 A 
ATOM     18  C   UNL     1      -4.299  -1.589  -1.448  1.00  0.00     0.004 A 
ATOM     19  C   UNL     1      -5.959   0.094  -0.940  1.00  0.00     0.004 A 
ATOM     20  C   UNL     1      -5.377  -0.796  -1.844  1.00  0.00     0.000 A 
ENDBRANCH  14  15
ENDBRANCH  13  14
ENDBRANCH  11  13
ENDBRANCH   7  10
ENDBRANCH   1   6
BRANCH   5  21
ATOM     21  C   UNL     1       2.012  -1.145  -0.347  1.00  0.00     0.137 C 
BRANCH  21  22
ATOM     22  S   UNL     1       1.370   0.054  -1.560  1.00  0.00    -0.080 SA
BRANCH  22  23
ATOM     23  C   UNL     1       0.263  -0.955  -2.416  1.00  0.00     0.191 A 
ATOM     24  N   UNL     1      -0.294  -2.055  -1.966  1.00  0.00    -0.124 NA
ATOM     25  N   UNL     1      -0.181  -0.699  -3.679  1.00  0.00    -0.312 N 
ATOM     26  N   UNL     1      -1.115  -2.541  -2.958  1.00  0.00    -0.138 NA
ATOM     27  C   UNL     1      -1.036  -1.718  -3.979  1.00  0.00     0.226 A 
ATOM     28  C   UNL     1       0.169   0.393  -4.546  1.00  0.00     0.153 C 
ENDBRANCH  22  23
ENDBRANCH  21  22
ENDBRANCH   5  21
BRANCH   4  29
ATOM     29  C   UNL     1       5.121  -0.667  -0.783  1.00  0.00     0.243 A 
ATOM     30  N   UNL     1       4.583  -1.259  -1.850  1.00  0.00    -0.027 NA
ATOM     31  C   UNL     1       6.504  -0.478  -0.968  1.00  0.00     0.215 A 
ATOM     32  O   UNL     1       5.662  -1.456  -2.710  1.00  0.00    -0.240 OA
ATOM     33  N   UNL     1       6.842  -0.973  -2.158  1.00  0.00    -0.030 NA
BRANCH  31  34
ATOM     34  N   UNL     1       7.368   0.102  -0.113  1.00  0.00    -0.378 N 
ATOM     35  H   UNL     1       7.106   0.295   0.853  1.00  0.00     0.158 HD
ATOM     36  H   UNL     1       8.365  -0.009  -0.263  1.00  0.00     0.158 HD
ENDBRANCH  31  34
ENDBRANCH   4  29
TORSDOF 10
