MODEL 1
REMARK VINA RESULT:    -7.401      0.000      0.000
REMARK INTER + INTRA:         -11.952
REMARK INTER:                 -10.863
REMARK INTRA:                  -1.090
REMARK UNBOUND:                -1.090
REMARK SMILES CCNc1ccc(S(=O)(=O)N(C)C)cc1NS(=O)(=O)c1cc(NC(C)=O)ccc1C
REMARK SMILES IDX 16 1 15 3 4 4 5 5 6 6 14 7 7 8 3 9 2 11 1 12 8 13 9 14 10 15
REMARK SMILES IDX 11 16 12 17 13 18 17 19 18 20 19 21 20 22 21 23 29 24 22 25
REMARK SMILES IDX 28 26 27 27 30 28 23 29 24 30 26 31 25 33
REMARK H PARENT 16 2 3 10 23 32
ROOT
ATOM      1  N   UNL     1       9.622 -22.518 -50.495  1.00  0.00    -0.277 N 
ATOM      2  H   UNL     1       9.398 -21.613 -50.076  1.00  0.00     0.180 HD
ENDROOT
BRANCH   1   3
ATOM      3  C   UNL     1       8.473 -23.048 -51.174  1.00  0.00     0.073 A 
ATOM      4  C   UNL     1       8.687 -23.705 -52.410  1.00  0.00     0.059 A 
ATOM      5  C   UNL     1       7.570 -24.211 -53.086  1.00  0.00     0.029 A 
ATOM      6  C   UNL     1       6.284 -24.065 -52.552  1.00  0.00     0.024 A 
ATOM      7  C   UNL     1       7.203 -22.937 -50.615  1.00  0.00     0.050 A 
ATOM      8  C   UNL     1       6.107 -23.426 -51.322  1.00  0.00     0.084 A 
BRANCH   4   9
ATOM      9  N   UNL     1      10.029 -23.923 -52.814  1.00  0.00    -0.384 N 
ATOM     10  H   UNL     1      10.491 -24.375 -52.018  1.00  0.00     0.160 HD
BRANCH   9  11
ATOM     11  C   UNL     1      10.304 -24.714 -54.018  1.00  0.00     0.109 C 
ATOM     12  C   UNL     1      11.792 -24.800 -54.308  1.00  0.00     0.027 C 
ENDBRANCH   9  11
ENDBRANCH   4   9
BRANCH   8  13
ATOM     13  S   UNL     1       4.483 -23.331 -50.594  1.00  0.00     0.242 S 
ATOM     14  O   UNL     1       4.439 -22.120 -49.803  1.00  0.00    -0.207 OA
ATOM     15  O   UNL     1       4.214 -24.619 -49.987  1.00  0.00    -0.207 OA
BRANCH  13  16
ATOM     16  N   UNL     1       3.452 -23.154 -51.931  1.00  0.00    -0.204 NA
ATOM     17  C   UNL     1       2.193 -23.924 -51.913  1.00  0.00     0.124 C 
ATOM     18  C   UNL     1       3.277 -21.784 -52.446  1.00  0.00     0.124 C 
ENDBRANCH  13  16
ENDBRANCH   8  13
ENDBRANCH   1   3
BRANCH   1  19
ATOM     19  S   UNL     1      10.349 -23.494 -49.308  1.00  0.00     0.262 S 
ATOM     20  O   UNL     1      10.486 -24.816 -49.880  1.00  0.00    -0.201 OA
ATOM     21  O   UNL     1       9.657 -23.320 -48.047  1.00  0.00    -0.201 OA
BRANCH  19  22
ATOM     22  C   UNL     1      11.993 -22.793 -49.143  1.00  0.00     0.092 A 
ATOM     23  C   UNL     1      12.273 -21.627 -49.881  1.00  0.00     0.048 A 
ATOM     24  C   UNL     1      12.946 -23.326 -48.254  1.00  0.00    -0.030 A 
ATOM     25  C   UNL     1      13.498 -20.976 -49.745  1.00  0.00     0.042 A 
ATOM     26  C   UNL     1      14.166 -22.647 -48.114  1.00  0.00     0.007 A 
ATOM     27  C   UNL     1      14.439 -21.492 -48.852  1.00  0.00     0.026 A 
ATOM     28  C   UNL     1      12.727 -24.553 -47.415  1.00  0.00     0.046 C 
BRANCH  25  29
ATOM     29  N   UNL     1      13.855 -19.798 -50.437  1.00  0.00    -0.326 N 
ATOM     30  C   UNL     1      13.763 -19.554 -51.793  1.00  0.00     0.221 C 
ATOM     31  O   UNL     1      13.413 -20.345 -52.661  1.00  0.00    -0.275 OA
ATOM     32  H   UNL     1      14.240 -19.053 -49.868  1.00  0.00     0.169 HD
ATOM     33  C   UNL     1      14.200 -18.157 -52.157  1.00  0.00     0.114 C 
ENDBRANCH  25  29
ENDBRANCH  19  22
ENDBRANCH   1  19
TORSDOF 8
ENDMDL
MODEL 2
REMARK VINA RESULT:    -7.300      5.631      9.627
REMARK INTER + INTRA:         -11.804
REMARK INTER:                 -11.502
REMARK INTRA:                  -0.302
REMARK UNBOUND:                -1.090
REMARK SMILES CCNc1ccc(S(=O)(=O)N(C)C)cc1NS(=O)(=O)c1cc(NC(C)=O)ccc1C
REMARK SMILES IDX 16 1 15 3 4 4 5 5 6 6 14 7 7 8 3 9 2 11 1 12 8 13 9 14 10 15
REMARK SMILES IDX 11 16 12 17 13 18 17 19 18 20 19 21 20 22 21 23 29 24 22 25
REMARK SMILES IDX 28 26 27 27 30 28 23 29 24 30 26 31 25 33
REMARK H PARENT 16 2 3 10 23 32
ROOT
ATOM      1  N   UNL     1      13.323 -22.666 -45.558  1.00  0.00    -0.277 N 
ATOM      2  H   UNL     1      13.439 -21.675 -45.338  1.00  0.00     0.180 HD
ENDROOT
BRANCH   1   3
ATOM      3  C   UNL     1      13.585 -23.466 -44.394  1.00  0.00     0.073 A 
ATOM      4  C   UNL     1      12.651 -24.479 -44.069  1.00  0.00     0.059 A 
ATOM      5  C   UNL     1      12.892 -25.252 -42.927  1.00  0.00     0.029 A 
ATOM      6  C   UNL     1      14.023 -25.024 -42.134  1.00  0.00     0.024 A 
ATOM      7  C   UNL     1      14.736 -23.261 -43.636  1.00  0.00     0.050 A 
ATOM      8  C   UNL     1      14.937 -24.028 -42.491  1.00  0.00     0.084 A 
BRANCH   4   9
ATOM      9  N   UNL     1      11.605 -24.729 -44.993  1.00  0.00    -0.384 N 
ATOM     10  H   UNL     1      11.738 -24.056 -45.755  1.00  0.00     0.160 HD
BRANCH   9  11
ATOM     11  C   UNL     1      11.458 -26.065 -45.578  1.00  0.00     0.109 C 
ATOM     12  C   UNL     1      10.058 -26.292 -46.122  1.00  0.00     0.027 C 
ENDBRANCH   9  11
ENDBRANCH   4   9
BRANCH   8  13
ATOM     13  S   UNL     1      16.428 -23.806 -41.541  1.00  0.00     0.242 S 
ATOM     14  O   UNL     1      16.044 -23.768 -40.146  1.00  0.00    -0.207 OA
ATOM     15  O   UNL     1      17.151 -22.702 -42.138  1.00  0.00    -0.207 OA
BRANCH  13  16
ATOM     16  N   UNL     1      17.306 -25.230 -41.831  1.00  0.00    -0.204 NA
ATOM     17  C   UNL     1      18.471 -25.127 -42.732  1.00  0.00     0.124 C 
ATOM     18  C   UNL     1      17.563 -26.091 -40.662  1.00  0.00     0.124 C 
ENDBRANCH  13  16
ENDBRANCH   8  13
ENDBRANCH   1   3
BRANCH   1  19
ATOM     19  S   UNL     1      14.213 -23.014 -46.963  1.00  0.00     0.262 S 
ATOM     20  O   UNL     1      14.058 -24.430 -47.218  1.00  0.00    -0.201 OA
ATOM     21  O   UNL     1      15.539 -22.440 -46.851  1.00  0.00    -0.201 OA
BRANCH  19  22
ATOM     22  C   UNL     1      13.328 -22.124 -48.246  1.00  0.00     0.092 A 
ATOM     23  C   UNL     1      14.015 -21.080 -48.897  1.00  0.00     0.048 A 
ATOM     24  C   UNL     1      12.033 -22.495 -48.655  1.00  0.00    -0.030 A 
ATOM     25  C   UNL     1      13.426 -20.395 -49.960  1.00  0.00     0.042 A 
ATOM     26  C   UNL     1      11.463 -21.810 -49.739  1.00  0.00     0.007 A 
ATOM     27  C   UNL     1      12.148 -20.773 -50.378  1.00  0.00     0.026 A 
ATOM     28  C   UNL     1      11.235 -23.606 -48.032  1.00  0.00     0.046 C 
BRANCH  25  29
ATOM     29  N   UNL     1      14.046 -19.347 -50.672  1.00  0.00    -0.326 N 
ATOM     30  C   UNL     1      13.952 -19.072 -52.022  1.00  0.00     0.221 C 
ATOM     31  O   UNL     1      13.361 -19.733 -52.868  1.00  0.00    -0.275 OA
ATOM     32  H   UNL     1      14.644 -18.737 -50.127  1.00  0.00     0.169 HD
ATOM     33  C   UNL     1      14.725 -17.837 -52.413  1.00  0.00     0.114 C 
ENDBRANCH  25  29
ENDBRANCH  19  22
ENDBRANCH   1  19
TORSDOF 8
ENDMDL
MODEL 3
REMARK VINA RESULT:    -7.266      2.381      8.254
REMARK INTER + INTRA:         -11.754
REMARK INTER:                 -10.694
REMARK INTRA:                  -1.059
REMARK UNBOUND:                -1.090
REMARK SMILES CCNc1ccc(S(=O)(=O)N(C)C)cc1NS(=O)(=O)c1cc(NC(C)=O)ccc1C
REMARK SMILES IDX 16 1 15 3 4 4 5 5 6 6 14 7 7 8 3 9 2 11 1 12 8 13 9 14 10 15
REMARK SMILES IDX 11 16 12 17 13 18 17 19 18 20 19 21 20 22 21 23 29 24 22 25
REMARK SMILES IDX 28 26 27 27 30 28 23 29 24 30 26 31 25 33
REMARK H PARENT 16 2 3 10 23 32
ROOT
ATOM      1  N   UNL     1      10.535 -22.338 -50.143  1.00  0.00    -0.277 N 
ATOM      2  H   UNL     1      10.324 -21.433 -50.568  1.00  0.00     0.180 HD
ENDROOT
BRANCH   1   3
ATOM      3  C   UNL     1      11.631 -22.211 -49.224  1.00  0.00     0.073 A 
ATOM      4  C   UNL     1      12.666 -21.304 -49.558  1.00  0.00     0.059 A 
ATOM      5  C   UNL     1      13.745 -21.187 -48.674  1.00  0.00     0.029 A 
ATOM      6  C   UNL     1      13.795 -21.948 -47.500  1.00  0.00     0.024 A 
ATOM      7  C   UNL     1      11.651 -22.940 -48.037  1.00  0.00     0.050 A 
ATOM      8  C   UNL     1      12.750 -22.822 -47.190  1.00  0.00     0.084 A 
BRANCH   4   9
ATOM      9  N   UNL     1      12.475 -20.480 -50.696  1.00  0.00    -0.384 N 
ATOM     10  H   UNL     1      11.551 -20.051 -50.579  1.00  0.00     0.160 HD
BRANCH   9  11
ATOM     11  C   UNL     1      13.442 -19.419 -50.993  1.00  0.00     0.109 C 
ATOM     12  C   UNL     1      13.794 -19.375 -52.470  1.00  0.00     0.027 C 
ENDBRANCH   9  11
ENDBRANCH   4   9
BRANCH   8  13
ATOM     13  S   UNL     1      12.764 -23.714 -45.647  1.00  0.00     0.242 S 
ATOM     14  O   UNL     1      12.505 -25.104 -45.954  1.00  0.00    -0.207 OA
ATOM     15  O   UNL     1      11.908 -22.989 -44.730  1.00  0.00    -0.207 OA
BRANCH  13  16
ATOM     16  N   UNL     1      14.366 -23.559 -45.107  1.00  0.00    -0.204 NA
ATOM     17  C   UNL     1      14.566 -22.984 -43.762  1.00  0.00     0.124 C 
ATOM     18  C   UNL     1      15.263 -24.695 -45.382  1.00  0.00     0.124 C 
ENDBRANCH  13  16
ENDBRANCH   8  13
ENDBRANCH   1   3
BRANCH   1  19
ATOM     19  S   UNL     1      10.682 -23.492 -51.382  1.00  0.00     0.262 S 
ATOM     20  O   UNL     1      11.022 -24.748 -50.747  1.00  0.00    -0.201 OA
ATOM     21  O   UNL     1      11.523 -22.966 -52.438  1.00  0.00    -0.201 OA
BRANCH  19  22
ATOM     22  C   UNL     1       9.011 -23.634 -52.020  1.00  0.00     0.092 A 
ATOM     23  C   UNL     1       7.986 -23.004 -51.286  1.00  0.00     0.048 A 
ATOM     24  C   UNL     1       8.729 -24.273 -53.243  1.00  0.00    -0.030 A 
ATOM     25  C   UNL     1       6.674 -22.998 -51.758  1.00  0.00     0.042 A 
ATOM     26  C   UNL     1       7.407 -24.241 -53.713  1.00  0.00     0.007 A 
ATOM     27  C   UNL     1       6.395 -23.616 -52.979  1.00  0.00     0.026 A 
ATOM     28  C   UNL     1       9.760 -24.954 -54.098  1.00  0.00     0.046 C 
BRANCH  25  29
ATOM     29  N   UNL     1       5.592 -22.382 -51.094  1.00  0.00    -0.326 N 
ATOM     30  C   UNL     1       4.630 -22.984 -50.308  1.00  0.00     0.221 C 
ATOM     31  O   UNL     1       4.498 -24.183 -50.096  1.00  0.00    -0.275 OA
ATOM     32  H   UNL     1       5.507 -21.381 -51.226  1.00  0.00     0.169 HD
ATOM     33  C   UNL     1       3.655 -21.988 -49.728  1.00  0.00     0.114 C 
ENDBRANCH  25  29
ENDBRANCH  19  22
ENDBRANCH   1  19
TORSDOF 8
ENDMDL
MODEL 4
REMARK VINA RESULT:    -7.027      4.711      7.143
REMARK INTER + INTRA:         -11.403
REMARK INTER:                 -10.370
REMARK INTRA:                  -1.033
REMARK UNBOUND:                -1.090
REMARK SMILES CCNc1ccc(S(=O)(=O)N(C)C)cc1NS(=O)(=O)c1cc(NC(C)=O)ccc1C
REMARK SMILES IDX 16 1 15 3 4 4 5 5 6 6 14 7 7 8 3 9 2 11 1 12 8 13 9 14 10 15
REMARK SMILES IDX 11 16 12 17 13 18 17 19 18 20 19 21 20 22 21 23 29 24 22 25
REMARK SMILES IDX 28 26 27 27 30 28 23 29 24 30 26 31 25 33
REMARK H PARENT 16 2 3 10 23 32
ROOT
ATOM      1  N   UNL     1      13.278 -24.335 -45.906  1.00  0.00    -0.277 N 
ATOM      2  H   UNL     1      14.211 -23.929 -45.803  1.00  0.00     0.180 HD
ENDROOT
BRANCH   1   3
ATOM      3  C   UNL     1      12.518 -23.591 -46.871  1.00  0.00     0.073 A 
ATOM      4  C   UNL     1      12.968 -22.288 -47.199  1.00  0.00     0.059 A 
ATOM      5  C   UNL     1      12.223 -21.552 -48.127  1.00  0.00     0.029 A 
ATOM      6  C   UNL     1      11.068 -22.090 -48.707  1.00  0.00     0.024 A 
ATOM      7  C   UNL     1      11.395 -24.151 -47.475  1.00  0.00     0.050 A 
ATOM      8  C   UNL     1      10.658 -23.385 -48.376  1.00  0.00     0.084 A 
BRANCH   4   9
ATOM      9  N   UNL     1      14.214 -21.871 -46.666  1.00  0.00    -0.384 N 
ATOM     10  H   UNL     1      14.338 -22.400 -45.797  1.00  0.00     0.160 HD
BRANCH   9  11
ATOM     11  C   UNL     1      15.431 -22.015 -47.471  1.00  0.00     0.109 C 
ATOM     12  C   UNL     1      16.406 -22.999 -46.848  1.00  0.00     0.027 C 
ENDBRANCH   9  11
ENDBRANCH   4   9
BRANCH   8  13
ATOM     13  S   UNL     1       9.248 -24.108 -49.190  1.00  0.00     0.242 S 
ATOM     14  O   UNL     1       8.081 -23.773 -48.402  1.00  0.00    -0.207 OA
ATOM     15  O   UNL     1       9.580 -25.491 -49.465  1.00  0.00    -0.207 OA
BRANCH  13  16
ATOM     16  N   UNL     1       9.169 -23.281 -50.670  1.00  0.00    -0.204 NA
ATOM     17  C   UNL     1       9.945 -23.842 -51.794  1.00  0.00     0.124 C 
ATOM     18  C   UNL     1       7.839 -22.796 -51.080  1.00  0.00     0.124 C 
ENDBRANCH  13  16
ENDBRANCH   8  13
ENDBRANCH   1   3
BRANCH   1  19
ATOM     19  S   UNL     1      12.602 -24.528 -44.358  1.00  0.00     0.262 S 
ATOM     20  O   UNL     1      12.221 -25.919 -44.239  1.00  0.00    -0.201 OA
ATOM     21  O   UNL     1      11.622 -23.488 -44.124  1.00  0.00    -0.201 OA
BRANCH  19  22
ATOM     22  C   UNL     1      13.992 -24.242 -43.259  1.00  0.00     0.092 A 
ATOM     23  C   UNL     1      15.132 -23.626 -43.810  1.00  0.00     0.048 A 
ATOM     24  C   UNL     1      13.930 -24.539 -41.884  1.00  0.00    -0.030 A 
ATOM     25  C   UNL     1      16.222 -23.295 -43.004  1.00  0.00     0.042 A 
ATOM     26  C   UNL     1      15.026 -24.182 -41.084  1.00  0.00     0.007 A 
ATOM     27  C   UNL     1      16.156 -23.573 -41.637  1.00  0.00     0.026 A 
ATOM     28  C   UNL     1      12.749 -25.178 -41.209  1.00  0.00     0.046 C 
BRANCH  25  29
ATOM     29  N   UNL     1      17.396 -22.667 -43.471  1.00  0.00    -0.326 N 
ATOM     30  C   UNL     1      18.665 -23.204 -43.555  1.00  0.00     0.221 C 
ATOM     31  O   UNL     1      19.021 -24.313 -43.173  1.00  0.00    -0.275 OA
ATOM     32  H   UNL     1      17.292 -21.702 -43.763  1.00  0.00     0.169 HD
ATOM     33  C   UNL     1      19.660 -22.239 -44.150  1.00  0.00     0.114 C 
ENDBRANCH  25  29
ENDBRANCH  19  22
ENDBRANCH   1  19
TORSDOF 8
ENDMDL
MODEL 5
REMARK VINA RESULT:    -6.758      6.449      9.799
REMARK INTER + INTRA:         -11.008
REMARK INTER:                 -10.043
REMARK INTRA:                  -0.965
REMARK UNBOUND:                -1.090
REMARK SMILES CCNc1ccc(S(=O)(=O)N(C)C)cc1NS(=O)(=O)c1cc(NC(C)=O)ccc1C
REMARK SMILES IDX 16 1 15 3 4 4 5 5 6 6 14 7 7 8 3 9 2 11 1 12 8 13 9 14 10 15
REMARK SMILES IDX 11 16 12 17 13 18 17 19 18 20 19 21 20 22 21 23 29 24 22 25
REMARK SMILES IDX 28 26 27 27 30 28 23 29 24 30 26 31 25 33
REMARK H PARENT 16 2 3 10 23 32
ROOT
ATOM      1  N   UNL     1      14.878 -22.618 -43.796  1.00  0.00    -0.277 N 
ATOM      2  H   UNL     1      14.596 -22.751 -42.823  1.00  0.00     0.180 HD
ENDROOT
BRANCH   1   3
ATOM      3  C   UNL     1      13.818 -23.017 -44.679  1.00  0.00     0.073 A 
ATOM      4  C   UNL     1      12.886 -23.969 -44.198  1.00  0.00     0.059 A 
ATOM      5  C   UNL     1      11.859 -24.374 -45.059  1.00  0.00     0.029 A 
ATOM      6  C   UNL     1      11.764 -23.853 -46.355  1.00  0.00     0.024 A 
ATOM      7  C   UNL     1      13.706 -22.461 -45.951  1.00  0.00     0.050 A 
ATOM      8  C   UNL     1      12.689 -22.902 -46.795  1.00  0.00     0.084 A 
BRANCH   4   9
ATOM      9  N   UNL     1      12.978 -24.346 -42.835  1.00  0.00    -0.384 N 
ATOM     10  H   UNL     1      12.108 -24.028 -42.397  1.00  0.00     0.160 HD
BRANCH   9  11
ATOM     11  C   UNL     1      13.183 -25.756 -42.486  1.00  0.00     0.109 C 
ATOM     12  C   UNL     1      14.074 -26.462 -43.492  1.00  0.00     0.027 C 
ENDBRANCH   9  11
ENDBRANCH   4   9
BRANCH   8  13
ATOM     13  S   UNL     1      12.508 -22.163 -48.407  1.00  0.00     0.242 S 
ATOM     14  O   UNL     1      13.791 -22.262 -49.069  1.00  0.00    -0.207 OA
ATOM     15  O   UNL     1      11.874 -20.875 -48.214  1.00  0.00    -0.207 OA
BRANCH  13  16
ATOM     16  N   UNL     1      11.402 -23.182 -49.195  1.00  0.00    -0.204 NA
ATOM     17  C   UNL     1      10.578 -22.579 -50.261  1.00  0.00     0.124 C 
ATOM     18  C   UNL     1      11.884 -24.531 -49.540  1.00  0.00     0.124 C 
ENDBRANCH  13  16
ENDBRANCH   8  13
ENDBRANCH   1   3
BRANCH   1  19
ATOM     19  S   UNL     1      16.398 -23.347 -44.020  1.00  0.00     0.262 S 
ATOM     20  O   UNL     1      17.370 -22.276 -44.082  1.00  0.00    -0.201 OA
ATOM     21  O   UNL     1      16.318 -24.315 -45.095  1.00  0.00    -0.201 OA
BRANCH  19  22
ATOM     22  C   UNL     1      16.660 -24.239 -42.485  1.00  0.00     0.092 A 
ATOM     23  C   UNL     1      15.923 -23.817 -41.360  1.00  0.00     0.048 A 
ATOM     24  C   UNL     1      17.500 -25.367 -42.410  1.00  0.00    -0.030 A 
ATOM     25  C   UNL     1      16.009 -24.509 -40.153  1.00  0.00     0.042 A 
ATOM     26  C   UNL     1      17.560 -26.064 -41.194  1.00  0.00     0.007 A 
ATOM     27  C   UNL     1      16.828 -25.638 -40.081  1.00  0.00     0.026 A 
ATOM     28  C   UNL     1      18.307 -25.897 -43.561  1.00  0.00     0.046 C 
BRANCH  25  29
ATOM     29  N   UNL     1      15.298 -24.162 -38.985  1.00  0.00    -0.326 N 
ATOM     30  C   UNL     1      13.929 -24.080 -38.822  1.00  0.00     0.221 C 
ATOM     31  O   UNL     1      13.075 -24.229 -39.688  1.00  0.00    -0.275 OA
ATOM     32  H   UNL     1      15.864 -23.932 -38.177  1.00  0.00     0.169 HD
ATOM     33  C   UNL     1      13.538 -23.721 -37.410  1.00  0.00     0.114 C 
ENDBRANCH  25  29
ENDBRANCH  19  22
ENDBRANCH   1  19
TORSDOF 8
ENDMDL
MODEL 6
REMARK VINA RESULT:    -6.729      6.042     10.249
REMARK INTER + INTRA:         -10.966
REMARK INTER:                 -10.462
REMARK INTRA:                  -0.503
REMARK UNBOUND:                -1.090
REMARK SMILES CCNc1ccc(S(=O)(=O)N(C)C)cc1NS(=O)(=O)c1cc(NC(C)=O)ccc1C
REMARK SMILES IDX 16 1 15 3 4 4 5 5 6 6 14 7 7 8 3 9 2 11 1 12 8 13 9 14 10 15
REMARK SMILES IDX 11 16 12 17 13 18 17 19 18 20 19 21 20 22 21 23 29 24 22 25
REMARK SMILES IDX 28 26 27 27 30 28 23 29 24 30 26 31 25 33
REMARK H PARENT 16 2 3 10 23 32
ROOT
ATOM      1  N   UNL     1      13.846 -23.248 -44.341  1.00  0.00    -0.277 N 
ATOM      2  H   UNL     1      14.153 -22.905 -45.254  1.00  0.00     0.180 HD
ENDROOT
BRANCH   1   3
ATOM      3  C   UNL     1      14.933 -23.902 -43.667  1.00  0.00     0.073 A 
ATOM      4  C   UNL     1      16.014 -24.363 -44.457  1.00  0.00     0.059 A 
ATOM      5  C   UNL     1      17.069 -25.016 -43.808  1.00  0.00     0.029 A 
ATOM      6  C   UNL     1      17.048 -25.206 -42.422  1.00  0.00     0.024 A 
ATOM      7  C   UNL     1      14.925 -24.048 -42.282  1.00  0.00     0.050 A 
ATOM      8  C   UNL     1      15.975 -24.724 -41.666  1.00  0.00     0.084 A 
BRANCH   4   9
ATOM      9  N   UNL     1      16.017 -24.016 -45.832  1.00  0.00    -0.384 N 
ATOM     10  H   UNL     1      15.068 -24.205 -46.170  1.00  0.00     0.160 HD
BRANCH   9  11
ATOM     11  C   UNL     1      16.388 -22.656 -46.235  1.00  0.00     0.109 C 
ATOM     12  C   UNL     1      17.332 -22.010 -45.236  1.00  0.00     0.027 C 
ENDBRANCH   9  11
ENDBRANCH   4   9
BRANCH   8  13
ATOM     13  S   UNL     1      15.998 -24.875 -39.891  1.00  0.00     0.242 S 
ATOM     14  O   UNL     1      16.447 -23.606 -39.359  1.00  0.00    -0.207 OA
ATOM     15  O   UNL     1      16.708 -26.099 -39.579  1.00  0.00    -0.207 OA
BRANCH  13  16
ATOM     16  N   UNL     1      14.364 -25.095 -39.485  1.00  0.00    -0.204 NA
ATOM     17  C   UNL     1      13.821 -26.462 -39.609  1.00  0.00     0.124 C 
ATOM     18  C   UNL     1      13.891 -24.401 -38.274  1.00  0.00     0.124 C 
ENDBRANCH  13  16
ENDBRANCH   8  13
ENDBRANCH   1   3
BRANCH   1  19
ATOM     19  S   UNL     1      12.411 -24.133 -44.553  1.00  0.00     0.262 S 
ATOM     20  O   UNL     1      11.363 -23.399 -43.876  1.00  0.00    -0.201 OA
ATOM     21  O   UNL     1      12.646 -25.524 -44.226  1.00  0.00    -0.201 OA
BRANCH  19  22
ATOM     22  C   UNL     1      12.109 -24.019 -46.318  1.00  0.00     0.092 A 
ATOM     23  C   UNL     1      12.719 -22.953 -47.009  1.00  0.00     0.048 A 
ATOM     24  C   UNL     1      11.365 -24.991 -47.013  1.00  0.00    -0.030 A 
ATOM     25  C   UNL     1      12.600 -22.842 -48.394  1.00  0.00     0.042 A 
ATOM     26  C   UNL     1      11.272 -24.876 -48.409  1.00  0.00     0.007 A 
ATOM     27  C   UNL     1      11.877 -23.814 -49.087  1.00  0.00     0.026 A 
ATOM     28  C   UNL     1      10.696 -26.169 -46.362  1.00  0.00     0.046 C 
BRANCH  25  29
ATOM     29  N   UNL     1      13.188 -21.815 -49.163  1.00  0.00    -0.326 N 
ATOM     30  C   UNL     1      12.551 -20.902 -49.980  1.00  0.00     0.221 C 
ATOM     31  O   UNL     1      11.355 -20.858 -50.242  1.00  0.00    -0.275 OA
ATOM     32  H   UNL     1      14.198 -21.755 -49.119  1.00  0.00     0.169 HD
ATOM     33  C   UNL     1      13.512 -19.923 -50.608  1.00  0.00     0.114 C 
ENDBRANCH  25  29
ENDBRANCH  19  22
ENDBRANCH   1  19
TORSDOF 8
ENDMDL
MODEL 7
REMARK VINA RESULT:    -6.627      2.738      4.742
REMARK INTER + INTRA:         -10.816
REMARK INTER:                  -9.751
REMARK INTRA:                  -1.065
REMARK UNBOUND:                -1.090
REMARK SMILES CCNc1ccc(S(=O)(=O)N(C)C)cc1NS(=O)(=O)c1cc(NC(C)=O)ccc1C
REMARK SMILES IDX 16 1 15 3 4 4 5 5 6 6 14 7 7 8 3 9 2 11 1 12 8 13 9 14 10 15
REMARK SMILES IDX 11 16 12 17 13 18 17 19 18 20 19 21 20 22 21 23 29 24 22 25
REMARK SMILES IDX 28 26 27 27 30 28 23 29 24 30 26 31 25 33
REMARK H PARENT 16 2 3 10 23 32
ROOT
ATOM      1  N   UNL     1      10.042 -22.920 -48.514  1.00  0.00    -0.277 N 
ATOM      2  H   UNL     1      10.449 -23.321 -47.666  1.00  0.00     0.180 HD
ENDROOT
BRANCH   1   3
ATOM      3  C   UNL     1       8.999 -23.770 -49.014  1.00  0.00     0.073 A 
ATOM      4  C   UNL     1       8.805 -25.018 -48.373  1.00  0.00     0.059 A 
ATOM      5  C   UNL     1       7.800 -25.859 -48.865  1.00  0.00     0.029 A 
ATOM      6  C   UNL     1       7.017 -25.474 -49.959  1.00  0.00     0.024 A 
ATOM      7  C   UNL     1       8.195 -23.361 -50.075  1.00  0.00     0.050 A 
ATOM      8  C   UNL     1       7.220 -24.229 -50.560  1.00  0.00     0.084 A 
BRANCH   4   9
ATOM      9  N   UNL     1       9.552 -25.274 -47.195  1.00  0.00    -0.384 N 
ATOM     10  H   UNL     1       8.864 -25.359 -46.440  1.00  0.00     0.160 HD
BRANCH   9  11
ATOM     11  C   UNL     1      10.445 -26.436 -47.141  1.00  0.00     0.109 C 
ATOM     12  C   UNL     1      11.481 -26.403 -48.250  1.00  0.00     0.027 C 
ENDBRANCH   9  11
ENDBRANCH   4   9
BRANCH   8  13
ATOM     13  S   UNL     1       6.155 -23.696 -51.886  1.00  0.00     0.242 S 
ATOM     14  O   UNL     1       6.385 -22.280 -52.076  1.00  0.00    -0.207 OA
ATOM     15  O   UNL     1       4.828 -24.196 -51.590  1.00  0.00    -0.207 OA
BRANCH  13  16
ATOM     16  N   UNL     1       6.745 -24.535 -53.238  1.00  0.00    -0.204 NA
ATOM     17  C   UNL     1       5.750 -25.000 -54.225  1.00  0.00     0.124 C 
ATOM     18  C   UNL     1       7.962 -23.992 -53.867  1.00  0.00     0.124 C 
ENDBRANCH  13  16
ENDBRANCH   8  13
ENDBRANCH   1   3
BRANCH   1  19
ATOM     19  S   UNL     1      11.305 -22.522 -49.580  1.00  0.00     0.262 S 
ATOM     20  O   UNL     1      11.015 -21.203 -50.100  1.00  0.00    -0.201 OA
ATOM     21  O   UNL     1      11.535 -23.624 -50.492  1.00  0.00    -0.201 OA
BRANCH  19  22
ATOM     22  C   UNL     1      12.733 -22.386 -48.501  1.00  0.00     0.092 A 
ATOM     23  C   UNL     1      12.661 -23.034 -47.253  1.00  0.00     0.048 A 
ATOM     24  C   UNL     1      13.914 -21.733 -48.903  1.00  0.00    -0.030 A 
ATOM     25  C   UNL     1      13.758 -23.044 -46.392  1.00  0.00     0.042 A 
ATOM     26  C   UNL     1      15.015 -21.769 -48.034  1.00  0.00     0.007 A 
ATOM     27  C   UNL     1      14.936 -22.412 -46.795  1.00  0.00     0.026 A 
ATOM     28  C   UNL     1      14.085 -21.032 -50.221  1.00  0.00     0.046 C 
BRANCH  25  29
ATOM     29  N   UNL     1      13.775 -23.679 -45.132  1.00  0.00    -0.326 N 
ATOM     30  C   UNL     1      12.723 -23.835 -44.250  1.00  0.00     0.221 C 
ATOM     31  O   UNL     1      11.588 -23.389 -44.373  1.00  0.00    -0.275 OA
ATOM     32  H   UNL     1      14.671 -24.047 -44.836  1.00  0.00     0.169 HD
ATOM     33  C   UNL     1      13.116 -24.611 -43.017  1.00  0.00     0.114 C 
ENDBRANCH  25  29
ENDBRANCH  19  22
ENDBRANCH   1  19
TORSDOF 8
ENDMDL
MODEL 8
REMARK VINA RESULT:    -6.572      4.307      6.398
REMARK INTER + INTRA:         -10.736
REMARK INTER:                 -10.230
REMARK INTRA:                  -0.505
REMARK UNBOUND:                -1.090
REMARK SMILES CCNc1ccc(S(=O)(=O)N(C)C)cc1NS(=O)(=O)c1cc(NC(C)=O)ccc1C
REMARK SMILES IDX 16 1 15 3 4 4 5 5 6 6 14 7 7 8 3 9 2 11 1 12 8 13 9 14 10 15
REMARK SMILES IDX 11 16 12 17 13 18 17 19 18 20 19 21 20 22 21 23 29 24 22 25
REMARK SMILES IDX 28 26 27 27 30 28 23 29 24 30 26 31 25 33
REMARK H PARENT 16 2 3 10 23 32
ROOT
ATOM      1  N   UNL     1      12.254 -22.694 -46.993  1.00  0.00    -0.277 N 
ATOM      2  H   UNL     1      11.721 -22.228 -46.255  1.00  0.00     0.180 HD
ENDROOT
BRANCH   1   3
ATOM      3  C   UNL     1      11.441 -22.853 -48.166  1.00  0.00     0.073 A 
ATOM      4  C   UNL     1      11.898 -22.258 -49.367  1.00  0.00     0.059 A 
ATOM      5  C   UNL     1      11.103 -22.396 -50.511  1.00  0.00     0.029 A 
ATOM      6  C   UNL     1       9.894 -23.099 -50.461  1.00  0.00     0.024 A 
ATOM      7  C   UNL     1      10.261 -23.591 -48.118  1.00  0.00     0.050 A 
ATOM      8  C   UNL     1       9.477 -23.689 -49.265  1.00  0.00     0.084 A 
BRANCH   4   9
ATOM      9  N   UNL     1      13.192 -21.678 -49.361  1.00  0.00    -0.384 N 
ATOM     10  H   UNL     1      13.674 -22.060 -50.181  1.00  0.00     0.160 HD
BRANCH   9  11
ATOM     11  C   UNL     1      13.332 -20.219 -49.381  1.00  0.00     0.109 C 
ATOM     12  C   UNL     1      13.391 -19.678 -50.799  1.00  0.00     0.027 C 
ENDBRANCH   9  11
ENDBRANCH   4   9
BRANCH   8  13
ATOM     13  S   UNL     1       7.989 -24.669 -49.227  1.00  0.00     0.242 S 
ATOM     14  O   UNL     1       6.940 -23.833 -48.685  1.00  0.00    -0.207 OA
ATOM     15  O   UNL     1       8.328 -25.930 -48.598  1.00  0.00    -0.207 OA
BRANCH  13  16
ATOM     16  N   UNL     1       7.663 -24.970 -50.866  1.00  0.00    -0.204 NA
ATOM     17  C   UNL     1       7.882 -26.347 -51.351  1.00  0.00     0.124 C 
ATOM     18  C   UNL     1       6.437 -24.360 -51.412  1.00  0.00     0.124 C 
ENDBRANCH  13  16
ENDBRANCH   8  13
ENDBRANCH   1   3
BRANCH   1  19
ATOM     19  S   UNL     1      12.968 -24.091 -46.340  1.00  0.00     0.262 S 
ATOM     20  O   UNL     1      13.648 -24.762 -47.428  1.00  0.00    -0.201 OA
ATOM     21  O   UNL     1      11.991 -24.810 -45.546  1.00  0.00    -0.201 OA
BRANCH  19  22
ATOM     22  C   UNL     1      14.218 -23.440 -45.229  1.00  0.00     0.092 A 
ATOM     23  C   UNL     1      14.111 -23.783 -43.867  1.00  0.00     0.048 A 
ATOM     24  C   UNL     1      15.311 -22.685 -45.695  1.00  0.00    -0.030 A 
ATOM     25  C   UNL     1      15.087 -23.384 -42.954  1.00  0.00     0.042 A 
ATOM     26  C   UNL     1      16.295 -22.309 -44.768  1.00  0.00     0.007 A 
ATOM     27  C   UNL     1      16.182 -22.651 -43.417  1.00  0.00     0.026 A 
ATOM     28  C   UNL     1      15.515 -22.289 -47.131  1.00  0.00     0.046 C 
BRANCH  25  29
ATOM     29  N   UNL     1      15.064 -23.695 -41.578  1.00  0.00    -0.326 N 
ATOM     30  C   UNL     1      16.012 -24.388 -40.852  1.00  0.00     0.221 C 
ATOM     31  O   UNL     1      17.024 -24.924 -41.287  1.00  0.00    -0.275 OA
ATOM     32  H   UNL     1      14.244 -23.383 -41.070  1.00  0.00     0.169 HD
ATOM     33  C   UNL     1      15.660 -24.484 -39.388  1.00  0.00     0.114 C 
ENDBRANCH  25  29
ENDBRANCH  19  22
ENDBRANCH   1  19
TORSDOF 8
ENDMDL
MODEL 9
REMARK VINA RESULT:    -6.509     24.268     26.396
REMARK INTER + INTRA:         -10.644
REMARK INTER:                  -9.692
REMARK INTRA:                  -0.952
REMARK UNBOUND:                -1.090
REMARK SMILES CCNc1ccc(S(=O)(=O)N(C)C)cc1NS(=O)(=O)c1cc(NC(C)=O)ccc1C
REMARK SMILES IDX 16 1 15 3 4 4 5 5 6 6 14 7 7 8 3 9 2 11 1 12 8 13 9 14 10 15
REMARK SMILES IDX 11 16 12 17 13 18 17 19 18 20 19 21 20 22 21 23 29 24 22 25
REMARK SMILES IDX 28 26 27 27 30 28 23 29 24 30 26 31 25 33
REMARK H PARENT 16 2 3 10 23 32
ROOT
ATOM      1  N   UNL     1       1.461  -7.459 -34.326  1.00  0.00    -0.277 N 
ATOM      2  H   UNL     1       2.214  -7.947 -34.815  1.00  0.00     0.180 HD
ENDROOT
BRANCH   1   3
ATOM      3  C   UNL     1       1.818  -6.085 -34.109  1.00  0.00     0.073 A 
ATOM      4  C   UNL     1       0.957  -5.091 -34.636  1.00  0.00     0.059 A 
ATOM      5  C   UNL     1       1.308  -3.750 -34.442  1.00  0.00     0.029 A 
ATOM      6  C   UNL     1       2.477  -3.409 -33.752  1.00  0.00     0.024 A 
ATOM      7  C   UNL     1       2.960  -5.754 -33.384  1.00  0.00     0.050 A 
ATOM      8  C   UNL     1       3.298  -4.412 -33.229  1.00  0.00     0.084 A 
BRANCH   4   9
ATOM      9  N   UNL     1      -0.268  -5.521 -35.206  1.00  0.00    -0.384 N 
ATOM     10  H   UNL     1      -0.282  -6.540 -35.106  1.00  0.00     0.160 HD
BRANCH   9  11
ATOM     11  C   UNL     1      -1.533  -4.989 -34.690  1.00  0.00     0.109 C 
ATOM     12  C   UNL     1      -1.756  -5.372 -33.238  1.00  0.00     0.027 C 
ENDBRANCH   9  11
ENDBRANCH   4   9
BRANCH   8  13
ATOM     13  S   UNL     1       4.730  -3.976 -32.262  1.00  0.00     0.242 S 
ATOM     14  O   UNL     1       4.931  -2.550 -32.415  1.00  0.00    -0.207 OA
ATOM     15  O   UNL     1       5.780  -4.911 -32.614  1.00  0.00    -0.207 OA
BRANCH  13  16
ATOM     16  N   UNL     1       4.252  -4.296 -30.666  1.00  0.00    -0.204 NA
ATOM     17  C   UNL     1       5.231  -4.002 -29.601  1.00  0.00     0.124 C 
ATOM     18  C   UNL     1       2.878  -3.906 -30.302  1.00  0.00     0.124 C 
ENDBRANCH  13  16
ENDBRANCH   8  13
ENDBRANCH   1   3
BRANCH   1  19
ATOM     19  S   UNL     1       1.021  -8.377 -32.965  1.00  0.00     0.262 S 
ATOM     20  O   UNL     1       1.035  -7.477 -31.831  1.00  0.00    -0.201 OA
ATOM     21  O   UNL     1       1.801  -9.597 -32.929  1.00  0.00    -0.201 OA
BRANCH  19  22
ATOM     22  C   UNL     1      -0.687  -8.818 -33.295  1.00  0.00     0.092 A 
ATOM     23  C   UNL     1      -1.038  -9.077 -34.635  1.00  0.00     0.048 A 
ATOM     24  C   UNL     1      -1.630  -8.984 -32.262  1.00  0.00    -0.030 A 
ATOM     25  C   UNL     1      -2.324  -9.504 -34.964  1.00  0.00     0.042 A 
ATOM     26  C   UNL     1      -2.913  -9.434 -32.608  1.00  0.00     0.007 A 
ATOM     27  C   UNL     1      -3.255  -9.686 -33.939  1.00  0.00     0.026 A 
ATOM     28  C   UNL     1      -1.339  -8.748 -30.807  1.00  0.00     0.046 C 
BRANCH  25  29
ATOM     29  N   UNL     1      -2.754  -9.797 -36.275  1.00  0.00    -0.326 N 
ATOM     30  C   UNL     1      -3.498  -8.995 -37.119  1.00  0.00     0.221 C 
ATOM     31  O   UNL     1      -3.982  -7.900 -36.856  1.00  0.00    -0.275 OA
ATOM     32  H   UNL     1      -2.498 -10.711 -36.629  1.00  0.00     0.169 HD
ATOM     33  C   UNL     1      -3.726  -9.633 -38.466  1.00  0.00     0.114 C 
ENDBRANCH  25  29
ENDBRANCH  19  22
ENDBRANCH   1  19
TORSDOF 8
ENDMDL
