REMARK SMILES NC(=O)c1cc(/N=C/c2cc(Cl)ccc2O)ccc1Cl
REMARK SMILES IDX 7 1 8 2 6 3 4 4 5 5 19 6 18 7 17 8 20 9 2 10 1 11 3 12 9 15
REMARK SMILES IDX 10 16 15 17 11 18 14 19 13 20 12 21 16 22
REMARK H PARENT 1 13 1 14 16 23
ROOT
ATOM      1  N   UNL     1       0.594   0.129  -0.112  1.00  0.00    -0.256 NA
ATOM      2  C   UNL     1       0.262   0.546  -1.296  1.00  0.00     0.123 C 
ENDROOT
BRANCH   1   3
ATOM      3  C   UNL     1       0.366   1.019   0.946  1.00  0.00     0.064 A 
ATOM      4  C   UNL     1      -0.945   1.681   2.882  1.00  0.00     0.060 A 
ATOM      5  C   UNL     1      -0.718   0.815   1.800  1.00  0.00     0.043 A 
ATOM      6  C   UNL     1      -0.073   2.750   3.114  1.00  0.00     0.053 A 
ATOM      7  C   UNL     1       1.023   2.942   2.267  1.00  0.00     0.023 A 
ATOM      8  C   UNL     1       1.244   2.076   1.193  1.00  0.00     0.030 A 
ATOM      9  Cl  UNL     1      -0.308   3.904   4.376  1.00  0.00    -0.083 Cl
BRANCH   4  10
ATOM     10  C   UNL     1      -2.095   1.403   3.769  1.00  0.00     0.250 C 
ATOM     11  N   UNL     1      -3.292   1.174   3.149  1.00  0.00    -0.366 N 
ATOM     12  O   UNL     1      -1.990   1.364   4.986  1.00  0.00    -0.269 OA
ATOM     13  H   UNL     1      -3.450   1.362   2.169  1.00  0.00     0.159 HD
ATOM     14  H   UNL     1      -4.100   1.069   3.751  1.00  0.00     0.159 HD
ENDBRANCH   4  10
ENDBRANCH   1   3
BRANCH   2  15
ATOM     15  C   UNL     1       0.458  -0.302  -2.488  1.00  0.00     0.036 A 
ATOM     16  C   UNL     1       0.072   0.210  -3.731  1.00  0.00     0.034 A 
ATOM     17  C   UNL     1       1.013  -1.585  -2.404  1.00  0.00     0.124 A 
ATOM     18  C   UNL     1       0.245  -0.569  -4.875  1.00  0.00     0.041 A 
ATOM     19  C   UNL     1       1.182  -2.357  -3.551  1.00  0.00     0.048 A 
ATOM     20  C   UNL     1       0.796  -1.848  -4.792  1.00  0.00     0.024 A 
ATOM     21  Cl  UNL     1      -0.230   0.056  -6.406  1.00  0.00    -0.084 Cl
BRANCH  17  22
ATOM     22  O   UNL     1       1.413  -2.148  -1.224  1.00  0.00    -0.507 OA
ATOM     23  H   UNL     1       1.241  -1.492  -0.509  1.00  0.00     0.293 HD
ENDBRANCH  17  22
ENDBRANCH   2  15
TORSDOF 4
