MODEL 1
REMARK VINA RESULT:    -8.817      0.000      0.000
REMARK INTER + INTRA:         -12.814
REMARK INTER:                 -12.425
REMARK INTRA:                  -0.389
REMARK UNBOUND:                -0.389
REMARK SMILES N#CC(=C\c1ccc(-c2ccccc2[N+](=O)[O-])s1)/C([O-])=N/c1nc(-c2ccc(O)c(O)c2)cs1
REMARK SMILES IDX 1 1 2 2 3 3 4 4 19 5 21 6 20 7 22 8 23 9 34 10 24 11 33 12
REMARK SMILES IDX 25 13 26 14 32 15 27 16 30 17 28 18 31 19 29 21 5 23 6 24
REMARK SMILES IDX 18 25 7 26 8 27 9 28 10 29 14 30 11 31 13 32 12 33 15 34
REMARK SMILES IDX 16 35 17 36
REMARK H PARENT 31 20 29 22
ROOT
ATOM      1  N   UNL     1      13.014 -21.118 -47.208  1.00  0.00    -0.192 NA
ATOM      2  C   UNL     1      12.325 -22.055 -47.282  1.00  0.00     0.100 C 
ATOM      3  C   UNL     1      11.557 -23.257 -47.326  1.00  0.00     0.064 C 
ATOM      4  C   UNL     1      11.796 -24.356 -46.582  1.00  0.00     0.039 C 
ENDROOT
BRANCH   3   5
ATOM      5  C   UNL     1      10.458 -23.413 -48.339  1.00  0.00     0.009 C 
ATOM      6  N   UNL     1       9.417 -24.128 -48.017  1.00  0.00    -0.234 NA
ATOM      7  O   UNL     1      10.806 -22.759 -49.339  1.00  0.00    -0.858 OA
BRANCH   6   8
ATOM      8  C   UNL     1       8.428 -24.222 -48.944  1.00  0.00     0.209 A 
ATOM      9  N   UNL     1       7.164 -23.873 -48.772  1.00  0.00    -0.218 NA
ATOM     10  S   UNL     1       8.730 -25.025 -50.453  1.00  0.00    -0.103 S 
ATOM     11  C   UNL     1       6.418 -24.124 -49.910  1.00  0.00     0.084 A 
ATOM     12  C   UNL     1       7.109 -24.745 -50.928  1.00  0.00     0.097 A 
BRANCH  11  13
ATOM     13  C   UNL     1       5.015 -23.724 -49.972  1.00  0.00     0.005 A 
ATOM     14  C   UNL     1       4.380 -23.385 -51.179  1.00  0.00     0.014 A 
ATOM     15  C   UNL     1       4.272 -23.687 -48.778  1.00  0.00     0.060 A 
ATOM     16  C   UNL     1       3.032 -23.008 -51.196  1.00  0.00     0.051 A 
ATOM     17  C   UNL     1       2.935 -23.312 -48.804  1.00  0.00     0.158 A 
ATOM     18  C   UNL     1       2.322 -22.975 -50.006  1.00  0.00     0.157 A 
BRANCH  17  19
ATOM     19  O   UNL     1       2.182 -23.259 -47.662  1.00  0.00    -0.504 OA
ATOM     20  H   UNL     1       2.551 -23.919 -47.047  1.00  0.00     0.293 HD
ENDBRANCH  17  19
BRANCH  18  21
ATOM     21  O   UNL     1       1.007 -22.609 -50.018  1.00  0.00    -0.504 OA
ATOM     22  H   UNL     1       0.792 -22.478 -49.073  1.00  0.00     0.293 HD
ENDBRANCH  18  21
ENDBRANCH  11  13
ENDBRANCH   6   8
ENDBRANCH   3   5
BRANCH   4  23
ATOM     23  C   UNL     1      12.808 -24.473 -45.583  1.00  0.00     0.029 A 
ATOM     24  C   UNL     1      14.144 -24.823 -45.674  1.00  0.00     0.020 A 
ATOM     25  S   UNL     1      12.406 -24.093 -43.951  1.00  0.00    -0.136 S 
ATOM     26  C   UNL     1      14.810 -24.832 -44.413  1.00  0.00     0.021 A 
ATOM     27  C   UNL     1      13.972 -24.474 -43.379  1.00  0.00     0.042 A 
BRANCH  27  28
ATOM     28  C   UNL     1      14.257 -24.386 -41.946  1.00  0.00     0.069 A 
ATOM     29  C   UNL     1      13.264 -24.762 -41.026  1.00  0.00     0.017 A 
ATOM     30  C   UNL     1      15.482 -23.952 -41.424  1.00  0.00     0.278 A 
ATOM     31  C   UNL     1      13.495 -24.695 -39.646  1.00  0.00     0.001 A 
ATOM     32  C   UNL     1      15.729 -23.877 -40.045  1.00  0.00     0.086 A 
ATOM     33  C   UNL     1      14.724 -24.251 -39.156  1.00  0.00     0.007 A 
BRANCH  30  34
ATOM     34  N   UNL     1      16.553 -23.548 -42.305  1.00  0.00     0.063 N 
ATOM     35  O   UNL     1      16.473 -22.419 -42.807  1.00  0.00    -0.258 OA
ATOM     36  O   UNL     1      17.504 -24.333 -42.429  1.00  0.00    -0.258 OA
ENDBRANCH  30  34
ENDBRANCH  27  28
ENDBRANCH   4  23
TORSDOF 8
ENDMDL
MODEL 2
REMARK VINA RESULT:    -8.647      2.749     11.535
REMARK INTER + INTRA:         -12.575
REMARK INTER:                 -11.585
REMARK INTRA:                  -0.990
REMARK UNBOUND:                -0.389
REMARK SMILES N#CC(=C\c1ccc(-c2ccccc2[N+](=O)[O-])s1)/C([O-])=N/c1nc(-c2ccc(O)c(O)c2)cs1
REMARK SMILES IDX 1 1 2 2 3 3 4 4 19 5 21 6 20 7 22 8 23 9 34 10 24 11 33 12
REMARK SMILES IDX 25 13 26 14 32 15 27 16 30 17 28 18 31 19 29 21 5 23 6 24
REMARK SMILES IDX 18 25 7 26 8 27 9 28 10 29 14 30 11 31 13 32 12 33 15 34
REMARK SMILES IDX 16 35 17 36
REMARK H PARENT 31 20 29 22
ROOT
ATOM      1  N   UNL     1      11.900 -20.848 -49.250  1.00  0.00    -0.192 NA
ATOM      2  C   UNL     1      12.182 -21.931 -48.924  1.00  0.00     0.100 C 
ATOM      3  C   UNL     1      12.439 -23.290 -48.573  1.00  0.00     0.064 C 
ATOM      4  C   UNL     1      11.868 -24.362 -49.158  1.00  0.00     0.039 C 
ENDROOT
BRANCH   3   5
ATOM      5  C   UNL     1      13.316 -23.611 -47.396  1.00  0.00     0.009 C 
ATOM      6  N   UNL     1      13.789 -22.624 -46.689  1.00  0.00    -0.234 NA
ATOM      7  O   UNL     1      13.389 -24.853 -47.342  1.00  0.00    -0.858 OA
BRANCH   6   8
ATOM      8  C   UNL     1      14.552 -22.952 -45.613  1.00  0.00     0.209 A 
ATOM      9  N   UNL     1      14.109 -23.200 -44.392  1.00  0.00    -0.218 NA
ATOM     10  S   UNL     1      16.283 -22.887 -45.727  1.00  0.00    -0.103 S 
ATOM     11  C   UNL     1      15.155 -23.476 -43.529  1.00  0.00     0.084 A 
ATOM     12  C   UNL     1      16.410 -23.359 -44.086  1.00  0.00     0.097 A 
BRANCH  11  13
ATOM     13  C   UNL     1      14.884 -23.872 -42.150  1.00  0.00     0.005 A 
ATOM     14  C   UNL     1      13.600 -24.237 -41.707  1.00  0.00     0.014 A 
ATOM     15  C   UNL     1      15.951 -23.896 -41.234  1.00  0.00     0.060 A 
ATOM     16  C   UNL     1      13.383 -24.612 -40.377  1.00  0.00     0.051 A 
ATOM     17  C   UNL     1      15.727 -24.269 -39.915  1.00  0.00     0.158 A 
ATOM     18  C   UNL     1      14.450 -24.624 -39.492  1.00  0.00     0.157 A 
BRANCH  17  19
ATOM     19  O   UNL     1      16.739 -24.300 -38.995  1.00  0.00    -0.504 OA
ATOM     20  H   UNL     1      17.534 -24.625 -39.457  1.00  0.00     0.293 HD
ENDBRANCH  17  19
BRANCH  18  21
ATOM     21  O   UNL     1      14.242 -24.990 -38.194  1.00  0.00    -0.504 OA
ATOM     22  H   UNL     1      13.671 -25.782 -38.262  1.00  0.00     0.293 HD
ENDBRANCH  18  21
ENDBRANCH  11  13
ENDBRANCH   6   8
ENDBRANCH   3   5
BRANCH   4  23
ATOM     23  C   UNL     1      10.969 -24.318 -50.265  1.00  0.00     0.029 A 
ATOM     24  C   UNL     1      11.122 -23.815 -51.546  1.00  0.00     0.020 A 
ATOM     25  S   UNL     1       9.407 -25.026 -50.090  1.00  0.00    -0.136 S 
ATOM     26  C   UNL     1       9.953 -23.961 -52.350  1.00  0.00     0.021 A 
ATOM     27  C   UNL     1       8.930 -24.587 -51.673  1.00  0.00     0.042 A 
BRANCH  27  28
ATOM     28  C   UNL     1       7.574 -24.900 -52.129  1.00  0.00     0.069 A 
ATOM     29  C   UNL     1       7.366 -26.039 -52.925  1.00  0.00     0.017 A 
ATOM     30  C   UNL     1       6.451 -24.127 -51.810  1.00  0.00     0.278 A 
ATOM     31  C   UNL     1       6.085 -26.376 -53.382  1.00  0.00     0.001 A 
ATOM     32  C   UNL     1       5.162 -24.450 -52.260  1.00  0.00     0.086 A 
ATOM     33  C   UNL     1       4.986 -25.583 -53.052  1.00  0.00     0.007 A 
BRANCH  30  34
ATOM     34  N   UNL     1       6.583 -22.941 -50.996  1.00  0.00     0.063 N 
ATOM     35  O   UNL     1       6.934 -21.901 -51.570  1.00  0.00    -0.258 OA
ATOM     36  O   UNL     1       6.262 -23.040 -49.804  1.00  0.00    -0.258 OA
ENDBRANCH  30  34
ENDBRANCH  27  28
ENDBRANCH   4  23
TORSDOF 8
ENDMDL
MODEL 3
REMARK VINA RESULT:    -8.425      1.244      1.472
REMARK INTER + INTRA:         -12.262
REMARK INTER:                 -11.405
REMARK INTRA:                  -0.857
REMARK UNBOUND:                -0.389
REMARK SMILES N#CC(=C\c1ccc(-c2ccccc2[N+](=O)[O-])s1)/C([O-])=N/c1nc(-c2ccc(O)c(O)c2)cs1
REMARK SMILES IDX 1 1 2 2 3 3 4 4 19 5 21 6 20 7 22 8 23 9 34 10 24 11 33 12
REMARK SMILES IDX 25 13 26 14 32 15 27 16 30 17 28 18 31 19 29 21 5 23 6 24
REMARK SMILES IDX 18 25 7 26 8 27 9 28 10 29 14 30 11 31 13 32 12 33 15 34
REMARK SMILES IDX 16 35 17 36
REMARK H PARENT 31 20 29 22
ROOT
ATOM      1  N   UNL     1      14.009 -21.182 -48.784  1.00  0.00    -0.192 NA
ATOM      2  C   UNL     1      13.087 -21.886 -48.665  1.00  0.00     0.100 C 
ATOM      3  C   UNL     1      12.022 -22.816 -48.471  1.00  0.00     0.064 C 
ATOM      4  C   UNL     1      12.040 -23.842 -47.597  1.00  0.00     0.039 C 
ENDROOT
BRANCH   3   5
ATOM      5  C   UNL     1      10.809 -22.769 -49.357  1.00  0.00     0.009 C 
ATOM      6  N   UNL     1       9.937 -23.733 -49.264  1.00  0.00    -0.234 NA
ATOM      7  O   UNL     1      10.906 -21.725 -50.029  1.00  0.00    -0.858 OA
BRANCH   6   8
ATOM      8  C   UNL     1       8.838 -23.642 -50.057  1.00  0.00     0.209 A 
ATOM      9  N   UNL     1       7.586 -23.547 -49.643  1.00  0.00    -0.218 NA
ATOM     10  S   UNL     1       8.991 -23.841 -51.775  1.00  0.00    -0.103 S 
ATOM     11  C   UNL     1       6.709 -23.499 -50.712  1.00  0.00     0.084 A 
ATOM     12  C   UNL     1       7.299 -23.640 -51.950  1.00  0.00     0.097 A 
BRANCH  11  13
ATOM     13  C   UNL     1       5.281 -23.298 -50.484  1.00  0.00     0.005 A 
ATOM     14  C   UNL     1       4.514 -22.398 -51.247  1.00  0.00     0.014 A 
ATOM     15  C   UNL     1       4.651 -24.038 -49.468  1.00  0.00     0.060 A 
ATOM     16  C   UNL     1       3.147 -22.235 -50.997  1.00  0.00     0.051 A 
ATOM     17  C   UNL     1       3.293 -23.869 -49.227  1.00  0.00     0.158 A 
ATOM     18  C   UNL     1       2.549 -22.973 -49.988  1.00  0.00     0.157 A 
BRANCH  17  19
ATOM     19  O   UNL     1       2.646 -24.568 -48.244  1.00  0.00    -0.504 OA
ATOM     20  H   UNL     1       3.328 -25.053 -47.743  1.00  0.00     0.293 HD
ENDBRANCH  17  19
BRANCH  18  21
ATOM     21  O   UNL     1       1.215 -22.817 -49.741  1.00  0.00    -0.504 OA
ATOM     22  H   UNL     1       0.796 -22.979 -50.610  1.00  0.00     0.293 HD
ENDBRANCH  18  21
ENDBRANCH  11  13
ENDBRANCH   6   8
ENDBRANCH   3   5
BRANCH   4  23
ATOM     23  C   UNL     1      13.094 -24.126 -46.677  1.00  0.00     0.029 A 
ATOM     24  C   UNL     1      14.274 -24.832 -46.830  1.00  0.00     0.020 A 
ATOM     25  S   UNL     1      12.992 -23.484 -45.080  1.00  0.00    -0.136 S 
ATOM     26  C   UNL     1      15.053 -24.892 -45.637  1.00  0.00     0.021 A 
ATOM     27  C   UNL     1      14.460 -24.215 -44.594  1.00  0.00     0.042 A 
BRANCH  27  28
ATOM     28  C   UNL     1      14.919 -24.060 -43.212  1.00  0.00     0.069 A 
ATOM     29  C   UNL     1      14.180 -24.654 -42.175  1.00  0.00     0.017 A 
ATOM     30  C   UNL     1      16.072 -23.352 -42.853  1.00  0.00     0.278 A 
ATOM     31  C   UNL     1      14.584 -24.532 -40.839  1.00  0.00     0.001 A 
ATOM     32  C   UNL     1      16.489 -23.219 -41.521  1.00  0.00     0.086 A 
ATOM     33  C   UNL     1      15.735 -23.814 -40.512  1.00  0.00     0.007 A 
BRANCH  30  34
ATOM     34  N   UNL     1      16.885 -22.712 -43.862  1.00  0.00     0.063 N 
ATOM     35  O   UNL     1      17.848 -23.356 -44.300  1.00  0.00    -0.258 OA
ATOM     36  O   UNL     1      16.510 -21.602 -44.264  1.00  0.00    -0.258 OA
ENDBRANCH  30  34
ENDBRANCH  27  28
ENDBRANCH   4  23
TORSDOF 8
ENDMDL
MODEL 4
REMARK VINA RESULT:    -8.223      1.906      2.211
REMARK INTER + INTRA:         -11.978
REMARK INTER:                 -11.819
REMARK INTRA:                  -0.158
REMARK UNBOUND:                -0.389
REMARK SMILES N#CC(=C\c1ccc(-c2ccccc2[N+](=O)[O-])s1)/C([O-])=N/c1nc(-c2ccc(O)c(O)c2)cs1
REMARK SMILES IDX 1 1 2 2 3 3 4 4 19 5 21 6 20 7 22 8 23 9 34 10 24 11 33 12
REMARK SMILES IDX 25 13 26 14 32 15 27 16 30 17 28 18 31 19 29 21 5 23 6 24
REMARK SMILES IDX 18 25 7 26 8 27 9 28 10 29 14 30 11 31 13 32 12 33 15 34
REMARK SMILES IDX 16 35 17 36
REMARK H PARENT 31 20 29 22
ROOT
ATOM      1  N   UNL     1      12.678 -20.363 -47.559  1.00  0.00    -0.192 NA
ATOM      2  C   UNL     1      12.270 -21.450 -47.650  1.00  0.00     0.100 C 
ATOM      3  C   UNL     1      11.853 -22.814 -47.703  1.00  0.00     0.064 C 
ATOM      4  C   UNL     1      12.280 -23.788 -46.874  1.00  0.00     0.039 C 
ENDROOT
BRANCH   3   5
ATOM      5  C   UNL     1      10.960 -23.287 -48.816  1.00  0.00     0.009 C 
ATOM      6  N   UNL     1      10.900 -22.575 -49.906  1.00  0.00    -0.234 NA
ATOM      7  O   UNL     1      10.443 -24.349 -48.424  1.00  0.00    -0.858 OA
BRANCH   6   8
ATOM      8  C   UNL     1      10.107 -23.048 -50.903  1.00  0.00     0.209 A 
ATOM      9  N   UNL     1       8.794 -22.915 -50.982  1.00  0.00    -0.218 NA
ATOM     10  S   UNL     1      10.779 -24.082 -52.126  1.00  0.00    -0.103 S 
ATOM     11  C   UNL     1       8.298 -23.538 -52.113  1.00  0.00     0.084 A 
ATOM     12  C   UNL     1       9.237 -24.219 -52.858  1.00  0.00     0.097 A 
BRANCH  11  13
ATOM     13  C   UNL     1       6.880 -23.433 -52.448  1.00  0.00     0.005 A 
ATOM     14  C   UNL     1       6.335 -24.002 -53.613  1.00  0.00     0.014 A 
ATOM     15  C   UNL     1       6.030 -22.743 -51.566  1.00  0.00     0.060 A 
ATOM     16  C   UNL     1       4.970 -23.880 -53.896  1.00  0.00     0.051 A 
ATOM     17  C   UNL     1       4.676 -22.627 -51.855  1.00  0.00     0.158 A 
ATOM     18  C   UNL     1       4.153 -23.192 -53.014  1.00  0.00     0.157 A 
BRANCH  17  19
ATOM     19  O   UNL     1       3.818 -21.959 -51.023  1.00  0.00    -0.504 OA
ATOM     20  H   UNL     1       3.828 -21.023 -51.296  1.00  0.00     0.293 HD
ENDBRANCH  17  19
BRANCH  18  21
ATOM     21  O   UNL     1       2.821 -23.071 -53.286  1.00  0.00    -0.504 OA
ATOM     22  H   UNL     1       2.404 -23.755 -52.724  1.00  0.00     0.293 HD
ENDBRANCH  18  21
ENDBRANCH  11  13
ENDBRANCH   6   8
ENDBRANCH   3   5
BRANCH   4  23
ATOM     23  C   UNL     1      13.163 -23.602 -45.768  1.00  0.00     0.029 A 
ATOM     24  C   UNL     1      14.390 -22.969 -45.676  1.00  0.00     0.020 A 
ATOM     25  S   UNL     1      12.688 -24.201 -44.223  1.00  0.00    -0.136 S 
ATOM     26  C   UNL     1      14.954 -23.025 -44.367  1.00  0.00     0.021 A 
ATOM     27  C   UNL     1      14.140 -23.690 -43.477  1.00  0.00     0.042 A 
BRANCH  27  28
ATOM     28  C   UNL     1      14.363 -23.982 -42.059  1.00  0.00     0.069 A 
ATOM     29  C   UNL     1      13.255 -24.182 -41.219  1.00  0.00     0.017 A 
ATOM     30  C   UNL     1      15.633 -24.085 -41.480  1.00  0.00     0.278 A 
ATOM     31  C   UNL     1      13.423 -24.465 -39.857  1.00  0.00     0.001 A 
ATOM     32  C   UNL     1      15.819 -24.366 -40.119  1.00  0.00     0.086 A 
ATOM     33  C   UNL     1      14.703 -24.555 -39.308  1.00  0.00     0.007 A 
BRANCH  30  34
ATOM     34  N   UNL     1      16.822 -23.892 -42.279  1.00  0.00     0.063 N 
ATOM     35  O   UNL     1      17.335 -22.765 -42.260  1.00  0.00    -0.258 OA
ATOM     36  O   UNL     1      17.277 -24.888 -42.857  1.00  0.00    -0.258 OA
ENDBRANCH  30  34
ENDBRANCH  27  28
ENDBRANCH   4  23
TORSDOF 8
ENDMDL
MODEL 5
REMARK VINA RESULT:    -8.221      2.492     11.454
REMARK INTER + INTRA:         -11.975
REMARK INTER:                 -10.883
REMARK INTRA:                  -1.092
REMARK UNBOUND:                -0.389
REMARK SMILES N#CC(=C\c1ccc(-c2ccccc2[N+](=O)[O-])s1)/C([O-])=N/c1nc(-c2ccc(O)c(O)c2)cs1
REMARK SMILES IDX 1 1 2 2 3 3 4 4 19 5 21 6 20 7 22 8 23 9 34 10 24 11 33 12
REMARK SMILES IDX 25 13 26 14 32 15 27 16 30 17 28 18 31 19 29 21 5 23 6 24
REMARK SMILES IDX 18 25 7 26 8 27 9 28 10 29 14 30 11 31 13 32 12 33 15 34
REMARK SMILES IDX 16 35 17 36
REMARK H PARENT 31 20 29 22
ROOT
ATOM      1  N   UNL     1      11.240 -22.469 -50.133  1.00  0.00    -0.192 NA
ATOM      2  C   UNL     1      11.281 -23.261 -49.279  1.00  0.00     0.100 C 
ATOM      3  C   UNL     1      11.226 -24.244 -48.246  1.00  0.00     0.064 C 
ATOM      4  C   UNL     1      10.218 -25.121 -48.064  1.00  0.00     0.039 C 
ENDROOT
BRANCH   3   5
ATOM      5  C   UNL     1      12.286 -24.279 -47.181  1.00  0.00     0.009 C 
ATOM      6  N   UNL     1      12.418 -23.240 -46.404  1.00  0.00    -0.234 NA
ATOM      7  O   UNL     1      12.840 -25.390 -47.274  1.00  0.00    -0.858 OA
BRANCH   6   8
ATOM      8  C   UNL     1      13.364 -23.318 -45.433  1.00  0.00     0.209 A 
ATOM      9  N   UNL     1      13.152 -23.613 -44.162  1.00  0.00    -0.218 NA
ATOM     10  S   UNL     1      14.995 -22.829 -45.772  1.00  0.00    -0.103 S 
ATOM     11  C   UNL     1      14.331 -23.580 -43.439  1.00  0.00     0.084 A 
ATOM     12  C   UNL     1      15.437 -23.178 -44.155  1.00  0.00     0.097 A 
BRANCH  11  13
ATOM     13  C   UNL     1      14.341 -23.968 -42.031  1.00  0.00     0.005 A 
ATOM     14  C   UNL     1      13.184 -24.404 -41.360  1.00  0.00     0.014 A 
ATOM     15  C   UNL     1      15.556 -23.911 -41.325  1.00  0.00     0.060 A 
ATOM     16  C   UNL     1      13.236 -24.768 -40.010  1.00  0.00     0.051 A 
ATOM     17  C   UNL     1      15.598 -24.274 -39.985  1.00  0.00     0.158 A 
ATOM     18  C   UNL     1      14.444 -24.700 -39.335  1.00  0.00     0.157 A 
BRANCH  17  19
ATOM     19  O   UNL     1      16.761 -24.227 -39.264  1.00  0.00    -0.504 OA
ATOM     20  H   UNL     1      16.695 -23.458 -38.668  1.00  0.00     0.293 HD
ENDBRANCH  17  19
BRANCH  18  21
ATOM     21  O   UNL     1      14.500 -25.055 -38.017  1.00  0.00    -0.504 OA
ATOM     22  H   UNL     1      15.458 -25.136 -37.837  1.00  0.00     0.293 HD
ENDBRANCH  18  21
ENDBRANCH  11  13
ENDBRANCH   6   8
ENDBRANCH   3   5
BRANCH   4  23
ATOM     23  C   UNL     1       9.079 -25.257 -48.912  1.00  0.00     0.029 A 
ATOM     24  C   UNL     1       8.808 -26.140 -49.942  1.00  0.00     0.020 A 
ATOM     25  S   UNL     1       7.733 -24.210 -48.660  1.00  0.00    -0.136 S 
ATOM     26  C   UNL     1       7.536 -25.921 -50.551  1.00  0.00     0.021 A 
ATOM     27  C   UNL     1       6.850 -24.881 -49.963  1.00  0.00     0.042 A 
BRANCH  27  28
ATOM     28  C   UNL     1       5.538 -24.328 -50.305  1.00  0.00     0.069 A 
ATOM     29  C   UNL     1       4.406 -24.765 -49.597  1.00  0.00     0.017 A 
ATOM     30  C   UNL     1       5.338 -23.369 -51.305  1.00  0.00     0.278 A 
ATOM     31  C   UNL     1       3.132 -24.261 -49.891  1.00  0.00     0.001 A 
ATOM     32  C   UNL     1       4.069 -22.855 -51.612  1.00  0.00     0.086 A 
ATOM     33  C   UNL     1       2.963 -23.310 -50.897  1.00  0.00     0.007 A 
BRANCH  30  34
ATOM     34  N   UNL     1       6.452 -22.869 -52.077  1.00  0.00     0.063 N 
ATOM     35  O   UNL     1       7.098 -21.930 -51.591  1.00  0.00    -0.258 OA
ATOM     36  O   UNL     1       6.720 -23.469 -53.127  1.00  0.00    -0.258 OA
ENDBRANCH  30  34
ENDBRANCH  27  28
ENDBRANCH   4  23
TORSDOF 8
ENDMDL
MODEL 6
REMARK VINA RESULT:    -7.769      2.553     12.085
REMARK INTER + INTRA:         -11.338
REMARK INTER:                 -10.372
REMARK INTRA:                  -0.966
REMARK UNBOUND:                -0.389
REMARK SMILES N#CC(=C\c1ccc(-c2ccccc2[N+](=O)[O-])s1)/C([O-])=N/c1nc(-c2ccc(O)c(O)c2)cs1
REMARK SMILES IDX 1 1 2 2 3 3 4 4 19 5 21 6 20 7 22 8 23 9 34 10 24 11 33 12
REMARK SMILES IDX 25 13 26 14 32 15 27 16 30 17 28 18 31 19 29 21 5 23 6 24
REMARK SMILES IDX 18 25 7 26 8 27 9 28 10 29 14 30 11 31 13 32 12 33 15 34
REMARK SMILES IDX 16 35 17 36
REMARK H PARENT 31 20 29 22
ROOT
ATOM      1  N   UNL     1       7.932 -26.148 -48.282  1.00  0.00    -0.192 NA
ATOM      2  C   UNL     1       8.522 -25.280 -48.788  1.00  0.00     0.100 C 
ATOM      3  C   UNL     1       9.183 -24.230 -49.492  1.00  0.00     0.064 C 
ATOM      4  C   UNL     1       8.687 -23.589 -50.570  1.00  0.00     0.039 C 
ENDROOT
BRANCH   3   5
ATOM      5  C   UNL     1      10.587 -23.842 -49.124  1.00  0.00     0.009 C 
ATOM      6  N   UNL     1      10.760 -22.825 -48.327  1.00  0.00    -0.234 NA
ATOM      7  O   UNL     1      11.337 -24.654 -49.696  1.00  0.00    -0.858 OA
BRANCH   6   8
ATOM      8  C   UNL     1      12.040 -22.522 -47.989  1.00  0.00     0.209 A 
ATOM      9  N   UNL     1      12.598 -22.712 -46.806  1.00  0.00    -0.218 NA
ATOM     10  S   UNL     1      13.043 -21.642 -49.101  1.00  0.00    -0.103 S 
ATOM     11  C   UNL     1      13.909 -22.268 -46.796  1.00  0.00     0.084 A 
ATOM     12  C   UNL     1      14.323 -21.662 -47.963  1.00  0.00     0.097 A 
BRANCH  11  13
ATOM     13  C   UNL     1      14.744 -22.469 -45.615  1.00  0.00     0.005 A 
ATOM     14  C   UNL     1      14.270 -23.108 -44.455  1.00  0.00     0.014 A 
ATOM     15  C   UNL     1      16.074 -22.012 -45.645  1.00  0.00     0.060 A 
ATOM     16  C   UNL     1      15.104 -23.282 -43.345  1.00  0.00     0.051 A 
ATOM     17  C   UNL     1      16.894 -22.189 -44.538  1.00  0.00     0.158 A 
ATOM     18  C   UNL     1      16.409 -22.820 -43.397  1.00  0.00     0.157 A 
BRANCH  17  19
ATOM     19  O   UNL     1      18.192 -21.755 -44.529  1.00  0.00    -0.504 OA
ATOM     20  H   UNL     1      18.621 -22.154 -43.750  1.00  0.00     0.293 HD
ENDBRANCH  17  19
BRANCH  18  21
ATOM     21  O   UNL     1      17.226 -22.989 -42.316  1.00  0.00    -0.504 OA
ATOM     22  H   UNL     1      18.100 -23.181 -42.711  1.00  0.00     0.293 HD
ENDBRANCH  18  21
ENDBRANCH  11  13
ENDBRANCH   6   8
ENDBRANCH   3   5
BRANCH   4  23
ATOM     23  C   UNL     1       7.398 -23.806 -51.139  1.00  0.00     0.029 A 
ATOM     24  C   UNL     1       6.957 -24.722 -52.079  1.00  0.00     0.020 A 
ATOM     25  S   UNL     1       6.080 -22.835 -50.597  1.00  0.00    -0.136 S 
ATOM     26  C   UNL     1       5.571 -24.588 -52.387  1.00  0.00     0.021 A 
ATOM     27  C   UNL     1       4.971 -23.580 -51.665  1.00  0.00     0.042 A 
BRANCH  27  28
ATOM     28  C   UNL     1       3.585 -23.111 -51.707  1.00  0.00     0.069 A 
ATOM     29  C   UNL     1       3.143 -22.378 -52.821  1.00  0.00     0.017 A 
ATOM     30  C   UNL     1       2.653 -23.358 -50.692  1.00  0.00     0.278 A 
ATOM     31  C   UNL     1       1.825 -21.911 -52.903  1.00  0.00     0.001 A 
ATOM     32  C   UNL     1       1.329 -22.897 -50.757  1.00  0.00     0.086 A 
ATOM     33  C   UNL     1       0.920 -22.168 -51.872  1.00  0.00     0.007 A 
BRANCH  30  34
ATOM     34  N   UNL     1       3.030 -24.104 -49.514  1.00  0.00     0.063 N 
ATOM     35  O   UNL     1       3.240 -23.454 -48.480  1.00  0.00    -0.258 OA
ATOM     36  O   UNL     1       3.040 -25.339 -49.611  1.00  0.00    -0.258 OA
ENDBRANCH  30  34
ENDBRANCH  27  28
ENDBRANCH   4  23
TORSDOF 8
ENDMDL
MODEL 7
REMARK VINA RESULT:    -7.561      2.451     11.861
REMARK INTER + INTRA:         -11.044
REMARK INTER:                 -10.064
REMARK INTRA:                  -0.980
REMARK UNBOUND:                -0.389
REMARK SMILES N#CC(=C\c1ccc(-c2ccccc2[N+](=O)[O-])s1)/C([O-])=N/c1nc(-c2ccc(O)c(O)c2)cs1
REMARK SMILES IDX 1 1 2 2 3 3 4 4 19 5 21 6 20 7 22 8 23 9 34 10 24 11 33 12
REMARK SMILES IDX 25 13 26 14 32 15 27 16 30 17 28 18 31 19 29 21 5 23 6 24
REMARK SMILES IDX 18 25 7 26 8 27 9 28 10 29 14 30 11 31 13 32 12 33 15 34
REMARK SMILES IDX 16 35 17 36
REMARK H PARENT 31 20 29 22
ROOT
ATOM      1  N   UNL     1      10.804 -23.621 -52.065  1.00  0.00    -0.192 NA
ATOM      2  C   UNL     1      10.708 -23.580 -50.905  1.00  0.00     0.100 C 
ATOM      3  C   UNL     1      10.486 -23.522 -49.496  1.00  0.00     0.064 C 
ATOM      4  C   UNL     1       9.302 -23.743 -48.889  1.00  0.00     0.039 C 
ENDROOT
BRANCH   3   5
ATOM      5  C   UNL     1      11.587 -23.074 -48.577  1.00  0.00     0.009 C 
ATOM      6  N   UNL     1      12.738 -23.681 -48.649  1.00  0.00    -0.234 NA
ATOM      7  O   UNL     1      11.123 -22.135 -47.904  1.00  0.00    -0.858 OA
BRANCH   6   8
ATOM      8  C   UNL     1      13.721 -23.229 -47.826  1.00  0.00     0.209 A 
ATOM      9  N   UNL     1      13.858 -23.523 -46.544  1.00  0.00    -0.218 NA
ATOM     10  S   UNL     1      14.829 -22.016 -48.386  1.00  0.00    -0.103 S 
ATOM     11  C   UNL     1      14.951 -22.873 -45.998  1.00  0.00     0.084 A 
ATOM     12  C   UNL     1      15.602 -22.016 -46.857  1.00  0.00     0.097 A 
BRANCH  11  13
ATOM     13  C   UNL     1      15.343 -23.131 -44.615  1.00  0.00     0.005 A 
ATOM     14  C   UNL     1      16.665 -22.968 -44.163  1.00  0.00     0.014 A 
ATOM     15  C   UNL     1      14.359 -23.551 -43.703  1.00  0.00     0.060 A 
ATOM     16  C   UNL     1      17.000 -23.224 -42.829  1.00  0.00     0.051 A 
ATOM     17  C   UNL     1      14.700 -23.803 -42.380  1.00  0.00     0.158 A 
ATOM     18  C   UNL     1      16.013 -23.640 -41.949  1.00  0.00     0.157 A 
BRANCH  17  19
ATOM     19  O   UNL     1      13.771 -24.217 -41.465  1.00  0.00    -0.504 OA
ATOM     20  H   UNL     1      13.044 -23.568 -41.484  1.00  0.00     0.293 HD
ENDBRANCH  17  19
BRANCH  18  21
ATOM     21  O   UNL     1      16.336 -23.891 -40.647  1.00  0.00    -0.504 OA
ATOM     22  H   UNL     1      15.776 -24.659 -40.411  1.00  0.00     0.293 HD
ENDBRANCH  18  21
ENDBRANCH  11  13
ENDBRANCH   6   8
ENDBRANCH   3   5
BRANCH   4  23
ATOM     23  C   UNL     1       8.099 -24.138 -49.545  1.00  0.00     0.029 A 
ATOM     24  C   UNL     1       7.379 -25.319 -49.501  1.00  0.00     0.020 A 
ATOM     25  S   UNL     1       7.301 -22.997 -50.563  1.00  0.00    -0.136 S 
ATOM     26  C   UNL     1       6.222 -25.304 -50.334  1.00  0.00     0.021 A 
ATOM     27  C   UNL     1       6.068 -24.103 -50.991  1.00  0.00     0.042 A 
BRANCH  27  28
ATOM     28  C   UNL     1       5.036 -23.697 -51.947  1.00  0.00     0.069 A 
ATOM     29  C   UNL     1       5.248 -23.916 -53.319  1.00  0.00     0.017 A 
ATOM     30  C   UNL     1       3.825 -23.101 -51.573  1.00  0.00     0.278 A 
ATOM     31  C   UNL     1       4.286 -23.544 -54.267  1.00  0.00     0.001 A 
ATOM     32  C   UNL     1       2.853 -22.721 -52.510  1.00  0.00     0.086 A 
ATOM     33  C   UNL     1       3.092 -22.946 -53.863  1.00  0.00     0.007 A 
BRANCH  30  34
ATOM     34  N   UNL     1       3.533 -22.843 -50.182  1.00  0.00     0.063 N 
ATOM     35  O   UNL     1       2.915 -23.721 -49.564  1.00  0.00    -0.258 OA
ATOM     36  O   UNL     1       3.988 -21.797 -49.698  1.00  0.00    -0.258 OA
ENDBRANCH  30  34
ENDBRANCH  27  28
ENDBRANCH   4  23
TORSDOF 8
ENDMDL
MODEL 8
REMARK VINA RESULT:    -7.542      2.237      2.902
REMARK INTER + INTRA:         -11.018
REMARK INTER:                  -9.960
REMARK INTRA:                  -1.059
REMARK UNBOUND:                -0.389
REMARK SMILES N#CC(=C\c1ccc(-c2ccccc2[N+](=O)[O-])s1)/C([O-])=N/c1nc(-c2ccc(O)c(O)c2)cs1
REMARK SMILES IDX 1 1 2 2 3 3 4 4 19 5 21 6 20 7 22 8 23 9 34 10 24 11 33 12
REMARK SMILES IDX 25 13 26 14 32 15 27 16 30 17 28 18 31 19 29 21 5 23 6 24
REMARK SMILES IDX 18 25 7 26 8 27 9 28 10 29 14 30 11 31 13 32 12 33 15 34
REMARK SMILES IDX 16 35 17 36
REMARK H PARENT 31 20 29 22
ROOT
ATOM      1  N   UNL     1       9.528 -26.462 -45.772  1.00  0.00    -0.192 NA
ATOM      2  C   UNL     1       9.772 -25.983 -46.806  1.00  0.00     0.100 C 
ATOM      3  C   UNL     1      10.158 -25.358 -48.029  1.00  0.00     0.064 C 
ATOM      4  C   UNL     1      11.403 -24.931 -48.321  1.00  0.00     0.039 C 
ENDROOT
BRANCH   3   5
ATOM      5  C   UNL     1       9.122 -25.019 -49.063  1.00  0.00     0.009 C 
ATOM      6  N   UNL     1       8.967 -23.770 -49.399  1.00  0.00    -0.234 NA
ATOM      7  O   UNL     1       8.608 -26.099 -49.412  1.00  0.00    -0.858 OA
BRANCH   6   8
ATOM      8  C   UNL     1       8.044 -23.503 -50.359  1.00  0.00     0.209 A 
ATOM      9  N   UNL     1       6.761 -23.257 -50.158  1.00  0.00    -0.218 NA
ATOM     10  S   UNL     1       8.470 -23.657 -52.036  1.00  0.00    -0.103 S 
ATOM     11  C   UNL     1       6.099 -23.052 -51.356  1.00  0.00     0.084 A 
ATOM     12  C   UNL     1       6.874 -23.225 -52.481  1.00  0.00     0.097 A 
BRANCH  11  13
ATOM     13  C   UNL     1       4.689 -22.670 -51.360  1.00  0.00     0.005 A 
ATOM     14  C   UNL     1       4.093 -21.999 -52.443  1.00  0.00     0.014 A 
ATOM     15  C   UNL     1       3.900 -22.992 -50.242  1.00  0.00     0.060 A 
ATOM     16  C   UNL     1       2.738 -21.651 -52.409  1.00  0.00     0.051 A 
ATOM     17  C   UNL     1       2.556 -22.642 -50.216  1.00  0.00     0.158 A 
ATOM     18  C   UNL     1       1.982 -21.976 -51.294  1.00  0.00     0.157 A 
BRANCH  17  19
ATOM     19  O   UNL     1       1.758 -22.935 -49.143  1.00  0.00    -0.504 OA
ATOM     20  H   UNL     1       1.781 -22.161 -48.551  1.00  0.00     0.293 HD
ENDBRANCH  17  19
BRANCH  18  21
ATOM     21  O   UNL     1       0.659 -21.639 -51.256  1.00  0.00    -0.504 OA
ATOM     22  H   UNL     1       0.494 -21.244 -52.136  1.00  0.00     0.293 HD
ENDBRANCH  18  21
ENDBRANCH  11  13
ENDBRANCH   6   8
ENDBRANCH   3   5
BRANCH   4  23
ATOM     23  C   UNL     1      12.549 -25.094 -47.486  1.00  0.00     0.029 A 
ATOM     24  C   UNL     1      13.521 -26.079 -47.453  1.00  0.00     0.020 A 
ATOM     25  S   UNL     1      12.893 -23.884 -46.308  1.00  0.00    -0.136 S 
ATOM     26  C   UNL     1      14.499 -25.869 -46.437  1.00  0.00     0.021 A 
ATOM     27  C   UNL     1      14.267 -24.716 -45.720  1.00  0.00     0.042 A 
BRANCH  27  28
ATOM     28  C   UNL     1      15.016 -24.162 -44.591  1.00  0.00     0.069 A 
ATOM     29  C   UNL     1      14.548 -24.382 -43.284  1.00  0.00     0.017 A 
ATOM     30  C   UNL     1      16.195 -23.421 -44.732  1.00  0.00     0.278 A 
ATOM     31  C   UNL     1      15.234 -23.871 -42.175  1.00  0.00     0.001 A 
ATOM     32  C   UNL     1      16.894 -22.901 -43.632  1.00  0.00     0.086 A 
ATOM     33  C   UNL     1      16.404 -23.130 -42.349  1.00  0.00     0.007 A 
BRANCH  30  34
ATOM     34  N   UNL     1      16.741 -23.151 -46.043  1.00  0.00     0.063 N 
ATOM     35  O   UNL     1      17.708 -23.836 -46.401  1.00  0.00    -0.258 OA
ATOM     36  O   UNL     1      16.151 -22.309 -46.734  1.00  0.00    -0.258 OA
ENDBRANCH  30  34
ENDBRANCH  27  28
ENDBRANCH   4  23
TORSDOF 8
ENDMDL
MODEL 9
REMARK VINA RESULT:    -7.389      4.993     13.897
REMARK INTER + INTRA:         -10.802
REMARK INTER:                  -9.760
REMARK INTRA:                  -1.043
REMARK UNBOUND:                -0.389
REMARK SMILES N#CC(=C\c1ccc(-c2ccccc2[N+](=O)[O-])s1)/C([O-])=N/c1nc(-c2ccc(O)c(O)c2)cs1
REMARK SMILES IDX 1 1 2 2 3 3 4 4 19 5 21 6 20 7 22 8 23 9 34 10 24 11 33 12
REMARK SMILES IDX 25 13 26 14 32 15 27 16 30 17 28 18 31 19 29 21 5 23 6 24
REMARK SMILES IDX 18 25 7 26 8 27 9 28 10 29 14 30 11 31 13 32 12 33 15 34
REMARK SMILES IDX 16 35 17 36
REMARK H PARENT 31 20 29 22
ROOT
ATOM      1  N   UNL     1       2.045 -25.487 -50.331  1.00  0.00    -0.192 NA
ATOM      2  C   UNL     1       2.909 -24.710 -50.421  1.00  0.00     0.100 C 
ATOM      3  C   UNL     1       3.930 -23.735 -50.627  1.00  0.00     0.064 C 
ATOM      4  C   UNL     1       3.890 -22.756 -51.553  1.00  0.00     0.039 C 
ENDROOT
BRANCH   3   5
ATOM      5  C   UNL     1       5.222 -23.823 -49.864  1.00  0.00     0.009 C 
ATOM      6  N   UNL     1       6.285 -24.237 -50.493  1.00  0.00    -0.234 NA
ATOM      7  O   UNL     1       4.973 -23.433 -48.708  1.00  0.00    -0.858 OA
BRANCH   6   8
ATOM      8  C   UNL     1       7.442 -24.274 -49.781  1.00  0.00     0.209 A 
ATOM      9  N   UNL     1       8.500 -23.506 -49.977  1.00  0.00    -0.218 NA
ATOM     10  S   UNL     1       7.699 -25.532 -48.612  1.00  0.00    -0.103 S 
ATOM     11  C   UNL     1       9.516 -23.823 -49.093  1.00  0.00     0.084 A 
ATOM     12  C   UNL     1       9.253 -24.898 -48.271  1.00  0.00     0.097 A 
BRANCH  11  13
ATOM     13  C   UNL     1      10.744 -23.033 -49.070  1.00  0.00     0.005 A 
ATOM     14  C   UNL     1      11.575 -22.962 -47.938  1.00  0.00     0.014 A 
ATOM     15  C   UNL     1      11.110 -22.324 -50.228  1.00  0.00     0.060 A 
ATOM     16  C   UNL     1      12.745 -22.194 -47.957  1.00  0.00     0.051 A 
ATOM     17  C   UNL     1      12.273 -21.563 -50.238  1.00  0.00     0.158 A 
ATOM     18  C   UNL     1      13.082 -21.501 -49.109  1.00  0.00     0.157 A 
BRANCH  17  19
ATOM     19  O   UNL     1      12.659 -20.856 -51.345  1.00  0.00    -0.504 OA
ATOM     20  H   UNL     1      12.438 -19.922 -51.177  1.00  0.00     0.293 HD
ENDBRANCH  17  19
BRANCH  18  21
ATOM     21  O   UNL     1      14.223 -20.751 -49.132  1.00  0.00    -0.504 OA
ATOM     22  H   UNL     1      14.430 -20.611 -48.186  1.00  0.00     0.293 HD
ENDBRANCH  18  21
ENDBRANCH  11  13
ENDBRANCH   6   8
ENDBRANCH   3   5
BRANCH   4  23
ATOM     23  C   UNL     1       2.795 -22.491 -52.429  1.00  0.00     0.029 A 
ATOM     24  C   UNL     1       2.574 -22.848 -53.748  1.00  0.00     0.020 A 
ATOM     25  S   UNL     1       1.441 -21.616 -51.818  1.00  0.00    -0.136 S 
ATOM     26  C   UNL     1       1.337 -22.360 -54.262  1.00  0.00     0.021 A 
ATOM     27  C   UNL     1       0.624 -21.650 -53.321  1.00  0.00     0.042 A 
BRANCH  27  28
ATOM     28  C   UNL     1      -0.667 -20.972 -53.455  1.00  0.00     0.069 A 
ATOM     29  C   UNL     1      -0.692 -19.613 -53.809  1.00  0.00     0.017 A 
ATOM     30  C   UNL     1      -1.899 -21.606 -53.257  1.00  0.00     0.278 A 
ATOM     31  C   UNL     1      -1.905 -18.926 -53.950  1.00  0.00     0.001 A 
ATOM     32  C   UNL     1      -3.122 -20.933 -53.392  1.00  0.00     0.086 A 
ATOM     33  C   UNL     1      -3.118 -19.584 -53.740  1.00  0.00     0.007 A 
BRANCH  30  34
ATOM     34  N   UNL     1      -1.956 -23.003 -52.891  1.00  0.00     0.063 N 
ATOM     35  O   UNL     1      -2.045 -23.264 -51.683  1.00  0.00    -0.258 OA
ATOM     36  O   UNL     1      -1.988 -23.825 -53.817  1.00  0.00    -0.258 OA
ENDBRANCH  30  34
ENDBRANCH  27  28
ENDBRANCH   4  23
TORSDOF 8
ENDMDL
