MODEL 1
REMARK VINA RESULT:    -7.902      0.000      0.000
REMARK INTER + INTRA:          -9.764
REMARK INTER:                  -9.519
REMARK INTRA:                  -0.245
REMARK UNBOUND:                -0.245
REMARK SMILES CCCc1cc(NN)n2c(nc3ccccc32)c1C#N
REMARK SMILES IDX 4 1 5 2 6 3 9 4 10 5 11 6 12 7 13 8 14 9 15 10 16 11 17 12
REMARK SMILES IDX 18 13 19 14 20 15 3 16 2 17 1 18 7 19 8 21
REMARK H PARENT 7 20 8 22 8 23
ROOT
ATOM      1  C   UNL     1      15.518 -22.806 -45.269  1.00  0.00    -0.023 C 
ATOM      2  C   UNL     1      14.131 -23.232 -45.084  1.00  0.00     0.051 C 
ATOM      3  C   UNL     1      13.672 -23.671 -43.890  1.00  0.00     0.126 C 
ATOM      4  N   UNL     1      14.612 -23.720 -42.824  1.00  0.00    -0.276 N 
ATOM      5  C   UNL     1      15.928 -23.261 -42.944  1.00  0.00     0.157 A 
ATOM      6  N   UNL     1      16.571 -23.318 -41.795  1.00  0.00    -0.227 NA
ATOM      7  C   UNL     1      15.703 -23.896 -40.914  1.00  0.00     0.090 A 
ATOM      8  C   UNL     1      15.913 -24.213 -39.563  1.00  0.00     0.030 A 
ATOM      9  C   UNL     1      14.896 -24.852 -38.849  1.00  0.00     0.002 A 
ATOM     10  C   UNL     1      13.696 -25.183 -39.473  1.00  0.00     0.002 A 
ATOM     11  C   UNL     1      13.467 -24.869 -40.819  1.00  0.00     0.029 A 
ATOM     12  C   UNL     1      14.485 -24.198 -41.520  1.00  0.00     0.075 A 
ATOM     13  C   UNL     1      16.379 -22.805 -44.222  1.00  0.00     0.099 C 
ATOM     14  C   UNL     1      17.736 -22.386 -44.366  1.00  0.00     0.103 C 
ATOM     15  N   UNL     1      18.831 -22.037 -44.542  1.00  0.00    -0.192 NA
ENDROOT
BRANCH   1  16
ATOM     16  C   UNL     1      15.868 -22.344 -46.672  1.00  0.00     0.037 C 
BRANCH  16  17
ATOM     17  C   UNL     1      14.765 -22.685 -47.679  1.00  0.00     0.001 C 
ATOM     18  C   UNL     1      14.572 -21.566 -48.690  1.00  0.00     0.004 C 
ENDBRANCH  16  17
ENDBRANCH   1  16
BRANCH   3  19
ATOM     19  N   UNL     1      12.348 -24.042 -43.637  1.00  0.00    -0.310 N 
ATOM     20  H   UNL     1      12.105 -23.820 -42.664  1.00  0.00     0.183 HD
BRANCH  19  21
ATOM     21  N   UNL     1      11.338 -23.733 -44.571  1.00  0.00    -0.249 NA
ATOM     22  H   UNL     1      11.160 -24.538 -45.180  1.00  0.00     0.143 HD
ATOM     23  H   UNL     1      11.670 -23.004 -45.209  1.00  0.00     0.143 HD
ENDBRANCH  19  21
ENDBRANCH   3  19
TORSDOF 4
ENDMDL
MODEL 2
REMARK VINA RESULT:    -7.793      1.458      5.752
REMARK INTER + INTRA:          -9.633
REMARK INTER:                  -9.352
REMARK INTRA:                  -0.281
REMARK UNBOUND:                -0.245
REMARK SMILES CCCc1cc(NN)n2c(nc3ccccc32)c1C#N
REMARK SMILES IDX 4 1 5 2 6 3 9 4 10 5 11 6 12 7 13 8 14 9 15 10 16 11 17 12
REMARK SMILES IDX 18 13 19 14 20 15 3 16 2 17 1 18 7 19 8 21
REMARK H PARENT 7 20 8 22 8 23
ROOT
ATOM      1  C   UNL     1      14.253 -23.962 -42.447  1.00  0.00    -0.023 C 
ATOM      2  C   UNL     1      12.937 -24.308 -42.982  1.00  0.00     0.051 C 
ATOM      3  C   UNL     1      12.591 -24.034 -44.261  1.00  0.00     0.126 C 
ATOM      4  N   UNL     1      13.565 -23.370 -45.057  1.00  0.00    -0.276 N 
ATOM      5  C   UNL     1      14.856 -23.082 -44.602  1.00  0.00     0.157 A 
ATOM      6  N   UNL     1      15.602 -22.557 -45.553  1.00  0.00    -0.227 NA
ATOM      7  C   UNL     1      14.780 -22.419 -46.634  1.00  0.00     0.090 A 
ATOM      8  C   UNL     1      15.079 -21.878 -47.894  1.00  0.00     0.030 A 
ATOM      9  C   UNL     1      14.065 -21.786 -48.852  1.00  0.00     0.002 A 
ATOM     10  C   UNL     1      12.773 -22.213 -48.555  1.00  0.00     0.002 A 
ATOM     11  C   UNL     1      12.458 -22.760 -47.305  1.00  0.00     0.029 A 
ATOM     12  C   UNL     1      13.493 -22.876 -46.359  1.00  0.00     0.075 A 
ATOM     13  C   UNL     1      15.185 -23.384 -43.244  1.00  0.00     0.099 C 
ATOM     14  C   UNL     1      16.483 -23.044 -42.755  1.00  0.00     0.103 C 
ATOM     15  N   UNL     1      17.523 -22.785 -42.304  1.00  0.00    -0.192 NA
ENDROOT
BRANCH   1  16
ATOM     16  C   UNL     1      14.476 -24.338 -40.993  1.00  0.00     0.037 C 
BRANCH  16  17
ATOM     17  C   UNL     1      13.185 -24.251 -40.175  1.00  0.00     0.001 C 
ATOM     18  C   UNL     1      13.476 -24.199 -38.683  1.00  0.00     0.004 C 
ENDBRANCH  16  17
ENDBRANCH   1  16
BRANCH   3  19
ATOM     19  N   UNL     1      11.371 -24.385 -44.844  1.00  0.00    -0.310 N 
ATOM     20  H   UNL     1      11.034 -23.615 -45.436  1.00  0.00     0.183 HD
BRANCH  19  21
ATOM     21  N   UNL     1      11.200 -25.666 -45.408  1.00  0.00    -0.249 NA
ATOM     22  H   UNL     1      10.322 -26.083 -45.082  1.00  0.00     0.143 HD
ATOM     23  H   UNL     1      11.924 -26.297 -45.053  1.00  0.00     0.143 HD
ENDBRANCH  19  21
ENDBRANCH   3  19
TORSDOF 4
ENDMDL
MODEL 3
REMARK VINA RESULT:    -7.252      1.668      4.261
REMARK INTER + INTRA:          -8.981
REMARK INTER:                  -8.855
REMARK INTRA:                  -0.126
REMARK UNBOUND:                -0.245
REMARK SMILES CCCc1cc(NN)n2c(nc3ccccc32)c1C#N
REMARK SMILES IDX 4 1 5 2 6 3 9 4 10 5 11 6 12 7 13 8 14 9 15 10 16 11 17 12
REMARK SMILES IDX 18 13 19 14 20 15 3 16 2 17 1 18 7 19 8 21
REMARK H PARENT 7 20 8 22 8 23
ROOT
ATOM      1  C   UNL     1      14.286 -22.226 -47.628  1.00  0.00    -0.023 C 
ATOM      2  C   UNL     1      15.598 -22.228 -46.983  1.00  0.00     0.051 C 
ATOM      3  C   UNL     1      15.771 -22.671 -45.718  1.00  0.00     0.126 C 
ATOM      4  N   UNL     1      14.607 -23.115 -45.032  1.00  0.00    -0.276 N 
ATOM      5  C   UNL     1      13.347 -23.189 -45.636  1.00  0.00     0.157 A 
ATOM      6  N   UNL     1      12.451 -23.724 -44.831  1.00  0.00    -0.227 NA
ATOM      7  C   UNL     1      13.099 -23.938 -43.648  1.00  0.00     0.090 A 
ATOM      8  C   UNL     1      12.582 -24.462 -42.453  1.00  0.00     0.030 A 
ATOM      9  C   UNL     1      13.415 -24.552 -41.335  1.00  0.00     0.002 A 
ATOM     10  C   UNL     1      14.736 -24.117 -41.401  1.00  0.00     0.002 A 
ATOM     11  C   UNL     1      15.270 -23.597 -42.587  1.00  0.00     0.029 A 
ATOM     12  C   UNL     1      14.432 -23.539 -43.715  1.00  0.00     0.075 A 
ATOM     13  C   UNL     1      13.202 -22.710 -46.975  1.00  0.00     0.099 C 
ATOM     14  C   UNL     1      11.908 -22.731 -47.580  1.00  0.00     0.103 C 
ATOM     15  N   UNL     1      10.879 -22.721 -48.120  1.00  0.00    -0.192 NA
ENDROOT
BRANCH   1  16
ATOM     16  C   UNL     1      14.268 -21.694 -49.050  1.00  0.00     0.037 C 
BRANCH  16  17
ATOM     17  C   UNL     1      13.621 -20.308 -49.135  1.00  0.00     0.001 C 
ATOM     18  C   UNL     1      13.409 -19.882 -50.580  1.00  0.00     0.004 C 
ENDBRANCH  16  17
ENDBRANCH   1  16
BRANCH   3  19
ATOM     19  N   UNL     1      17.006 -22.748 -45.066  1.00  0.00    -0.310 N 
ATOM     20  H   UNL     1      17.651 -23.332 -45.613  1.00  0.00     0.183 HD
BRANCH  19  21
ATOM     21  N   UNL     1      17.593 -21.585 -44.527  1.00  0.00    -0.249 NA
ATOM     22  H   UNL     1      17.752 -21.702 -43.521  1.00  0.00     0.143 HD
ATOM     23  H   UNL     1      16.932 -20.806 -44.587  1.00  0.00     0.143 HD
ENDBRANCH  19  21
ENDBRANCH   3  19
TORSDOF 4
ENDMDL
MODEL 4
REMARK VINA RESULT:    -6.991      1.393      3.436
REMARK INTER + INTRA:          -8.667
REMARK INTER:                  -8.427
REMARK INTRA:                  -0.239
REMARK UNBOUND:                -0.245
REMARK SMILES CCCc1cc(NN)n2c(nc3ccccc32)c1C#N
REMARK SMILES IDX 4 1 5 2 6 3 9 4 10 5 11 6 12 7 13 8 14 9 15 10 16 11 17 12
REMARK SMILES IDX 18 13 19 14 20 15 3 16 2 17 1 18 7 19 8 21
REMARK H PARENT 7 20 8 22 8 23
ROOT
ATOM      1  C   UNL     1      15.251 -23.991 -45.275  1.00  0.00    -0.023 C 
ATOM      2  C   UNL     1      16.493 -24.468 -44.669  1.00  0.00     0.051 C 
ATOM      3  C   UNL     1      16.588 -24.727 -43.346  1.00  0.00     0.126 C 
ATOM      4  N   UNL     1      15.424 -24.492 -42.564  1.00  0.00    -0.276 N 
ATOM      5  C   UNL     1      14.200 -24.100 -43.115  1.00  0.00     0.157 A 
ATOM      6  N   UNL     1      13.249 -24.044 -42.205  1.00  0.00    -0.227 NA
ATOM      7  C   UNL     1      13.860 -24.325 -41.016  1.00  0.00     0.090 A 
ATOM      8  C   UNL     1      13.295 -24.362 -39.732  1.00  0.00     0.030 A 
ATOM      9  C   UNL     1      14.119 -24.627 -38.635  1.00  0.00     0.002 A 
ATOM     10  C   UNL     1      15.484 -24.837 -38.811  1.00  0.00     0.002 A 
ATOM     11  C   UNL     1      16.064 -24.810 -40.085  1.00  0.00     0.029 A 
ATOM     12  C   UNL     1      15.221 -24.572 -41.186  1.00  0.00     0.075 A 
ATOM     13  C   UNL     1      14.137 -23.832 -44.518  1.00  0.00     0.099 C 
ATOM     14  C   UNL     1      12.905 -23.378 -45.082  1.00  0.00     0.103 C 
ATOM     15  N   UNL     1      11.931 -23.003 -45.592  1.00  0.00    -0.192 NA
ENDROOT
BRANCH   1  16
ATOM     16  C   UNL     1      15.317 -23.748 -46.772  1.00  0.00     0.037 C 
BRANCH  16  17
ATOM     17  C   UNL     1      15.580 -22.275 -47.102  1.00  0.00     0.001 C 
ATOM     18  C   UNL     1      14.896 -21.865 -48.397  1.00  0.00     0.004 C 
ENDBRANCH  16  17
ENDBRANCH   1  16
BRANCH   3  19
ATOM     19  N   UNL     1      17.730 -25.233 -42.717  1.00  0.00    -0.310 N 
ATOM     20  H   UNL     1      17.703 -26.261 -42.723  1.00  0.00     0.183 HD
BRANCH  19  21
ATOM     21  N   UNL     1      18.997 -24.686 -43.005  1.00  0.00    -0.249 NA
ATOM     22  H   UNL     1      19.733 -25.370 -42.804  1.00  0.00     0.143 HD
ATOM     23  H   UNL     1      19.191 -23.912 -42.363  1.00  0.00     0.143 HD
ENDBRANCH  19  21
ENDBRANCH   3  19
TORSDOF 4
ENDMDL
MODEL 5
REMARK VINA RESULT:    -6.606      3.660      7.158
REMARK INTER + INTRA:          -8.203
REMARK INTER:                  -7.793
REMARK INTRA:                  -0.410
REMARK UNBOUND:                -0.245
REMARK SMILES CCCc1cc(NN)n2c(nc3ccccc32)c1C#N
REMARK SMILES IDX 4 1 5 2 6 3 9 4 10 5 11 6 12 7 13 8 14 9 15 10 16 11 17 12
REMARK SMILES IDX 18 13 19 14 20 15 3 16 2 17 1 18 7 19 8 21
REMARK H PARENT 7 20 8 22 8 23
ROOT
ATOM      1  C   UNL     1      14.899 -22.473 -46.453  1.00  0.00    -0.023 C 
ATOM      2  C   UNL     1      15.050 -21.840 -47.763  1.00  0.00     0.051 C 
ATOM      3  C   UNL     1      14.054 -21.846 -48.677  1.00  0.00     0.126 C 
ATOM      4  N   UNL     1      12.856 -22.518 -48.312  1.00  0.00    -0.276 N 
ATOM      5  C   UNL     1      12.650 -23.078 -47.047  1.00  0.00     0.157 A 
ATOM      6  N   UNL     1      11.428 -23.555 -46.917  1.00  0.00    -0.227 NA
ATOM      7  C   UNL     1      10.835 -23.385 -48.135  1.00  0.00     0.090 A 
ATOM      8  C   UNL     1       9.541 -23.755 -48.535  1.00  0.00     0.030 A 
ATOM      9  C   UNL     1       9.147 -23.528 -49.857  1.00  0.00     0.002 A 
ATOM     10  C   UNL     1      10.031 -22.955 -50.768  1.00  0.00     0.002 A 
ATOM     11  C   UNL     1      11.322 -22.573 -50.385  1.00  0.00     0.029 A 
ATOM     12  C   UNL     1      11.698 -22.778 -49.045  1.00  0.00     0.075 A 
ATOM     13  C   UNL     1      13.726 -23.056 -46.106  1.00  0.00     0.099 C 
ATOM     14  C   UNL     1      13.542 -23.674 -44.831  1.00  0.00     0.103 C 
ATOM     15  N   UNL     1      13.450 -24.164 -43.782  1.00  0.00    -0.192 NA
ENDROOT
BRANCH   1  16
ATOM     16  C   UNL     1      16.114 -22.377 -45.548  1.00  0.00     0.037 C 
BRANCH  16  17
ATOM     17  C   UNL     1      17.230 -23.332 -45.984  1.00  0.00     0.001 C 
ATOM     18  C   UNL     1      17.089 -24.692 -45.318  1.00  0.00     0.004 C 
ENDBRANCH  16  17
ENDBRANCH   1  16
BRANCH   3  19
ATOM     19  N   UNL     1      14.119 -21.215 -49.923  1.00  0.00    -0.310 N 
ATOM     20  H   UNL     1      13.654 -21.796 -50.631  1.00  0.00     0.183 HD
BRANCH  19  21
ATOM     21  N   UNL     1      13.842 -19.837 -50.032  1.00  0.00    -0.249 NA
ATOM     22  H   UNL     1      14.696 -19.290 -49.890  1.00  0.00     0.143 HD
ATOM     23  H   UNL     1      13.228 -19.548 -49.264  1.00  0.00     0.143 HD
ENDBRANCH  19  21
ENDBRANCH   3  19
TORSDOF 4
ENDMDL
MODEL 6
REMARK VINA RESULT:    -6.446      4.737      8.019
REMARK INTER + INTRA:          -8.009
REMARK INTER:                  -7.753
REMARK INTRA:                  -0.256
REMARK UNBOUND:                -0.245
REMARK SMILES CCCc1cc(NN)n2c(nc3ccccc32)c1C#N
REMARK SMILES IDX 4 1 5 2 6 3 9 4 10 5 11 6 12 7 13 8 14 9 15 10 16 11 17 12
REMARK SMILES IDX 18 13 19 14 20 15 3 16 2 17 1 18 7 19 8 21
REMARK H PARENT 7 20 8 22 8 23
ROOT
ATOM      1  C   UNL     1      13.300 -22.245 -48.362  1.00  0.00    -0.023 C 
ATOM      2  C   UNL     1      12.793 -23.211 -47.388  1.00  0.00     0.051 C 
ATOM      3  C   UNL     1      11.565 -23.764 -47.503  1.00  0.00     0.126 C 
ATOM      4  N   UNL     1      10.776 -23.343 -48.610  1.00  0.00    -0.276 N 
ATOM      5  C   UNL     1      11.249 -22.473 -49.597  1.00  0.00     0.157 A 
ATOM      6  N   UNL     1      10.372 -22.313 -50.568  1.00  0.00    -0.227 NA
ATOM      7  C   UNL     1       9.269 -23.022 -50.188  1.00  0.00     0.090 A 
ATOM      8  C   UNL     1       8.042 -23.152 -50.858  1.00  0.00     0.030 A 
ATOM      9  C   UNL     1       7.018 -23.893 -50.262  1.00  0.00     0.002 A 
ATOM     10  C   UNL     1       7.208 -24.485 -49.016  1.00  0.00     0.002 A 
ATOM     11  C   UNL     1       8.427 -24.371 -48.336  1.00  0.00     0.029 A 
ATOM     12  C   UNL     1       9.461 -23.648 -48.958  1.00  0.00     0.075 A 
ATOM     13  C   UNL     1      12.552 -21.906 -49.441  1.00  0.00     0.099 C 
ATOM     14  C   UNL     1      13.022 -20.973 -50.416  1.00  0.00     0.103 C 
ATOM     15  N   UNL     1      13.452 -20.207 -51.176  1.00  0.00    -0.192 NA
ENDROOT
BRANCH   1  16
ATOM     16  C   UNL     1      14.697 -21.720 -48.083  1.00  0.00     0.037 C 
BRANCH  16  17
ATOM     17  C   UNL     1      15.528 -22.714 -47.265  1.00  0.00     0.001 C 
ATOM     18  C   UNL     1      15.974 -22.109 -45.943  1.00  0.00     0.004 C 
ENDBRANCH  16  17
ENDBRANCH   1  16
BRANCH   3  19
ATOM     19  N   UNL     1      11.046 -24.730 -46.636  1.00  0.00    -0.310 N 
ATOM     20  H   UNL     1      11.313 -25.668 -46.961  1.00  0.00     0.183 HD
BRANCH  19  21
ATOM     21  N   UNL     1      11.142 -24.552 -45.241  1.00  0.00    -0.249 NA
ATOM     22  H   UNL     1      12.041 -24.905 -44.899  1.00  0.00     0.143 HD
ATOM     23  H   UNL     1      10.447 -25.139 -44.771  1.00  0.00     0.143 HD
ENDBRANCH  19  21
ENDBRANCH   3  19
TORSDOF 4
ENDMDL
MODEL 7
REMARK VINA RESULT:    -6.020      2.217      6.442
REMARK INTER + INTRA:          -7.496
REMARK INTER:                  -7.243
REMARK INTRA:                  -0.253
REMARK UNBOUND:                -0.245
REMARK SMILES CCCc1cc(NN)n2c(nc3ccccc32)c1C#N
REMARK SMILES IDX 4 1 5 2 6 3 9 4 10 5 11 6 12 7 13 8 14 9 15 10 16 11 17 12
REMARK SMILES IDX 18 13 19 14 20 15 3 16 2 17 1 18 7 19 8 21
REMARK H PARENT 7 20 8 22 8 23
ROOT
ATOM      1  C   UNL     1      13.983 -24.103 -44.469  1.00  0.00    -0.023 C 
ATOM      2  C   UNL     1      12.848 -24.754 -45.121  1.00  0.00     0.051 C 
ATOM      3  C   UNL     1      12.411 -24.372 -46.342  1.00  0.00     0.126 C 
ATOM      4  N   UNL     1      13.096 -23.286 -46.954  1.00  0.00    -0.276 N 
ATOM      5  C   UNL     1      14.225 -22.682 -46.392  1.00  0.00     0.157 A 
ATOM      6  N   UNL     1      14.740 -21.770 -47.192  1.00  0.00    -0.227 NA
ATOM      7  C   UNL     1      13.901 -21.707 -48.268  1.00  0.00     0.090 A 
ATOM      8  C   UNL     1      13.984 -20.869 -49.391  1.00  0.00     0.030 A 
ATOM      9  C   UNL     1      12.982 -20.935 -50.363  1.00  0.00     0.002 A 
ATOM     10  C   UNL     1      11.909 -21.811 -50.213  1.00  0.00     0.002 A 
ATOM     11  C   UNL     1      11.814 -22.658 -49.102  1.00  0.00     0.029 A 
ATOM     12  C   UNL     1      12.843 -22.605 -48.145  1.00  0.00     0.075 A 
ATOM     13  C   UNL     1      14.658 -23.111 -45.099  1.00  0.00     0.099 C 
ATOM     14  C   UNL     1      15.777 -22.462 -44.494  1.00  0.00     0.103 C 
ATOM     15  N   UNL     1      16.679 -21.967 -43.953  1.00  0.00    -0.192 NA
ENDROOT
BRANCH   1  16
ATOM     16  C   UNL     1      14.342 -24.654 -43.100  1.00  0.00     0.037 C 
BRANCH  16  17
ATOM     17  C   UNL     1      13.107 -24.820 -42.208  1.00  0.00     0.001 C 
ATOM     18  C   UNL     1      13.397 -24.398 -40.776  1.00  0.00     0.004 C 
ENDBRANCH  16  17
ENDBRANCH   1  16
BRANCH   3  19
ATOM     19  N   UNL     1      11.367 -24.987 -47.039  1.00  0.00    -0.310 N 
ATOM     20  H   UNL     1      11.519 -26.003 -47.065  1.00  0.00     0.183 HD
BRANCH  19  21
ATOM     21  N   UNL     1      10.032 -24.607 -46.792  1.00  0.00    -0.249 NA
ATOM     22  H   UNL     1       9.989 -23.624 -46.508  1.00  0.00     0.143 HD
ATOM     23  H   UNL     1       9.673 -25.119 -45.981  1.00  0.00     0.143 HD
ENDBRANCH  19  21
ENDBRANCH   3  19
TORSDOF 4
ENDMDL
MODEL 8
REMARK VINA RESULT:    -5.807      3.136      4.991
REMARK INTER + INTRA:          -7.240
REMARK INTER:                  -6.963
REMARK INTRA:                  -0.277
REMARK UNBOUND:                -0.245
REMARK SMILES CCCc1cc(NN)n2c(nc3ccccc32)c1C#N
REMARK SMILES IDX 4 1 5 2 6 3 9 4 10 5 11 6 12 7 13 8 14 9 15 10 16 11 17 12
REMARK SMILES IDX 18 13 19 14 20 15 3 16 2 17 1 18 7 19 8 21
REMARK H PARENT 7 20 8 22 8 23
ROOT
ATOM      1  C   UNL     1      11.884 -22.756 -48.296  1.00  0.00    -0.023 C 
ATOM      2  C   UNL     1      11.473 -23.524 -47.121  1.00  0.00     0.051 C 
ATOM      3  C   UNL     1      12.294 -23.704 -46.062  1.00  0.00     0.126 C 
ATOM      4  N   UNL     1      13.590 -23.128 -46.154  1.00  0.00    -0.276 N 
ATOM      5  C   UNL     1      13.998 -22.333 -47.231  1.00  0.00     0.157 A 
ATOM      6  N   UNL     1      15.202 -21.833 -47.040  1.00  0.00    -0.227 NA
ATOM      7  C   UNL     1      15.639 -22.363 -45.859  1.00  0.00     0.090 A 
ATOM      8  C   UNL     1      16.875 -22.172 -45.222  1.00  0.00     0.030 A 
ATOM      9  C   UNL     1      17.136 -22.855 -44.031  1.00  0.00     0.002 A 
ATOM     10  C   UNL     1      16.190 -23.722 -43.491  1.00  0.00     0.002 A 
ATOM     11  C   UNL     1      14.949 -23.919 -44.110  1.00  0.00     0.029 A 
ATOM     12  C   UNL     1      14.684 -23.204 -45.292  1.00  0.00     0.075 A 
ATOM     13  C   UNL     1      13.104 -22.166 -48.334  1.00  0.00     0.099 C 
ATOM     14  C   UNL     1      13.533 -21.401 -49.462  1.00  0.00     0.103 C 
ATOM     15  N   UNL     1      13.831 -20.792 -50.406  1.00  0.00    -0.192 NA
ENDROOT
BRANCH   1  16
ATOM     16  C   UNL     1      10.843 -22.653 -49.396  1.00  0.00     0.037 C 
BRANCH  16  17
ATOM     17  C   UNL     1      10.085 -23.970 -49.591  1.00  0.00     0.001 C 
ATOM     18  C   UNL     1       8.580 -23.756 -49.544  1.00  0.00     0.004 C 
ENDBRANCH  16  17
ENDBRANCH   1  16
BRANCH   3  19
ATOM     19  N   UNL     1      11.940 -24.382 -44.892  1.00  0.00    -0.310 N 
ATOM     20  H   UNL     1      12.674 -25.058 -44.647  1.00  0.00     0.183 HD
BRANCH  19  21
ATOM     21  N   UNL     1      11.420 -23.669 -43.792  1.00  0.00    -0.249 NA
ATOM     22  H   UNL     1      11.205 -22.705 -44.064  1.00  0.00     0.143 HD
ATOM     23  H   UNL     1      12.143 -23.571 -43.073  1.00  0.00     0.143 HD
ENDBRANCH  19  21
ENDBRANCH   3  19
TORSDOF 4
ENDMDL
MODEL 9
REMARK VINA RESULT:    -5.794     24.279     25.383
REMARK INTER + INTRA:          -7.225
REMARK INTER:                  -6.901
REMARK INTRA:                  -0.324
REMARK UNBOUND:                -0.245
REMARK SMILES CCCc1cc(NN)n2c(nc3ccccc32)c1C#N
REMARK SMILES IDX 4 1 5 2 6 3 9 4 10 5 11 6 12 7 13 8 14 9 15 10 16 11 17 12
REMARK SMILES IDX 18 13 19 14 20 15 3 16 2 17 1 18 7 19 8 21
REMARK H PARENT 7 20 8 22 8 23
ROOT
ATOM      1  C   UNL     1       1.851  -7.436 -32.392  1.00  0.00    -0.023 C 
ATOM      2  C   UNL     1       3.013  -6.893 -33.094  1.00  0.00     0.051 C 
ATOM      3  C   UNL     1       3.581  -5.720 -32.736  1.00  0.00     0.126 C 
ATOM      4  N   UNL     1       2.978  -5.024 -31.652  1.00  0.00    -0.276 N 
ATOM      5  C   UNL     1       1.907  -5.540 -30.914  1.00  0.00     0.157 A 
ATOM      6  N   UNL     1       1.591  -4.758 -29.902  1.00  0.00    -0.227 NA
ATOM      7  C   UNL     1       2.405  -3.668 -30.009  1.00  0.00     0.090 A 
ATOM      8  C   UNL     1       2.446  -2.526 -29.193  1.00  0.00     0.030 A 
ATOM      9  C   UNL     1       3.333  -1.495 -29.513  1.00  0.00     0.002 A 
ATOM     10  C   UNL     1       4.156  -1.592 -30.632  1.00  0.00     0.002 A 
ATOM     11  C   UNL     1       4.133  -2.726 -31.453  1.00  0.00     0.029 A 
ATOM     12  C   UNL     1       3.258  -3.772 -31.105  1.00  0.00     0.075 A 
ATOM     13  C   UNL     1       1.332  -6.783 -31.324  1.00  0.00     0.099 C 
ATOM     14  C   UNL     1       0.203  -7.291 -30.610  1.00  0.00     0.103 C 
ATOM     15  N   UNL     1      -0.717  -7.748 -30.068  1.00  0.00    -0.192 NA
ENDROOT
BRANCH   1  16
ATOM     16  C   UNL     1       1.338  -8.762 -32.924  1.00  0.00     0.037 C 
BRANCH  16  17
ATOM     17  C   UNL     1       0.384  -8.573 -34.107  1.00  0.00     0.001 C 
ATOM     18  C   UNL     1      -0.850  -9.451 -33.970  1.00  0.00     0.004 C 
ENDBRANCH  16  17
ENDBRANCH   1  16
BRANCH   3  19
ATOM     19  N   UNL     1       4.722  -5.176 -33.333  1.00  0.00    -0.310 N 
ATOM     20  H   UNL     1       4.574  -4.176 -33.518  1.00  0.00     0.183 HD
BRANCH  19  21
ATOM     21  N   UNL     1       6.001  -5.488 -32.828  1.00  0.00    -0.249 NA
ATOM     22  H   UNL     1       6.497  -4.632 -32.563  1.00  0.00     0.143 HD
ATOM     23  H   UNL     1       6.576  -5.891 -33.574  1.00  0.00     0.143 HD
ENDBRANCH  19  21
ENDBRANCH   3  19
TORSDOF 4
ENDMDL
