MODEL 1
REMARK VINA RESULT:    -9.440      0.000      0.000
REMARK INTER + INTRA:         -14.233
REMARK INTER:                 -13.854
REMARK INTRA:                  -0.379
REMARK UNBOUND:                -0.379
REMARK SMILES CS(=O)(=O)Cc1ccc(C(=O)OCC(=O)NC(=O)NC[C@@H]2COc3ccccc3O2)cc1
REMARK SMILES IDX 10 1 11 2 9 3 6 4 7 5 32 6 8 7 31 8 5 9 2 10 3 11 4 12 1 13
REMARK SMILES IDX 12 14 13 15 14 16 15 17 16 18 17 19 18 20 19 21 20 24 21 25
REMARK SMILES IDX 22 26 30 27 23 28 29 29 24 30 28 31 25 32 27 33 26 34
REMARK H PARENT 16 22 19 23
ROOT
ATOM      1  C   UNL     1      13.702 -19.957 -52.656  1.00  0.00     0.338 C 
ATOM      2  O   UNL     1      13.390 -21.007 -53.191  1.00  0.00    -0.246 OA
ENDROOT
BRANCH   1   3
ATOM      3  C   UNL     1      14.867 -19.134 -53.077  1.00  0.00     0.060 A 
ATOM      4  C   UNL     1      17.017 -17.481 -53.844  1.00  0.00    -0.033 A 
ATOM      5  C   UNL     1      17.115 -18.876 -53.946  1.00  0.00     0.005 A 
ATOM      6  C   UNL     1      15.824 -16.921 -53.365  1.00  0.00     0.005 A 
ATOM      7  C   UNL     1      16.052 -19.698 -53.560  1.00  0.00     0.016 A 
ATOM      8  C   UNL     1      14.759 -17.741 -52.981  1.00  0.00     0.016 A 
BRANCH   4   9
ATOM      9  C   UNL     1      18.163 -16.593 -54.255  1.00  0.00     0.172 C 
BRANCH   9  10
ATOM     10  S   UNL     1      18.619 -15.460 -52.945  1.00  0.00     0.151 S 
ATOM     11  O   UNL     1      18.084 -16.004 -51.709  1.00  0.00    -0.229 OA
ATOM     12  O   UNL     1      18.277 -14.108 -53.347  1.00  0.00    -0.229 OA
ATOM     13  C   UNL     1      20.392 -15.567 -52.833  1.00  0.00     0.158 C 
ENDBRANCH   9  10
ENDBRANCH   4   9
ENDBRANCH   1   3
BRANCH   1  14
ATOM     14  O   UNL     1      13.081 -19.404 -51.584  1.00  0.00    -0.452 OA
BRANCH  14  15
ATOM     15  C   UNL     1      13.423 -19.988 -50.321  1.00  0.00     0.333 C 
BRANCH  15  16
ATOM     16  C   UNL     1      12.582 -21.204 -49.927  1.00  0.00     0.266 C 
ATOM     17  O   UNL     1      11.469 -21.395 -50.407  1.00  0.00    -0.271 OA
ATOM     18  N   UNL     1      13.214 -22.063 -49.055  1.00  0.00    -0.275 N 
ATOM     19  C   UNL     1      12.585 -22.463 -47.905  1.00  0.00     0.321 C 
ATOM     20  O   UNL     1      11.486 -22.092 -47.515  1.00  0.00    -0.248 OA
ATOM     21  N   UNL     1      13.390 -23.317 -47.176  1.00  0.00    -0.334 N 
ATOM     22  H   UNL     1      14.186 -21.856 -48.880  1.00  0.00     0.174 HD
ATOM     23  H   UNL     1      13.959 -23.934 -47.742  1.00  0.00     0.165 HD
BRANCH  21  24
ATOM     24  C   UNL     1      12.870 -23.922 -45.955  1.00  0.00     0.166 C 
BRANCH  24  25
ATOM     25  C   UNL     1      13.691 -23.537 -44.718  1.00  0.00     0.230 C 
ATOM     26  C   UNL     1      15.149 -23.953 -44.895  1.00  0.00     0.276 C 
ATOM     27  O   UNL     1      13.115 -24.228 -43.590  1.00  0.00    -0.481 OA
ATOM     28  O   UNL     1      15.934 -23.561 -43.763  1.00  0.00    -0.486 OA
ATOM     29  C   UNL     1      13.947 -24.190 -42.500  1.00  0.00     0.161 A 
ATOM     30  C   UNL     1      15.303 -23.857 -42.583  1.00  0.00     0.161 A 
ATOM     31  C   UNL     1      13.382 -24.515 -41.269  1.00  0.00     0.050 A 
ATOM     32  C   UNL     1      16.080 -23.809 -41.428  1.00  0.00     0.050 A 
ATOM     33  C   UNL     1      14.165 -24.477 -40.113  1.00  0.00     0.004 A 
ATOM     34  C   UNL     1      15.512 -24.120 -40.192  1.00  0.00     0.004 A 
ENDBRANCH  24  25
ENDBRANCH  21  24
ENDBRANCH  15  16
ENDBRANCH  14  15
ENDBRANCH   1  14
TORSDOF 8
ENDMDL
MODEL 2
REMARK VINA RESULT:    -9.437      3.149     10.805
REMARK INTER + INTRA:         -14.230
REMARK INTER:                 -13.650
REMARK INTRA:                  -0.580
REMARK UNBOUND:                -0.379
REMARK SMILES CS(=O)(=O)Cc1ccc(C(=O)OCC(=O)NC(=O)NC[C@@H]2COc3ccccc3O2)cc1
REMARK SMILES IDX 10 1 11 2 9 3 6 4 7 5 32 6 8 7 31 8 5 9 2 10 3 11 4 12 1 13
REMARK SMILES IDX 12 14 13 15 14 16 15 17 16 18 17 19 18 20 19 21 20 24 21 25
REMARK SMILES IDX 22 26 30 27 23 28 29 29 24 30 28 31 25 32 27 33 26 34
REMARK H PARENT 16 22 19 23
ROOT
ATOM      1  C   UNL     1      12.830 -22.246 -47.301  1.00  0.00     0.338 C 
ATOM      2  O   UNL     1      11.699 -22.639 -47.532  1.00  0.00    -0.246 OA
ENDROOT
BRANCH   1   3
ATOM      3  C   UNL     1      13.773 -22.946 -46.389  1.00  0.00     0.060 A 
ATOM      4  C   UNL     1      15.509 -24.225 -44.573  1.00  0.00    -0.033 A 
ATOM      5  C   UNL     1      15.631 -24.442 -45.954  1.00  0.00     0.005 A 
ATOM      6  C   UNL     1      14.515 -23.350 -44.113  1.00  0.00     0.005 A 
ATOM      7  C   UNL     1      14.767 -23.813 -46.856  1.00  0.00     0.016 A 
ATOM      8  C   UNL     1      13.652 -22.719 -45.013  1.00  0.00     0.016 A 
BRANCH   4   9
ATOM      9  C   UNL     1      16.435 -24.905 -43.599  1.00  0.00     0.172 C 
BRANCH   9  10
ATOM     10  S   UNL     1      17.720 -23.794 -43.029  1.00  0.00     0.151 S 
ATOM     11  O   UNL     1      18.876 -24.612 -42.710  1.00  0.00    -0.229 OA
ATOM     12  O   UNL     1      17.165 -22.904 -42.026  1.00  0.00    -0.229 OA
ATOM     13  C   UNL     1      18.155 -22.816 -44.450  1.00  0.00     0.158 C 
ENDBRANCH   9  10
ENDBRANCH   4   9
ENDBRANCH   1   3
BRANCH   1  14
ATOM     14  O   UNL     1      13.384 -21.108 -47.790  1.00  0.00    -0.452 OA
BRANCH  14  15
ATOM     15  C   UNL     1      13.820 -21.185 -49.152  1.00  0.00     0.333 C 
BRANCH  15  16
ATOM     16  C   UNL     1      13.061 -20.279 -50.123  1.00  0.00     0.266 C 
ATOM     17  O   UNL     1      11.884 -20.485 -50.403  1.00  0.00    -0.271 OA
ATOM     18  N   UNL     1      13.797 -19.209 -50.582  1.00  0.00    -0.275 N 
ATOM     19  C   UNL     1      13.882 -18.958 -51.927  1.00  0.00     0.321 C 
ATOM     20  O   UNL     1      13.393 -19.635 -52.821  1.00  0.00    -0.248 OA
ATOM     21  N   UNL     1      14.666 -17.847 -52.170  1.00  0.00    -0.334 N 
ATOM     22  H   UNL     1      14.693 -19.084 -50.135  1.00  0.00     0.174 HD
ATOM     23  H   UNL     1      14.580 -17.118 -51.473  1.00  0.00     0.165 HD
BRANCH  21  24
ATOM     24  C   UNL     1      14.814 -17.362 -53.538  1.00  0.00     0.166 C 
BRANCH  24  25
ATOM     25  C   UNL     1      16.282 -17.135 -53.919  1.00  0.00     0.230 C 
ATOM     26  C   UNL     1      17.120 -18.364 -53.571  1.00  0.00     0.276 C 
ATOM     27  O   UNL     1      16.748 -15.994 -53.169  1.00  0.00    -0.481 OA
ATOM     28  O   UNL     1      18.486 -18.179 -53.961  1.00  0.00    -0.486 OA
ATOM     29  C   UNL     1      18.115 -15.891 -53.208  1.00  0.00     0.161 A 
ATOM     30  C   UNL     1      18.951 -16.942 -53.601  1.00  0.00     0.161 A 
ATOM     31  C   UNL     1      18.663 -14.670 -52.820  1.00  0.00     0.050 A 
ATOM     32  C   UNL     1      20.331 -16.754 -53.646  1.00  0.00     0.050 A 
ATOM     33  C   UNL     1      20.047 -14.487 -52.855  1.00  0.00     0.004 A 
ATOM     34  C   UNL     1      20.880 -15.527 -53.272  1.00  0.00     0.004 A 
ENDBRANCH  24  25
ENDBRANCH  21  24
ENDBRANCH  15  16
ENDBRANCH  14  15
ENDBRANCH   1  14
TORSDOF 8
ENDMDL
MODEL 3
REMARK VINA RESULT:    -9.377      3.199     10.223
REMARK INTER + INTRA:         -14.141
REMARK INTER:                 -13.466
REMARK INTRA:                  -0.675
REMARK UNBOUND:                -0.379
REMARK SMILES CS(=O)(=O)Cc1ccc(C(=O)OCC(=O)NC(=O)NC[C@@H]2COc3ccccc3O2)cc1
REMARK SMILES IDX 10 1 11 2 9 3 6 4 7 5 32 6 8 7 31 8 5 9 2 10 3 11 4 12 1 13
REMARK SMILES IDX 12 14 13 15 14 16 15 17 16 18 17 19 18 20 19 21 20 24 21 25
REMARK SMILES IDX 22 26 30 27 23 28 29 29 24 30 28 31 25 32 27 33 26 34
REMARK H PARENT 16 22 19 23
ROOT
ATOM      1  C   UNL     1      12.720 -21.261 -47.338  1.00  0.00     0.338 C 
ATOM      2  O   UNL     1      12.731 -20.046 -47.437  1.00  0.00    -0.246 OA
ENDROOT
BRANCH   1   3
ATOM      3  C   UNL     1      13.821 -22.046 -46.719  1.00  0.00     0.060 A 
ATOM      4  C   UNL     1      15.978 -23.490 -45.619  1.00  0.00    -0.033 A 
ATOM      5  C   UNL     1      14.691 -23.596 -45.070  1.00  0.00     0.005 A 
ATOM      6  C   UNL     1      16.170 -22.661 -46.733  1.00  0.00     0.005 A 
ATOM      7  C   UNL     1      13.621 -22.876 -45.611  1.00  0.00     0.016 A 
ATOM      8  C   UNL     1      15.101 -21.943 -47.276  1.00  0.00     0.016 A 
BRANCH   4   9
ATOM      9  C   UNL     1      17.133 -24.261 -45.036  1.00  0.00     0.172 C 
BRANCH   9  10
ATOM     10  S   UNL     1      17.901 -23.372 -43.683  1.00  0.00     0.151 S 
ATOM     11  O   UNL     1      18.572 -24.358 -42.856  1.00  0.00    -0.229 OA
ATOM     12  O   UNL     1      16.925 -22.476 -43.091  1.00  0.00    -0.229 OA
ATOM     13  C   UNL     1      19.170 -22.379 -44.438  1.00  0.00     0.158 C 
ENDBRANCH   9  10
ENDBRANCH   4   9
ENDBRANCH   1   3
BRANCH   1  14
ATOM     14  O   UNL     1      11.747 -22.081 -47.809  1.00  0.00    -0.452 OA
BRANCH  14  15
ATOM     15  C   UNL     1      12.054 -22.733 -49.047  1.00  0.00     0.333 C 
BRANCH  15  16
ATOM     16  C   UNL     1      11.674 -21.943 -50.301  1.00  0.00     0.266 C 
ATOM     17  O   UNL     1      10.690 -22.242 -50.972  1.00  0.00    -0.271 OA
ATOM     18  N   UNL     1      12.490 -20.862 -50.551  1.00  0.00    -0.275 N 
ATOM     19  C   UNL     1      13.055 -20.697 -51.789  1.00  0.00     0.321 C 
ATOM     20  O   UNL     1      12.953 -21.461 -52.738  1.00  0.00    -0.248 OA
ATOM     21  N   UNL     1      13.834 -19.557 -51.824  1.00  0.00    -0.334 N 
ATOM     22  H   UNL     1      13.154 -20.650 -49.821  1.00  0.00     0.174 HD
ATOM     23  H   UNL     1      13.473 -18.789 -51.271  1.00  0.00     0.165 HD
BRANCH  21  24
ATOM     24  C   UNL     1      14.458 -19.156 -53.080  1.00  0.00     0.166 C 
BRANCH  24  25
ATOM     25  C   UNL     1      15.635 -18.195 -52.866  1.00  0.00     0.230 C 
ATOM     26  C   UNL     1      15.334 -16.835 -53.489  1.00  0.00     0.276 C 
ATOM     27  O   UNL     1      16.789 -18.784 -53.501  1.00  0.00    -0.481 OA
ATOM     28  O   UNL     1      16.409 -15.917 -53.259  1.00  0.00    -0.486 OA
ATOM     29  C   UNL     1      17.810 -17.877 -53.627  1.00  0.00     0.161 A 
ATOM     30  C   UNL     1      17.628 -16.496 -53.499  1.00  0.00     0.161 A 
ATOM     31  C   UNL     1      19.075 -18.392 -53.907  1.00  0.00     0.050 A 
ATOM     32  C   UNL     1      18.719 -15.636 -53.607  1.00  0.00     0.050 A 
ATOM     33  C   UNL     1      20.165 -17.528 -54.027  1.00  0.00     0.004 A 
ATOM     34  C   UNL     1      19.988 -16.152 -53.873  1.00  0.00     0.004 A 
ENDBRANCH  24  25
ENDBRANCH  21  24
ENDBRANCH  15  16
ENDBRANCH  14  15
ENDBRANCH   1  14
TORSDOF 8
ENDMDL
MODEL 4
REMARK VINA RESULT:    -9.304      1.341      2.027
REMARK INTER + INTRA:         -14.034
REMARK INTER:                 -13.309
REMARK INTRA:                  -0.726
REMARK UNBOUND:                -0.379
REMARK SMILES CS(=O)(=O)Cc1ccc(C(=O)OCC(=O)NC(=O)NC[C@@H]2COc3ccccc3O2)cc1
REMARK SMILES IDX 10 1 11 2 9 3 6 4 7 5 32 6 8 7 31 8 5 9 2 10 3 11 4 12 1 13
REMARK SMILES IDX 12 14 13 15 14 16 15 17 16 18 17 19 18 20 19 21 20 24 21 25
REMARK SMILES IDX 22 26 30 27 23 28 29 29 24 30 28 31 25 32 27 33 26 34
REMARK H PARENT 16 22 19 23
ROOT
ATOM      1  C   UNL     1      13.692 -20.023 -52.794  1.00  0.00     0.338 C 
ATOM      2  O   UNL     1      13.401 -21.051 -53.380  1.00  0.00    -0.246 OA
ENDROOT
BRANCH   1   3
ATOM      3  C   UNL     1      14.836 -19.153 -53.176  1.00  0.00     0.060 A 
ATOM      4  C   UNL     1      16.942 -17.416 -53.878  1.00  0.00    -0.033 A 
ATOM      5  C   UNL     1      17.123 -18.807 -53.902  1.00  0.00     0.005 A 
ATOM      6  C   UNL     1      15.690 -16.905 -53.510  1.00  0.00     0.005 A 
ATOM      7  C   UNL     1      16.082 -19.670 -53.548  1.00  0.00     0.016 A 
ATOM      8  C   UNL     1      14.647 -17.767 -53.159  1.00  0.00     0.016 A 
BRANCH   4   9
ATOM      9  C   UNL     1      18.064 -16.484 -54.255  1.00  0.00     0.172 C 
BRANCH   9  10
ATOM     10  S   UNL     1      18.556 -15.456 -52.873  1.00  0.00     0.151 S 
ATOM     11  O   UNL     1      17.981 -16.048 -51.678  1.00  0.00    -0.229 OA
ATOM     12  O   UNL     1      18.282 -14.067 -53.195  1.00  0.00    -0.229 OA
ATOM     13  C   UNL     1      20.320 -15.653 -52.750  1.00  0.00     0.158 C 
ENDBRANCH   9  10
ENDBRANCH   4   9
ENDBRANCH   1   3
BRANCH   1  14
ATOM     14  O   UNL     1      13.063 -19.537 -51.694  1.00  0.00    -0.452 OA
BRANCH  14  15
ATOM     15  C   UNL     1      13.360 -20.228 -50.475  1.00  0.00     0.333 C 
BRANCH  15  16
ATOM     16  C   UNL     1      12.288 -21.218 -50.018  1.00  0.00     0.266 C 
ATOM     17  O   UNL     1      11.094 -20.989 -50.183  1.00  0.00    -0.271 OA
ATOM     18  N   UNL     1      12.793 -22.381 -49.478  1.00  0.00    -0.275 N 
ATOM     19  C   UNL     1      12.351 -22.822 -48.258  1.00  0.00     0.321 C 
ATOM     20  O   UNL     1      11.552 -22.252 -47.529  1.00  0.00    -0.248 OA
ATOM     21  N   UNL     1      12.983 -23.998 -47.904  1.00  0.00    -0.334 N 
ATOM     22  H   UNL     1      13.792 -22.492 -49.561  1.00  0.00     0.174 HD
ATOM     23  H   UNL     1      13.177 -24.616 -48.682  1.00  0.00     0.165 HD
BRANCH  21  24
ATOM     24  C   UNL     1      12.592 -24.678 -46.674  1.00  0.00     0.166 C 
BRANCH  24  25
ATOM     25  C   UNL     1      13.662 -24.564 -45.580  1.00  0.00     0.230 C 
ATOM     26  C   UNL     1      13.210 -23.596 -44.490  1.00  0.00     0.276 C 
ATOM     27  O   UNL     1      14.865 -24.071 -46.208  1.00  0.00    -0.481 OA
ATOM     28  O   UNL     1      14.184 -23.514 -43.443  1.00  0.00    -0.486 OA
ATOM     29  C   UNL     1      15.781 -23.653 -45.277  1.00  0.00     0.161 A 
ATOM     30  C   UNL     1      15.454 -23.395 -43.942  1.00  0.00     0.161 A 
ATOM     31  C   UNL     1      17.090 -23.476 -45.723  1.00  0.00     0.050 A 
ATOM     32  C   UNL     1      16.446 -23.004 -43.045  1.00  0.00     0.050 A 
ATOM     33  C   UNL     1      18.080 -23.072 -44.825  1.00  0.00     0.004 A 
ATOM     34  C   UNL     1      17.759 -22.840 -43.487  1.00  0.00     0.004 A 
ENDBRANCH  24  25
ENDBRANCH  21  24
ENDBRANCH  15  16
ENDBRANCH  14  15
ENDBRANCH   1  14
TORSDOF 8
ENDMDL
MODEL 5
REMARK VINA RESULT:    -8.925      4.565      7.725
REMARK INTER + INTRA:         -13.477
REMARK INTER:                 -12.913
REMARK INTRA:                  -0.564
REMARK UNBOUND:                -0.379
REMARK SMILES CS(=O)(=O)Cc1ccc(C(=O)OCC(=O)NC(=O)NC[C@@H]2COc3ccccc3O2)cc1
REMARK SMILES IDX 10 1 11 2 9 3 6 4 7 5 32 6 8 7 31 8 5 9 2 10 3 11 4 12 1 13
REMARK SMILES IDX 12 14 13 15 14 16 15 17 16 18 17 19 18 20 19 21 20 24 21 25
REMARK SMILES IDX 22 26 30 27 23 28 29 29 24 30 28 31 25 32 27 33 26 34
REMARK H PARENT 16 22 19 23
ROOT
ATOM      1  C   UNL     1      12.906 -20.562 -50.550  1.00  0.00     0.338 C 
ATOM      2  O   UNL     1      12.371 -21.568 -50.983  1.00  0.00    -0.246 OA
ENDROOT
BRANCH   1   3
ATOM      3  C   UNL     1      13.620 -19.576 -51.404  1.00  0.00     0.060 A 
ATOM      4  C   UNL     1      14.985 -17.641 -52.934  1.00  0.00    -0.033 A 
ATOM      5  C   UNL     1      14.558 -18.844 -53.516  1.00  0.00     0.005 A 
ATOM      6  C   UNL     1      14.709 -17.413 -51.578  1.00  0.00     0.005 A 
ATOM      7  C   UNL     1      13.887 -19.808 -52.758  1.00  0.00     0.016 A 
ATOM      8  C   UNL     1      14.035 -18.374 -50.819  1.00  0.00     0.016 A 
BRANCH   4   9
ATOM      9  C   UNL     1      15.712 -16.603 -53.747  1.00  0.00     0.172 C 
BRANCH   9  10
ATOM     10  S   UNL     1      17.436 -16.487 -53.274  1.00  0.00     0.151 S 
ATOM     11  O   UNL     1      17.468 -16.273 -51.838  1.00  0.00    -0.229 OA
ATOM     12  O   UNL     1      18.107 -15.552 -54.158  1.00  0.00    -0.229 OA
ATOM     13  C   UNL     1      18.112 -18.105 -53.572  1.00  0.00     0.158 C 
ENDBRANCH   9  10
ENDBRANCH   4   9
ENDBRANCH   1   3
BRANCH   1  14
ATOM     14  O   UNL     1      12.978 -20.210 -49.241  1.00  0.00    -0.452 OA
BRANCH  14  15
ATOM     15  C   UNL     1      13.356 -21.267 -48.351  1.00  0.00     0.333 C 
BRANCH  15  16
ATOM     16  C   UNL     1      12.192 -21.948 -47.631  1.00  0.00     0.266 C 
ATOM     17  O   UNL     1      12.294 -22.330 -46.468  1.00  0.00    -0.271 OA
ATOM     18  N   UNL     1      11.038 -22.027 -48.380  1.00  0.00    -0.275 N 
ATOM     19  C   UNL     1      10.390 -23.226 -48.522  1.00  0.00     0.321 C 
ATOM     20  O   UNL     1      10.759 -24.304 -48.078  1.00  0.00    -0.248 OA
ATOM     21  N   UNL     1       9.263 -23.084 -49.308  1.00  0.00    -0.334 N 
ATOM     22  H   UNL     1      11.061 -21.524 -49.254  1.00  0.00     0.174 HD
ATOM     23  H   UNL     1       8.780 -22.203 -49.187  1.00  0.00     0.165 HD
BRANCH  21  24
ATOM     24  C   UNL     1       8.386 -24.231 -49.514  1.00  0.00     0.166 C 
BRANCH  24  25
ATOM     25  C   UNL     1       7.260 -23.932 -50.512  1.00  0.00     0.230 C 
ATOM     26  C   UNL     1       7.695 -22.853 -51.500  1.00  0.00     0.276 C 
ATOM     27  O   UNL     1       6.124 -23.471 -49.750  1.00  0.00    -0.481 OA
ATOM     28  O   UNL     1       6.666 -22.594 -52.462  1.00  0.00    -0.486 OA
ATOM     29  C   UNL     1       5.177 -22.897 -50.558  1.00  0.00     0.161 A 
ATOM     30  C   UNL     1       5.436 -22.485 -51.869  1.00  0.00     0.161 A 
ATOM     31  C   UNL     1       3.907 -22.722 -50.009  1.00  0.00     0.050 A 
ATOM     32  C   UNL     1       4.414 -21.938 -52.643  1.00  0.00     0.050 A 
ATOM     33  C   UNL     1       2.888 -22.163 -50.781  1.00  0.00     0.004 A 
ATOM     34  C   UNL     1       3.140 -21.776 -52.099  1.00  0.00     0.004 A 
ENDBRANCH  24  25
ENDBRANCH  21  24
ENDBRANCH  15  16
ENDBRANCH  14  15
ENDBRANCH   1  14
TORSDOF 8
ENDMDL
MODEL 6
REMARK VINA RESULT:    -8.751      3.690     11.843
REMARK INTER + INTRA:         -13.223
REMARK INTER:                 -12.744
REMARK INTRA:                  -0.479
REMARK UNBOUND:                -0.379
REMARK SMILES CS(=O)(=O)Cc1ccc(C(=O)OCC(=O)NC(=O)NC[C@@H]2COc3ccccc3O2)cc1
REMARK SMILES IDX 10 1 11 2 9 3 6 4 7 5 32 6 8 7 31 8 5 9 2 10 3 11 4 12 1 13
REMARK SMILES IDX 12 14 13 15 14 16 15 17 16 18 17 19 18 20 19 21 20 24 21 25
REMARK SMILES IDX 22 26 30 27 23 28 29 29 24 30 28 31 25 32 27 33 26 34
REMARK H PARENT 16 22 19 23
ROOT
ATOM      1  C   UNL     1      14.332 -22.633 -45.507  1.00  0.00     0.338 C 
ATOM      2  O   UNL     1      15.375 -22.052 -45.753  1.00  0.00    -0.246 OA
ENDROOT
BRANCH   1   3
ATOM      3  C   UNL     1      14.121 -23.471 -44.298  1.00  0.00     0.060 A 
ATOM      4  C   UNL     1      13.832 -25.065 -41.990  1.00  0.00    -0.033 A 
ATOM      5  C   UNL     1      12.706 -24.594 -42.681  1.00  0.00     0.005 A 
ATOM      6  C   UNL     1      15.107 -24.738 -42.476  1.00  0.00     0.005 A 
ATOM      7  C   UNL     1      12.847 -23.798 -43.822  1.00  0.00     0.016 A 
ATOM      8  C   UNL     1      15.249 -23.945 -43.618  1.00  0.00     0.016 A 
BRANCH   4   9
ATOM      9  C   UNL     1      13.683 -25.918 -40.758  1.00  0.00     0.172 C 
BRANCH   9  10
ATOM     10  S   UNL     1      13.876 -24.952 -39.261  1.00  0.00     0.151 S 
ATOM     11  O   UNL     1      13.662 -25.855 -38.145  1.00  0.00    -0.229 OA
ATOM     12  O   UNL     1      13.083 -23.742 -39.375  1.00  0.00    -0.229 OA
ATOM     13  C   UNL     1      15.592 -24.483 -39.227  1.00  0.00     0.158 C 
ENDBRANCH   9  10
ENDBRANCH   4   9
ENDBRANCH   1   3
BRANCH   1  14
ATOM     14  O   UNL     1      13.232 -22.648 -46.303  1.00  0.00    -0.452 OA
BRANCH  14  15
ATOM     15  C   UNL     1      13.501 -22.524 -47.705  1.00  0.00     0.333 C 
BRANCH  15  16
ATOM     16  C   UNL     1      13.376 -21.105 -48.261  1.00  0.00     0.266 C 
ATOM     17  O   UNL     1      12.716 -20.247 -47.683  1.00  0.00    -0.271 OA
ATOM     18  N   UNL     1      14.111 -20.885 -49.405  1.00  0.00    -0.275 N 
ATOM     19  C   UNL     1      13.516 -20.335 -50.511  1.00  0.00     0.321 C 
ATOM     20  O   UNL     1      12.334 -20.043 -50.626  1.00  0.00    -0.248 OA
ATOM     21  N   UNL     1      14.426 -20.202 -51.542  1.00  0.00    -0.334 N 
ATOM     22  H   UNL     1      14.731 -21.637 -49.666  1.00  0.00     0.174 HD
ATOM     23  H   UNL     1      15.363 -19.968 -51.241  1.00  0.00     0.165 HD
BRANCH  21  24
ATOM     24  C   UNL     1      14.010 -19.559 -52.784  1.00  0.00     0.166 C 
BRANCH  24  25
ATOM     25  C   UNL     1      15.183 -18.899 -53.519  1.00  0.00     0.230 C 
ATOM     26  C   UNL     1      16.377 -19.849 -53.581  1.00  0.00     0.276 C 
ATOM     27  O   UNL     1      15.538 -17.712 -52.779  1.00  0.00    -0.481 OA
ATOM     28  O   UNL     1      17.464 -19.258 -54.301  1.00  0.00    -0.486 OA
ATOM     29  C   UNL     1      16.753 -17.216 -53.177  1.00  0.00     0.161 A 
ATOM     30  C   UNL     1      17.676 -17.959 -53.920  1.00  0.00     0.161 A 
ATOM     31  C   UNL     1      17.053 -15.910 -52.795  1.00  0.00     0.050 A 
ATOM     32  C   UNL     1      18.879 -17.379 -54.316  1.00  0.00     0.050 A 
ATOM     33  C   UNL     1      18.264 -15.334 -53.182  1.00  0.00     0.004 A 
ATOM     34  C   UNL     1      19.175 -16.066 -53.946  1.00  0.00     0.004 A 
ENDBRANCH  24  25
ENDBRANCH  21  24
ENDBRANCH  15  16
ENDBRANCH  14  15
ENDBRANCH   1  14
TORSDOF 8
ENDMDL
MODEL 7
REMARK VINA RESULT:    -8.473      4.566     11.098
REMARK INTER + INTRA:         -12.814
REMARK INTER:                 -12.003
REMARK INTRA:                  -0.811
REMARK UNBOUND:                -0.379
REMARK SMILES CS(=O)(=O)Cc1ccc(C(=O)OCC(=O)NC(=O)NC[C@@H]2COc3ccccc3O2)cc1
REMARK SMILES IDX 10 1 11 2 9 3 6 4 7 5 32 6 8 7 31 8 5 9 2 10 3 11 4 12 1 13
REMARK SMILES IDX 12 14 13 15 14 16 15 17 16 18 17 19 18 20 19 21 20 24 21 25
REMARK SMILES IDX 22 26 30 27 23 28 29 29 24 30 28 31 25 32 27 33 26 34
REMARK H PARENT 16 22 19 23
ROOT
ATOM      1  C   UNL     1      12.107 -24.202 -48.107  1.00  0.00     0.338 C 
ATOM      2  O   UNL     1      12.429 -24.798 -47.093  1.00  0.00    -0.246 OA
ENDROOT
BRANCH   1   3
ATOM      3  C   UNL     1      10.749 -24.274 -48.708  1.00  0.00     0.060 A 
ATOM      4  C   UNL     1       8.220 -24.455 -49.940  1.00  0.00    -0.033 A 
ATOM      5  C   UNL     1       8.345 -23.971 -48.629  1.00  0.00     0.005 A 
ATOM      6  C   UNL     1       9.378 -24.836 -50.632  1.00  0.00     0.005 A 
ATOM      7  C   UNL     1       9.597 -23.886 -48.014  1.00  0.00     0.016 A 
ATOM      8  C   UNL     1      10.632 -24.750 -50.019  1.00  0.00     0.016 A 
BRANCH   4   9
ATOM      9  C   UNL     1       6.871 -24.552 -50.604  1.00  0.00     0.172 C 
BRANCH   9  10
ATOM     10  S   UNL     1       6.560 -23.145 -51.669  1.00  0.00     0.151 S 
ATOM     11  O   UNL     1       7.119 -23.467 -52.970  1.00  0.00    -0.229 OA
ATOM     12  O   UNL     1       6.973 -21.933 -50.985  1.00  0.00    -0.229 OA
ATOM     13  C   UNL     1       4.793 -23.091 -51.865  1.00  0.00     0.158 C 
ENDBRANCH   9  10
ENDBRANCH   4   9
ENDBRANCH   1   3
BRANCH   1  14
ATOM     14  O   UNL     1      12.929 -23.429 -48.861  1.00  0.00    -0.452 OA
BRANCH  14  15
ATOM     15  C   UNL     1      12.851 -22.024 -48.593  1.00  0.00     0.333 C 
BRANCH  15  16
ATOM     16  C   UNL     1      12.300 -21.179 -49.742  1.00  0.00     0.266 C 
ATOM     17  O   UNL     1      11.209 -21.422 -50.249  1.00  0.00    -0.271 OA
ATOM     18  N   UNL     1      13.104 -20.116 -50.092  1.00  0.00    -0.275 N 
ATOM     19  C   UNL     1      13.462 -19.925 -51.401  1.00  0.00     0.321 C 
ATOM     20  O   UNL     1      13.176 -20.652 -52.342  1.00  0.00    -0.248 OA
ATOM     21  N   UNL     1      14.266 -18.810 -51.532  1.00  0.00    -0.334 N 
ATOM     22  H   UNL     1      13.886 -19.952 -49.477  1.00  0.00     0.174 HD
ATOM     23  H   UNL     1      14.030 -18.052 -50.904  1.00  0.00     0.165 HD
BRANCH  21  24
ATOM     24  C   UNL     1      14.689 -18.385 -52.861  1.00  0.00     0.166 C 
BRANCH  24  25
ATOM     25  C   UNL     1      16.014 -17.611 -52.832  1.00  0.00     0.230 C 
ATOM     26  C   UNL     1      15.911 -16.345 -53.679  1.00  0.00     0.276 C 
ATOM     27  O   UNL     1      17.030 -18.482 -53.371  1.00  0.00    -0.481 OA
ATOM     28  O   UNL     1      17.129 -15.594 -53.626  1.00  0.00    -0.486 OA
ATOM     29  C   UNL     1      18.178 -17.793 -53.665  1.00  0.00     0.161 A 
ATOM     30  C   UNL     1      18.227 -16.399 -53.776  1.00  0.00     0.161 A 
ATOM     31  C   UNL     1      19.330 -18.550 -53.867  1.00  0.00     0.050 A 
ATOM     32  C   UNL     1      19.437 -15.764 -54.047  1.00  0.00     0.050 A 
ATOM     33  C   UNL     1      20.540 -17.913 -54.150  1.00  0.00     0.004 A 
ATOM     34  C   UNL     1      20.594 -16.521 -54.235  1.00  0.00     0.004 A 
ENDBRANCH  24  25
ENDBRANCH  21  24
ENDBRANCH  15  16
ENDBRANCH  14  15
ENDBRANCH   1  14
TORSDOF 8
ENDMDL
MODEL 8
REMARK VINA RESULT:    -8.461      5.367      8.459
REMARK INTER + INTRA:         -12.797
REMARK INTER:                 -11.867
REMARK INTRA:                  -0.929
REMARK UNBOUND:                -0.379
REMARK SMILES CS(=O)(=O)Cc1ccc(C(=O)OCC(=O)NC(=O)NC[C@@H]2COc3ccccc3O2)cc1
REMARK SMILES IDX 10 1 11 2 9 3 6 4 7 5 32 6 8 7 31 8 5 9 2 10 3 11 4 12 1 13
REMARK SMILES IDX 12 14 13 15 14 16 15 17 16 18 17 19 18 20 19 21 20 24 21 25
REMARK SMILES IDX 22 26 30 27 23 28 29 29 24 30 28 31 25 32 27 33 26 34
REMARK H PARENT 16 22 19 23
ROOT
ATOM      1  C   UNL     1      10.769 -23.308 -48.322  1.00  0.00     0.338 C 
ATOM      2  O   UNL     1      11.090 -23.620 -47.188  1.00  0.00    -0.246 OA
ENDROOT
BRANCH   1   3
ATOM      3  C   UNL     1       9.476 -23.694 -48.947  1.00  0.00     0.060 A 
ATOM      4  C   UNL     1       6.990 -24.461 -50.032  1.00  0.00    -0.033 A 
ATOM      5  C   UNL     1       7.961 -23.842 -50.833  1.00  0.00     0.005 A 
ATOM      6  C   UNL     1       7.284 -24.702 -48.682  1.00  0.00     0.005 A 
ATOM      7  C   UNL     1       9.192 -23.455 -50.296  1.00  0.00     0.016 A 
ATOM      8  C   UNL     1       8.515 -24.319 -48.144  1.00  0.00     0.016 A 
BRANCH   4   9
ATOM      9  C   UNL     1       5.661 -24.875 -50.607  1.00  0.00     0.172 C 
BRANCH   9  10
ATOM     10  S   UNL     1       4.443 -23.570 -50.454  1.00  0.00     0.151 S 
ATOM     11  O   UNL     1       3.616 -23.620 -51.646  1.00  0.00    -0.229 OA
ATOM     12  O   UNL     1       5.116 -22.335 -50.092  1.00  0.00    -0.229 OA
ATOM     13  C   UNL     1       3.411 -24.054 -49.088  1.00  0.00     0.158 C 
ENDBRANCH   9  10
ENDBRANCH   4   9
ENDBRANCH   1   3
BRANCH   1  14
ATOM     14  O   UNL     1      11.541 -22.615 -49.197  1.00  0.00    -0.452 OA
BRANCH  14  15
ATOM     15  C   UNL     1      11.844 -21.272 -48.801  1.00  0.00     0.333 C 
BRANCH  15  16
ATOM     16  C   UNL     1      13.283 -21.048 -48.333  1.00  0.00     0.266 C 
ATOM     17  O   UNL     1      14.124 -20.541 -49.069  1.00  0.00    -0.271 OA
ATOM     18  N   UNL     1      13.508 -21.407 -47.022  1.00  0.00    -0.275 N 
ATOM     19  C   UNL     1      14.554 -22.234 -46.704  1.00  0.00     0.321 C 
ATOM     20  O   UNL     1      15.327 -22.759 -47.493  1.00  0.00    -0.248 OA
ATOM     21  N   UNL     1      14.598 -22.468 -45.343  1.00  0.00    -0.334 N 
ATOM     22  H   UNL     1      12.681 -21.654 -46.499  1.00  0.00     0.174 HD
ATOM     23  H   UNL     1      14.325 -21.675 -44.777  1.00  0.00     0.165 HD
BRANCH  21  24
ATOM     24  C   UNL     1      15.691 -23.260 -44.789  1.00  0.00     0.166 C 
BRANCH  24  25
ATOM     25  C   UNL     1      15.708 -23.236 -43.255  1.00  0.00     0.230 C 
ATOM     26  C   UNL     1      16.866 -24.074 -42.721  1.00  0.00     0.276 C 
ATOM     27  O   UNL     1      14.453 -23.787 -42.805  1.00  0.00    -0.481 OA
ATOM     28  O   UNL     1      16.916 -24.026 -41.291  1.00  0.00    -0.486 OA
ATOM     29  C   UNL     1      14.487 -24.086 -41.467  1.00  0.00     0.161 A 
ATOM     30  C   UNL     1      15.674 -24.189 -40.736  1.00  0.00     0.161 A 
ATOM     31  C   UNL     1      13.260 -24.301 -40.841  1.00  0.00     0.050 A 
ATOM     32  C   UNL     1      15.630 -24.465 -39.370  1.00  0.00     0.050 A 
ATOM     33  C   UNL     1      13.218 -24.589 -39.475  1.00  0.00     0.004 A 
ATOM     34  C   UNL     1      14.402 -24.667 -38.740  1.00  0.00     0.004 A 
ENDBRANCH  24  25
ENDBRANCH  21  24
ENDBRANCH  15  16
ENDBRANCH  14  15
ENDBRANCH   1  14
TORSDOF 8
ENDMDL
MODEL 9
REMARK VINA RESULT:    -8.281      6.326     11.128
REMARK INTER + INTRA:         -12.533
REMARK INTER:                 -11.837
REMARK INTRA:                  -0.696
REMARK UNBOUND:                -0.379
REMARK SMILES CS(=O)(=O)Cc1ccc(C(=O)OCC(=O)NC(=O)NC[C@@H]2COc3ccccc3O2)cc1
REMARK SMILES IDX 10 1 11 2 9 3 6 4 7 5 32 6 8 7 31 8 5 9 2 10 3 11 4 12 1 13
REMARK SMILES IDX 12 14 13 15 14 16 15 17 16 18 17 19 18 20 19 21 20 24 21 25
REMARK SMILES IDX 22 26 30 27 23 28 29 29 24 30 28 31 25 32 27 33 26 34
REMARK H PARENT 16 22 19 23
ROOT
ATOM      1  C   UNL     1      13.240 -21.063 -48.030  1.00  0.00     0.338 C 
ATOM      2  O   UNL     1      12.568 -20.103 -47.695  1.00  0.00    -0.246 OA
ENDROOT
BRANCH   1   3
ATOM      3  C   UNL     1      13.953 -21.945 -47.068  1.00  0.00     0.060 A 
ATOM      4  C   UNL     1      15.398 -23.596 -45.298  1.00  0.00    -0.033 A 
ATOM      5  C   UNL     1      14.022 -23.388 -45.121  1.00  0.00     0.005 A 
ATOM      6  C   UNL     1      16.040 -22.977 -46.380  1.00  0.00     0.005 A 
ATOM      7  C   UNL     1      13.304 -22.565 -45.994  1.00  0.00     0.016 A 
ATOM      8  C   UNL     1      15.324 -22.155 -47.255  1.00  0.00     0.016 A 
BRANCH   4   9
ATOM      9  C   UNL     1      16.174 -24.479 -44.357  1.00  0.00     0.172 C 
BRANCH   9  10
ATOM     10  S   UNL     1      17.014 -23.520 -43.098  1.00  0.00     0.151 S 
ATOM     11  O   UNL     1      17.240 -24.407 -41.971  1.00  0.00    -0.229 OA
ATOM     12  O   UNL     1      16.302 -22.270 -42.902  1.00  0.00    -0.229 OA
ATOM     13  C   UNL     1      18.609 -23.141 -43.787  1.00  0.00     0.158 C 
ENDBRANCH   9  10
ENDBRANCH   4   9
ENDBRANCH   1   3
BRANCH   1  14
ATOM     14  O   UNL     1      13.484 -21.447 -49.309  1.00  0.00    -0.452 OA
BRANCH  14  15
ATOM     15  C   UNL     1      12.343 -21.416 -50.176  1.00  0.00     0.333 C 
BRANCH  15  16
ATOM     16  C   UNL     1      11.374 -22.587 -50.005  1.00  0.00     0.266 C 
ATOM     17  O   UNL     1      11.770 -23.704 -49.684  1.00  0.00    -0.271 OA
ATOM     18  N   UNL     1      10.050 -22.249 -50.183  1.00  0.00    -0.275 N 
ATOM     19  C   UNL     1       9.263 -22.976 -51.038  1.00  0.00     0.321 C 
ATOM     20  O   UNL     1       9.626 -23.912 -51.736  1.00  0.00    -0.248 OA
ATOM     21  N   UNL     1       7.978 -22.470 -51.070  1.00  0.00    -0.334 N 
ATOM     22  H   UNL     1       9.871 -21.261 -50.281  1.00  0.00     0.174 HD
ATOM     23  H   UNL     1       7.650 -22.112 -50.182  1.00  0.00     0.165 HD
BRANCH  21  24
ATOM     24  C   UNL     1       6.960 -23.155 -51.859  1.00  0.00     0.166 C 
BRANCH  24  25
ATOM     25  C   UNL     1       5.630 -22.391 -51.883  1.00  0.00     0.230 C 
ATOM     26  C   UNL     1       4.868 -22.603 -50.578  1.00  0.00     0.276 C 
ATOM     27  O   UNL     1       4.861 -22.905 -52.991  1.00  0.00    -0.481 OA
ATOM     28  O   UNL     1       3.643 -21.861 -50.573  1.00  0.00    -0.486 OA
ATOM     29  C   UNL     1       3.550 -22.506 -52.921  1.00  0.00     0.161 A 
ATOM     30  C   UNL     1       2.968 -21.993 -51.758  1.00  0.00     0.161 A 
ATOM     31  C   UNL     1       2.790 -22.644 -54.081  1.00  0.00     0.050 A 
ATOM     32  C   UNL     1       1.638 -21.577 -51.770  1.00  0.00     0.050 A 
ATOM     33  C   UNL     1       1.454 -22.239 -54.088  1.00  0.00     0.004 A 
ATOM     34  C   UNL     1       0.880 -21.702 -52.934  1.00  0.00     0.004 A 
ENDBRANCH  24  25
ENDBRANCH  21  24
ENDBRANCH  15  16
ENDBRANCH  14  15
ENDBRANCH   1  14
TORSDOF 8
ENDMDL
