REMARK SMILES Cc1cc2c(N[C@@H]3CCC[C@H](C)[C@H]3C)ncnc2s1
REMARK SMILES IDX 6 1 5 3 2 4 3 5 19 6 4 7 18 8 17 9 15 10 16 11 1 12 7 13
REMARK SMILES IDX 8 14 13 15 9 16 11 17 10 18 14 19 12 20
REMARK H PARENT 6 2
ROOT
ATOM      1  N   UNL     1      -0.508  -1.758  -1.219  1.00  0.00    -0.366 N 
ATOM      2  H   UNL     1      -0.399  -2.087  -2.178  1.00  0.00     0.162 HD
ENDROOT
BRANCH   1   3
ATOM      3  C   UNL     1      -1.723  -1.091  -1.224  1.00  0.00     0.138 A 
ATOM      4  C   UNL     1      -3.030   0.559   1.880  1.00  0.00     0.004 A 
ATOM      5  C   UNL     1      -2.074  -0.188   1.223  1.00  0.00     0.029 A 
ATOM      6  S   UNL     1      -4.308   0.984   0.834  1.00  0.00    -0.121 S 
ATOM      7  C   UNL     1      -2.370  -0.416  -0.165  1.00  0.00     0.054 A 
ATOM      8  C   UNL     1      -3.591   0.168  -0.479  1.00  0.00     0.129 A 
ATOM      9  N   UNL     1      -4.217   0.142  -1.667  1.00  0.00    -0.225 NA
ATOM     10  N   UNL     1      -2.352  -1.157  -2.421  1.00  0.00    -0.219 NA
ATOM     11  C   UNL     1      -3.537  -0.550  -2.577  1.00  0.00     0.225 A 
ATOM     12  C   UNL     1      -3.054   0.994   3.304  1.00  0.00     0.056 C 
ENDBRANCH   1   3
BRANCH   1  13
ATOM     13  C   UNL     1       0.756  -1.247  -0.677  1.00  0.00     0.083 C 
ATOM     14  C   UNL     1       1.007  -1.884   0.701  1.00  0.00     0.025 C 
ATOM     15  C   UNL     1       0.958   0.285  -0.734  1.00  0.00     0.011 C 
ATOM     16  C   UNL     1       1.803  -0.996   1.650  1.00  0.00     0.002 C 
ATOM     17  C   UNL     1       2.342   0.711  -0.149  1.00  0.00    -0.009 C 
ATOM     18  C   UNL     1       2.903  -0.266   0.899  1.00  0.00     0.004 C 
ATOM     19  C   UNL     1       0.840   0.825  -2.171  1.00  0.00     0.010 C 
ATOM     20  C   UNL     1       2.259   2.126   0.443  1.00  0.00     0.008 C 
ENDBRANCH   1  13
TORSDOF 2
