REMARK SMILES O=C([O-])CC1(CC(=O)N[C@H]2CO[C@H]3[C@@H]2OC[C@@H]3Nc2nccc(-c3ccco3)n2)CCCC1
REMARK SMILES IDX 7 1 8 2 9 3 6 5 5 6 30 7 33 8 31 9 32 10 4 11 2 12 1 13 3 14
REMARK SMILES IDX 10 15 11 16 14 17 12 18 13 19 15 20 17 21 16 22 18 23 19 25
REMARK SMILES IDX 20 26 29 27 21 28 23 29 22 30 24 31 25 32 28 33 26 34 27 35
REMARK H PARENT 9 4 18 24
ROOT
ATOM      1  C   UNL     1      -2.131  -0.718  -1.088  1.00  0.00     0.220 C 
ATOM      2  O   UNL     1      -2.444   0.324  -1.660  1.00  0.00    -0.275 OA
ATOM      3  N   UNL     1      -1.562  -0.758   0.164  1.00  0.00    -0.348 N 
ATOM      4  H   UNL     1      -1.707  -1.666   0.649  1.00  0.00     0.163 HD
ENDROOT
BRANCH   1   5
ATOM      5  C   UNL     1      -2.328  -2.083  -1.725  1.00  0.00     0.107 C 
BRANCH   5   6
ATOM      6  C   UNL     1      -3.769  -2.630  -1.618  1.00  0.00    -0.016 C 
ATOM      7  C   UNL     1      -4.756  -1.769  -2.437  1.00  0.00     0.008 C 
ATOM      8  C   UNL     1      -3.876  -3.971  -2.375  1.00  0.00     0.008 C 
ATOM      9  C   UNL     1      -5.912  -2.700  -2.796  1.00  0.00     0.001 C 
ATOM     10  C   UNL     1      -5.352  -4.120  -2.729  1.00  0.00     0.001 C 
BRANCH   6  11
ATOM     11  C   UNL     1      -4.270  -2.758  -0.157  1.00  0.00     0.060 C 
BRANCH  11  12
ATOM     12  C   UNL     1      -3.386  -3.614   0.753  1.00  0.00     0.042 C 
ATOM     13  O   UNL     1      -3.765  -4.801   0.928  1.00  0.00    -0.550 OA
ATOM     14  O   UNL     1      -2.378  -3.005   1.222  1.00  0.00    -0.550 OA
ENDBRANCH  11  12
ENDBRANCH   6  11
ENDBRANCH   5   6
ENDBRANCH   1   5
BRANCH   3  15
ATOM     15  C   UNL     1      -1.544   0.414   1.032  1.00  0.00     0.139 C 
ATOM     16  C   UNL     1      -0.922   0.094   2.392  1.00  0.00     0.188 C 
ATOM     17  C   UNL     1      -0.620   1.510   0.530  1.00  0.00     0.174 C 
ATOM     18  O   UNL     1       0.489   0.392   2.323  1.00  0.00    -0.371 OA
ATOM     19  C   UNL     1       0.731   1.118   1.098  1.00  0.00     0.174 C 
ATOM     20  O   UNL     1      -0.963   2.799   1.095  1.00  0.00    -0.371 OA
ATOM     21  C   UNL     1       1.389   2.455   1.400  1.00  0.00     0.139 C 
ATOM     22  C   UNL     1       0.175   3.276   1.838  1.00  0.00     0.188 C 
BRANCH  21  23
ATOM     23  N   UNL     1       2.004   3.082   0.224  1.00  0.00    -0.346 N 
ATOM     24  H   UNL     1       1.376   3.257  -0.556  1.00  0.00     0.164 HD
BRANCH  23  25
ATOM     25  C   UNL     1       3.118   2.441  -0.290  1.00  0.00     0.223 A 
ATOM     26  N   UNL     1       3.285   2.545  -1.613  1.00  0.00    -0.222 NA
ATOM     27  N   UNL     1       3.935   1.757   0.515  1.00  0.00    -0.210 NA
ATOM     28  C   UNL     1       4.344   1.911  -2.146  1.00  0.00     0.117 A 
ATOM     29  C   UNL     1       4.983   1.130  -0.057  1.00  0.00     0.111 A 
ATOM     30  C   UNL     1       5.238   1.179  -1.408  1.00  0.00     0.052 A 
BRANCH  29  31
ATOM     31  C   UNL     1       5.819   0.382   0.873  1.00  0.00     0.152 A 
ATOM     32  C   UNL     1       5.716   0.088   2.219  1.00  0.00     0.052 A 
ATOM     33  O   UNL     1       6.964  -0.178   0.371  1.00  0.00    -0.463 OA
ATOM     34  C   UNL     1       6.848  -0.692   2.555  1.00  0.00     0.043 A 
ATOM     35  C   UNL     1       7.575  -0.826   1.396  1.00  0.00     0.196 A 
ENDBRANCH  29  31
ENDBRANCH  23  25
ENDBRANCH  21  23
ENDBRANCH   3  15
TORSDOF 8
