REMARK SMILES CC[C@]12CN3CC[C@](CC)(CN(C1)[C@@H]3c1ccccc1N)C2=O
REMARK SMILES IDX 3 1 4 2 5 3 8 4 11 5 12 6 13 7 14 8 22 9 23 10 2 11 1 12
REMARK SMILES IDX 6 13 7 15 9 17 10 18 15 19 16 20 20 21 17 22 19 23 18 24
REMARK SMILES IDX 21 25
REMARK H PARENT 21 26 21 27
REMARK Flexibility Score:    4.900
ROOT
ATOM      1  C   UNL     1      -2.212   1.399  -0.142  1.00  0.00     0.055 C 
ATOM      2  C   UNL     1      -2.106   0.137  -1.035  1.00  0.00     0.102 C 
ATOM      3  N   UNL     1      -1.052  -0.815  -0.659  1.00  0.00    -0.283 NA
ATOM      4  C   UNL     1       0.377   1.755  -0.106  1.00  0.00     0.043 C 
ATOM      5  C   UNL     1       0.313   0.992   1.244  1.00  0.00     0.101 C 
ATOM      6  N   UNL     1      -0.891   0.197   1.531  1.00  0.00    -0.282 NA
ATOM      7  C   UNL     1      -2.093   1.012   1.330  1.00  0.00     0.102 C 
ATOM      8  C   UNL     1      -1.033  -1.068   0.793  1.00  0.00     0.160 C 
ATOM      9  C   UNL     1      -1.020   2.305  -0.442  1.00  0.00     0.149 C 
ATOM     10  O   UNL     1      -1.169   3.395  -0.998  1.00  0.00    -0.298 OA
ENDROOT
BRANCH   1  11
ATOM     11  C   UNL     1      -3.557   2.111  -0.448  1.00  0.00     0.014 C 
ATOM     12  C   UNL     1      -3.924   3.261   0.486  1.00  0.00     0.005 C 
ENDBRANCH   1  11
BRANCH   3  13
ATOM     13  C   UNL     1       0.252  -0.573  -1.262  1.00  0.00     0.087 CG0
ATOM     14  G   UNL     1       0.790   0.854  -1.281  1.00  0.00     0.000 G0
ENDBRANCH   3  13
BRANCH   4  15
ATOM     15  C   UNL     1       0.790   0.854  -1.281  1.00  0.00     0.032 CG0
ATOM     16  G   UNL     1       0.252  -0.573  -1.262  1.00  0.00     0.000 G0
ENDBRANCH   4  15
BRANCH   4  17
ATOM     17  C   UNL     1       1.390   2.929   0.072  1.00  0.00     0.013 C 
ATOM     18  C   UNL     1       1.872   3.628  -1.198  1.00  0.00     0.005 C 
ENDBRANCH   4  17
BRANCH   8  19
ATOM     19  C   UNL     1      -0.147  -2.235   1.262  1.00  0.00     0.007 A 
ATOM     20  C   UNL     1       0.601  -2.139   2.456  1.00  0.00     0.009 A 
ATOM     21  C   UNL     1      -0.130  -3.470   0.569  1.00  0.00     0.038 A 
ATOM     22  C   UNL     1       1.360  -3.209   2.933  1.00  0.00     0.001 A 
ATOM     23  C   UNL     1       0.595  -4.552   1.091  1.00  0.00     0.026 A 
ATOM     24  C   UNL     1       1.357  -4.417   2.249  1.00  0.00     0.002 A 
BRANCH  21  25
ATOM     25  N   UNL     1      -0.998  -3.718  -0.514  1.00  0.00    -0.398 N 
ATOM     26  H   UNL     1      -0.666  -4.438  -1.145  1.00  0.00     0.156 HD
ATOM     27  H   UNL     1      -1.233  -2.853  -1.007  1.00  0.00     0.156 HD
ENDBRANCH  21  25
ENDBRANCH   8  19
TORSDOF 4
