REMARK SMILES COC(C)(C)[C@]12C[C@](O)(C(C)C)ON1[C@@H]1CCCC[C@@H]1N2O
REMARK SMILES IDX 6 1 7 2 8 3 13 4 14 5 15 6 16 7 17 8 18 9 19 10 20 11 21 12
REMARK SMILES IDX 3 13 4 14 5 15 2 16 1 17 22 18 9 20 10 22 11 23 12 24
REMARK H PARENT 22 19 9 21
ROOT
ATOM      1  C   UNL     1      -0.604  -0.192  -0.434  1.00  0.00     0.155 C 
ATOM      2  C   UNL     1      -0.521   1.351  -0.370  1.00  0.00     0.114 C 
ATOM      3  C   UNL     1       0.893   1.722  -0.780  1.00  0.00     0.191 C 
ATOM      4  O   UNL     1       1.397   0.580  -1.471  1.00  0.00    -0.261 OA
ATOM      5  N   UNL     1       0.712  -0.620  -0.991  1.00  0.00    -0.155 NA
ATOM      6  C   UNL     1       1.515  -1.153   0.140  1.00  0.00     0.107 C 
ATOM      7  C   UNL     1       1.797  -2.645  -0.060  1.00  0.00     0.023 C 
ATOM      8  C   UNL     1       2.587  -3.219   1.122  1.00  0.00     0.002 C 
ATOM      9  C   UNL     1       2.257  -2.558   2.465  1.00  0.00     0.002 C 
ATOM     10  C   UNL     1       0.846  -1.980   2.480  1.00  0.00     0.023 C 
ATOM     11  C   UNL     1       0.690  -0.893   1.411  1.00  0.00     0.106 C 
ATOM     12  N   UNL     1      -0.669  -0.869   0.883  1.00  0.00    -0.162 NA
ENDROOT
BRANCH   1  13
ATOM     13  C   UNL     1      -1.820  -0.744  -1.336  1.00  0.00     0.098 C 
ATOM     14  C   UNL     1      -1.814  -0.197  -2.778  1.00  0.00     0.046 C 
ATOM     15  C   UNL     1      -1.722  -2.288  -1.480  1.00  0.00     0.046 C 
BRANCH  13  16
ATOM     16  O   UNL     1      -3.132  -0.576  -0.732  1.00  0.00    -0.375 OA
ATOM     17  C   UNL     1      -3.660   0.730  -0.602  1.00  0.00     0.195 C 
ENDBRANCH  13  16
ENDBRANCH   1  13
BRANCH  12  18
ATOM     18  O   UNL     1      -1.544  -0.183   1.804  1.00  0.00    -0.312 OA
ATOM     19  H   UNL     1      -2.317  -0.782   1.796  1.00  0.00     0.238 HD
ENDBRANCH  12  18
BRANCH   3  20
ATOM     20  O   UNL     1       1.658   1.941   0.409  1.00  0.00    -0.364 OA
ATOM     21  H   UNL     1       2.586   1.883   0.130  1.00  0.00     0.214 HD
ENDBRANCH   3  20
BRANCH   3  22
ATOM     22  C   UNL     1       1.007   2.992  -1.669  1.00  0.00     0.044 C 
ATOM     23  C   UNL     1       0.263   2.883  -3.005  1.00  0.00     0.013 C 
ATOM     24  C   UNL     1       2.473   3.350  -1.974  1.00  0.00     0.013 C 
ENDBRANCH   3  22
TORSDOF 5
