REMARK SMILES O=C(N/N=C/c1c[nH]c2ccccc12)c1cc(-c2ccc(OCCc3ccccc3)cc2)[nH]n1
REMARK SMILES IDX 18 1 19 2 20 3 21 4 31 5 32 6 17 7 15 8 16 9 34 10 33 11
REMARK SMILES IDX 2 13 1 14 3 15 4 17 5 18 6 19 7 20 14 21 8 22 13 23 9 24
REMARK SMILES IDX 12 25 10 26 11 27 22 29 23 30 24 31 25 32 26 33 30 34 27 35
REMARK SMILES IDX 29 36 28 37
REMARK H PARENT 33 12 3 16 8 28
ROOT
ATOM      1  C   UNL     1      -1.032   1.653   1.492  1.00  0.00    -0.000 A 
ATOM      2  C   UNL     1      -2.211   0.897   1.444  1.00  0.00     0.014 A 
ATOM      3  C   UNL     1      -3.306   1.211   2.260  1.00  0.00     0.047 A 
ATOM      4  C   UNL     1      -3.242   2.292   3.135  1.00  0.00     0.119 A 
ATOM      5  C   UNL     1      -2.072   3.051   3.186  1.00  0.00     0.047 A 
ATOM      6  C   UNL     1      -0.977   2.740   2.372  1.00  0.00     0.014 A 
ENDROOT
BRANCH   1   7
ATOM      7  C   UNL     1       0.100   1.306   0.636  1.00  0.00     0.066 A 
ATOM      8  C   UNL     1       1.535   0.610  -0.936  1.00  0.00     0.152 A 
ATOM      9  C   UNL     1       0.160   0.702  -0.604  1.00  0.00     0.064 A 
ATOM     10  N   UNL     1       2.303   1.123   0.048  1.00  0.00    -0.170 NA
ATOM     11  N   UNL     1       1.411   1.521   0.975  1.00  0.00    -0.277 N 
ATOM     12  H   UNL     1       1.764   1.925   1.836  1.00  0.00     0.190 HD
BRANCH   8  13
ATOM     13  C   UNL     1       2.113   0.043  -2.166  1.00  0.00     0.291 C 
ATOM     14  O   UNL     1       1.417  -0.431  -3.060  1.00  0.00    -0.265 OA
ATOM     15  N   UNL     1       3.496   0.118  -2.165  1.00  0.00    -0.242 N 
ATOM     16  H   UNL     1       3.929   0.539  -1.346  1.00  0.00     0.194 HD
BRANCH  15  17
ATOM     17  N   UNL     1       4.237  -0.352  -3.208  1.00  0.00    -0.180 NA
ATOM     18  C   UNL     1       5.517  -0.222  -3.081  1.00  0.00     0.143 C 
BRANCH  18  19
ATOM     19  C   UNL     1       6.403  -0.686  -4.129  1.00  0.00     0.020 A 
ATOM     20  C   UNL     1       7.781  -0.583  -4.066  1.00  0.00     0.093 A 
ATOM     21  C   UNL     1       6.092  -1.313  -5.381  1.00  0.00     0.008 A 
ATOM     22  N   UNL     1       8.307  -1.115  -5.213  1.00  0.00    -0.361 N 
ATOM     23  C   UNL     1       4.896  -1.692  -6.028  1.00  0.00     0.011 A 
ATOM     24  C   UNL     1       7.301  -1.568  -6.033  1.00  0.00     0.046 A 
ATOM     25  C   UNL     1       4.950  -2.303  -7.286  1.00  0.00     0.001 A 
ATOM     26  C   UNL     1       7.373  -2.178  -7.291  1.00  0.00     0.027 A 
ATOM     27  C   UNL     1       6.172  -2.541  -7.907  1.00  0.00     0.002 A 
ATOM     28  H   UNL     1       9.291  -1.171  -5.434  1.00  0.00     0.166 HD
ENDBRANCH  18  19
ENDBRANCH  15  17
ENDBRANCH   8  13
ENDBRANCH   1   7
BRANCH   4  29
ATOM     29  O   UNL     1      -4.224   2.708   3.988  1.00  0.00    -0.493 OA
BRANCH  29  30
ATOM     30  C   UNL     1      -5.495   2.055   3.946  1.00  0.00     0.234 C 
BRANCH  30  31
ATOM     31  C   UNL     1      -5.512   0.844   4.879  1.00  0.00     0.077 C 
BRANCH  31  32
ATOM     32  C   UNL     1      -6.847   0.144   4.869  1.00  0.00    -0.045 A 
ATOM     33  C   UNL     1      -7.874   0.562   5.726  1.00  0.00     0.004 A 
ATOM     34  C   UNL     1      -7.088  -0.913   3.982  1.00  0.00     0.004 A 
ATOM     35  C   UNL     1      -9.117  -0.072   5.700  1.00  0.00     0.000 A 
ATOM     36  C   UNL     1      -8.332  -1.546   3.958  1.00  0.00     0.000 A 
ATOM     37  C   UNL     1      -9.346  -1.125   4.817  1.00  0.00     0.000 A 
ENDBRANCH  31  32
ENDBRANCH  30  31
ENDBRANCH  29  30
ENDBRANCH   4  29
TORSDOF 8
