MODEL 1
REMARK VINA RESULT:    -6.667      0.000      0.000
REMARK INTER + INTRA:         -12.239
REMARK INTER:                 -10.565
REMARK INTRA:                  -1.674
REMARK UNBOUND:                -1.674
REMARK SMILES CCCN(C(=O)[C@H](C)Sc1nnc(-c2cccs2)n1CC(N)=O)[C@@H]1CCS(=O)(=O)C1
REMARK SMILES IDX 7 1 8 2 5 3 6 4 4 5 3 6 2 7 1 8 24 9 25 10 30 11 26 12 27 13
REMARK SMILES IDX 28 14 29 15 9 16 10 17 11 18 19 19 12 20 13 21 20 22 21 23
REMARK SMILES IDX 22 24 23 25 14 28 15 29 18 30 16 31 17 32
REMARK H PARENT 22 26 22 27
ROOT
ATOM      1  C   UNL     1      13.262 -25.408 -42.913  1.00  0.00     0.141 C 
ATOM      2  C   UNL     1      12.803 -26.286 -41.756  1.00  0.00     0.030 C 
ENDROOT
BRANCH   1   3
ATOM      3  C   UNL     1      14.793 -25.497 -43.063  1.00  0.00     0.236 C 
ATOM      4  O   UNL     1      15.289 -26.163 -43.982  1.00  0.00    -0.274 OA
BRANCH   3   5
ATOM      5  N   UNL     1      15.613 -24.819 -42.148  1.00  0.00    -0.338 N 
BRANCH   5   6
ATOM      6  C   UNL     1      16.002 -25.585 -40.951  1.00  0.00     0.119 C 
BRANCH   6   7
ATOM      7  C   UNL     1      16.023 -24.729 -39.679  1.00  0.00     0.018 C 
ATOM      8  C   UNL     1      14.621 -24.297 -39.279  1.00  0.00     0.006 C 
ENDBRANCH   6   7
ENDBRANCH   5   6
BRANCH   5   9
ATOM      9  C   UNL     1      16.201 -23.477 -42.392  1.00  0.00     0.101 C 
ATOM     10  C   UNL     1      15.315 -22.553 -43.242  1.00  0.00     0.042 C 
ATOM     11  C   UNL     1      17.619 -23.476 -42.978  1.00  0.00     0.162 C 
ATOM     12  C   UNL     1      15.721 -22.711 -44.697  1.00  0.00     0.139 C 
ATOM     13  S   UNL     1      17.485 -22.924 -44.665  1.00  0.00     0.152 S 
ATOM     14  O   UNL     1      18.105 -21.619 -44.764  1.00  0.00    -0.229 OA
ATOM     15  O   UNL     1      17.841 -24.014 -45.548  1.00  0.00    -0.229 OA
ENDBRANCH   5   9
ENDBRANCH   3   5
ENDBRANCH   1   3
BRANCH   1  16
ATOM     16  S   UNL     1      12.457 -25.973 -44.471  1.00  0.00    -0.073 SA
BRANCH  16  17
ATOM     17  C   UNL     1      12.417 -24.462 -45.313  1.00  0.00     0.192 A 
ATOM     18  N   UNL     1      12.185 -23.302 -44.749  1.00  0.00    -0.123 NA
ATOM     19  N   UNL     1      12.726 -24.291 -46.636  1.00  0.00    -0.292 N 
ATOM     20  N   UNL     1      12.331 -22.339 -45.712  1.00  0.00    -0.128 NA
ATOM     21  C   UNL     1      12.614 -22.934 -46.856  1.00  0.00     0.175 A 
BRANCH  19  22
ATOM     22  C   UNL     1      13.180 -25.300 -47.568  1.00  0.00     0.226 C 
BRANCH  22  23
ATOM     23  C   UNL     1      12.069 -25.806 -48.459  1.00  0.00     0.237 C 
ATOM     24  N   UNL     1      10.822 -25.875 -47.910  1.00  0.00    -0.368 N 
ATOM     25  O   UNL     1      12.242 -26.108 -49.636  1.00  0.00    -0.273 OA
ATOM     26  H   UNL     1      10.099 -26.289 -48.484  1.00  0.00     0.159 HD
ATOM     27  H   UNL     1      10.657 -25.933 -46.903  1.00  0.00     0.159 HD
ENDBRANCH  22  23
ENDBRANCH  19  22
BRANCH  21  28
ATOM     28  C   UNL     1      12.828 -22.215 -48.075  1.00  0.00     0.072 A 
ATOM     29  C   UNL     1      13.980 -21.536 -48.423  1.00  0.00     0.024 A 
ATOM     30  S   UNL     1      11.606 -22.012 -49.257  1.00  0.00    -0.140 S 
ATOM     31  C   UNL     1      13.875 -20.896 -49.693  1.00  0.00     0.012 A 
ATOM     32  C   UNL     1      12.634 -21.084 -50.260  1.00  0.00     0.065 A 
ENDBRANCH  21  28
ENDBRANCH  16  17
ENDBRANCH   1  16
TORSDOF 10
ENDMDL
MODEL 2
REMARK VINA RESULT:    -6.494      2.941      8.560
REMARK INTER + INTRA:         -11.964
REMARK INTER:                 -10.492
REMARK INTRA:                  -1.471
REMARK UNBOUND:                -1.674
REMARK SMILES CCCN(C(=O)[C@H](C)Sc1nnc(-c2cccs2)n1CC(N)=O)[C@@H]1CCS(=O)(=O)C1
REMARK SMILES IDX 7 1 8 2 5 3 6 4 4 5 3 6 2 7 1 8 24 9 25 10 30 11 26 12 27 13
REMARK SMILES IDX 28 14 29 15 9 16 10 17 11 18 19 19 12 20 13 21 20 22 21 23
REMARK SMILES IDX 22 24 23 25 14 28 15 29 18 30 16 31 17 32
REMARK H PARENT 22 26 22 27
ROOT
ATOM      1  C   UNL     1      12.305 -22.302 -48.130  1.00  0.00     0.141 C 
ATOM      2  C   UNL     1      12.497 -21.276 -49.239  1.00  0.00     0.030 C 
ENDROOT
BRANCH   1   3
ATOM      3  C   UNL     1      12.034 -23.690 -48.740  1.00  0.00     0.236 C 
ATOM      4  O   UNL     1      12.891 -24.581 -48.661  1.00  0.00    -0.274 OA
BRANCH   3   5
ATOM      5  N   UNL     1      10.810 -23.930 -49.385  1.00  0.00    -0.338 N 
BRANCH   5   6
ATOM      6  C   UNL     1      10.905 -24.514 -50.735  1.00  0.00     0.119 C 
BRANCH   6   7
ATOM      7  C   UNL     1      11.167 -23.462 -51.819  1.00  0.00     0.018 C 
ATOM      8  C   UNL     1      11.178 -24.086 -53.205  1.00  0.00     0.006 C 
ENDBRANCH   6   7
ENDBRANCH   5   6
BRANCH   5   9
ATOM      9  C   UNL     1       9.482 -23.767 -48.740  1.00  0.00     0.101 C 
ATOM     10  C   UNL     1       9.190 -24.803 -47.644  1.00  0.00     0.042 C 
ATOM     11  C   UNL     1       8.286 -23.714 -49.700  1.00  0.00     0.162 C 
ATOM     12  C   UNL     1       8.452 -25.970 -48.277  1.00  0.00     0.139 C 
ATOM     13  S   UNL     1       7.389 -25.238 -49.498  1.00  0.00     0.152 S 
ATOM     14  O   UNL     1       6.117 -24.934 -48.875  1.00  0.00    -0.229 OA
ATOM     15  O   UNL     1       7.483 -26.006 -50.721  1.00  0.00    -0.229 OA
ENDBRANCH   5   9
ENDBRANCH   3   5
ENDBRANCH   1   3
BRANCH   1  16
ATOM     16  S   UNL     1      13.823 -22.374 -47.088  1.00  0.00    -0.073 SA
BRANCH  16  17
ATOM     17  C   UNL     1      13.118 -22.983 -45.631  1.00  0.00     0.192 A 
ATOM     18  N   UNL     1      11.831 -23.012 -45.383  1.00  0.00    -0.123 NA
ATOM     19  N   UNL     1      13.809 -23.597 -44.621  1.00  0.00    -0.292 N 
ATOM     20  N   UNL     1      11.658 -23.648 -44.181  1.00  0.00    -0.128 NA
ATOM     21  C   UNL     1      12.847 -23.962 -43.702  1.00  0.00     0.175 A 
BRANCH  19  22
ATOM     22  C   UNL     1      15.223 -23.897 -44.581  1.00  0.00     0.226 C 
BRANCH  22  23
ATOM     23  C   UNL     1      16.041 -22.756 -44.021  1.00  0.00     0.237 C 
ATOM     24  N   UNL     1      16.748 -22.008 -44.916  1.00  0.00    -0.368 N 
ATOM     25  O   UNL     1      16.055 -22.467 -42.829  1.00  0.00    -0.273 OA
ATOM     26  H   UNL     1      17.356 -21.297 -44.529  1.00  0.00     0.159 HD
ATOM     27  H   UNL     1      17.022 -22.352 -45.839  1.00  0.00     0.159 HD
ENDBRANCH  22  23
ENDBRANCH  19  22
BRANCH  21  28
ATOM     28  C   UNL     1      13.028 -24.638 -42.453  1.00  0.00     0.072 A 
ATOM     29  C   UNL     1      13.275 -24.036 -41.234  1.00  0.00     0.024 A 
ATOM     30  S   UNL     1      13.061 -26.345 -42.320  1.00  0.00    -0.140 S 
ATOM     31  C   UNL     1      13.434 -24.982 -40.179  1.00  0.00     0.012 A 
ATOM     32  C   UNL     1      13.331 -26.277 -40.633  1.00  0.00     0.065 A 
ENDBRANCH  21  28
ENDBRANCH  16  17
ENDBRANCH   1  16
TORSDOF 10
ENDMDL
MODEL 3
REMARK VINA RESULT:    -6.432      2.417      7.839
REMARK INTER + INTRA:         -11.865
REMARK INTER:                 -11.299
REMARK INTRA:                  -0.567
REMARK UNBOUND:                -1.674
REMARK SMILES CCCN(C(=O)[C@H](C)Sc1nnc(-c2cccs2)n1CC(N)=O)[C@@H]1CCS(=O)(=O)C1
REMARK SMILES IDX 7 1 8 2 5 3 6 4 4 5 3 6 2 7 1 8 24 9 25 10 30 11 26 12 27 13
REMARK SMILES IDX 28 14 29 15 9 16 10 17 11 18 19 19 12 20 13 21 20 22 21 23
REMARK SMILES IDX 22 24 23 25 14 28 15 29 18 30 16 31 17 32
REMARK H PARENT 22 26 22 27
ROOT
ATOM      1  C   UNL     1      14.375 -23.039 -46.189  1.00  0.00     0.141 C 
ATOM      2  C   UNL     1      15.355 -22.576 -47.258  1.00  0.00     0.030 C 
ENDROOT
BRANCH   1   3
ATOM      3  C   UNL     1      12.944 -22.615 -46.569  1.00  0.00     0.236 C 
ATOM      4  O   UNL     1      12.044 -22.636 -45.719  1.00  0.00    -0.274 OA
BRANCH   3   5
ATOM      5  N   UNL     1      12.676 -22.208 -47.886  1.00  0.00    -0.338 N 
BRANCH   5   6
ATOM      6  C   UNL     1      13.038 -20.817 -48.209  1.00  0.00     0.119 C 
BRANCH   6   7
ATOM      7  C   UNL     1      13.893 -20.705 -49.477  1.00  0.00     0.018 C 
ATOM      8  C   UNL     1      13.178 -19.915 -50.560  1.00  0.00     0.006 C 
ENDBRANCH   6   7
ENDBRANCH   5   6
BRANCH   5   9
ATOM      9  C   UNL     1      12.202 -23.118 -48.959  1.00  0.00     0.101 C 
ATOM     10  C   UNL     1      10.800 -22.780 -49.490  1.00  0.00     0.042 C 
ATOM     11  C   UNL     1      12.254 -24.615 -48.625  1.00  0.00     0.162 C 
ATOM     12  C   UNL     1       9.785 -23.595 -48.706  1.00  0.00     0.139 C 
ATOM     13  S   UNL     1      10.572 -25.161 -48.418  1.00  0.00     0.152 S 
ATOM     14  O   UNL     1      10.247 -26.046 -49.518  1.00  0.00    -0.229 OA
ATOM     15  O   UNL     1      10.366 -25.542 -47.037  1.00  0.00    -0.229 OA
ENDBRANCH   5   9
ENDBRANCH   3   5
ENDBRANCH   1   3
BRANCH   1  16
ATOM     16  S   UNL     1      14.453 -24.874 -46.035  1.00  0.00    -0.073 SA
BRANCH  16  17
ATOM     17  C   UNL     1      13.850 -25.033 -44.422  1.00  0.00     0.192 A 
ATOM     18  N   UNL     1      12.661 -25.489 -44.114  1.00  0.00    -0.123 NA
ATOM     19  N   UNL     1      14.577 -24.802 -43.285  1.00  0.00    -0.292 N 
ATOM     20  N   UNL     1      12.586 -25.556 -42.748  1.00  0.00    -0.128 NA
ATOM     21  C   UNL     1      13.720 -25.104 -42.247  1.00  0.00     0.175 A 
BRANCH  19  22
ATOM     22  C   UNL     1      15.972 -24.432 -43.196  1.00  0.00     0.226 C 
BRANCH  22  23
ATOM     23  C   UNL     1      16.165 -23.019 -42.693  1.00  0.00     0.237 C 
ATOM     24  N   UNL     1      15.548 -22.026 -43.395  1.00  0.00    -0.368 N 
ATOM     25  O   UNL     1      16.806 -22.752 -41.681  1.00  0.00    -0.273 OA
ATOM     26  H   UNL     1      15.745 -21.078 -43.102  1.00  0.00     0.159 HD
ATOM     27  H   UNL     1      15.266 -22.125 -44.373  1.00  0.00     0.159 HD
ENDBRANCH  22  23
ENDBRANCH  19  22
BRANCH  21  28
ATOM     28  C   UNL     1      13.976 -25.034 -40.840  1.00  0.00     0.072 A 
ATOM     29  C   UNL     1      13.392 -24.150 -39.953  1.00  0.00     0.024 A 
ATOM     30  S   UNL     1      15.153 -26.006 -40.063  1.00  0.00    -0.140 S 
ATOM     31  C   UNL     1      13.873 -24.313 -38.621  1.00  0.00     0.012 A 
ATOM     32  C   UNL     1      14.831 -25.299 -38.540  1.00  0.00     0.065 A 
ENDBRANCH  21  28
ENDBRANCH  16  17
ENDBRANCH   1  16
TORSDOF 10
ENDMDL
MODEL 4
REMARK VINA RESULT:    -6.234      2.272      3.072
REMARK INTER + INTRA:         -11.553
REMARK INTER:                 -10.505
REMARK INTRA:                  -1.047
REMARK UNBOUND:                -1.674
REMARK SMILES CCCN(C(=O)[C@H](C)Sc1nnc(-c2cccs2)n1CC(N)=O)[C@@H]1CCS(=O)(=O)C1
REMARK SMILES IDX 7 1 8 2 5 3 6 4 4 5 3 6 2 7 1 8 24 9 25 10 30 11 26 12 27 13
REMARK SMILES IDX 28 14 29 15 9 16 10 17 11 18 19 19 12 20 13 21 20 22 21 23
REMARK SMILES IDX 22 24 23 25 14 28 15 29 18 30 16 31 17 32
REMARK H PARENT 22 26 22 27
ROOT
ATOM      1  C   UNL     1      13.674 -25.478 -45.012  1.00  0.00     0.141 C 
ATOM      2  C   UNL     1      13.786 -26.141 -46.378  1.00  0.00     0.030 C 
ENDROOT
BRANCH   1   3
ATOM      3  C   UNL     1      15.056 -25.441 -44.332  1.00  0.00     0.236 C 
ATOM      4  O   UNL     1      16.035 -25.957 -44.889  1.00  0.00    -0.274 OA
BRANCH   3   5
ATOM      5  N   UNL     1      15.189 -24.819 -43.081  1.00  0.00    -0.338 N 
BRANCH   5   6
ATOM      6  C   UNL     1      14.415 -25.424 -41.983  1.00  0.00     0.119 C 
BRANCH   6   7
ATOM      7  C   UNL     1      13.293 -24.511 -41.475  1.00  0.00     0.018 C 
ATOM      8  C   UNL     1      13.298 -24.418 -39.958  1.00  0.00     0.006 C 
ENDBRANCH   6   7
ENDBRANCH   5   6
BRANCH   5   9
ATOM      9  C   UNL     1      16.146 -23.720 -42.794  1.00  0.00     0.101 C 
ATOM     10  C   UNL     1      15.671 -22.339 -43.272  1.00  0.00     0.042 C 
ATOM     11  C   UNL     1      17.579 -23.948 -43.292  1.00  0.00     0.162 C 
ATOM     12  C   UNL     1      16.219 -22.104 -44.669  1.00  0.00     0.139 C 
ATOM     13  S   UNL     1      17.837 -22.838 -44.661  1.00  0.00     0.152 S 
ATOM     14  O   UNL     1      18.795 -21.832 -44.252  1.00  0.00    -0.229 OA
ATOM     15  O   UNL     1      18.005 -23.614 -45.872  1.00  0.00    -0.229 OA
ENDBRANCH   5   9
ENDBRANCH   3   5
ENDBRANCH   1   3
BRANCH   1  16
ATOM     16  S   UNL     1      13.040 -23.760 -45.212  1.00  0.00    -0.073 SA
BRANCH  16  17
ATOM     17  C   UNL     1      11.780 -24.072 -46.356  1.00  0.00     0.192 A 
ATOM     18  N   UNL     1      10.653 -24.677 -46.073  1.00  0.00    -0.123 NA
ATOM     19  N   UNL     1      11.770 -23.633 -47.652  1.00  0.00    -0.292 N 
ATOM     20  N   UNL     1       9.877 -24.651 -47.202  1.00  0.00    -0.128 NA
ATOM     21  C   UNL     1      10.563 -24.062 -48.164  1.00  0.00     0.175 A 
BRANCH  19  22
ATOM     22  C   UNL     1      12.758 -22.803 -48.306  1.00  0.00     0.226 C 
BRANCH  22  23
ATOM     23  C   UNL     1      12.376 -21.340 -48.306  1.00  0.00     0.237 C 
ATOM     24  N   UNL     1      12.762 -20.603 -47.225  1.00  0.00    -0.368 N 
ATOM     25  O   UNL     1      11.783 -20.805 -49.237  1.00  0.00    -0.273 OA
ATOM     26  H   UNL     1      12.435 -19.646 -47.192  1.00  0.00     0.159 HD
ATOM     27  H   UNL     1      12.977 -21.015 -46.315  1.00  0.00     0.159 HD
ENDBRANCH  22  23
ENDBRANCH  19  22
BRANCH  21  28
ATOM     28  C   UNL     1      10.044 -23.871 -49.485  1.00  0.00     0.072 A 
ATOM     29  C   UNL     1       8.821 -23.311 -49.801  1.00  0.00     0.024 A 
ATOM     30  S   UNL     1      10.855 -24.423 -50.888  1.00  0.00    -0.140 S 
ATOM     31  C   UNL     1       8.579 -23.283 -51.206  1.00  0.00     0.012 A 
ATOM     32  C   UNL     1       9.613 -23.851 -51.915  1.00  0.00     0.065 A 
ENDBRANCH  21  28
ENDBRANCH  16  17
ENDBRANCH   1  16
TORSDOF 10
ENDMDL
MODEL 5
REMARK VINA RESULT:    -6.215      3.295      8.392
REMARK INTER + INTRA:         -11.523
REMARK INTER:                 -10.012
REMARK INTRA:                  -1.510
REMARK UNBOUND:                -1.674
REMARK SMILES CCCN(C(=O)[C@H](C)Sc1nnc(-c2cccs2)n1CC(N)=O)[C@@H]1CCS(=O)(=O)C1
REMARK SMILES IDX 7 1 8 2 5 3 6 4 4 5 3 6 2 7 1 8 24 9 25 10 30 11 26 12 27 13
REMARK SMILES IDX 28 14 29 15 9 16 10 17 11 18 19 19 12 20 13 21 20 22 21 23
REMARK SMILES IDX 22 24 23 25 14 28 15 29 18 30 16 31 17 32
REMARK H PARENT 22 26 22 27
ROOT
ATOM      1  C   UNL     1      11.601 -22.898 -48.782  1.00  0.00     0.141 C 
ATOM      2  C   UNL     1      11.489 -21.786 -49.817  1.00  0.00     0.030 C 
ENDROOT
BRANCH   1   3
ATOM      3  C   UNL     1      11.103 -24.225 -49.383  1.00  0.00     0.236 C 
ATOM      4  O   UNL     1      11.902 -24.995 -49.935  1.00  0.00    -0.274 OA
BRANCH   3   5
ATOM      5  N   UNL     1       9.740 -24.550 -49.298  1.00  0.00    -0.338 N 
BRANCH   5   6
ATOM      6  C   UNL     1       9.164 -24.531 -47.942  1.00  0.00     0.119 C 
BRANCH   6   7
ATOM      7  C   UNL     1       9.290 -25.881 -47.226  1.00  0.00     0.018 C 
ATOM      8  C   UNL     1      10.521 -25.923 -46.335  1.00  0.00     0.006 C 
ENDBRANCH   6   7
ENDBRANCH   5   6
BRANCH   5   9
ATOM      9  C   UNL     1       8.859 -24.757 -50.475  1.00  0.00     0.101 C 
ATOM     10  C   UNL     1       8.759 -23.535 -51.402  1.00  0.00     0.042 C 
ATOM     11  C   UNL     1       7.441 -25.251 -50.158  1.00  0.00     0.162 C 
ATOM     12  C   UNL     1       7.559 -22.709 -50.973  1.00  0.00     0.139 C 
ATOM     13  S   UNL     1       6.333 -23.895 -50.478  1.00  0.00     0.152 S 
ATOM     14  O   UNL     1       5.528 -24.233 -51.634  1.00  0.00    -0.229 OA
ATOM     15  O   UNL     1       5.742 -23.464 -49.228  1.00  0.00    -0.229 OA
ENDBRANCH   5   9
ENDBRANCH   3   5
ENDBRANCH   1   3
BRANCH   1  16
ATOM     16  S   UNL     1      13.358 -23.078 -48.260  1.00  0.00    -0.073 SA
BRANCH  16  17
ATOM     17  C   UNL     1      13.120 -23.173 -46.549  1.00  0.00     0.192 A 
ATOM     18  N   UNL     1      12.047 -22.758 -45.923  1.00  0.00    -0.123 NA
ATOM     19  N   UNL     1      13.974 -23.785 -45.670  1.00  0.00    -0.292 N 
ATOM     20  N   UNL     1      12.187 -23.088 -44.601  1.00  0.00    -0.128 NA
ATOM     21  C   UNL     1      13.362 -23.667 -44.439  1.00  0.00     0.175 A 
BRANCH  19  22
ATOM     22  C   UNL     1      15.193 -24.498 -45.982  1.00  0.00     0.226 C 
BRANCH  22  23
ATOM     23  C   UNL     1      16.411 -23.603 -45.947  1.00  0.00     0.237 C 
ATOM     24  N   UNL     1      17.626 -24.212 -46.069  1.00  0.00    -0.368 N 
ATOM     25  O   UNL     1      16.340 -22.382 -45.855  1.00  0.00    -0.273 OA
ATOM     26  H   UNL     1      18.439 -23.620 -45.964  1.00  0.00     0.159 HD
ATOM     27  H   UNL     1      17.781 -25.199 -45.850  1.00  0.00     0.159 HD
ENDBRANCH  22  23
ENDBRANCH  19  22
BRANCH  21  28
ATOM     28  C   UNL     1      13.830 -24.136 -43.170  1.00  0.00     0.072 A 
ATOM     29  C   UNL     1      14.990 -23.737 -42.536  1.00  0.00     0.024 A 
ATOM     30  S   UNL     1      13.034 -25.370 -42.288  1.00  0.00    -0.140 S 
ATOM     31  C   UNL     1      15.194 -24.406 -41.294  1.00  0.00     0.012 A 
ATOM     32  C   UNL     1      14.195 -25.317 -41.034  1.00  0.00     0.065 A 
ENDBRANCH  21  28
ENDBRANCH  16  17
ENDBRANCH   1  16
TORSDOF 10
ENDMDL
MODEL 6
REMARK VINA RESULT:    -6.164      2.986      8.209
REMARK INTER + INTRA:         -11.442
REMARK INTER:                  -9.713
REMARK INTRA:                  -1.729
REMARK UNBOUND:                -1.674
REMARK SMILES CCCN(C(=O)[C@H](C)Sc1nnc(-c2cccs2)n1CC(N)=O)[C@@H]1CCS(=O)(=O)C1
REMARK SMILES IDX 7 1 8 2 5 3 6 4 4 5 3 6 2 7 1 8 24 9 25 10 30 11 26 12 27 13
REMARK SMILES IDX 28 14 29 15 9 16 10 17 11 18 19 19 12 20 13 21 20 22 21 23
REMARK SMILES IDX 22 24 23 25 14 28 15 29 18 30 16 31 17 32
REMARK H PARENT 22 26 22 27
ROOT
ATOM      1  C   UNL     1      11.699 -22.681 -48.773  1.00  0.00     0.141 C 
ATOM      2  C   UNL     1      11.799 -21.589 -49.830  1.00  0.00     0.030 C 
ENDROOT
BRANCH   1   3
ATOM      3  C   UNL     1      11.000 -23.920 -49.362  1.00  0.00     0.236 C 
ATOM      4  O   UNL     1      11.618 -24.678 -50.123  1.00  0.00    -0.274 OA
BRANCH   3   5
ATOM      5  N   UNL     1       9.660 -24.176 -49.030  1.00  0.00    -0.338 N 
BRANCH   5   6
ATOM      6  C   UNL     1       9.413 -24.548 -47.626  1.00  0.00     0.119 C 
BRANCH   6   7
ATOM      7  C   UNL     1       9.710 -26.025 -47.342  1.00  0.00     0.018 C 
ATOM      8  C   UNL     1      10.823 -26.179 -46.318  1.00  0.00     0.006 C 
ENDBRANCH   6   7
ENDBRANCH   5   6
BRANCH   5   9
ATOM      9  C   UNL     1       8.517 -23.956 -49.951  1.00  0.00     0.101 C 
ATOM     10  C   UNL     1       7.887 -25.253 -50.484  1.00  0.00     0.042 C 
ATOM     11  C   UNL     1       8.795 -23.021 -51.135  1.00  0.00     0.162 C 
ATOM     12  C   UNL     1       8.551 -25.596 -51.806  1.00  0.00     0.139 C 
ATOM     13  S   UNL     1       8.840 -24.033 -52.599  1.00  0.00     0.152 S 
ATOM     14  O   UNL     1       7.684 -23.709 -53.408  1.00  0.00    -0.229 OA
ATOM     15  O   UNL     1      10.184 -24.023 -53.138  1.00  0.00    -0.229 OA
ENDBRANCH   5   9
ENDBRANCH   3   5
ENDBRANCH   1   3
BRANCH   1  16
ATOM     16  S   UNL     1      13.389 -23.141 -48.201  1.00  0.00    -0.073 SA
BRANCH  16  17
ATOM     17  C   UNL     1      13.081 -23.230 -46.501  1.00  0.00     0.192 A 
ATOM     18  N   UNL     1      12.017 -22.743 -45.912  1.00  0.00    -0.123 NA
ATOM     19  N   UNL     1      13.856 -23.905 -45.597  1.00  0.00    -0.292 N 
ATOM     20  N   UNL     1      12.084 -23.090 -44.588  1.00  0.00    -0.128 NA
ATOM     21  C   UNL     1      13.209 -23.752 -44.389  1.00  0.00     0.175 A 
BRANCH  19  22
ATOM     22  C   UNL     1      15.033 -24.701 -45.871  1.00  0.00     0.226 C 
BRANCH  22  23
ATOM     23  C   UNL     1      16.301 -23.878 -45.870  1.00  0.00     0.237 C 
ATOM     24  N   UNL     1      17.477 -24.558 -45.987  1.00  0.00    -0.368 N 
ATOM     25  O   UNL     1      16.301 -22.652 -45.809  1.00  0.00    -0.273 OA
ATOM     26  H   UNL     1      18.324 -24.011 -45.905  1.00  0.00     0.159 HD
ATOM     27  H   UNL     1      17.578 -25.546 -45.744  1.00  0.00     0.159 HD
ENDBRANCH  22  23
ENDBRANCH  19  22
BRANCH  21  28
ATOM     28  C   UNL     1      13.595 -24.261 -43.107  1.00  0.00     0.072 A 
ATOM     29  C   UNL     1      12.831 -25.078 -42.297  1.00  0.00     0.024 A 
ATOM     30  S   UNL     1      15.064 -23.828 -42.342  1.00  0.00    -0.140 S 
ATOM     31  C   UNL     1      13.482 -25.394 -41.069  1.00  0.00     0.012 A 
ATOM     32  C   UNL     1      14.712 -24.784 -40.969  1.00  0.00     0.065 A 
ENDBRANCH  21  28
ENDBRANCH  16  17
ENDBRANCH   1  16
TORSDOF 10
ENDMDL
MODEL 7
REMARK VINA RESULT:    -6.131      3.420      5.105
REMARK INTER + INTRA:         -11.390
REMARK INTER:                  -9.953
REMARK INTRA:                  -1.436
REMARK UNBOUND:                -1.674
REMARK SMILES CCCN(C(=O)[C@H](C)Sc1nnc(-c2cccs2)n1CC(N)=O)[C@@H]1CCS(=O)(=O)C1
REMARK SMILES IDX 7 1 8 2 5 3 6 4 4 5 3 6 2 7 1 8 24 9 25 10 30 11 26 12 27 13
REMARK SMILES IDX 28 14 29 15 9 16 10 17 11 18 19 19 12 20 13 21 20 22 21 23
REMARK SMILES IDX 22 24 23 25 14 28 15 29 18 30 16 31 17 32
REMARK H PARENT 22 26 22 27
ROOT
ATOM      1  C   UNL     1      12.721 -24.742 -46.535  1.00  0.00     0.141 C 
ATOM      2  C   UNL     1      12.454 -25.982 -45.693  1.00  0.00     0.030 C 
ENDROOT
BRANCH   1   3
ATOM      3  C   UNL     1      14.181 -24.288 -46.352  1.00  0.00     0.236 C 
ATOM      4  O   UNL     1      15.106 -25.103 -46.482  1.00  0.00    -0.274 OA
BRANCH   3   5
ATOM      5  N   UNL     1      14.449 -22.947 -46.036  1.00  0.00    -0.338 N 
BRANCH   5   6
ATOM      6  C   UNL     1      13.957 -21.954 -47.007  1.00  0.00     0.119 C 
BRANCH   6   7
ATOM      7  C   UNL     1      14.769 -21.941 -48.307  1.00  0.00     0.018 C 
ATOM      8  C   UNL     1      14.051 -21.169 -49.402  1.00  0.00     0.006 C 
ENDBRANCH   6   7
ENDBRANCH   5   6
BRANCH   5   9
ATOM      9  C   UNL     1      15.049 -22.496 -44.755  1.00  0.00     0.101 C 
ATOM     10  C   UNL     1      16.528 -22.094 -44.866  1.00  0.00     0.042 C 
ATOM     11  C   UNL     1      14.889 -23.465 -43.576  1.00  0.00     0.162 C 
ATOM     12  C   UNL     1      17.378 -23.310 -44.538  1.00  0.00     0.139 C 
ATOM     13  S   UNL     1      16.497 -24.156 -43.248  1.00  0.00     0.152 S 
ATOM     14  O   UNL     1      16.954 -23.648 -41.971  1.00  0.00    -0.229 OA
ATOM     15  O   UNL     1      16.472 -25.572 -43.549  1.00  0.00    -0.229 OA
ENDBRANCH   5   9
ENDBRANCH   3   5
ENDBRANCH   1   3
BRANCH   1  16
ATOM     16  S   UNL     1      12.415 -25.127 -48.311  1.00  0.00    -0.073 SA
BRANCH  16  17
ATOM     17  C   UNL     1      10.787 -24.554 -48.431  1.00  0.00     0.192 A 
ATOM     18  N   UNL     1      10.119 -24.001 -47.448  1.00  0.00    -0.123 NA
ATOM     19  N   UNL     1      10.051 -24.515 -49.585  1.00  0.00    -0.292 N 
ATOM     20  N   UNL     1       8.910 -23.593 -47.950  1.00  0.00    -0.128 NA
ATOM     21  C   UNL     1       8.851 -23.939 -49.223  1.00  0.00     0.175 A 
BRANCH  19  22
ATOM     22  C   UNL     1      10.482 -24.890 -50.914  1.00  0.00     0.226 C 
BRANCH  22  23
ATOM     23  C   UNL     1      11.004 -23.714 -51.707  1.00  0.00     0.237 C 
ATOM     24  N   UNL     1      11.166 -23.899 -53.048  1.00  0.00    -0.368 N 
ATOM     25  O   UNL     1      11.239 -22.620 -51.202  1.00  0.00    -0.273 OA
ATOM     26  H   UNL     1      11.591 -23.137 -53.560  1.00  0.00     0.159 HD
ATOM     27  H   UNL     1      11.282 -24.821 -53.475  1.00  0.00     0.159 HD
ENDBRANCH  22  23
ENDBRANCH  19  22
BRANCH  21  28
ATOM     28  C   UNL     1       7.716 -23.663 -50.051  1.00  0.00     0.072 A 
ATOM     29  C   UNL     1       7.608 -22.625 -50.957  1.00  0.00     0.024 A 
ATOM     30  S   UNL     1       6.258 -24.554 -49.951  1.00  0.00    -0.140 S 
ATOM     31  C   UNL     1       6.342 -22.601 -51.612  1.00  0.00     0.012 A 
ATOM     32  C   UNL     1       5.513 -23.605 -51.163  1.00  0.00     0.065 A 
ENDBRANCH  21  28
ENDBRANCH  16  17
ENDBRANCH   1  16
TORSDOF 10
ENDMDL
MODEL 8
REMARK VINA RESULT:    -6.068      5.606     10.260
REMARK INTER + INTRA:         -11.290
REMARK INTER:                  -9.920
REMARK INTRA:                  -1.370
REMARK UNBOUND:                -1.674
REMARK SMILES CCCN(C(=O)[C@H](C)Sc1nnc(-c2cccs2)n1CC(N)=O)[C@@H]1CCS(=O)(=O)C1
REMARK SMILES IDX 7 1 8 2 5 3 6 4 4 5 3 6 2 7 1 8 24 9 25 10 30 11 26 12 27 13
REMARK SMILES IDX 28 14 29 15 9 16 10 17 11 18 19 19 12 20 13 21 20 22 21 23
REMARK SMILES IDX 22 24 23 25 14 28 15 29 18 30 16 31 17 32
REMARK H PARENT 22 26 22 27
ROOT
ATOM      1  C   UNL     1       8.485 -24.064 -50.143  1.00  0.00     0.141 C 
ATOM      2  C   UNL     1       8.493 -23.875 -48.632  1.00  0.00     0.030 C 
ENDROOT
BRANCH   1   3
ATOM      3  C   UNL     1       7.178 -23.505 -50.735  1.00  0.00     0.236 C 
ATOM      4  O   UNL     1       6.951 -22.287 -50.698  1.00  0.00    -0.274 OA
BRANCH   3   5
ATOM      5  N   UNL     1       6.252 -24.388 -51.313  1.00  0.00    -0.338 N 
BRANCH   5   6
ATOM      6  C   UNL     1       6.691 -25.047 -52.556  1.00  0.00     0.119 C 
BRANCH   6   7
ATOM      7  C   UNL     1       7.035 -24.048 -53.667  1.00  0.00     0.018 C 
ATOM      8  C   UNL     1       8.424 -24.301 -54.229  1.00  0.00     0.006 C 
ENDBRANCH   6   7
ENDBRANCH   5   6
BRANCH   5   9
ATOM      9  C   UNL     1       4.969 -24.782 -50.679  1.00  0.00     0.101 C 
ATOM     10  C   UNL     1       3.729 -24.461 -51.528  1.00  0.00     0.042 C 
ATOM     11  C   UNL     1       4.745 -24.248 -49.258  1.00  0.00     0.162 C 
ATOM     12  C   UNL     1       3.213 -23.092 -51.119  1.00  0.00     0.139 C 
ATOM     13  S   UNL     1       3.474 -23.004 -49.364  1.00  0.00     0.152 S 
ATOM     14  O   UNL     1       2.291 -23.510 -48.698  1.00  0.00    -0.229 OA
ATOM     15  O   UNL     1       4.048 -21.715 -49.039  1.00  0.00    -0.229 OA
ENDBRANCH   5   9
ENDBRANCH   3   5
ENDBRANCH   1   3
BRANCH   1  16
ATOM     16  S   UNL     1       9.923 -23.180 -50.882  1.00  0.00    -0.073 SA
BRANCH  16  17
ATOM     17  C   UNL     1      11.133 -23.629 -49.729  1.00  0.00     0.192 A 
ATOM     18  N   UNL     1      11.518 -24.859 -49.497  1.00  0.00    -0.123 NA
ATOM     19  N   UNL     1      11.895 -22.749 -49.009  1.00  0.00    -0.292 N 
ATOM     20  N   UNL     1      12.551 -24.804 -48.597  1.00  0.00    -0.128 NA
ATOM     21  C   UNL     1      12.751 -23.541 -48.271  1.00  0.00     0.175 A 
BRANCH  19  22
ATOM     22  C   UNL     1      11.883 -21.305 -49.090  1.00  0.00     0.226 C 
BRANCH  22  23
ATOM     23  C   UNL     1      12.820 -20.777 -50.152  1.00  0.00     0.237 C 
ATOM     24  N   UNL     1      13.825 -19.956 -49.733  1.00  0.00    -0.368 N 
ATOM     25  O   UNL     1      12.731 -21.088 -51.336  1.00  0.00    -0.273 OA
ATOM     26  H   UNL     1      14.400 -19.542 -50.456  1.00  0.00     0.159 HD
ATOM     27  H   UNL     1      13.788 -19.428 -48.859  1.00  0.00     0.159 HD
ENDBRANCH  22  23
ENDBRANCH  19  22
BRANCH  21  28
ATOM     28  C   UNL     1      13.761 -23.128 -47.345  1.00  0.00     0.072 A 
ATOM     29  C   UNL     1      14.990 -22.590 -47.673  1.00  0.00     0.024 A 
ATOM     30  S   UNL     1      13.612 -23.346 -45.653  1.00  0.00    -0.140 S 
ATOM     31  C   UNL     1      15.787 -22.304 -46.526  1.00  0.00     0.012 A 
ATOM     32  C   UNL     1      15.150 -22.660 -45.359  1.00  0.00     0.065 A 
ENDBRANCH  21  28
ENDBRANCH  16  17
ENDBRANCH   1  16
TORSDOF 10
ENDMDL
MODEL 9
REMARK VINA RESULT:    -5.940      1.872      3.117
REMARK INTER + INTRA:         -11.087
REMARK INTER:                  -9.569
REMARK INTRA:                  -1.517
REMARK UNBOUND:                -1.674
REMARK SMILES CCCN(C(=O)[C@H](C)Sc1nnc(-c2cccs2)n1CC(N)=O)[C@@H]1CCS(=O)(=O)C1
REMARK SMILES IDX 7 1 8 2 5 3 6 4 4 5 3 6 2 7 1 8 24 9 25 10 30 11 26 12 27 13
REMARK SMILES IDX 28 14 29 15 9 16 10 17 11 18 19 19 12 20 13 21 20 22 21 23
REMARK SMILES IDX 22 24 23 25 14 28 15 29 18 30 16 31 17 32
REMARK H PARENT 22 26 22 27
ROOT
ATOM      1  C   UNL     1      13.312 -25.406 -43.470  1.00  0.00     0.141 C 
ATOM      2  C   UNL     1      13.184 -26.462 -42.380  1.00  0.00     0.030 C 
ENDROOT
BRANCH   1   3
ATOM      3  C   UNL     1      14.755 -25.381 -44.009  1.00  0.00     0.236 C 
ATOM      4  O   UNL     1      15.181 -26.327 -44.687  1.00  0.00    -0.274 OA
BRANCH   3   5
ATOM      5  N   UNL     1      15.577 -24.280 -43.721  1.00  0.00    -0.338 N 
BRANCH   5   6
ATOM      6  C   UNL     1      15.276 -23.048 -44.472  1.00  0.00     0.119 C 
BRANCH   6   7
ATOM      7  C   UNL     1      16.481 -22.528 -45.265  1.00  0.00     0.018 C 
ATOM      8  C   UNL     1      16.444 -23.009 -46.707  1.00  0.00     0.006 C 
ENDBRANCH   6   7
ENDBRANCH   5   6
BRANCH   5   9
ATOM      9  C   UNL     1      16.593 -24.259 -42.638  1.00  0.00     0.101 C 
ATOM     10  C   UNL     1      17.088 -25.652 -42.221  1.00  0.00     0.042 C 
ATOM     11  C   UNL     1      16.197 -23.478 -41.378  1.00  0.00     0.162 C 
ATOM     12  C   UNL     1      16.236 -26.132 -41.059  1.00  0.00     0.139 C 
ATOM     13  S   UNL     1      15.909 -24.677 -40.093  1.00  0.00     0.152 S 
ATOM     14  O   UNL     1      16.957 -24.538 -39.103  1.00  0.00    -0.229 OA
ATOM     15  O   UNL     1      14.505 -24.657 -39.736  1.00  0.00    -0.229 OA
ENDBRANCH   5   9
ENDBRANCH   3   5
ENDBRANCH   1   3
BRANCH   1  16
ATOM     16  S   UNL     1      12.149 -25.795 -44.845  1.00  0.00    -0.073 SA
BRANCH  16  17
ATOM     17  C   UNL     1      12.200 -24.278 -45.675  1.00  0.00     0.192 A 
ATOM     18  N   UNL     1      12.031 -23.111 -45.103  1.00  0.00    -0.123 NA
ATOM     19  N   UNL     1      12.526 -24.116 -46.995  1.00  0.00    -0.292 N 
ATOM     20  N   UNL     1      12.237 -22.151 -46.058  1.00  0.00    -0.128 NA
ATOM     21  C   UNL     1      12.493 -22.753 -47.205  1.00  0.00     0.175 A 
BRANCH  19  22
ATOM     22  C   UNL     1      12.927 -25.142 -47.932  1.00  0.00     0.226 C 
BRANCH  22  23
ATOM     23  C   UNL     1      11.762 -25.688 -48.726  1.00  0.00     0.237 C 
ATOM     24  N   UNL     1      12.063 -26.462 -49.808  1.00  0.00    -0.368 N 
ATOM     25  O   UNL     1      10.592 -25.494 -48.413  1.00  0.00    -0.273 OA
ATOM     26  H   UNL     1      11.284 -26.758 -50.381  1.00  0.00     0.159 HD
ATOM     27  H   UNL     1      12.962 -26.420 -50.293  1.00  0.00     0.159 HD
ENDBRANCH  22  23
ENDBRANCH  19  22
BRANCH  21  28
ATOM     28  C   UNL     1      12.754 -22.038 -48.417  1.00  0.00     0.072 A 
ATOM     29  C   UNL     1      13.854 -21.240 -48.666  1.00  0.00     0.024 A 
ATOM     30  S   UNL     1      11.651 -21.998 -49.726  1.00  0.00    -0.140 S 
ATOM     31  C   UNL     1      13.815 -20.641 -49.959  1.00  0.00     0.012 A 
ATOM     32  C   UNL     1      12.671 -20.979 -50.645  1.00  0.00     0.065 A 
ENDBRANCH  21  28
ENDBRANCH  16  17
ENDBRANCH   1  16
TORSDOF 10
ENDMDL
