REMARK SMILES O=C(NCCNS(=O)(=O)Cc1ccccc1)c1cnn(-c2ccc(O)nn2)c1C(F)(F)F
REMARK SMILES IDX 4 1 3 2 1 3 2 4 17 6 18 7 28 8 19 9 20 10 29 11 30 12 31 13
REMARK SMILES IDX 32 14 21 15 22 16 27 17 23 18 26 19 24 20 25 21 5 23 6 24
REMARK SMILES IDX 7 26 8 27 9 28 10 29 11 30 12 31 16 32 13 33 15 34 14 35
REMARK H PARENT 3 5 25 22 6 25
ROOT
ATOM      1  C   UNL     1       2.354  -3.643   1.173  1.00  0.00     0.132 C 
ENDROOT
BRANCH   1   2
ATOM      2  N   UNL     1       1.439  -2.975   0.258  1.00  0.00    -0.351 N 
ATOM      3  O   UNL     1       0.080  -2.186   1.914  1.00  0.00    -0.269 OA
ATOM      4  C   UNL     1       0.344  -2.287   0.721  1.00  0.00     0.255 C 
ATOM      5  H   UNL     1       1.583  -3.112  -0.733  1.00  0.00     0.163 HD
BRANCH   4   6
ATOM      6  C   UNL     1      -0.472  -1.652  -0.298  1.00  0.00     0.090 A 
ATOM      7  C   UNL     1      -0.174  -1.334  -1.632  1.00  0.00     0.150 A 
ATOM      8  C   UNL     1      -1.782  -1.212  -0.135  1.00  0.00     0.162 A 
ATOM      9  N   UNL     1      -1.183  -0.728  -2.249  1.00  0.00    -0.174 NA
ATOM     10  N   UNL     1      -2.111  -0.500  -1.275  1.00  0.00    -0.208 N 
BRANCH   8  11
ATOM     11  C   UNL     1      -2.710  -1.460   0.976  1.00  0.00     0.434 C 
ATOM     12  F   UNL     1      -2.517  -2.668   1.557  1.00  0.00    -0.164 F 
ATOM     13  F   UNL     1      -4.006  -1.457   0.571  1.00  0.00    -0.164 F 
ATOM     14  F   UNL     1      -2.597  -0.516   1.941  1.00  0.00    -0.164 F 
ENDBRANCH   8  11
BRANCH  10  15
ATOM     15  C   UNL     1      -3.176   0.419  -1.553  1.00  0.00     0.176 A 
ATOM     16  C   UNL     1      -3.883   1.067  -0.545  1.00  0.00     0.057 A 
ATOM     17  N   UNL     1      -3.429   0.698  -2.859  1.00  0.00    -0.127 NA
ATOM     18  C   UNL     1      -4.887   1.968  -0.898  1.00  0.00     0.074 A 
ATOM     19  N   UNL     1      -4.417   1.580  -3.206  1.00  0.00    -0.110 NA
ATOM     20  C   UNL     1      -5.115   2.183  -2.234  1.00  0.00     0.231 A 
BRANCH  20  21
ATOM     21  O   UNL     1      -6.076   3.050  -2.644  1.00  0.00    -0.492 OA
ATOM     22  H   UNL     1      -5.990   2.985  -3.613  1.00  0.00     0.295 HD
ENDBRANCH  20  21
ENDBRANCH  10  15
ENDBRANCH   4   6
ENDBRANCH   1   2
BRANCH   1  23
ATOM     23  C   UNL     1       3.248  -2.657   1.940  1.00  0.00     0.119 C 
BRANCH  23  24
ATOM     24  N   UNL     1       3.960  -1.801   0.968  1.00  0.00    -0.213 NA
ATOM     25  H   UNL     1       3.351  -1.335   0.293  1.00  0.00     0.141 HD
BRANCH  24  26
ATOM     26  S   UNL     1       5.145  -0.761   1.551  1.00  0.00     0.215 S 
ATOM     27  O   UNL     1       5.755  -0.161   0.383  1.00  0.00    -0.212 OA
ATOM     28  O   UNL     1       5.942  -1.506   2.501  1.00  0.00    -0.212 OA
BRANCH  26  29
ATOM     29  C   UNL     1       4.234   0.510   2.452  1.00  0.00     0.189 C 
BRANCH  29  30
ATOM     30  C   UNL     1       3.047   1.017   1.667  1.00  0.00    -0.032 A 
ATOM     31  C   UNL     1       1.748   0.839   2.167  1.00  0.00     0.005 A 
ATOM     32  C   UNL     1       3.209   1.711   0.460  1.00  0.00     0.005 A 
ATOM     33  C   UNL     1       0.641   1.325   1.469  1.00  0.00     0.000 A 
ATOM     34  C   UNL     1       2.100   2.183  -0.245  1.00  0.00     0.000 A 
ATOM     35  C   UNL     1       0.816   1.990   0.258  1.00  0.00     0.000 A 
ENDBRANCH  29  30
ENDBRANCH  26  29
ENDBRANCH  24  26
ENDBRANCH  23  24
ENDBRANCH   1  23
TORSDOF 10
