REMARK SMILES CCCn1nc(C(=O)NNC(=O)CNS(=O)(=O)Cc2ccccc2)c2ccccc2c1=O
REMARK SMILES IDX 10 1 11 2 12 3 9 5 7 6 8 7 6 9 4 10 5 11 31 12 30 13 32 14
REMARK SMILES IDX 25 15 29 16 26 17 28 18 27 19 3 20 2 21 1 22 13 23 14 24
REMARK SMILES IDX 15 26 16 27 17 28 18 29 19 30 20 31 24 32 21 33 23 34 22 35
REMARK H PARENT 10 4 9 8 14 25
ROOT
ATOM      1  N   UNL     1      -0.430   2.319  -0.724  1.00  0.00    -0.266 N 
ATOM      2  C   UNL     1      -1.405   3.138  -0.186  1.00  0.00     0.253 C 
ATOM      3  O   UNL     1      -2.566   2.765  -0.004  1.00  0.00    -0.272 OA
ATOM      4  H   UNL     1       0.563   2.538  -0.631  1.00  0.00     0.191 HD
ENDROOT
BRANCH   1   5
ATOM      5  N   UNL     1      -0.753   0.971  -0.928  1.00  0.00    -0.262 N 
ATOM      6  C   UNL     1       0.218   0.118  -1.402  1.00  0.00     0.290 C 
ATOM      7  O   UNL     1       1.404   0.387  -1.520  1.00  0.00    -0.266 OA
ATOM      8  H   UNL     1      -1.742   0.743  -1.053  1.00  0.00     0.191 HD
BRANCH   6   9
ATOM      9  C   UNL     1      -0.333  -1.247  -1.792  1.00  0.00     0.158 C 
ATOM     10  N   UNL     1      -2.009  -2.418  -2.855  1.00  0.00    -0.229 N 
ATOM     11  N   UNL     1      -1.442  -1.227  -2.472  1.00  0.00    -0.164 NA
ATOM     12  C   UNL     1      -1.484  -3.671  -2.548  1.00  0.00     0.274 C 
ATOM     13  C   UNL     1      -0.232  -3.684  -1.767  1.00  0.00     0.051 A 
ATOM     14  O   UNL     1      -2.001  -4.735  -2.878  1.00  0.00    -0.267 OA
ATOM     15  C   UNL     1       0.353  -2.482  -1.380  1.00  0.00     0.021 A 
ATOM     16  C   UNL     1       0.355  -4.905  -1.407  1.00  0.00     0.014 A 
ATOM     17  C   UNL     1       1.527  -2.499  -0.616  1.00  0.00     0.011 A 
ATOM     18  C   UNL     1       1.528  -4.919  -0.653  1.00  0.00     0.001 A 
ATOM     19  C   UNL     1       2.112  -3.717  -0.258  1.00  0.00     0.001 A 
BRANCH  10  20
ATOM     20  C   UNL     1      -3.264  -2.322  -3.596  1.00  0.00     0.148 C 
BRANCH  20  21
ATOM     21  C   UNL     1      -4.496  -2.487  -2.704  1.00  0.00     0.020 C 
ATOM     22  C   UNL     1      -4.667  -1.351  -1.706  1.00  0.00     0.006 C 
ENDBRANCH  20  21
ENDBRANCH  10  20
ENDBRANCH   6   9
ENDBRANCH   1   5
BRANCH   2  23
ATOM     23  C   UNL     1      -0.926   4.534   0.181  1.00  0.00     0.200 C 
BRANCH  23  24
ATOM     24  N   UNL     1      -1.127   4.724   1.628  1.00  0.00    -0.205 NA
ATOM     25  H   UNL     1      -2.101   4.646   1.936  1.00  0.00     0.141 HD
BRANCH  24  26
ATOM     26  S   UNL     1      -0.323   5.997   2.357  1.00  0.00     0.216 S 
ATOM     27  O   UNL     1      -1.230   6.476   3.378  1.00  0.00    -0.212 OA
ATOM     28  O   UNL     1       0.158   6.883   1.319  1.00  0.00    -0.212 OA
BRANCH  26  29
ATOM     29  C   UNL     1       1.067   5.214   3.195  1.00  0.00     0.189 C 
BRANCH  29  30
ATOM     30  C   UNL     1       1.836   4.315   2.261  1.00  0.00    -0.032 A 
ATOM     31  C   UNL     1       1.673   2.923   2.324  1.00  0.00     0.005 A 
ATOM     32  C   UNL     1       2.726   4.850   1.317  1.00  0.00     0.005 A 
ATOM     33  C   UNL     1       2.375   2.087   1.456  1.00  0.00     0.000 A 
ATOM     34  C   UNL     1       3.420   4.012   0.444  1.00  0.00     0.000 A 
ATOM     35  C   UNL     1       3.244   2.632   0.512  1.00  0.00     0.000 A 
ENDBRANCH  29  30
ENDBRANCH  26  29
ENDBRANCH  24  26
ENDBRANCH  23  24
ENDBRANCH   2  23
TORSDOF 9
