REMARK SMILES O=C(c1ccc(Cl)cc1Cl)[C@H]1[C@H]2C(=O)N(C3CCCCC3)C(=O)[C@@H]2[C@H]2c3ccccc3C=CN21
REMARK SMILES IDX 1 1 2 2 3 3 4 4 9 5 5 6 8 7 6 8 10 9 7 10 11 11 12 12 34 13
REMARK SMILES IDX 13 14 24 15 33 16 25 17 14 18 15 19 22 20 32 21 26 22 23 23
REMARK SMILES IDX 31 24 27 25 30 26 28 27 29 28 16 29 17 30 21 31 18 32 20 33
REMARK SMILES IDX 19 34
REMARK H PARENT
ROOT
ATOM      1  O   UNL     1       0.380  -1.017   1.530  1.00  0.00    -0.292 OA
ATOM      2  C   UNL     1      -0.725  -1.528   1.364  1.00  0.00     0.187 C 
ENDROOT
BRANCH   2   3
ATOM      3  C   UNL     1      -1.098  -2.655   2.241  1.00  0.00     0.038 A 
ATOM      4  C   UNL     1      -0.300  -3.806   2.174  1.00  0.00     0.015 A 
ATOM      5  C   UNL     1      -2.172  -2.595   3.134  1.00  0.00     0.053 A 
ATOM      6  C   UNL     1      -0.601  -4.909   2.973  1.00  0.00     0.021 A 
ATOM      7  C   UNL     1      -2.470  -3.703   3.934  1.00  0.00     0.041 A 
ATOM      8  C   UNL     1      -1.687  -4.853   3.845  1.00  0.00     0.042 A 
ATOM      9  Cl  UNL     1      -3.135  -1.178   3.336  1.00  0.00    -0.083 Cl
ATOM     10  Cl  UNL     1      -2.058  -6.214   4.829  1.00  0.00    -0.084 Cl
ENDBRANCH   2   3
BRANCH   2  11
ATOM     11  C   UNL     1      -1.697  -1.138   0.242  1.00  0.00     0.168 C 
ATOM     12  C   UNL     1      -1.415   0.229  -0.320  1.00  0.00     0.124 C 
ATOM     13  N   UNL     1      -1.500  -1.970  -0.983  1.00  0.00    -0.358 N 
ATOM     14  C   UNL     1      -0.924   1.443   0.387  1.00  0.00     0.236 C 
ATOM     15  C   UNL     1      -0.265  -0.030  -1.286  1.00  0.00     0.121 C 
ATOM     16  C   UNL     1      -1.682  -3.327  -1.089  1.00  0.00     0.083 C 
ATOM     17  C   UNL     1      -0.837  -1.178  -2.078  1.00  0.00     0.127 C 
ATOM     18  O   UNL     1      -1.267   1.797   1.500  1.00  0.00    -0.274 OA
ATOM     19  N   UNL     1      -0.196   2.135  -0.572  1.00  0.00    -0.279 N 
ATOM     20  C   UNL     1      -0.047   1.377  -1.727  1.00  0.00     0.235 C 
ATOM     21  C   UNL     1      -1.026  -4.077  -1.981  1.00  0.00     0.026 C 
ATOM     22  C   UNL     1       0.133  -2.040  -2.860  1.00  0.00    -0.017 A 
ATOM     23  O   UNL     1       0.242   1.754  -2.847  1.00  0.00    -0.274 OA
ATOM     24  C   UNL     1      -0.011  -3.447  -2.838  1.00  0.00    -0.019 A 
ATOM     25  C   UNL     1       1.114  -1.471  -3.686  1.00  0.00     0.006 A 
ATOM     26  C   UNL     1       0.831  -4.248  -3.619  1.00  0.00     0.008 A 
ATOM     27  C   UNL     1       1.952  -2.280  -4.455  1.00  0.00     0.000 A 
ATOM     28  C   UNL     1       1.812  -3.665  -4.422  1.00  0.00     0.001 A 
BRANCH  19  29
ATOM     29  C   UNL     1       0.152   3.553  -0.497  1.00  0.00     0.093 C 
ATOM     30  C   UNL     1      -1.093   4.461  -0.561  1.00  0.00     0.026 C 
ATOM     31  C   UNL     1       1.065   3.862   0.701  1.00  0.00     0.026 C 
ATOM     32  C   UNL     1      -1.398   5.148   0.766  1.00  0.00     0.002 C 
ATOM     33  C   UNL     1       1.149   5.363   0.946  1.00  0.00     0.002 C 
ATOM     34  C   UNL     1      -0.215   5.970   1.278  1.00  0.00     0.000 C 
ENDBRANCH  19  29
ENDBRANCH   2  11
TORSDOF 3
