REMARK SMILES Cc1cccc(/C=C(/C(=O)OCC(=O)NC(=O)NCc2cccs2)c2cccs2)c1
REMARK SMILES IDX 11 1 9 2 10 3 8 4 7 5 6 6 2 7 3 8 30 9 4 10 5 11 1 12 25 13
REMARK SMILES IDX 26 14 29 15 27 16 28 17 12 18 13 19 14 20 15 21 16 22 17 23
REMARK SMILES IDX 18 24 19 27 20 28 21 29 24 30 22 31 23 32
REMARK H PARENT 15 25 18 26
ROOT
ATOM      1  O   UNL     1      -0.483   2.321  -0.008  1.00  0.00    -0.452 OA
ENDROOT
BRANCH   1   2
ATOM      2  C   UNL     1      -0.143   1.028   0.233  1.00  0.00     0.340 C 
ATOM      3  O   UNL     1      -0.053   0.173  -0.641  1.00  0.00    -0.246 OA
BRANCH   2   4
ATOM      4  C   UNL     1       0.107   0.781   1.689  1.00  0.00     0.077 C 
ATOM      5  C   UNL     1      -0.426   1.611   2.611  1.00  0.00     0.025 C 
BRANCH   5   6
ATOM      6  C   UNL     1      -0.295   1.517   4.072  1.00  0.00    -0.024 A 
ATOM      7  C   UNL     1      -1.364   1.302   6.251  1.00  0.00    -0.051 A 
ATOM      8  C   UNL     1      -0.108   1.382   6.863  1.00  0.00     0.003 A 
ATOM      9  C   UNL     1      -1.450   1.387   4.854  1.00  0.00     0.011 A 
ATOM     10  C   UNL     1       1.045   1.525   6.091  1.00  0.00     0.001 A 
ATOM     11  C   UNL     1       0.953   1.596   4.700  1.00  0.00     0.008 A 
ATOM     12  C   UNL     1      -2.608   1.189   7.082  1.00  0.00     0.044 C 
ENDBRANCH   5   6
BRANCH   4  13
ATOM     13  C   UNL     1       0.846  -0.387   2.060  1.00  0.00     0.042 A 
ATOM     14  C   UNL     1       0.457  -1.471   2.833  1.00  0.00     0.021 A 
ATOM     15  S   UNL     1       2.479  -0.578   1.535  1.00  0.00    -0.144 S 
ATOM     16  C   UNL     1       1.487  -2.443   2.989  1.00  0.00     0.012 A 
ATOM     17  C   UNL     1       2.639  -2.081   2.331  1.00  0.00     0.065 A 
ENDBRANCH   4  13
ENDBRANCH   2   4
ENDBRANCH   1   2
BRANCH   1  18
ATOM     18  C   UNL     1      -0.708   2.639  -1.383  1.00  0.00     0.333 C 
BRANCH  18  19
ATOM     19  C   UNL     1      -1.977   2.008  -1.960  1.00  0.00     0.266 C 
ATOM     20  O   UNL     1      -3.088   2.512  -1.807  1.00  0.00    -0.271 OA
ATOM     21  N   UNL     1      -1.780   0.802  -2.588  1.00  0.00    -0.275 N 
ATOM     22  C   UNL     1      -1.541   0.850  -3.935  1.00  0.00     0.321 C 
ATOM     23  O   UNL     1      -1.615   1.854  -4.630  1.00  0.00    -0.248 OA
ATOM     24  N   UNL     1      -1.180  -0.382  -4.422  1.00  0.00    -0.333 N 
ATOM     25  H   UNL     1      -1.044   0.249  -2.151  1.00  0.00     0.174 HD
ATOM     26  H   UNL     1      -1.566  -1.173  -3.925  1.00  0.00     0.165 HD
BRANCH  24  27
ATOM     27  C   UNL     1      -0.980  -0.548  -5.844  1.00  0.00     0.164 C 
BRANCH  27  28
ATOM     28  C   UNL     1      -0.533  -1.950  -6.101  1.00  0.00     0.024 A 
ATOM     29  C   UNL     1      -1.307  -3.050  -6.415  1.00  0.00     0.017 A 
ATOM     30  S   UNL     1       1.131  -2.356  -6.020  1.00  0.00    -0.147 S 
ATOM     31  C   UNL     1      -0.528  -4.231  -6.587  1.00  0.00     0.012 A 
ATOM     32  C   UNL     1       0.815  -3.993  -6.400  1.00  0.00     0.065 A 
ENDBRANCH  27  28
ENDBRANCH  24  27
ENDBRANCH  18  19
ENDBRANCH   1  18
TORSDOF 8
