MODEL 1
REMARK VINA RESULT:    -6.689      0.000      0.000
REMARK INTER + INTRA:          -8.192
REMARK INTER:                  -7.666
REMARK INTRA:                  -0.525
REMARK UNBOUND:                -0.525
REMARK SMILES Cc1cc(C)cc(Nc2ccc(N)cc2C#N)c1
REMARK SMILES IDX 9 1 10 2 11 3 12 4 14 5 15 6 16 7 17 8 8 9 7 11 2 12 3 13
REMARK SMILES IDX 18 14 4 15 6 16 1 17 5 18 13 19
REMARK H PARENT 8 10 13 20 13 21
ROOT
ATOM      1  C   UNL     1      14.760 -22.538 -46.056  1.00  0.00     0.057 A 
ATOM      2  C   UNL     1      16.116 -22.590 -46.406  1.00  0.00     0.029 A 
ATOM      3  C   UNL     1      16.972 -23.558 -45.869  1.00  0.00     0.028 A 
ATOM      4  C   UNL     1      16.493 -24.528 -44.992  1.00  0.00     0.033 A 
ATOM      5  C   UNL     1      15.162 -24.452 -44.584  1.00  0.00     0.047 A 
ATOM      6  C   UNL     1      14.296 -23.482 -45.120  1.00  0.00     0.078 A 
ATOM      7  C   UNL     1      12.933 -23.478 -44.676  1.00  0.00     0.101 C 
ATOM      8  N   UNL     1      11.820 -23.478 -44.343  1.00  0.00    -0.192 NA
ENDROOT
BRANCH   1   9
ATOM      9  N   UNL     1      13.910 -21.538 -46.573  1.00  0.00    -0.354 N 
ATOM     10  H   UNL     1      13.809 -20.708 -45.995  1.00  0.00     0.167 HD
BRANCH   9  11
ATOM     11  C   UNL     1      13.244 -21.422 -47.810  1.00  0.00     0.039 A 
ATOM     12  C   UNL     1      11.471 -22.220 -49.294  1.00  0.00    -0.049 A 
ATOM     13  C   UNL     1      11.902 -21.331 -50.283  1.00  0.00     0.007 A 
ATOM     14  C   UNL     1      12.158 -22.269 -48.073  1.00  0.00     0.029 A 
ATOM     15  C   UNL     1      12.996 -20.489 -50.055  1.00  0.00    -0.049 A 
ATOM     16  C   UNL     1      13.649 -20.535 -48.815  1.00  0.00     0.029 A 
ATOM     17  C   UNL     1      10.327 -23.155 -49.558  1.00  0.00     0.044 C 
ATOM     18  C   UNL     1      13.426 -19.501 -51.099  1.00  0.00     0.044 C 
ENDBRANCH   9  11
ENDBRANCH   1   9
BRANCH   4  19
ATOM     19  N   UNL     1      17.374 -25.413 -44.366  1.00  0.00    -0.399 N 
ATOM     20  H   UNL     1      18.126 -24.960 -43.854  1.00  0.00     0.156 HD
ATOM     21  H   UNL     1      17.712 -26.164 -44.959  1.00  0.00     0.156 HD
ENDBRANCH   4  19
TORSDOF 3
ENDMDL
MODEL 2
REMARK VINA RESULT:    -6.627      0.166      2.035
REMARK INTER + INTRA:          -8.120
REMARK INTER:                  -7.611
REMARK INTRA:                  -0.509
REMARK UNBOUND:                -0.525
REMARK SMILES Cc1cc(C)cc(Nc2ccc(N)cc2C#N)c1
REMARK SMILES IDX 9 1 10 2 11 3 12 4 14 5 15 6 16 7 17 8 8 9 7 11 2 12 3 13
REMARK SMILES IDX 18 14 4 15 6 16 1 17 5 18 13 19
REMARK H PARENT 8 10 13 20 13 21
ROOT
ATOM      1  C   UNL     1      14.823 -22.546 -45.953  1.00  0.00     0.057 A 
ATOM      2  C   UNL     1      16.191 -22.590 -46.255  1.00  0.00     0.029 A 
ATOM      3  C   UNL     1      17.043 -23.520 -45.647  1.00  0.00     0.028 A 
ATOM      4  C   UNL     1      16.549 -24.459 -44.746  1.00  0.00     0.033 A 
ATOM      5  C   UNL     1      15.204 -24.388 -44.386  1.00  0.00     0.047 A 
ATOM      6  C   UNL     1      14.342 -23.457 -44.992  1.00  0.00     0.078 A 
ATOM      7  C   UNL     1      12.964 -23.457 -44.595  1.00  0.00     0.101 C 
ATOM      8  N   UNL     1      11.841 -23.462 -44.299  1.00  0.00    -0.192 NA
ENDROOT
BRANCH   1   9
ATOM      9  N   UNL     1      13.976 -21.584 -46.541  1.00  0.00    -0.354 N 
ATOM     10  H   UNL     1      13.906 -20.700 -46.042  1.00  0.00     0.167 HD
BRANCH   9  11
ATOM     11  C   UNL     1      13.277 -21.574 -47.764  1.00  0.00     0.039 A 
ATOM     12  C   UNL     1      12.987 -20.577 -49.979  1.00  0.00    -0.049 A 
ATOM     13  C   UNL     1      11.889 -21.412 -50.208  1.00  0.00     0.007 A 
ATOM     14  C   UNL     1      13.659 -20.654 -48.752  1.00  0.00     0.029 A 
ATOM     15  C   UNL     1      11.473 -22.325 -49.233  1.00  0.00    -0.049 A 
ATOM     16  C   UNL     1      12.179 -22.404 -48.024  1.00  0.00     0.029 A 
ATOM     17  C   UNL     1      13.402 -19.568 -51.010  1.00  0.00     0.044 C 
ATOM     18  C   UNL     1      10.326 -23.253 -49.500  1.00  0.00     0.044 C 
ENDBRANCH   9  11
ENDBRANCH   1   9
BRANCH   4  19
ATOM     19  N   UNL     1      17.422 -25.301 -44.053  1.00  0.00    -0.399 N 
ATOM     20  H   UNL     1      17.507 -26.232 -44.450  1.00  0.00     0.156 HD
ATOM     21  H   UNL     1      17.279 -25.325 -43.048  1.00  0.00     0.156 HD
ENDBRANCH   4  19
TORSDOF 3
ENDMDL
MODEL 3
REMARK VINA RESULT:    -6.601      3.467      6.256
REMARK INTER + INTRA:          -8.092
REMARK INTER:                  -7.617
REMARK INTRA:                  -0.475
REMARK UNBOUND:                -0.525
REMARK SMILES Cc1cc(C)cc(Nc2ccc(N)cc2C#N)c1
REMARK SMILES IDX 9 1 10 2 11 3 12 4 14 5 15 6 16 7 17 8 8 9 7 11 2 12 3 13
REMARK SMILES IDX 18 14 4 15 6 16 1 17 5 18 13 19
REMARK H PARENT 8 10 13 20 13 21
ROOT
ATOM      1  C   UNL     1      15.189 -24.776 -41.461  1.00  0.00     0.057 A 
ATOM      2  C   UNL     1      16.028 -24.800 -40.338  1.00  0.00     0.029 A 
ATOM      3  C   UNL     1      15.536 -24.537 -39.054  1.00  0.00     0.028 A 
ATOM      4  C   UNL     1      14.184 -24.279 -38.846  1.00  0.00     0.033 A 
ATOM      5  C   UNL     1      13.348 -24.189 -39.958  1.00  0.00     0.047 A 
ATOM      6  C   UNL     1      13.834 -24.452 -41.251  1.00  0.00     0.078 A 
ATOM      7  C   UNL     1      12.914 -24.367 -42.346  1.00  0.00     0.101 C 
ATOM      8  N   UNL     1      12.173 -24.326 -43.241  1.00  0.00    -0.192 NA
ENDROOT
BRANCH   1   9
ATOM      9  N   UNL     1      15.696 -25.005 -42.757  1.00  0.00    -0.354 N 
ATOM     10  H   UNL     1      15.619 -25.962 -43.093  1.00  0.00     0.167 HD
BRANCH   9  11
ATOM     11  C   UNL     1      16.202 -24.125 -43.734  1.00  0.00     0.039 A 
ATOM     12  C   UNL     1      18.054 -22.726 -44.506  1.00  0.00    -0.049 A 
ATOM     13  C   UNL     1      17.275 -22.293 -45.583  1.00  0.00     0.007 A 
ATOM     14  C   UNL     1      17.504 -23.625 -43.581  1.00  0.00     0.029 A 
ATOM     15  C   UNL     1      15.967 -22.761 -45.748  1.00  0.00    -0.049 A 
ATOM     16  C   UNL     1      15.447 -23.682 -44.827  1.00  0.00     0.029 A 
ATOM     17  C   UNL     1      19.441 -22.188 -44.306  1.00  0.00     0.044 C 
ATOM     18  C   UNL     1      15.151 -22.334 -46.932  1.00  0.00     0.044 C 
ENDBRANCH   9  11
ENDBRANCH   1   9
BRANCH   4  19
ATOM     19  N   UNL     1      13.723 -23.899 -37.582  1.00  0.00    -0.399 N 
ATOM     20  H   UNL     1      12.729 -24.051 -37.438  1.00  0.00     0.156 HD
ATOM     21  H   UNL     1      14.016 -22.974 -37.286  1.00  0.00     0.156 HD
ENDBRANCH   4  19
TORSDOF 3
ENDMDL
MODEL 4
REMARK VINA RESULT:    -6.524      3.479      6.176
REMARK INTER + INTRA:          -8.002
REMARK INTER:                  -7.509
REMARK INTRA:                  -0.494
REMARK UNBOUND:                -0.525
REMARK SMILES Cc1cc(C)cc(Nc2ccc(N)cc2C#N)c1
REMARK SMILES IDX 9 1 10 2 11 3 12 4 14 5 15 6 16 7 17 8 8 9 7 11 2 12 3 13
REMARK SMILES IDX 18 14 4 15 6 16 1 17 5 18 13 19
REMARK H PARENT 8 10 13 20 13 21
ROOT
ATOM      1  C   UNL     1      14.645 -24.749 -41.674  1.00  0.00     0.057 A 
ATOM      2  C   UNL     1      13.383 -24.302 -41.261  1.00  0.00     0.029 A 
ATOM      3  C   UNL     1      13.111 -24.022 -39.916  1.00  0.00     0.028 A 
ATOM      4  C   UNL     1      14.103 -24.144 -38.947  1.00  0.00     0.033 A 
ATOM      5  C   UNL     1      15.345 -24.649 -39.330  1.00  0.00     0.047 A 
ATOM      6  C   UNL     1      15.626 -24.932 -40.678  1.00  0.00     0.078 A 
ATOM      7  C   UNL     1      16.932 -25.422 -41.006  1.00  0.00     0.101 C 
ATOM      8  N   UNL     1      17.995 -25.798 -41.288  1.00  0.00    -0.192 NA
ENDROOT
BRANCH   1   9
ATOM      9  N   UNL     1      14.903 -25.065 -43.024  1.00  0.00    -0.354 N 
ATOM     10  H   UNL     1      14.705 -26.025 -43.294  1.00  0.00     0.167 HD
BRANCH   9  11
ATOM     11  C   UNL     1      15.290 -24.262 -44.116  1.00  0.00     0.039 A 
ATOM     12  C   UNL     1      16.924 -22.718 -45.080  1.00  0.00    -0.049 A 
ATOM     13  C   UNL     1      16.110 -22.563 -46.205  1.00  0.00     0.007 A 
ATOM     14  C   UNL     1      16.497 -23.553 -44.038  1.00  0.00     0.029 A 
ATOM     15  C   UNL     1      14.891 -23.244 -46.301  1.00  0.00    -0.049 A 
ATOM     16  C   UNL     1      14.498 -24.096 -45.259  1.00  0.00     0.029 A 
ATOM     17  C   UNL     1      18.209 -21.951 -44.960  1.00  0.00     0.044 C 
ATOM     18  C   UNL     1      14.043 -23.115 -47.532  1.00  0.00     0.044 C 
ENDBRANCH   9  11
ENDBRANCH   1   9
BRANCH   4  19
ATOM     19  N   UNL     1      13.793 -23.981 -37.594  1.00  0.00    -0.399 N 
ATOM     20  H   UNL     1      14.193 -23.148 -37.172  1.00  0.00     0.156 HD
ATOM     21  H   UNL     1      13.940 -24.808 -37.024  1.00  0.00     0.156 HD
ENDBRANCH   4  19
TORSDOF 3
ENDMDL
MODEL 5
REMARK VINA RESULT:    -6.447      3.504      6.016
REMARK INTER + INTRA:          -7.915
REMARK INTER:                  -7.444
REMARK INTRA:                  -0.471
REMARK UNBOUND:                -0.525
REMARK SMILES Cc1cc(C)cc(Nc2ccc(N)cc2C#N)c1
REMARK SMILES IDX 9 1 10 2 11 3 12 4 14 5 15 6 16 7 17 8 8 9 7 11 2 12 3 13
REMARK SMILES IDX 18 14 4 15 6 16 1 17 5 18 13 19
REMARK H PARENT 8 10 13 20 13 21
ROOT
ATOM      1  C   UNL     1      14.599 -24.648 -41.649  1.00  0.00     0.057 A 
ATOM      2  C   UNL     1      13.341 -24.208 -41.215  1.00  0.00     0.029 A 
ATOM      3  C   UNL     1      13.074 -23.984 -39.859  1.00  0.00     0.028 A 
ATOM      4  C   UNL     1      14.067 -24.157 -38.898  1.00  0.00     0.033 A 
ATOM      5  C   UNL     1      15.304 -24.655 -39.305  1.00  0.00     0.047 A 
ATOM      6  C   UNL     1      15.579 -24.883 -40.665  1.00  0.00     0.078 A 
ATOM      7  C   UNL     1      16.881 -25.370 -41.017  1.00  0.00     0.101 C 
ATOM      8  N   UNL     1      17.940 -25.742 -41.317  1.00  0.00    -0.192 NA
ENDROOT
BRANCH   1   9
ATOM      9  N   UNL     1      14.851 -24.907 -43.013  1.00  0.00    -0.354 N 
ATOM     10  H   UNL     1      14.572 -25.828 -43.342  1.00  0.00     0.167 HD
BRANCH   9  11
ATOM     11  C   UNL     1      15.329 -24.082 -44.050  1.00  0.00     0.039 A 
ATOM     12  C   UNL     1      15.007 -23.188 -46.305  1.00  0.00    -0.049 A 
ATOM     13  C   UNL     1      16.237 -22.530 -46.216  1.00  0.00     0.007 A 
ATOM     14  C   UNL     1      14.573 -23.972 -45.227  1.00  0.00     0.029 A 
ATOM     15  C   UNL     1      17.021 -22.638 -45.062  1.00  0.00    -0.049 A 
ATOM     16  C   UNL     1      16.553 -23.405 -43.986  1.00  0.00     0.029 A 
ATOM     17  C   UNL     1      14.190 -23.106 -47.561  1.00  0.00     0.044 C 
ATOM     18  C   UNL     1      18.317 -21.891 -44.951  1.00  0.00     0.044 C 
ENDBRANCH   9  11
ENDBRANCH   1   9
BRANCH   4  19
ATOM     19  N   UNL     1      13.761 -24.051 -37.538  1.00  0.00    -0.399 N 
ATOM     20  H   UNL     1      14.561 -23.848 -36.946  1.00  0.00     0.156 HD
ATOM     21  H   UNL     1      13.194 -24.809 -37.172  1.00  0.00     0.156 HD
ENDBRANCH   4  19
TORSDOF 3
ENDMDL
MODEL 6
REMARK VINA RESULT:    -6.444      2.360      6.415
REMARK INTER + INTRA:          -7.911
REMARK INTER:                  -7.431
REMARK INTRA:                  -0.480
REMARK UNBOUND:                -0.525
REMARK SMILES Cc1cc(C)cc(Nc2ccc(N)cc2C#N)c1
REMARK SMILES IDX 9 1 10 2 11 3 12 4 14 5 15 6 16 7 17 8 8 9 7 11 2 12 3 13
REMARK SMILES IDX 18 14 4 15 6 16 1 17 5 18 13 19
REMARK H PARENT 8 10 13 20 13 21
ROOT
ATOM      1  C   UNL     1      13.406 -23.008 -46.469  1.00  0.00     0.057 A 
ATOM      2  C   UNL     1      13.377 -24.408 -46.511  1.00  0.00     0.029 A 
ATOM      3  C   UNL     1      12.826 -25.095 -47.599  1.00  0.00     0.028 A 
ATOM      4  C   UNL     1      12.318 -24.404 -48.696  1.00  0.00     0.033 A 
ATOM      5  C   UNL     1      12.281 -23.011 -48.643  1.00  0.00     0.047 A 
ATOM      6  C   UNL     1      12.833 -22.315 -47.553  1.00  0.00     0.078 A 
ATOM      7  C   UNL     1      12.785 -20.882 -47.575  1.00  0.00     0.101 C 
ATOM      8  N   UNL     1      12.774 -19.720 -47.592  1.00  0.00    -0.192 NA
ENDROOT
BRANCH   1   9
ATOM      9  N   UNL     1      13.930 -22.321 -45.354  1.00  0.00    -0.354 N 
ATOM     10  H   UNL     1      13.409 -21.497 -45.063  1.00  0.00     0.167 HD
BRANCH   9  11
ATOM     11  C   UNL     1      14.997 -22.623 -44.484  1.00  0.00     0.039 A 
ATOM     12  C   UNL     1      17.411 -22.635 -44.088  1.00  0.00    -0.049 A 
ATOM     13  C   UNL     1      17.203 -23.267 -42.859  1.00  0.00     0.007 A 
ATOM     14  C   UNL     1      16.306 -22.335 -44.897  1.00  0.00     0.029 A 
ATOM     15  C   UNL     1      15.909 -23.584 -42.431  1.00  0.00    -0.049 A 
ATOM     16  C   UNL     1      14.817 -23.248 -43.244  1.00  0.00     0.029 A 
ATOM     17  C   UNL     1      18.802 -22.338 -44.565  1.00  0.00     0.044 C 
ATOM     18  C   UNL     1      15.686 -24.217 -41.089  1.00  0.00     0.044 C 
ENDBRANCH   9  11
ENDBRANCH   1   9
BRANCH   4  19
ATOM     19  N   UNL     1      11.661 -25.089 -49.721  1.00  0.00    -0.399 N 
ATOM     20  H   UNL     1      11.081 -25.860 -49.402  1.00  0.00     0.156 HD
ATOM     21  H   UNL     1      12.254 -25.353 -50.502  1.00  0.00     0.156 HD
ENDBRANCH   4  19
TORSDOF 3
ENDMDL
MODEL 7
REMARK VINA RESULT:    -6.419      2.361      6.127
REMARK INTER + INTRA:          -7.883
REMARK INTER:                  -7.424
REMARK INTRA:                  -0.458
REMARK UNBOUND:                -0.525
REMARK SMILES Cc1cc(C)cc(Nc2ccc(N)cc2C#N)c1
REMARK SMILES IDX 9 1 10 2 11 3 12 4 14 5 15 6 16 7 17 8 8 9 7 11 2 12 3 13
REMARK SMILES IDX 18 14 4 15 6 16 1 17 5 18 13 19
REMARK H PARENT 8 10 13 20 13 21
ROOT
ATOM      1  C   UNL     1      13.532 -23.030 -46.573  1.00  0.00     0.057 A 
ATOM      2  C   UNL     1      13.556 -24.429 -46.641  1.00  0.00     0.029 A 
ATOM      3  C   UNL     1      12.945 -25.119 -47.695  1.00  0.00     0.028 A 
ATOM      4  C   UNL     1      12.324 -24.431 -48.734  1.00  0.00     0.033 A 
ATOM      5  C   UNL     1      12.236 -23.042 -48.649  1.00  0.00     0.047 A 
ATOM      6  C   UNL     1      12.847 -22.342 -47.594  1.00  0.00     0.078 A 
ATOM      7  C   UNL     1      12.740 -20.913 -47.584  1.00  0.00     0.101 C 
ATOM      8  N   UNL     1      12.682 -19.752 -47.576  1.00  0.00    -0.192 NA
ENDROOT
BRANCH   1   9
ATOM      9  N   UNL     1      14.118 -22.341 -45.490  1.00  0.00    -0.354 N 
ATOM     10  H   UNL     1      13.617 -21.513 -45.177  1.00  0.00     0.167 HD
BRANCH   9  11
ATOM     11  C   UNL     1      15.227 -22.645 -44.676  1.00  0.00     0.039 A 
ATOM     12  C   UNL     1      16.063 -23.533 -42.556  1.00  0.00    -0.049 A 
ATOM     13  C   UNL     1      17.368 -23.210 -42.938  1.00  0.00     0.007 A 
ATOM     14  C   UNL     1      15.003 -23.231 -43.422  1.00  0.00     0.029 A 
ATOM     15  C   UNL     1      17.619 -22.606 -44.175  1.00  0.00    -0.049 A 
ATOM     16  C   UNL     1      16.545 -22.339 -45.037  1.00  0.00     0.029 A 
ATOM     17  C   UNL     1      15.793 -24.139 -41.209  1.00  0.00     0.044 C 
ATOM     18  C   UNL     1      19.024 -22.306 -44.603  1.00  0.00     0.044 C 
ENDBRANCH   9  11
ENDBRANCH   1   9
BRANCH   4  19
ATOM     19  N   UNL     1      11.613 -25.126 -49.716  1.00  0.00    -0.399 N 
ATOM     20  H   UNL     1      10.605 -25.001 -49.669  1.00  0.00     0.156 HD
ATOM     21  H   UNL     1      11.874 -26.102 -49.817  1.00  0.00     0.156 HD
ENDBRANCH   4  19
TORSDOF 3
ENDMDL
MODEL 8
REMARK VINA RESULT:    -6.418      2.066      5.946
REMARK INTER + INTRA:          -7.882
REMARK INTER:                  -7.932
REMARK INTRA:                   0.050
REMARK UNBOUND:                -0.525
REMARK SMILES Cc1cc(C)cc(Nc2ccc(N)cc2C#N)c1
REMARK SMILES IDX 9 1 10 2 11 3 12 4 14 5 15 6 16 7 17 8 8 9 7 11 2 12 3 13
REMARK SMILES IDX 18 14 4 15 6 16 1 17 5 18 13 19
REMARK H PARENT 8 10 13 20 13 21
ROOT
ATOM      1  C   UNL     1      13.087 -22.342 -47.835  1.00  0.00     0.057 A 
ATOM      2  C   UNL     1      14.198 -21.620 -48.292  1.00  0.00     0.029 A 
ATOM      3  C   UNL     1      14.154 -20.892 -49.487  1.00  0.00     0.028 A 
ATOM      4  C   UNL     1      12.987 -20.832 -50.245  1.00  0.00     0.033 A 
ATOM      5  C   UNL     1      11.894 -21.596 -49.838  1.00  0.00     0.047 A 
ATOM      6  C   UNL     1      11.930 -22.329 -48.639  1.00  0.00     0.078 A 
ATOM      7  C   UNL     1      10.761 -23.070 -48.267  1.00  0.00     0.101 C 
ATOM      8  N   UNL     1       9.812 -23.656 -47.942  1.00  0.00    -0.192 NA
ENDROOT
BRANCH   1   9
ATOM      9  N   UNL     1      13.148 -23.103 -46.649  1.00  0.00    -0.354 N 
ATOM     10  H   UNL     1      12.458 -23.846 -46.570  1.00  0.00     0.167 HD
BRANCH   9  11
ATOM     11  C   UNL     1      14.066 -23.100 -45.580  1.00  0.00     0.039 A 
ATOM     12  C   UNL     1      14.507 -23.585 -43.223  1.00  0.00    -0.049 A 
ATOM     13  C   UNL     1      15.794 -23.056 -43.358  1.00  0.00     0.007 A 
ATOM     14  C   UNL     1      13.649 -23.585 -44.332  1.00  0.00     0.029 A 
ATOM     15  C   UNL     1      16.229 -22.547 -44.586  1.00  0.00    -0.049 A 
ATOM     16  C   UNL     1      15.363 -22.584 -45.689  1.00  0.00     0.029 A 
ATOM     17  C   UNL     1      14.027 -24.088 -41.893  1.00  0.00     0.044 C 
ATOM     18  C   UNL     1      17.627 -22.026 -44.741  1.00  0.00     0.044 C 
ENDBRANCH   9  11
ENDBRANCH   1   9
BRANCH   4  19
ATOM     19  N   UNL     1      12.987 -20.207 -51.494  1.00  0.00    -0.399 N 
ATOM     20  H   UNL     1      12.717 -19.227 -51.470  1.00  0.00     0.156 HD
ATOM     21  H   UNL     1      12.503 -20.720 -52.224  1.00  0.00     0.156 HD
ENDBRANCH   4  19
TORSDOF 3
ENDMDL
MODEL 9
REMARK VINA RESULT:    -6.365      2.088      6.247
REMARK INTER + INTRA:          -7.821
REMARK INTER:                  -7.865
REMARK INTRA:                   0.044
REMARK UNBOUND:                -0.525
REMARK SMILES Cc1cc(C)cc(Nc2ccc(N)cc2C#N)c1
REMARK SMILES IDX 9 1 10 2 11 3 12 4 14 5 15 6 16 7 17 8 8 9 7 11 2 12 3 13
REMARK SMILES IDX 18 14 4 15 6 16 1 17 5 18 13 19
REMARK H PARENT 8 10 13 20 13 21
ROOT
ATOM      1  C   UNL     1      13.115 -22.452 -47.887  1.00  0.00     0.057 A 
ATOM      2  C   UNL     1      14.243 -21.742 -48.319  1.00  0.00     0.029 A 
ATOM      3  C   UNL     1      14.205 -20.936 -49.463  1.00  0.00     0.028 A 
ATOM      4  C   UNL     1      13.027 -20.785 -50.191  1.00  0.00     0.033 A 
ATOM      5  C   UNL     1      11.914 -21.534 -49.812  1.00  0.00     0.047 A 
ATOM      6  C   UNL     1      11.945 -22.346 -48.664  1.00  0.00     0.078 A 
ATOM      7  C   UNL     1      10.756 -23.068 -48.318  1.00  0.00     0.101 C 
ATOM      8  N   UNL     1       9.792 -23.640 -48.012  1.00  0.00    -0.192 NA
ENDROOT
BRANCH   1   9
ATOM      9  N   UNL     1      13.170 -23.292 -46.754  1.00  0.00    -0.354 N 
ATOM     10  H   UNL     1      12.635 -24.154 -46.823  1.00  0.00     0.167 HD
BRANCH   9  11
ATOM     11  C   UNL     1      13.922 -23.213 -45.565  1.00  0.00     0.039 A 
ATOM     12  C   UNL     1      16.019 -22.583 -44.476  1.00  0.00    -0.049 A 
ATOM     13  C   UNL     1      15.540 -23.091 -43.265  1.00  0.00     0.007 A 
ATOM     14  C   UNL     1      15.212 -22.665 -45.619  1.00  0.00     0.029 A 
ATOM     15  C   UNL     1      14.264 -23.662 -43.188  1.00  0.00    -0.049 A 
ATOM     16  C   UNL     1      13.464 -23.707 -44.338  1.00  0.00     0.029 A 
ATOM     17  C   UNL     1      17.405 -22.012 -44.565  1.00  0.00     0.044 C 
ATOM     18  C   UNL     1      13.733 -24.162 -41.877  1.00  0.00     0.044 C 
ENDBRANCH   9  11
ENDBRANCH   1   9
BRANCH   4  19
ATOM     19  N   UNL     1      13.027 -20.079 -51.396  1.00  0.00    -0.399 N 
ATOM     20  H   UNL     1      12.118 -19.712 -51.664  1.00  0.00     0.156 HD
ATOM     21  H   UNL     1      13.491 -20.553 -52.164  1.00  0.00     0.156 HD
ENDBRANCH   4  19
TORSDOF 3
ENDMDL
