MODEL 1
REMARK VINA RESULT:    -9.460      0.000      0.000
REMARK INTER + INTRA:         -14.674
REMARK INTER:                 -13.331
REMARK INTRA:                  -1.343
REMARK UNBOUND:                -1.343
REMARK SMILES O=C(NNC1=C[C@H](c2ccccc2)Oc2ccccc21)c1ccc(Cl)c(S(=O)(=O)[N-]c2ccc(Cl)cc2)c1
REMARK SMILES IDX 21 1 22 2 23 3 24 4 25 5 26 6 38 7 2 8 1 9 3 10 4 12 5 14
REMARK SMILES IDX 6 15 20 16 7 17 19 18 15 19 14 20 18 21 16 22 17 23 8 24
REMARK SMILES IDX 9 25 13 26 10 27 12 28 11 29 27 30 28 31 29 32 30 33 31 34
REMARK SMILES IDX 32 35 37 36 33 37 36 38 34 39 35 40
REMARK H PARENT 3 11 4 13
ROOT
ATOM      1  C   UNL     1      11.420 -23.993 -47.382  1.00  0.00     0.042 A 
ATOM      2  C   UNL     1      10.904 -25.047 -46.619  1.00  0.00     0.015 A 
ATOM      3  C   UNL     1       9.725 -25.689 -47.011  1.00  0.00     0.022 A 
ATOM      4  C   UNL     1       9.043 -25.290 -48.167  1.00  0.00     0.058 A 
ATOM      5  Cl  UNL     1       7.571 -26.122 -48.516  1.00  0.00    -0.083 Cl
ATOM      6  C   UNL     1       9.573 -24.253 -48.937  1.00  0.00     0.071 A 
ATOM      7  C   UNL     1      10.766 -23.615 -48.556  1.00  0.00     0.034 A 
ENDROOT
BRANCH   1   8
ATOM      8  C   UNL     1      12.642 -23.296 -46.891  1.00  0.00     0.269 C 
ATOM      9  O   UNL     1      13.619 -23.145 -47.623  1.00  0.00    -0.267 OA
ATOM     10  N   UNL     1      12.626 -22.879 -45.571  1.00  0.00    -0.266 N 
ATOM     11  H   UNL     1      11.875 -23.075 -44.917  1.00  0.00     0.191 HD
BRANCH  10  12
ATOM     12  N   UNL     1      13.829 -22.407 -45.024  1.00  0.00    -0.298 N 
ATOM     13  H   UNL     1      14.414 -22.011 -45.770  1.00  0.00     0.188 HD
BRANCH  12  14
ATOM     14  C   UNL     1      14.579 -23.177 -44.146  1.00  0.00     0.065 C 
ATOM     15  C   UNL     1      14.085 -24.066 -43.273  1.00  0.00     0.050 C 
ATOM     16  C   UNL     1      16.050 -23.027 -44.150  1.00  0.00     0.041 A 
ATOM     17  C   UNL     1      14.917 -24.916 -42.358  1.00  0.00     0.229 C 
ATOM     18  C   UNL     1      16.705 -22.062 -44.938  1.00  0.00     0.014 A 
ATOM     19  C   UNL     1      16.837 -23.849 -43.335  1.00  0.00     0.130 A 
ATOM     20  O   UNL     1      16.341 -24.796 -42.485  1.00  0.00    -0.481 OA
ATOM     21  C   UNL     1      18.099 -21.945 -44.932  1.00  0.00     0.001 A 
ATOM     22  C   UNL     1      18.232 -23.734 -43.331  1.00  0.00     0.047 A 
ATOM     23  C   UNL     1      18.864 -22.786 -44.132  1.00  0.00     0.004 A 
BRANCH  17  24
ATOM     24  C   UNL     1      14.540 -24.701 -40.901  1.00  0.00    -0.004 A 
ATOM     25  C   UNL     1      13.294 -24.159 -40.547  1.00  0.00     0.008 A 
ATOM     26  C   UNL     1      15.423 -25.080 -39.877  1.00  0.00     0.008 A 
ATOM     27  C   UNL     1      12.942 -24.001 -39.205  1.00  0.00     0.000 A 
ATOM     28  C   UNL     1      15.068 -24.924 -38.537  1.00  0.00     0.000 A 
ATOM     29  C   UNL     1      13.828 -24.385 -38.201  1.00  0.00     0.000 A 
ENDBRANCH  17  24
ENDBRANCH  12  14
ENDBRANCH  10  12
ENDBRANCH   1   8
BRANCH   6  30
ATOM     30  S   UNL     1       8.735 -23.644 -50.430  1.00  0.00     0.124 S 
ATOM     31  O   UNL     1       9.662 -22.628 -50.936  1.00  0.00    -0.240 OA
ATOM     32  O   UNL     1       8.698 -24.847 -51.259  1.00  0.00    -0.240 OA
BRANCH  30  33
ATOM     33  N   UNL     1       7.306 -23.090 -49.961  1.00  0.00    -0.573 NA
BRANCH  33  34
ATOM     34  C   UNL     1       6.191 -23.219 -50.722  1.00  0.00    -0.128 A 
ATOM     35  C   UNL     1       5.133 -24.006 -50.237  1.00  0.00    -0.014 A 
ATOM     36  C   UNL     1       6.033 -22.646 -51.998  1.00  0.00    -0.014 A 
ATOM     37  C   UNL     1       3.958 -24.188 -50.972  1.00  0.00     0.019 A 
ATOM     38  C   UNL     1       4.862 -22.825 -52.742  1.00  0.00     0.019 A 
ATOM     39  C   UNL     1       3.828 -23.593 -52.220  1.00  0.00     0.040 A 
ATOM     40  Cl  UNL     1       2.383 -23.823 -53.129  1.00  0.00    -0.084 Cl
ENDBRANCH  33  34
ENDBRANCH  30  33
ENDBRANCH   6  30
TORSDOF 7
ENDMDL
MODEL 2
REMARK VINA RESULT:    -9.279      3.765     11.418
REMARK INTER + INTRA:         -14.420
REMARK INTER:                 -14.242
REMARK INTRA:                  -0.177
REMARK UNBOUND:                -1.343
REMARK SMILES O=C(NNC1=C[C@H](c2ccccc2)Oc2ccccc21)c1ccc(Cl)c(S(=O)(=O)[N-]c2ccc(Cl)cc2)c1
REMARK SMILES IDX 21 1 22 2 23 3 24 4 25 5 26 6 38 7 2 8 1 9 3 10 4 12 5 14
REMARK SMILES IDX 6 15 20 16 7 17 19 18 15 19 14 20 18 21 16 22 17 23 8 24
REMARK SMILES IDX 9 25 13 26 10 27 12 28 11 29 27 30 28 31 29 32 30 33 31 34
REMARK SMILES IDX 32 35 37 36 33 37 36 38 34 39 35 40
REMARK H PARENT 3 11 4 13
ROOT
ATOM      1  C   UNL     1      12.850 -22.009 -48.700  1.00  0.00     0.042 A 
ATOM      2  C   UNL     1      14.173 -21.671 -49.005  1.00  0.00     0.015 A 
ATOM      3  C   UNL     1      15.200 -21.955 -48.100  1.00  0.00     0.022 A 
ATOM      4  C   UNL     1      14.923 -22.579 -46.876  1.00  0.00     0.058 A 
ATOM      5  Cl  UNL     1      16.266 -22.827 -45.820  1.00  0.00    -0.083 Cl
ATOM      6  C   UNL     1      13.604 -22.934 -46.586  1.00  0.00     0.071 A 
ATOM      7  C   UNL     1      12.571 -22.665 -47.499  1.00  0.00     0.034 A 
ENDROOT
BRANCH   1   8
ATOM      8  C   UNL     1      11.781 -21.627 -49.666  1.00  0.00     0.269 C 
ATOM      9  O   UNL     1      11.813 -20.543 -50.245  1.00  0.00    -0.267 OA
ATOM     10  N   UNL     1      10.748 -22.533 -49.833  1.00  0.00    -0.266 N 
ATOM     11  H   UNL     1      10.645 -23.390 -49.299  1.00  0.00     0.191 HD
BRANCH  10  12
ATOM     12  N   UNL     1       9.632 -22.117 -50.575  1.00  0.00    -0.298 N 
ATOM     13  H   UNL     1       9.362 -21.168 -50.287  1.00  0.00     0.188 HD
BRANCH  12  14
ATOM     14  C   UNL     1       8.520 -22.933 -50.734  1.00  0.00     0.065 C 
ATOM     15  C   UNL     1       7.561 -22.772 -51.656  1.00  0.00     0.050 C 
ATOM     16  C   UNL     1       8.352 -24.087 -49.824  1.00  0.00     0.041 A 
ATOM     17  C   UNL     1       6.387 -23.689 -51.835  1.00  0.00     0.229 C 
ATOM     18  C   UNL     1       9.221 -24.325 -48.743  1.00  0.00     0.014 A 
ATOM     19  C   UNL     1       7.285 -24.974 -50.013  1.00  0.00     0.130 A 
ATOM     20  O   UNL     1       6.337 -24.845 -50.988  1.00  0.00    -0.481 OA
ATOM     21  C   UNL     1       9.047 -25.428 -47.901  1.00  0.00     0.001 A 
ATOM     22  C   UNL     1       7.113 -26.080 -49.173  1.00  0.00     0.047 A 
ATOM     23  C   UNL     1       7.994 -26.310 -48.120  1.00  0.00     0.004 A 
BRANCH  17  24
ATOM     24  C   UNL     1       5.070 -22.939 -51.709  1.00  0.00    -0.004 A 
ATOM     25  C   UNL     1       4.321 -22.594 -52.846  1.00  0.00     0.008 A 
ATOM     26  C   UNL     1       4.560 -22.610 -50.443  1.00  0.00     0.008 A 
ATOM     27  C   UNL     1       3.095 -21.939 -52.718  1.00  0.00     0.000 A 
ATOM     28  C   UNL     1       3.333 -21.958 -50.317  1.00  0.00     0.000 A 
ATOM     29  C   UNL     1       2.600 -21.623 -51.454  1.00  0.00     0.000 A 
ENDBRANCH  17  24
ENDBRANCH  12  14
ENDBRANCH  10  12
ENDBRANCH   1   8
BRANCH   6  30
ATOM     30  S   UNL     1      13.148 -23.711 -45.007  1.00  0.00     0.124 S 
ATOM     31  O   UNL     1      11.732 -23.361 -44.867  1.00  0.00    -0.240 OA
ATOM     32  O   UNL     1      13.360 -25.126 -45.303  1.00  0.00    -0.240 OA
BRANCH  30  33
ATOM     33  N   UNL     1      14.117 -23.089 -43.893  1.00  0.00    -0.573 NA
BRANCH  33  34
ATOM     34  C   UNL     1      14.293 -23.668 -42.678  1.00  0.00    -0.128 A 
ATOM     35  C   UNL     1      15.597 -23.775 -42.167  1.00  0.00    -0.014 A 
ATOM     36  C   UNL     1      13.252 -24.211 -41.903  1.00  0.00    -0.014 A 
ATOM     37  C   UNL     1      15.853 -24.366 -40.926  1.00  0.00     0.019 A 
ATOM     38  C   UNL     1      13.498 -24.807 -40.661  1.00  0.00     0.019 A 
ATOM     39  C   UNL     1      14.800 -24.876 -40.178  1.00  0.00     0.040 A 
ATOM     40  Cl  UNL     1      15.114 -25.610 -38.652  1.00  0.00    -0.084 Cl
ENDBRANCH  33  34
ENDBRANCH  30  33
ENDBRANCH   6  30
TORSDOF 7
ENDMDL
MODEL 3
REMARK VINA RESULT:    -9.142      4.096      5.573
REMARK INTER + INTRA:         -14.226
REMARK INTER:                 -13.621
REMARK INTRA:                  -0.605
REMARK UNBOUND:                -1.343
REMARK SMILES O=C(NNC1=C[C@H](c2ccccc2)Oc2ccccc21)c1ccc(Cl)c(S(=O)(=O)[N-]c2ccc(Cl)cc2)c1
REMARK SMILES IDX 21 1 22 2 23 3 24 4 25 5 26 6 38 7 2 8 1 9 3 10 4 12 5 14
REMARK SMILES IDX 6 15 20 16 7 17 19 18 15 19 14 20 18 21 16 22 17 23 8 24
REMARK SMILES IDX 9 25 13 26 10 27 12 28 11 29 27 30 28 31 29 32 30 33 31 34
REMARK SMILES IDX 32 35 37 36 33 37 36 38 34 39 35 40
REMARK H PARENT 3 11 4 13
ROOT
ATOM      1  C   UNL     1      12.678 -24.931 -47.326  1.00  0.00     0.042 A 
ATOM      2  C   UNL     1      11.471 -25.378 -47.875  1.00  0.00     0.015 A 
ATOM      3  C   UNL     1      10.771 -24.577 -48.783  1.00  0.00     0.022 A 
ATOM      4  C   UNL     1      11.262 -23.320 -49.155  1.00  0.00     0.058 A 
ATOM      5  Cl  UNL     1      10.281 -22.402 -50.240  1.00  0.00    -0.083 Cl
ATOM      6  C   UNL     1      12.478 -22.888 -48.621  1.00  0.00     0.071 A 
ATOM      7  C   UNL     1      13.193 -23.695 -47.721  1.00  0.00     0.034 A 
ENDROOT
BRANCH   1   8
ATOM      8  C   UNL     1      13.356 -25.790 -46.313  1.00  0.00     0.269 C 
ATOM      9  O   UNL     1      12.705 -26.390 -45.459  1.00  0.00    -0.267 OA
ATOM     10  N   UNL     1      14.738 -25.832 -46.365  1.00  0.00    -0.266 N 
ATOM     11  H   UNL     1      15.305 -25.273 -46.995  1.00  0.00     0.191 HD
BRANCH  10  12
ATOM     12  N   UNL     1      15.410 -26.462 -45.307  1.00  0.00    -0.298 N 
ATOM     13  H   UNL     1      14.871 -27.280 -44.996  1.00  0.00     0.188 HD
BRANCH  12  14
ATOM     14  C   UNL     1      15.905 -25.741 -44.229  1.00  0.00     0.065 C 
ATOM     15  C   UNL     1      15.815 -26.104 -42.942  1.00  0.00     0.050 C 
ATOM     16  C   UNL     1      16.596 -24.460 -44.490  1.00  0.00     0.041 A 
ATOM     17  C   UNL     1      16.390 -25.328 -41.794  1.00  0.00     0.229 C 
ATOM     18  C   UNL     1      16.679 -23.900 -45.778  1.00  0.00     0.014 A 
ATOM     19  C   UNL     1      17.177 -23.753 -43.430  1.00  0.00     0.130 A 
ATOM     20  O   UNL     1      17.136 -24.148 -42.124  1.00  0.00    -0.481 OA
ATOM     21  C   UNL     1      17.345 -22.691 -46.002  1.00  0.00     0.001 A 
ATOM     22  C   UNL     1      17.847 -22.545 -43.655  1.00  0.00     0.047 A 
ATOM     23  C   UNL     1      17.935 -22.015 -44.939  1.00  0.00     0.004 A 
BRANCH  17  24
ATOM     24  C   UNL     1      15.320 -24.957 -40.780  1.00  0.00    -0.004 A 
ATOM     25  C   UNL     1      15.543 -25.109 -39.402  1.00  0.00     0.008 A 
ATOM     26  C   UNL     1      14.097 -24.415 -41.206  1.00  0.00     0.008 A 
ATOM     27  C   UNL     1      14.569 -24.730 -38.477  1.00  0.00     0.000 A 
ATOM     28  C   UNL     1      13.125 -24.034 -40.280  1.00  0.00     0.000 A 
ATOM     29  C   UNL     1      13.361 -24.192 -38.916  1.00  0.00     0.000 A 
ENDBRANCH  17  24
ENDBRANCH  12  14
ENDBRANCH  10  12
ENDBRANCH   1   8
BRANCH   6  30
ATOM     30  S   UNL     1      13.172 -21.255 -49.018  1.00  0.00     0.124 S 
ATOM     31  O   UNL     1      12.529 -20.378 -48.037  1.00  0.00    -0.240 OA
ATOM     32  O   UNL     1      14.593 -21.466 -48.751  1.00  0.00    -0.240 OA
BRANCH  30  33
ATOM     33  N   UNL     1      12.798 -20.958 -50.548  1.00  0.00    -0.573 NA
BRANCH  33  34
ATOM     34  C   UNL     1      13.481 -20.059 -51.301  1.00  0.00    -0.128 A 
ATOM     35  C   UNL     1      13.804 -18.814 -50.735  1.00  0.00    -0.014 A 
ATOM     36  C   UNL     1      13.859 -20.273 -52.640  1.00  0.00    -0.014 A 
ATOM     37  C   UNL     1      14.499 -17.839 -51.455  1.00  0.00     0.019 A 
ATOM     38  C   UNL     1      14.553 -19.302 -53.370  1.00  0.00     0.019 A 
ATOM     39  C   UNL     1      14.872 -18.090 -52.770  1.00  0.00     0.040 A 
ATOM     40  Cl  UNL     1      15.723 -16.886 -53.660  1.00  0.00    -0.084 Cl
ENDBRANCH  33  34
ENDBRANCH  30  33
ENDBRANCH   6  30
TORSDOF 7
ENDMDL
MODEL 4
REMARK VINA RESULT:    -8.908      1.436      1.702
REMARK INTER + INTRA:         -13.897
REMARK INTER:                 -12.731
REMARK INTRA:                  -1.166
REMARK UNBOUND:                -1.343
REMARK SMILES O=C(NNC1=C[C@H](c2ccccc2)Oc2ccccc21)c1ccc(Cl)c(S(=O)(=O)[N-]c2ccc(Cl)cc2)c1
REMARK SMILES IDX 21 1 22 2 23 3 24 4 25 5 26 6 38 7 2 8 1 9 3 10 4 12 5 14
REMARK SMILES IDX 6 15 20 16 7 17 19 18 15 19 14 20 18 21 16 22 17 23 8 24
REMARK SMILES IDX 9 25 13 26 10 27 12 28 11 29 27 30 28 31 29 32 30 33 31 34
REMARK SMILES IDX 32 35 37 36 33 37 36 38 34 39 35 40
REMARK H PARENT 3 11 4 13
ROOT
ATOM      1  C   UNL     1      11.374 -24.210 -47.705  1.00  0.00     0.042 A 
ATOM      2  C   UNL     1      12.293 -24.734 -48.622  1.00  0.00     0.015 A 
ATOM      3  C   UNL     1      11.864 -25.164 -49.881  1.00  0.00     0.022 A 
ATOM      4  C   UNL     1      10.514 -25.080 -50.245  1.00  0.00     0.058 A 
ATOM      5  Cl  UNL     1      10.098 -25.693 -51.804  1.00  0.00    -0.083 Cl
ATOM      6  C   UNL     1       9.605 -24.536 -49.335  1.00  0.00     0.071 A 
ATOM      7  C   UNL     1      10.033 -24.087 -48.074  1.00  0.00     0.034 A 
ENDROOT
BRANCH   1   8
ATOM      8  C   UNL     1      11.866 -23.825 -46.352  1.00  0.00     0.269 C 
ATOM      9  O   UNL     1      11.155 -23.967 -45.358  1.00  0.00    -0.267 OA
ATOM     10  N   UNL     1      13.131 -23.266 -46.291  1.00  0.00    -0.266 N 
ATOM     11  H   UNL     1      13.701 -23.047 -47.102  1.00  0.00     0.191 HD
BRANCH  10  12
ATOM     12  N   UNL     1      13.538 -22.709 -45.069  1.00  0.00    -0.298 N 
ATOM     13  H   UNL     1      13.874 -21.750 -45.222  1.00  0.00     0.188 HD
BRANCH  12  14
ATOM     14  C   UNL     1      14.364 -23.402 -44.194  1.00  0.00     0.065 C 
ATOM     15  C   UNL     1      13.959 -24.307 -43.293  1.00  0.00     0.050 C 
ATOM     16  C   UNL     1      15.819 -23.140 -44.237  1.00  0.00     0.041 A 
ATOM     17  C   UNL     1      14.873 -25.072 -42.382  1.00  0.00     0.229 C 
ATOM     18  C   UNL     1      16.381 -22.146 -45.058  1.00  0.00     0.014 A 
ATOM     19  C   UNL     1      16.684 -23.884 -43.424  1.00  0.00     0.130 A 
ATOM     20  O   UNL     1      16.280 -24.848 -42.544  1.00  0.00    -0.481 OA
ATOM     21  C   UNL     1      17.761 -21.923 -45.086  1.00  0.00     0.001 A 
ATOM     22  C   UNL     1      18.066 -23.664 -43.456  1.00  0.00     0.047 A 
ATOM     23  C   UNL     1      18.605 -22.687 -44.289  1.00  0.00     0.004 A 
BRANCH  17  24
ATOM     24  C   UNL     1      14.513 -24.857 -40.921  1.00  0.00    -0.004 A 
ATOM     25  C   UNL     1      13.373 -24.123 -40.556  1.00  0.00     0.008 A 
ATOM     26  C   UNL     1      15.299 -25.424 -39.906  1.00  0.00     0.008 A 
ATOM     27  C   UNL     1      13.029 -23.962 -39.212  1.00  0.00     0.000 A 
ATOM     28  C   UNL     1      14.954 -25.265 -38.563  1.00  0.00     0.000 A 
ATOM     29  C   UNL     1      13.819 -24.535 -38.217  1.00  0.00     0.000 A 
ENDBRANCH  17  24
ENDBRANCH  12  14
ENDBRANCH  10  12
ENDBRANCH   1   8
BRANCH   6  30
ATOM     30  S   UNL     1       7.829 -24.424 -49.706  1.00  0.00     0.124 S 
ATOM     31  O   UNL     1       7.442 -25.825 -49.887  1.00  0.00    -0.240 OA
ATOM     32  O   UNL     1       7.306 -23.840 -48.473  1.00  0.00    -0.240 OA
BRANCH  30  33
ATOM     33  N   UNL     1       7.691 -23.504 -51.012  1.00  0.00    -0.573 NA
BRANCH  33  34
ATOM     34  C   UNL     1       6.544 -23.435 -51.734  1.00  0.00    -0.128 A 
ATOM     35  C   UNL     1       6.272 -24.454 -52.663  1.00  0.00    -0.014 A 
ATOM     36  C   UNL     1       5.616 -22.381 -51.646  1.00  0.00    -0.014 A 
ATOM     37  C   UNL     1       5.114 -24.442 -53.446  1.00  0.00     0.019 A 
ATOM     38  C   UNL     1       4.455 -22.360 -52.427  1.00  0.00     0.019 A 
ATOM     39  C   UNL     1       4.210 -23.395 -53.321  1.00  0.00     0.040 A 
ATOM     40  Cl  UNL     1       2.786 -23.377 -54.289  1.00  0.00    -0.084 Cl
ENDBRANCH  33  34
ENDBRANCH  30  33
ENDBRANCH   6  30
TORSDOF 7
ENDMDL
MODEL 5
REMARK VINA RESULT:    -8.702      2.345      3.021
REMARK INTER + INTRA:         -13.605
REMARK INTER:                 -13.046
REMARK INTRA:                  -0.559
REMARK UNBOUND:                -1.343
REMARK SMILES O=C(NNC1=C[C@H](c2ccccc2)Oc2ccccc21)c1ccc(Cl)c(S(=O)(=O)[N-]c2ccc(Cl)cc2)c1
REMARK SMILES IDX 21 1 22 2 23 3 24 4 25 5 26 6 38 7 2 8 1 9 3 10 4 12 5 14
REMARK SMILES IDX 6 15 20 16 7 17 19 18 15 19 14 20 18 21 16 22 17 23 8 24
REMARK SMILES IDX 9 25 13 26 10 27 12 28 11 29 27 30 28 31 29 32 30 33 31 34
REMARK SMILES IDX 32 35 37 36 33 37 36 38 34 39 35 40
REMARK H PARENT 3 11 4 13
ROOT
ATOM      1  C   UNL     1      13.667 -23.495 -47.472  1.00  0.00     0.042 A 
ATOM      2  C   UNL     1      14.669 -22.540 -47.677  1.00  0.00     0.015 A 
ATOM      3  C   UNL     1      14.527 -21.572 -48.677  1.00  0.00     0.022 A 
ATOM      4  C   UNL     1      13.385 -21.544 -49.488  1.00  0.00     0.058 A 
ATOM      5  Cl  UNL     1      13.350 -20.338 -50.723  1.00  0.00    -0.083 Cl
ATOM      6  C   UNL     1      12.378 -22.486 -49.265  1.00  0.00     0.071 A 
ATOM      7  C   UNL     1      12.509 -23.449 -48.251  1.00  0.00     0.034 A 
ENDROOT
BRANCH   1   8
ATOM      8  C   UNL     1      13.891 -24.546 -46.440  1.00  0.00     0.269 C 
ATOM      9  O   UNL     1      13.082 -24.718 -45.530  1.00  0.00    -0.267 OA
ATOM     10  N   UNL     1      15.067 -25.269 -46.541  1.00  0.00    -0.266 N 
ATOM     11  H   UNL     1      15.797 -25.084 -47.221  1.00  0.00     0.191 HD
BRANCH  10  12
ATOM     12  N   UNL     1      15.402 -26.118 -45.474  1.00  0.00    -0.298 N 
ATOM     13  H   UNL     1      14.616 -26.749 -45.277  1.00  0.00     0.188 HD
BRANCH  12  14
ATOM     14  C   UNL     1      15.963 -25.626 -44.304  1.00  0.00     0.065 C 
ATOM     15  C   UNL     1      15.699 -26.070 -43.067  1.00  0.00     0.050 C 
ATOM     16  C   UNL     1      16.939 -24.519 -44.397  1.00  0.00     0.041 A 
ATOM     17  C   UNL     1      16.345 -25.549 -41.818  1.00  0.00     0.229 C 
ATOM     18  C   UNL     1      17.241 -23.882 -45.615  1.00  0.00     0.014 A 
ATOM     19  C   UNL     1      17.582 -24.059 -43.241  1.00  0.00     0.130 A 
ATOM     20  O   UNL     1      17.358 -24.547 -41.985  1.00  0.00    -0.481 OA
ATOM     21  C   UNL     1      18.174 -22.842 -45.678  1.00  0.00     0.001 A 
ATOM     22  C   UNL     1      18.519 -23.021 -43.305  1.00  0.00     0.047 A 
ATOM     23  C   UNL     1      18.819 -22.415 -44.523  1.00  0.00     0.004 A 
BRANCH  17  24
ATOM     24  C   UNL     1      15.312 -25.033 -40.829  1.00  0.00    -0.004 A 
ATOM     25  C   UNL     1      14.039 -24.622 -41.258  1.00  0.00     0.008 A 
ATOM     26  C   UNL     1      15.602 -24.996 -39.456  1.00  0.00     0.008 A 
ATOM     27  C   UNL     1      13.084 -24.186 -40.338  1.00  0.00     0.000 A 
ATOM     28  C   UNL     1      14.645 -24.562 -38.537  1.00  0.00     0.000 A 
ATOM     29  C   UNL     1      13.387 -24.158 -38.978  1.00  0.00     0.000 A 
ENDBRANCH  17  24
ENDBRANCH  12  14
ENDBRANCH  10  12
ENDBRANCH   1   8
BRANCH   6  30
ATOM     30  S   UNL     1      10.881 -22.548 -50.294  1.00  0.00     0.124 S 
ATOM     31  O   UNL     1      10.345 -21.189 -50.177  1.00  0.00    -0.240 OA
ATOM     32  O   UNL     1      11.442 -22.829 -51.614  1.00  0.00    -0.240 OA
BRANCH  30  33
ATOM     33  N   UNL     1       9.952 -23.702 -49.683  1.00  0.00    -0.573 NA
BRANCH  33  34
ATOM     34  C   UNL     1       8.609 -23.732 -49.876  1.00  0.00    -0.128 A 
ATOM     35  C   UNL     1       7.798 -24.279 -48.867  1.00  0.00    -0.014 A 
ATOM     36  C   UNL     1       7.967 -23.288 -51.046  1.00  0.00    -0.014 A 
ATOM     37  C   UNL     1       6.408 -24.350 -49.001  1.00  0.00     0.019 A 
ATOM     38  C   UNL     1       6.577 -23.356 -51.191  1.00  0.00     0.019 A 
ATOM     39  C   UNL     1       5.805 -23.885 -50.163  1.00  0.00     0.040 A 
ATOM     40  Cl  UNL     1       4.094 -23.977 -50.332  1.00  0.00    -0.084 Cl
ENDBRANCH  33  34
ENDBRANCH  30  33
ENDBRANCH   6  30
TORSDOF 7
ENDMDL
MODEL 6
REMARK VINA RESULT:    -8.590      4.108      7.198
REMARK INTER + INTRA:         -13.448
REMARK INTER:                 -12.232
REMARK INTRA:                  -1.216
REMARK UNBOUND:                -1.343
REMARK SMILES O=C(NNC1=C[C@H](c2ccccc2)Oc2ccccc21)c1ccc(Cl)c(S(=O)(=O)[N-]c2ccc(Cl)cc2)c1
REMARK SMILES IDX 21 1 22 2 23 3 24 4 25 5 26 6 38 7 2 8 1 9 3 10 4 12 5 14
REMARK SMILES IDX 6 15 20 16 7 17 19 18 15 19 14 20 18 21 16 22 17 23 8 24
REMARK SMILES IDX 9 25 13 26 10 27 12 28 11 29 27 30 28 31 29 32 30 33 31 34
REMARK SMILES IDX 32 35 37 36 33 37 36 38 34 39 35 40
REMARK H PARENT 3 11 4 13
ROOT
ATOM      1  C   UNL     1       7.857 -23.674 -50.180  1.00  0.00     0.042 A 
ATOM      2  C   UNL     1       8.151 -23.194 -51.461  1.00  0.00     0.015 A 
ATOM      3  C   UNL     1       7.131 -23.037 -52.406  1.00  0.00     0.022 A 
ATOM      4  C   UNL     1       5.806 -23.360 -52.089  1.00  0.00     0.058 A 
ATOM      5  Cl  UNL     1       4.647 -23.177 -53.355  1.00  0.00    -0.083 Cl
ATOM      6  C   UNL     1       5.515 -23.818 -50.802  1.00  0.00     0.071 A 
ATOM      7  C   UNL     1       6.533 -23.960 -49.844  1.00  0.00     0.034 A 
ENDROOT
BRANCH   1   8
ATOM      8  C   UNL     1       8.984 -23.885 -49.228  1.00  0.00     0.269 C 
ATOM      9  O   UNL     1       8.813 -23.781 -48.015  1.00  0.00    -0.267 OA
ATOM     10  N   UNL     1      10.222 -24.154 -49.787  1.00  0.00    -0.266 N 
ATOM     11  H   UNL     1      10.414 -24.149 -50.784  1.00  0.00     0.191 HD
BRANCH  10  12
ATOM     12  N   UNL     1      11.335 -24.155 -48.933  1.00  0.00    -0.298 N 
ATOM     13  H   UNL     1      11.072 -24.558 -48.025  1.00  0.00     0.188 HD
BRANCH  12  14
ATOM     14  C   UNL     1      12.130 -23.028 -48.775  1.00  0.00     0.065 C 
ATOM     15  C   UNL     1      11.909 -21.833 -49.342  1.00  0.00     0.050 C 
ATOM     16  C   UNL     1      13.330 -23.122 -47.916  1.00  0.00     0.041 A 
ATOM     17  C   UNL     1      12.762 -20.617 -49.128  1.00  0.00     0.229 C 
ATOM     18  C   UNL     1      13.748 -24.334 -47.337  1.00  0.00     0.014 A 
ATOM     19  C   UNL     1      14.104 -21.980 -47.674  1.00  0.00     0.130 A 
ATOM     20  O   UNL     1      13.850 -20.747 -48.204  1.00  0.00    -0.481 OA
ATOM     21  C   UNL     1      14.882 -24.396 -46.521  1.00  0.00     0.001 A 
ATOM     22  C   UNL     1      15.237 -22.041 -46.854  1.00  0.00     0.047 A 
ATOM     23  C   UNL     1      15.624 -23.246 -46.274  1.00  0.00     0.004 A 
BRANCH  17  24
ATOM     24  C   UNL     1      13.304 -20.079 -50.443  1.00  0.00    -0.004 A 
ATOM     25  C   UNL     1      13.263 -20.852 -51.615  1.00  0.00     0.008 A 
ATOM     26  C   UNL     1      13.822 -18.776 -50.515  1.00  0.00     0.008 A 
ATOM     27  C   UNL     1      13.729 -20.335 -52.825  1.00  0.00     0.000 A 
ATOM     28  C   UNL     1      14.285 -18.260 -51.726  1.00  0.00     0.000 A 
ATOM     29  C   UNL     1      14.238 -19.039 -52.881  1.00  0.00     0.000 A 
ENDBRANCH  17  24
ENDBRANCH  12  14
ENDBRANCH  10  12
ENDBRANCH   1   8
BRANCH   6  30
ATOM     30  S   UNL     1       3.830 -24.296 -50.314  1.00  0.00     0.124 S 
ATOM     31  O   UNL     1       3.403 -25.162 -51.415  1.00  0.00    -0.240 OA
ATOM     32  O   UNL     1       4.079 -25.028 -49.074  1.00  0.00    -0.240 OA
BRANCH  30  33
ATOM     33  N   UNL     1       2.997 -22.937 -50.152  1.00  0.00    -0.573 NA
BRANCH  33  34
ATOM     34  C   UNL     1       1.896 -22.666 -50.898  1.00  0.00    -0.128 A 
ATOM     35  C   UNL     1       1.925 -21.558 -51.761  1.00  0.00    -0.014 A 
ATOM     36  C   UNL     1       0.698 -23.402 -50.837  1.00  0.00    -0.014 A 
ATOM     37  C   UNL     1       0.825 -21.216 -52.553  1.00  0.00     0.019 A 
ATOM     38  C   UNL     1      -0.409 -23.066 -51.624  1.00  0.00     0.019 A 
ATOM     39  C   UNL     1      -0.337 -21.975 -52.481  1.00  0.00     0.040 A 
ATOM     40  Cl  UNL     1      -1.695 -21.551 -53.452  1.00  0.00    -0.084 Cl
ENDBRANCH  33  34
ENDBRANCH  30  33
ENDBRANCH   6  30
TORSDOF 7
ENDMDL
MODEL 7
REMARK VINA RESULT:    -8.490      4.118      7.138
REMARK INTER + INTRA:         -13.307
REMARK INTER:                 -11.720
REMARK INTRA:                  -1.586
REMARK UNBOUND:                -1.343
REMARK SMILES O=C(NNC1=C[C@H](c2ccccc2)Oc2ccccc21)c1ccc(Cl)c(S(=O)(=O)[N-]c2ccc(Cl)cc2)c1
REMARK SMILES IDX 21 1 22 2 23 3 24 4 25 5 26 6 38 7 2 8 1 9 3 10 4 12 5 14
REMARK SMILES IDX 6 15 20 16 7 17 19 18 15 19 14 20 18 21 16 22 17 23 8 24
REMARK SMILES IDX 9 25 13 26 10 27 12 28 11 29 27 30 28 31 29 32 30 33 31 34
REMARK SMILES IDX 32 35 37 36 33 37 36 38 34 39 35 40
REMARK H PARENT 3 11 4 13
ROOT
ATOM      1  C   UNL     1       7.846 -23.802 -50.037  1.00  0.00     0.042 A 
ATOM      2  C   UNL     1       8.072 -23.006 -51.166  1.00  0.00     0.015 A 
ATOM      3  C   UNL     1       7.074 -22.856 -52.134  1.00  0.00     0.022 A 
ATOM      4  C   UNL     1       5.837 -23.499 -51.992  1.00  0.00     0.058 A 
ATOM      5  Cl  UNL     1       4.707 -23.282 -53.279  1.00  0.00    -0.083 Cl
ATOM      6  C   UNL     1       5.608 -24.274 -50.853  1.00  0.00     0.071 A 
ATOM      7  C   UNL     1       6.602 -24.415 -49.870  1.00  0.00     0.034 A 
ENDROOT
BRANCH   1   8
ATOM      8  C   UNL     1       8.961 -23.985 -49.065  1.00  0.00     0.269 C 
ATOM      9  O   UNL     1       8.766 -23.882 -47.855  1.00  0.00    -0.267 OA
ATOM     10  N   UNL     1      10.214 -24.227 -49.602  1.00  0.00    -0.266 N 
ATOM     11  H   UNL     1      10.423 -24.221 -50.595  1.00  0.00     0.191 HD
BRANCH  10  12
ATOM     12  N   UNL     1      11.312 -24.199 -48.728  1.00  0.00    -0.298 N 
ATOM     13  H   UNL     1      11.025 -24.546 -47.804  1.00  0.00     0.188 HD
BRANCH  12  14
ATOM     14  C   UNL     1      12.126 -23.080 -48.620  1.00  0.00     0.065 C 
ATOM     15  C   UNL     1      11.878 -21.881 -49.166  1.00  0.00     0.050 C 
ATOM     16  C   UNL     1      13.379 -23.189 -47.843  1.00  0.00     0.041 A 
ATOM     17  C   UNL     1      12.754 -20.674 -49.006  1.00  0.00     0.229 C 
ATOM     18  C   UNL     1      13.823 -24.407 -47.298  1.00  0.00     0.014 A 
ATOM     19  C   UNL     1      14.178 -22.055 -47.649  1.00  0.00     0.130 A 
ATOM     20  O   UNL     1      13.900 -20.818 -48.156  1.00  0.00    -0.481 OA
ATOM     21  C   UNL     1      15.009 -24.482 -46.559  1.00  0.00     0.001 A 
ATOM     22  C   UNL     1      15.362 -22.129 -46.906  1.00  0.00     0.047 A 
ATOM     23  C   UNL     1      15.776 -23.340 -46.358  1.00  0.00     0.004 A 
BRANCH  17  24
ATOM     24  C   UNL     1      13.212 -20.135 -50.351  1.00  0.00    -0.004 A 
ATOM     25  C   UNL     1      13.761 -18.847 -50.468  1.00  0.00     0.008 A 
ATOM     26  C   UNL     1      13.130 -20.936 -51.501  1.00  0.00     0.008 A 
ATOM     27  C   UNL     1      14.214 -18.375 -51.701  1.00  0.00     0.000 A 
ATOM     28  C   UNL     1      13.585 -20.464 -52.733  1.00  0.00     0.000 A 
ATOM     29  C   UNL     1      14.128 -19.184 -52.833  1.00  0.00     0.000 A 
ENDBRANCH  17  24
ENDBRANCH  12  14
ENDBRANCH  10  12
ENDBRANCH   1   8
BRANCH   6  30
ATOM     30  S   UNL     1       4.049 -25.174 -50.605  1.00  0.00     0.124 S 
ATOM     31  O   UNL     1       3.900 -25.924 -51.855  1.00  0.00    -0.240 OA
ATOM     32  O   UNL     1       4.378 -26.026 -49.464  1.00  0.00    -0.240 OA
BRANCH  30  33
ATOM     33  N   UNL     1       2.920 -24.070 -50.334  1.00  0.00    -0.573 NA
BRANCH  33  34
ATOM     34  C   UNL     1       3.106 -23.036 -49.475  1.00  0.00    -0.128 A 
ATOM     35  C   UNL     1       2.962 -23.274 -48.097  1.00  0.00    -0.014 A 
ATOM     36  C   UNL     1       3.396 -21.718 -49.873  1.00  0.00    -0.014 A 
ATOM     37  C   UNL     1       3.131 -22.255 -47.156  1.00  0.00     0.019 A 
ATOM     38  C   UNL     1       3.566 -20.691 -48.938  1.00  0.00     0.019 A 
ATOM     39  C   UNL     1       3.435 -20.968 -47.582  1.00  0.00     0.040 A 
ATOM     40  Cl  UNL     1       3.638 -19.710 -46.423  1.00  0.00    -0.084 Cl
ENDBRANCH  33  34
ENDBRANCH  30  33
ENDBRANCH   6  30
TORSDOF 7
ENDMDL
MODEL 8
REMARK VINA RESULT:    -8.323      4.590     11.136
REMARK INTER + INTRA:         -13.072
REMARK INTER:                 -12.195
REMARK INTRA:                  -0.877
REMARK UNBOUND:                -1.343
REMARK SMILES O=C(NNC1=C[C@H](c2ccccc2)Oc2ccccc21)c1ccc(Cl)c(S(=O)(=O)[N-]c2ccc(Cl)cc2)c1
REMARK SMILES IDX 21 1 22 2 23 3 24 4 25 5 26 6 38 7 2 8 1 9 3 10 4 12 5 14
REMARK SMILES IDX 6 15 20 16 7 17 19 18 15 19 14 20 18 21 16 22 17 23 8 24
REMARK SMILES IDX 9 25 13 26 10 27 12 28 11 29 27 30 28 31 29 32 30 33 31 34
REMARK SMILES IDX 32 35 37 36 33 37 36 38 34 39 35 40
REMARK H PARENT 3 11 4 13
ROOT
ATOM      1  C   UNL     1      15.094 -24.305 -45.954  1.00  0.00     0.042 A 
ATOM      2  C   UNL     1      15.736 -23.147 -46.406  1.00  0.00     0.015 A 
ATOM      3  C   UNL     1      16.920 -22.715 -45.799  1.00  0.00     0.022 A 
ATOM      4  C   UNL     1      17.478 -23.430 -44.731  1.00  0.00     0.058 A 
ATOM      5  Cl  UNL     1      18.910 -22.767 -44.029  1.00  0.00    -0.083 Cl
ATOM      6  C   UNL     1      16.845 -24.597 -44.298  1.00  0.00     0.071 A 
ATOM      7  C   UNL     1      15.665 -25.044 -44.916  1.00  0.00     0.034 A 
ENDROOT
BRANCH   1   8
ATOM      8  C   UNL     1      13.801 -24.691 -46.588  1.00  0.00     0.269 C 
ATOM      9  O   UNL     1      13.696 -25.743 -47.216  1.00  0.00    -0.267 OA
ATOM     10  N   UNL     1      12.761 -23.785 -46.468  1.00  0.00    -0.266 N 
ATOM     11  H   UNL     1      12.845 -22.868 -46.041  1.00  0.00     0.191 HD
BRANCH  10  12
ATOM     12  N   UNL     1      11.602 -24.023 -47.223  1.00  0.00    -0.298 N 
ATOM     13  H   UNL     1      11.345 -25.016 -47.156  1.00  0.00     0.188 HD
BRANCH  12  14
ATOM     14  C   UNL     1      11.472 -23.552 -48.523  1.00  0.00     0.065 C 
ATOM     15  C   UNL     1      12.476 -23.115 -49.296  1.00  0.00     0.050 C 
ATOM     16  C   UNL     1      10.126 -23.519 -49.133  1.00  0.00     0.041 A 
ATOM     17  C   UNL     1      12.319 -22.645 -50.712  1.00  0.00     0.229 C 
ATOM     18  C   UNL     1       8.964 -23.850 -48.411  1.00  0.00     0.014 A 
ATOM     19  C   UNL     1       9.977 -23.127 -50.469  1.00  0.00     0.130 A 
ATOM     20  O   UNL     1      11.004 -22.734 -51.279  1.00  0.00    -0.481 OA
ATOM     21  C   UNL     1       7.702 -23.818 -49.013  1.00  0.00     0.001 A 
ATOM     22  C   UNL     1       8.714 -23.099 -51.073  1.00  0.00     0.047 A 
ATOM     23  C   UNL     1       7.578 -23.448 -50.348  1.00  0.00     0.004 A 
BRANCH  17  24
ATOM     24  C   UNL     1      12.827 -21.223 -50.887  1.00  0.00    -0.004 A 
ATOM     25  C   UNL     1      13.068 -20.397 -49.777  1.00  0.00     0.008 A 
ATOM     26  C   UNL     1      13.102 -20.722 -52.169  1.00  0.00     0.008 A 
ATOM     27  C   UNL     1      13.571 -19.106 -49.946  1.00  0.00     0.000 A 
ATOM     28  C   UNL     1      13.607 -19.432 -52.337  1.00  0.00     0.000 A 
ATOM     29  C   UNL     1      13.842 -18.624 -51.225  1.00  0.00     0.000 A 
ENDBRANCH  17  24
ENDBRANCH  12  14
ENDBRANCH  10  12
ENDBRANCH   1   8
BRANCH   6  30
ATOM     30  S   UNL     1      17.478 -25.565 -42.897  1.00  0.00     0.124 S 
ATOM     31  O   UNL     1      18.449 -26.462 -43.528  1.00  0.00    -0.240 OA
ATOM     32  O   UNL     1      18.105 -24.528 -42.080  1.00  0.00    -0.240 OA
BRANCH  30  33
ATOM     33  N   UNL     1      16.213 -26.290 -42.231  1.00  0.00    -0.573 NA
BRANCH  33  34
ATOM     34  C   UNL     1      15.472 -25.707 -41.254  1.00  0.00    -0.128 A 
ATOM     35  C   UNL     1      15.970 -25.714 -39.940  1.00  0.00    -0.014 A 
ATOM     36  C   UNL     1      14.207 -25.126 -41.460  1.00  0.00    -0.014 A 
ATOM     37  C   UNL     1      15.258 -25.140 -38.884  1.00  0.00     0.019 A 
ATOM     38  C   UNL     1      13.486 -24.551 -40.408  1.00  0.00     0.019 A 
ATOM     39  C   UNL     1      14.019 -24.558 -39.125  1.00  0.00     0.040 A 
ATOM     40  Cl  UNL     1      13.138 -23.856 -37.822  1.00  0.00    -0.084 Cl
ENDBRANCH  33  34
ENDBRANCH  30  33
ENDBRANCH   6  30
TORSDOF 7
ENDMDL
MODEL 9
REMARK VINA RESULT:    -8.313      4.183     11.276
REMARK INTER + INTRA:         -13.058
REMARK INTER:                 -11.948
REMARK INTRA:                  -1.111
REMARK UNBOUND:                -1.343
REMARK SMILES O=C(NNC1=C[C@H](c2ccccc2)Oc2ccccc21)c1ccc(Cl)c(S(=O)(=O)[N-]c2ccc(Cl)cc2)c1
REMARK SMILES IDX 21 1 22 2 23 3 24 4 25 5 26 6 38 7 2 8 1 9 3 10 4 12 5 14
REMARK SMILES IDX 6 15 20 16 7 17 19 18 15 19 14 20 18 21 16 22 17 23 8 24
REMARK SMILES IDX 9 25 13 26 10 27 12 28 11 29 27 30 28 31 29 32 30 33 31 34
REMARK SMILES IDX 32 35 37 36 33 37 36 38 34 39 35 40
REMARK H PARENT 3 11 4 13
ROOT
ATOM      1  C   UNL     1      13.591 -23.890 -46.928  1.00  0.00     0.042 A 
ATOM      2  C   UNL     1      14.235 -22.741 -47.401  1.00  0.00     0.015 A 
ATOM      3  C   UNL     1      15.484 -22.372 -46.893  1.00  0.00     0.022 A 
ATOM      4  C   UNL     1      16.109 -23.142 -45.903  1.00  0.00     0.058 A 
ATOM      5  Cl  UNL     1      17.623 -22.556 -45.315  1.00  0.00    -0.083 Cl
ATOM      6  C   UNL     1      15.473 -24.300 -45.450  1.00  0.00     0.071 A 
ATOM      7  C   UNL     1      14.226 -24.683 -45.970  1.00  0.00     0.034 A 
ENDROOT
BRANCH   1   8
ATOM      8  C   UNL     1      12.233 -24.207 -47.453  1.00  0.00     0.269 C 
ATOM      9  O   UNL     1      11.225 -23.917 -46.810  1.00  0.00    -0.267 OA
ATOM     10  N   UNL     1      12.180 -24.876 -48.663  1.00  0.00    -0.266 N 
ATOM     11  H   UNL     1      12.993 -25.214 -49.168  1.00  0.00     0.191 HD
BRANCH  10  12
ATOM     12  N   UNL     1      10.933 -25.367 -49.081  1.00  0.00    -0.298 N 
ATOM     13  H   UNL     1      11.021 -26.358 -49.337  1.00  0.00     0.188 HD
BRANCH  12  14
ATOM     14  C   UNL     1      10.149 -24.675 -49.994  1.00  0.00     0.065 C 
ATOM     15  C   UNL     1       9.204 -23.775 -49.687  1.00  0.00     0.050 C 
ATOM     16  C   UNL     1      10.350 -24.931 -51.437  1.00  0.00     0.041 A 
ATOM     17  C   UNL     1       8.394 -23.012 -50.692  1.00  0.00     0.229 C 
ATOM     18  C   UNL     1      11.233 -25.920 -51.910  1.00  0.00     0.014 A 
ATOM     19  C   UNL     1       9.632 -24.189 -52.383  1.00  0.00     0.130 A 
ATOM     20  O   UNL     1       8.709 -23.231 -52.074  1.00  0.00    -0.481 OA
ATOM     21  C   UNL     1      11.412 -26.138 -53.280  1.00  0.00     0.001 A 
ATOM     22  C   UNL     1       9.815 -24.404 -53.754  1.00  0.00     0.047 A 
ATOM     23  C   UNL     1      10.706 -25.374 -54.203  1.00  0.00     0.004 A 
BRANCH  17  24
ATOM     24  C   UNL     1       6.904 -23.236 -50.493  1.00  0.00    -0.004 A 
ATOM     25  C   UNL     1       6.429 -24.137 -49.526  1.00  0.00     0.008 A 
ATOM     26  C   UNL     1       5.971 -22.512 -51.252  1.00  0.00     0.008 A 
ATOM     27  C   UNL     1       5.058 -24.308 -49.325  1.00  0.00     0.000 A 
ATOM     28  C   UNL     1       4.601 -22.682 -51.048  1.00  0.00     0.000 A 
ATOM     29  C   UNL     1       4.145 -23.579 -50.084  1.00  0.00     0.000 A 
ENDBRANCH  17  24
ENDBRANCH  12  14
ENDBRANCH  10  12
ENDBRANCH   1   8
BRANCH   6  30
ATOM     30  S   UNL     1      16.192 -25.338 -44.143  1.00  0.00     0.124 S 
ATOM     31  O   UNL     1      15.165 -26.361 -43.933  1.00  0.00    -0.240 OA
ATOM     32  O   UNL     1      17.389 -25.857 -44.802  1.00  0.00    -0.240 OA
BRANCH  30  33
ATOM     33  N   UNL     1      16.462 -24.376 -42.890  1.00  0.00    -0.573 NA
BRANCH  33  34
ATOM     34  C   UNL     1      15.630 -24.325 -41.819  1.00  0.00    -0.128 A 
ATOM     35  C   UNL     1      16.176 -24.493 -40.535  1.00  0.00    -0.014 A 
ATOM     36  C   UNL     1      14.236 -24.157 -41.907  1.00  0.00    -0.014 A 
ATOM     37  C   UNL     1      15.378 -24.461 -39.389  1.00  0.00     0.019 A 
ATOM     38  C   UNL     1      13.428 -24.125 -40.766  1.00  0.00     0.019 A 
ATOM     39  C   UNL     1      14.006 -24.274 -39.511  1.00  0.00     0.040 A 
ATOM     40  Cl  UNL     1      13.021 -24.240 -38.099  1.00  0.00    -0.084 Cl
ENDBRANCH  33  34
ENDBRANCH  30  33
ENDBRANCH   6  30
TORSDOF 7
ENDMDL
