REMARK SMILES CCCn1c(N)c(C(=O)C[N@@H+]2CC[C@H]3CCCC[C@@H]3C2)c(=O)[nH]c1=O
REMARK SMILES IDX 4 1 5 2 7 3 21 4 22 5 23 6 24 7 25 8 3 10 2 11 1 12 6 13
REMARK SMILES IDX 8 16 9 17 10 18 11 19 12 20 20 21 13 22 19 23 14 24 18 25
REMARK SMILES IDX 15 26 17 27 16 28
REMARK H PARENT 23 9 6 14 6 15 11 29
ROOT
ATOM      1  N   UNL     1       0.923   2.732   3.523  1.00  0.00    -0.279 N 
ATOM      2  C   UNL     1       1.086   1.346   3.466  1.00  0.00     0.124 C 
ATOM      3  C   UNL     1       0.926   0.722   2.277  1.00  0.00     0.129 C 
ATOM      4  C   UNL     1       0.550   1.498   1.082  1.00  0.00     0.266 C 
ATOM      5  O   UNL     1       0.431   0.938  -0.008  1.00  0.00    -0.268 OA
ATOM      6  N   UNL     1       0.345   2.824   1.259  1.00  0.00    -0.273 N 
ATOM      7  C   UNL     1       0.528   3.499   2.429  1.00  0.00     0.329 C 
ATOM      8  O   UNL     1       0.349   4.713   2.450  1.00  0.00    -0.248 OA
ATOM      9  H   UNL     1       0.076   3.393   0.468  1.00  0.00     0.175 HD
ENDROOT
BRANCH   1  10
ATOM     10  C   UNL     1       1.156   3.474   4.772  1.00  0.00     0.129 C 
BRANCH  10  11
ATOM     11  C   UNL     1      -0.125   3.616   5.598  1.00  0.00     0.019 C 
ATOM     12  C   UNL     1       0.130   4.372   6.892  1.00  0.00     0.006 C 
ENDBRANCH  10  11
ENDBRANCH   1  10
BRANCH   2  13
ATOM     13  N   UNL     1       1.434   0.632   4.604  1.00  0.00    -0.384 N 
ATOM     14  H   UNL     1       1.158  -0.356   4.575  1.00  0.00     0.158 HD
ATOM     15  H   UNL     1       1.079   1.046   5.464  1.00  0.00     0.158 HD
ENDBRANCH   2  13
BRANCH   3  16
ATOM     16  C   UNL     1       1.157  -0.745   2.150  1.00  0.00     0.226 C 
ATOM     17  O   UNL     1       0.689  -1.534   2.973  1.00  0.00    -0.287 OA
BRANCH  16  18
ATOM     18  C   UNL     1       1.956  -1.245   0.950  1.00  0.00     0.344 C 
BRANCH  18  19
ATOM     19  N   UNL     1       1.110  -1.585  -0.276  1.00  0.00    -0.328 N 
ATOM     20  C   UNL     1       0.076  -2.649  -0.006  1.00  0.00     0.262 C 
ATOM     21  C   UNL     1       1.975  -1.915  -1.463  1.00  0.00     0.266 C 
ATOM     22  C   UNL     1      -0.814  -2.809  -1.230  1.00  0.00     0.065 C 
ATOM     23  C   UNL     1       1.108  -2.084  -2.712  1.00  0.00     0.047 C 
ATOM     24  C   UNL     1      -0.008  -3.117  -2.497  1.00  0.00     0.003 C 
ATOM     25  C   UNL     1       1.986  -2.457  -3.922  1.00  0.00     0.010 C 
ATOM     26  C   UNL     1      -0.936  -3.203  -3.723  1.00  0.00     0.004 C 
ATOM     27  C   UNL     1       1.240  -3.231  -5.011  1.00  0.00     0.001 C 
ATOM     28  C   UNL     1      -0.239  -2.880  -5.046  1.00  0.00     0.000 C 
ATOM     29  H   UNL     1       0.608  -0.701  -0.506  1.00  0.00     0.348 HD
ENDBRANCH  18  19
ENDBRANCH  16  18
ENDBRANCH   3  16
TORSDOF 6
