MODEL 1
REMARK VINA RESULT:    -7.688      0.000      0.000
REMARK INTER + INTRA:          -9.795
REMARK INTER:                  -9.261
REMARK INTRA:                  -0.534
REMARK UNBOUND:                -0.534
REMARK SMILES Cc1ccc(C(=O)c2c(N)c(C(N)=O)c3ccccn23)cc1C
REMARK SMILES IDX 8 1 9 2 11 3 15 4 16 5 17 6 18 7 19 8 20 9 6 10 7 11 5 12
REMARK SMILES IDX 2 13 3 14 22 15 4 16 21 17 1 18 23 19 10 20 12 23 13 24
REMARK SMILES IDX 14 25
REMARK H PARENT 10 21 10 22 13 26 13 27
ROOT
ATOM      1  C   UNL     1      13.766 -22.893 -46.843  1.00  0.00     0.118 A 
ATOM      2  C   UNL     1      13.075 -21.906 -47.514  1.00  0.00     0.075 A 
ATOM      3  C   UNL     1      12.306 -22.479 -48.563  1.00  0.00     0.088 A 
ATOM      4  C   UNL     1      12.485 -23.854 -48.448  1.00  0.00     0.061 A 
ATOM      5  C   UNL     1      11.941 -24.995 -49.121  1.00  0.00     0.027 C 
ATOM      6  C   UNL     1      12.296 -26.236 -48.743  1.00  0.00     0.004 C 
ATOM      7  C   UNL     1      13.215 -26.461 -47.647  1.00  0.00     0.018 C 
ATOM      8  C   UNL     1      13.714 -25.401 -46.993  1.00  0.00     0.092 C 
ATOM      9  N   UNL     1      13.365 -24.102 -47.388  1.00  0.00    -0.311 N 
ENDROOT
BRANCH   1  10
ATOM     10  C   UNL     1      14.698 -22.719 -45.748  1.00  0.00     0.211 C 
ATOM     11  O   UNL     1      15.792 -22.175 -45.890  1.00  0.00    -0.287 OA
BRANCH  10  12
ATOM     12  C   UNL     1      14.348 -23.246 -44.396  1.00  0.00     0.024 A 
ATOM     13  C   UNL     1      13.621 -24.256 -41.871  1.00  0.00    -0.048 A 
ATOM     14  C   UNL     1      12.662 -24.099 -42.884  1.00  0.00     0.004 A 
ATOM     15  C   UNL     1      14.959 -23.888 -42.122  1.00  0.00    -0.047 A 
ATOM     16  C   UNL     1      13.020 -23.594 -44.134  1.00  0.00     0.012 A 
ATOM     17  C   UNL     1      15.308 -23.380 -43.384  1.00  0.00     0.016 A 
ATOM     18  C   UNL     1      13.194 -24.798 -40.533  1.00  0.00     0.044 C 
ATOM     19  C   UNL     1      16.019 -24.018 -41.061  1.00  0.00     0.044 C 
ENDBRANCH  10  12
ENDBRANCH   1  10
BRANCH   2  20
ATOM     20  N   UNL     1      13.166 -20.589 -47.234  1.00  0.00    -0.396 N 
ATOM     21  H   UNL     1      13.918 -20.276 -46.619  1.00  0.00     0.156 HD
ATOM     22  H   UNL     1      12.298 -20.084 -47.040  1.00  0.00     0.156 HD
ENDBRANCH   2  20
BRANCH   3  23
ATOM     23  C   UNL     1      11.479 -21.754 -49.517  1.00  0.00     0.253 C 
ATOM     24  N   UNL     1      10.275 -22.323 -49.826  1.00  0.00    -0.365 N 
ATOM     25  O   UNL     1      11.837 -20.724 -50.082  1.00  0.00    -0.269 OA
ATOM     26  H   UNL     1       9.806 -21.918 -50.625  1.00  0.00     0.159 HD
ATOM     27  H   UNL     1      10.141 -23.309 -49.655  1.00  0.00     0.159 HD
ENDBRANCH   3  23
TORSDOF 4
ENDMDL
MODEL 2
REMARK VINA RESULT:    -7.647      1.690      2.514
REMARK INTER + INTRA:          -9.746
REMARK INTER:                  -9.029
REMARK INTRA:                  -0.717
REMARK UNBOUND:                -0.534
REMARK SMILES Cc1ccc(C(=O)c2c(N)c(C(N)=O)c3ccccn23)cc1C
REMARK SMILES IDX 8 1 9 2 11 3 15 4 16 5 17 6 18 7 19 8 20 9 6 10 7 11 5 12
REMARK SMILES IDX 2 13 3 14 22 15 4 16 21 17 1 18 23 19 10 20 12 23 13 24
REMARK SMILES IDX 14 25
REMARK H PARENT 10 21 10 22 13 26 13 27
ROOT
ATOM      1  C   UNL     1      12.605 -23.055 -46.711  1.00  0.00     0.118 A 
ATOM      2  C   UNL     1      12.436 -21.962 -47.534  1.00  0.00     0.075 A 
ATOM      3  C   UNL     1      12.081 -22.390 -48.842  1.00  0.00     0.088 A 
ATOM      4  C   UNL     1      11.951 -23.772 -48.760  1.00  0.00     0.061 A 
ATOM      5  C   UNL     1      11.542 -24.796 -49.674  1.00  0.00     0.027 C 
ATOM      6  C   UNL     1      11.485 -26.078 -49.272  1.00  0.00     0.004 C 
ATOM      7  C   UNL     1      11.815 -26.462 -47.915  1.00  0.00     0.018 C 
ATOM      8  C   UNL     1      12.179 -25.510 -47.043  1.00  0.00     0.092 C 
ATOM      9  N   UNL     1      12.258 -24.172 -47.454  1.00  0.00    -0.311 N 
ENDROOT
BRANCH   1  10
ATOM     10  C   UNL     1      13.018 -23.050 -45.323  1.00  0.00     0.211 C 
ATOM     11  O   UNL     1      12.214 -23.092 -44.393  1.00  0.00    -0.287 OA
BRANCH  10  12
ATOM     12  C   UNL     1      14.470 -22.957 -44.989  1.00  0.00     0.024 A 
ATOM     13  C   UNL     1      17.222 -22.760 -44.430  1.00  0.00    -0.048 A 
ATOM     14  C   UNL     1      16.750 -22.671 -45.749  1.00  0.00     0.004 A 
ATOM     15  C   UNL     1      16.304 -22.965 -43.379  1.00  0.00    -0.047 A 
ATOM     16  C   UNL     1      15.387 -22.772 -46.028  1.00  0.00     0.012 A 
ATOM     17  C   UNL     1      14.934 -23.067 -43.671  1.00  0.00     0.016 A 
ATOM     18  C   UNL     1      18.701 -22.652 -44.170  1.00  0.00     0.044 C 
ATOM     19  C   UNL     1      16.764 -23.088 -41.951  1.00  0.00     0.044 C 
ENDBRANCH  10  12
ENDBRANCH   1  10
BRANCH   2  20
ATOM     20  N   UNL     1      12.634 -20.683 -47.152  1.00  0.00    -0.396 N 
ATOM     21  H   UNL     1      13.418 -20.171 -47.560  1.00  0.00     0.156 HD
ATOM     22  H   UNL     1      12.530 -20.463 -46.158  1.00  0.00     0.156 HD
ENDBRANCH   2  20
BRANCH   3  23
ATOM     23  C   UNL     1      11.862 -21.530 -49.997  1.00  0.00     0.253 C 
ATOM     24  N   UNL     1      10.619 -21.588 -50.564  1.00  0.00    -0.365 N 
ATOM     25  O   UNL     1      12.737 -20.832 -50.501  1.00  0.00    -0.269 OA
ATOM     26  H   UNL     1      10.543 -21.142 -51.469  1.00  0.00     0.159 HD
ATOM     27  H   UNL     1      10.038 -22.395 -50.390  1.00  0.00     0.159 HD
ENDBRANCH   3  23
TORSDOF 4
ENDMDL
MODEL 3
REMARK VINA RESULT:    -7.551      1.850      2.133
REMARK INTER + INTRA:          -9.630
REMARK INTER:                  -8.826
REMARK INTRA:                  -0.804
REMARK UNBOUND:                -0.534
REMARK SMILES Cc1ccc(C(=O)c2c(N)c(C(N)=O)c3ccccn23)cc1C
REMARK SMILES IDX 8 1 9 2 11 3 15 4 16 5 17 6 18 7 19 8 20 9 6 10 7 11 5 12
REMARK SMILES IDX 2 13 3 14 22 15 4 16 21 17 1 18 23 19 10 20 12 23 13 24
REMARK SMILES IDX 14 25
REMARK H PARENT 10 21 10 22 13 26 13 27
ROOT
ATOM      1  C   UNL     1      13.701 -23.838 -46.146  1.00  0.00     0.118 A 
ATOM      2  C   UNL     1      14.121 -22.578 -46.517  1.00  0.00     0.075 A 
ATOM      3  C   UNL     1      13.224 -22.031 -47.474  1.00  0.00     0.088 A 
ATOM      4  C   UNL     1      12.199 -22.962 -47.602  1.00  0.00     0.061 A 
ATOM      5  C   UNL     1      10.962 -22.999 -48.321  1.00  0.00     0.027 C 
ATOM      6  C   UNL     1      10.144 -24.060 -48.207  1.00  0.00     0.004 C 
ATOM      7  C   UNL     1      10.472 -25.182 -47.351  1.00  0.00     0.018 C 
ATOM      8  C   UNL     1      11.618 -25.151 -46.655  1.00  0.00     0.092 C 
ATOM      9  N   UNL     1      12.487 -24.058 -46.778  1.00  0.00    -0.311 N 
ENDROOT
BRANCH   1  10
ATOM     10  C   UNL     1      14.364 -24.749 -45.235  1.00  0.00     0.211 C 
ATOM     11  O   UNL     1      15.102 -25.653 -45.623  1.00  0.00    -0.287 OA
BRANCH  10  12
ATOM     12  C   UNL     1      14.126 -24.621 -43.767  1.00  0.00     0.024 A 
ATOM     13  C   UNL     1      13.608 -24.403 -41.008  1.00  0.00    -0.048 A 
ATOM     14  C   UNL     1      12.565 -24.641 -41.917  1.00  0.00     0.004 A 
ATOM     15  C   UNL     1      14.925 -24.258 -41.489  1.00  0.00    -0.047 A 
ATOM     16  C   UNL     1      12.820 -24.745 -43.285  1.00  0.00     0.012 A 
ATOM     17  C   UNL     1      15.170 -24.364 -42.869  1.00  0.00     0.016 A 
ATOM     18  C   UNL     1      13.291 -24.291 -39.541  1.00  0.00     0.044 C 
ATOM     19  C   UNL     1      16.074 -23.982 -40.556  1.00  0.00     0.044 C 
ENDBRANCH  10  12
ENDBRANCH   1  10
BRANCH   2  20
ATOM     20  N   UNL     1      15.248 -21.989 -46.068  1.00  0.00    -0.396 N 
ATOM     21  H   UNL     1      15.232 -20.982 -45.897  1.00  0.00     0.156 HD
ATOM     22  H   UNL     1      16.135 -22.276 -46.488  1.00  0.00     0.156 HD
ENDBRANCH   2  20
BRANCH   3  23
ATOM     23  C   UNL     1      13.356 -20.739 -48.134  1.00  0.00     0.253 C 
ATOM     24  N   UNL     1      14.163 -20.706 -49.237  1.00  0.00    -0.365 N 
ATOM     25  O   UNL     1      12.843 -19.706 -47.715  1.00  0.00    -0.269 OA
ATOM     26  H   UNL     1      14.400 -19.778 -49.564  1.00  0.00     0.159 HD
ATOM     27  H   UNL     1      14.849 -21.436 -49.365  1.00  0.00     0.159 HD
ENDBRANCH   3  23
TORSDOF 4
ENDMDL
MODEL 4
REMARK VINA RESULT:    -7.488      1.757      2.301
REMARK INTER + INTRA:          -9.554
REMARK INTER:                  -8.745
REMARK INTRA:                  -0.809
REMARK UNBOUND:                -0.534
REMARK SMILES Cc1ccc(C(=O)c2c(N)c(C(N)=O)c3ccccn23)cc1C
REMARK SMILES IDX 8 1 9 2 11 3 15 4 16 5 17 6 18 7 19 8 20 9 6 10 7 11 5 12
REMARK SMILES IDX 2 13 3 14 22 15 4 16 21 17 1 18 23 19 10 20 12 23 13 24
REMARK SMILES IDX 14 25
REMARK H PARENT 10 21 10 22 13 26 13 27
ROOT
ATOM      1  C   UNL     1      14.710 -24.167 -45.388  1.00  0.00     0.118 A 
ATOM      2  C   UNL     1      14.818 -22.858 -45.809  1.00  0.00     0.075 A 
ATOM      3  C   UNL     1      13.997 -22.646 -46.949  1.00  0.00     0.088 A 
ATOM      4  C   UNL     1      13.321 -23.845 -47.151  1.00  0.00     0.061 A 
ATOM      5  C   UNL     1      12.301 -24.280 -48.057  1.00  0.00     0.027 C 
ATOM      6  C   UNL     1      11.812 -25.530 -47.974  1.00  0.00     0.004 C 
ATOM      7  C   UNL     1      12.279 -26.462 -46.970  1.00  0.00     0.018 C 
ATOM      8  C   UNL     1      13.218 -26.060 -46.100  1.00  0.00     0.092 C 
ATOM      9  N   UNL     1      13.749 -24.766 -46.186  1.00  0.00    -0.311 N 
ENDROOT
BRANCH   1  10
ATOM     10  C   UNL     1      15.422 -24.797 -44.295  1.00  0.00     0.211 C 
ATOM     11  O   UNL     1      16.426 -25.486 -44.469  1.00  0.00    -0.287 OA
BRANCH  10  12
ATOM     12  C   UNL     1      14.912 -24.642 -42.900  1.00  0.00     0.024 A 
ATOM     13  C   UNL     1      13.880 -24.353 -40.297  1.00  0.00    -0.048 A 
ATOM     14  C   UNL     1      13.035 -24.280 -41.416  1.00  0.00     0.004 A 
ATOM     15  C   UNL     1      15.262 -24.558 -40.487  1.00  0.00    -0.047 A 
ATOM     16  C   UNL     1      13.546 -24.419 -42.707  1.00  0.00     0.012 A 
ATOM     17  C   UNL     1      15.766 -24.696 -41.791  1.00  0.00     0.016 A 
ATOM     18  C   UNL     1      13.292 -24.192 -38.921  1.00  0.00     0.044 C 
ATOM     19  C   UNL     1      16.211 -24.622 -39.320  1.00  0.00     0.044 C 
ENDBRANCH  10  12
ENDBRANCH   1  10
BRANCH   2  20
ATOM     20  N   UNL     1      15.627 -21.940 -45.240  1.00  0.00    -0.396 N 
ATOM     21  H   UNL     1      16.489 -22.263 -44.796  1.00  0.00     0.156 HD
ATOM     22  H   UNL     1      15.189 -21.195 -44.693  1.00  0.00     0.156 HD
ENDBRANCH   2  20
BRANCH   3  23
ATOM     23  C   UNL     1      13.879 -21.406 -47.703  1.00  0.00     0.253 C 
ATOM     24  N   UNL     1      13.017 -20.473 -47.197  1.00  0.00    -0.365 N 
ATOM     25  O   UNL     1      14.451 -21.201 -48.769  1.00  0.00    -0.269 OA
ATOM     26  H   UNL     1      12.798 -19.711 -47.824  1.00  0.00     0.159 HD
ATOM     27  H   UNL     1      12.298 -20.769 -46.552  1.00  0.00     0.159 HD
ENDBRANCH   3  23
TORSDOF 4
ENDMDL
MODEL 5
REMARK VINA RESULT:    -7.479      2.769      6.832
REMARK INTER + INTRA:          -9.543
REMARK INTER:                  -9.080
REMARK INTRA:                  -0.464
REMARK UNBOUND:                -0.534
REMARK SMILES Cc1ccc(C(=O)c2c(N)c(C(N)=O)c3ccccn23)cc1C
REMARK SMILES IDX 8 1 9 2 11 3 15 4 16 5 17 6 18 7 19 8 20 9 6 10 7 11 5 12
REMARK SMILES IDX 2 13 3 14 22 15 4 16 21 17 1 18 23 19 10 20 12 23 13 24
REMARK SMILES IDX 14 25
REMARK H PARENT 10 21 10 22 13 26 13 27
ROOT
ATOM      1  C   UNL     1      14.897 -24.460 -45.462  1.00  0.00     0.118 A 
ATOM      2  C   UNL     1      16.259 -24.310 -45.310  1.00  0.00     0.075 A 
ATOM      3  C   UNL     1      16.568 -24.030 -43.952  1.00  0.00     0.088 A 
ATOM      4  C   UNL     1      15.357 -24.104 -43.271  1.00  0.00     0.061 A 
ATOM      5  C   UNL     1      14.974 -24.011 -41.895  1.00  0.00     0.027 C 
ATOM      6  C   UNL     1      13.687 -24.166 -41.539  1.00  0.00     0.004 C 
ATOM      7  C   UNL     1      12.657 -24.446 -42.519  1.00  0.00     0.018 C 
ATOM      8  C   UNL     1      13.006 -24.558 -43.809  1.00  0.00     0.092 C 
ATOM      9  N   UNL     1      14.342 -24.381 -44.195  1.00  0.00    -0.311 N 
ENDROOT
BRANCH   1  10
ATOM     10  C   UNL     1      14.175 -24.702 -46.695  1.00  0.00     0.211 C 
ATOM     11  O   UNL     1      13.831 -25.828 -47.051  1.00  0.00    -0.287 OA
BRANCH  10  12
ATOM     12  C   UNL     1      13.856 -23.555 -47.596  1.00  0.00     0.024 A 
ATOM     13  C   UNL     1      13.323 -21.365 -49.283  1.00  0.00    -0.048 A 
ATOM     14  C   UNL     1      14.492 -21.405 -48.506  1.00  0.00     0.004 A 
ATOM     15  C   UNL     1      12.403 -22.430 -49.202  1.00  0.00    -0.047 A 
ATOM     16  C   UNL     1      14.755 -22.487 -47.666  1.00  0.00     0.012 A 
ATOM     17  C   UNL     1      12.678 -23.515 -48.352  1.00  0.00     0.016 A 
ATOM     18  C   UNL     1      13.073 -20.177 -50.172  1.00  0.00     0.044 C 
ATOM     19  C   UNL     1      11.126 -22.424 -50.000  1.00  0.00     0.044 C 
ENDBRANCH  10  12
ENDBRANCH   1  10
BRANCH   2  20
ATOM     20  N   UNL     1      17.149 -24.374 -46.322  1.00  0.00    -0.396 N 
ATOM     21  H   UNL     1      17.009 -25.080 -47.047  1.00  0.00     0.156 HD
ATOM     22  H   UNL     1      18.141 -24.278 -46.090  1.00  0.00     0.156 HD
ENDBRANCH   2  20
BRANCH   3  23
ATOM     23  C   UNL     1      17.893 -23.766 -43.409  1.00  0.00     0.253 C 
ATOM     24  N   UNL     1      18.723 -24.846 -43.295  1.00  0.00    -0.365 N 
ATOM     25  O   UNL     1      18.255 -22.665 -43.005  1.00  0.00    -0.269 OA
ATOM     26  H   UNL     1      19.555 -24.687 -42.743  1.00  0.00     0.159 HD
ATOM     27  H   UNL     1      18.322 -25.773 -43.281  1.00  0.00     0.159 HD
ENDBRANCH   3  23
TORSDOF 4
ENDMDL
MODEL 6
REMARK VINA RESULT:    -7.435      2.427      4.150
REMARK INTER + INTRA:          -9.491
REMARK INTER:                  -8.677
REMARK INTRA:                  -0.814
REMARK UNBOUND:                -0.534
REMARK SMILES Cc1ccc(C(=O)c2c(N)c(C(N)=O)c3ccccn23)cc1C
REMARK SMILES IDX 8 1 9 2 11 3 15 4 16 5 17 6 18 7 19 8 20 9 6 10 7 11 5 12
REMARK SMILES IDX 2 13 3 14 22 15 4 16 21 17 1 18 23 19 10 20 12 23 13 24
REMARK SMILES IDX 14 25
REMARK H PARENT 10 21 10 22 13 26 13 27
ROOT
ATOM      1  C   UNL     1      14.365 -24.315 -44.438  1.00  0.00     0.118 A 
ATOM      2  C   UNL     1      13.635 -23.772 -45.474  1.00  0.00     0.075 A 
ATOM      3  C   UNL     1      14.380 -22.738 -46.102  1.00  0.00     0.088 A 
ATOM      4  C   UNL     1      15.619 -22.734 -45.470  1.00  0.00     0.061 A 
ATOM      5  C   UNL     1      16.841 -22.014 -45.666  1.00  0.00     0.027 C 
ATOM      6  C   UNL     1      17.908 -22.269 -44.888  1.00  0.00     0.004 C 
ATOM      7  C   UNL     1      17.867 -23.279 -43.851  1.00  0.00     0.018 C 
ATOM      8  C   UNL     1      16.734 -23.976 -43.672  1.00  0.00     0.092 C 
ATOM      9  N   UNL     1      15.610 -23.708 -44.464  1.00  0.00    -0.311 N 
ENDROOT
BRANCH   1  10
ATOM     10  C   UNL     1      13.943 -25.353 -43.519  1.00  0.00     0.211 C 
ATOM     11  O   UNL     1      13.571 -26.462 -43.900  1.00  0.00    -0.287 OA
BRANCH  10  12
ATOM     12  C   UNL     1      13.920 -25.071 -42.053  1.00  0.00     0.024 A 
ATOM     13  C   UNL     1      13.815 -24.502 -39.298  1.00  0.00    -0.048 A 
ATOM     14  C   UNL     1      12.933 -23.878 -40.194  1.00  0.00     0.004 A 
ATOM     15  C   UNL     1      14.772 -25.413 -39.792  1.00  0.00    -0.047 A 
ATOM     16  C   UNL     1      12.987 -24.155 -41.560  1.00  0.00     0.012 A 
ATOM     17  C   UNL     1      14.818 -25.685 -41.170  1.00  0.00     0.016 A 
ATOM     18  C   UNL     1      13.730 -24.171 -37.833  1.00  0.00     0.044 C 
ATOM     19  C   UNL     1      15.753 -26.093 -38.874  1.00  0.00     0.044 C 
ENDBRANCH  10  12
ENDBRANCH   1  10
BRANCH   2  20
ATOM     20  N   UNL     1      12.379 -24.146 -45.798  1.00  0.00    -0.396 N 
ATOM     21  H   UNL     1      12.228 -24.604 -46.699  1.00  0.00     0.156 HD
ATOM     22  H   UNL     1      11.620 -23.494 -45.585  1.00  0.00     0.156 HD
ENDBRANCH   2  20
BRANCH   3  23
ATOM     23  C   UNL     1      13.928 -21.902 -47.206  1.00  0.00     0.253 C 
ATOM     24  N   UNL     1      13.037 -20.915 -46.888  1.00  0.00    -0.365 N 
ATOM     25  O   UNL     1      14.251 -22.086 -48.375  1.00  0.00    -0.269 OA
ATOM     26  H   UNL     1      12.587 -20.476 -47.681  1.00  0.00     0.159 HD
ATOM     27  H   UNL     1      12.508 -20.989 -46.031  1.00  0.00     0.159 HD
ENDBRANCH   3  23
TORSDOF 4
ENDMDL
MODEL 7
REMARK VINA RESULT:    -7.321      2.242      3.767
REMARK INTER + INTRA:          -9.353
REMARK INTER:                  -8.821
REMARK INTRA:                  -0.532
REMARK UNBOUND:                -0.534
REMARK SMILES Cc1ccc(C(=O)c2c(N)c(C(N)=O)c3ccccn23)cc1C
REMARK SMILES IDX 8 1 9 2 11 3 15 4 16 5 17 6 18 7 19 8 20 9 6 10 7 11 5 12
REMARK SMILES IDX 2 13 3 14 22 15 4 16 21 17 1 18 23 19 10 20 12 23 13 24
REMARK SMILES IDX 14 25
REMARK H PARENT 10 21 10 22 13 26 13 27
ROOT
ATOM      1  C   UNL     1      12.536 -23.164 -46.984  1.00  0.00     0.118 A 
ATOM      2  C   UNL     1      12.068 -24.278 -47.648  1.00  0.00     0.075 A 
ATOM      3  C   UNL     1      11.797 -23.955 -49.005  1.00  0.00     0.088 A 
ATOM      4  C   UNL     1      12.202 -22.634 -49.163  1.00  0.00     0.061 A 
ATOM      5  C   UNL     1      12.282 -21.737 -50.275  1.00  0.00     0.027 C 
ATOM      6  C   UNL     1      12.766 -20.493 -50.108  1.00  0.00     0.004 C 
ATOM      7  C   UNL     1      13.233 -20.028 -48.818  1.00  0.00     0.018 C 
ATOM      8  C   UNL     1      13.183 -20.867 -47.772  1.00  0.00     0.092 C 
ATOM      9  N   UNL     1      12.666 -22.160 -47.929  1.00  0.00    -0.311 N 
ENDROOT
BRANCH   1  10
ATOM     10  C   UNL     1      12.877 -23.061 -45.579  1.00  0.00     0.211 C 
ATOM     11  O   UNL     1      12.025 -23.006 -44.694  1.00  0.00    -0.287 OA
BRANCH  10  12
ATOM     12  C   UNL     1      14.312 -22.982 -45.176  1.00  0.00     0.024 A 
ATOM     13  C   UNL     1      17.036 -22.816 -44.485  1.00  0.00    -0.048 A 
ATOM     14  C   UNL     1      16.633 -22.778 -45.829  1.00  0.00     0.004 A 
ATOM     15  C   UNL     1      16.062 -22.954 -43.475  1.00  0.00    -0.047 A 
ATOM     16  C   UNL     1      15.284 -22.865 -46.173  1.00  0.00     0.012 A 
ATOM     17  C   UNL     1      14.706 -23.041 -43.833  1.00  0.00     0.016 A 
ATOM     18  C   UNL     1      18.501 -22.727 -44.155  1.00  0.00     0.044 C 
ATOM     19  C   UNL     1      16.446 -23.020 -42.021  1.00  0.00     0.044 C 
ENDBRANCH  10  12
ENDBRANCH   1  10
BRANCH   2  20
ATOM     20  N   UNL     1      11.856 -25.477 -47.067  1.00  0.00    -0.396 N 
ATOM     21  H   UNL     1      12.485 -25.770 -46.317  1.00  0.00     0.156 HD
ATOM     22  H   UNL     1      11.620 -26.265 -47.676  1.00  0.00     0.156 HD
ENDBRANCH   2  20
BRANCH   3  23
ATOM     23  C   UNL     1      11.250 -24.857 -50.010  1.00  0.00     0.253 C 
ATOM     24  N   UNL     1      10.093 -24.453 -50.616  1.00  0.00    -0.365 N 
ATOM     25  O   UNL     1      11.733 -25.954 -50.274  1.00  0.00    -0.269 OA
ATOM     26  H   UNL     1       9.626 -25.166 -51.159  1.00  0.00     0.159 HD
ATOM     27  H   UNL     1       9.518 -23.758 -50.161  1.00  0.00     0.159 HD
ENDBRANCH   3  23
TORSDOF 4
ENDMDL
MODEL 8
REMARK VINA RESULT:    -7.002      1.924      2.871
REMARK INTER + INTRA:          -8.970
REMARK INTER:                  -8.208
REMARK INTRA:                  -0.762
REMARK UNBOUND:                -0.534
REMARK SMILES Cc1ccc(C(=O)c2c(N)c(C(N)=O)c3ccccn23)cc1C
REMARK SMILES IDX 8 1 9 2 11 3 15 4 16 5 17 6 18 7 19 8 20 9 6 10 7 11 5 12
REMARK SMILES IDX 2 13 3 14 22 15 4 16 21 17 1 18 23 19 10 20 12 23 13 24
REMARK SMILES IDX 14 25
REMARK H PARENT 10 21 10 22 13 26 13 27
ROOT
ATOM      1  C   UNL     1      12.951 -24.436 -46.890  1.00  0.00     0.118 A 
ATOM      2  C   UNL     1      11.630 -24.645 -47.222  1.00  0.00     0.075 A 
ATOM      3  C   UNL     1      11.170 -23.597 -48.066  1.00  0.00     0.088 A 
ATOM      4  C   UNL     1      12.282 -22.797 -48.306  1.00  0.00     0.061 A 
ATOM      5  C   UNL     1      12.531 -21.648 -49.123  1.00  0.00     0.027 C 
ATOM      6  C   UNL     1      13.761 -21.106 -49.171  1.00  0.00     0.004 C 
ATOM      7  C   UNL     1      14.867 -21.666 -48.421  1.00  0.00     0.018 C 
ATOM      8  C   UNL     1      14.651 -22.756 -47.669  1.00  0.00     0.092 C 
ATOM      9  N   UNL     1      13.370 -23.321 -47.598  1.00  0.00    -0.311 N 
ENDROOT
BRANCH   1  10
ATOM     10  C   UNL     1      13.771 -25.243 -46.010  1.00  0.00     0.211 C 
ATOM     11  O   UNL     1      14.416 -26.212 -46.409  1.00  0.00    -0.287 OA
BRANCH  10  12
ATOM     12  C   UNL     1      13.821 -24.922 -44.552  1.00  0.00     0.024 A 
ATOM     13  C   UNL     1      13.851 -24.355 -41.795  1.00  0.00    -0.048 A 
ATOM     14  C   UNL     1      12.731 -24.954 -42.392  1.00  0.00     0.004 A 
ATOM     15  C   UNL     1      14.964 -24.022 -42.593  1.00  0.00    -0.047 A 
ATOM     16  C   UNL     1      12.712 -25.232 -43.759  1.00  0.00     0.012 A 
ATOM     17  C   UNL     1      14.935 -24.306 -43.969  1.00  0.00     0.016 A 
ATOM     18  C   UNL     1      13.829 -24.065 -40.319  1.00  0.00     0.044 C 
ATOM     19  C   UNL     1      16.181 -23.359 -42.003  1.00  0.00     0.044 C 
ENDBRANCH  10  12
ENDBRANCH   1  10
BRANCH   2  20
ATOM     20  N   UNL     1      10.883 -25.670 -46.763  1.00  0.00    -0.396 N 
ATOM     21  H   UNL     1      11.082 -26.035 -45.830  1.00  0.00     0.156 HD
ATOM     22  H   UNL     1      10.665 -26.428 -47.415  1.00  0.00     0.156 HD
ENDBRANCH   2  20
BRANCH   3  23
ATOM     23  C   UNL     1       9.819 -23.446 -48.588  1.00  0.00     0.253 C 
ATOM     24  N   UNL     1       9.719 -23.057 -49.895  1.00  0.00    -0.365 N 
ATOM     25  O   UNL     1       8.807 -23.585 -47.908  1.00  0.00    -0.269 OA
ATOM     26  H   UNL     1       8.793 -22.769 -50.183  1.00  0.00     0.159 HD
ATOM     27  H   UNL     1      10.508 -22.604 -50.333  1.00  0.00     0.159 HD
ENDBRANCH   3  23
TORSDOF 4
ENDMDL
MODEL 9
REMARK VINA RESULT:    -6.940      2.229      3.387
REMARK INTER + INTRA:          -8.894
REMARK INTER:                  -8.145
REMARK INTRA:                  -0.749
REMARK UNBOUND:                -0.534
REMARK SMILES Cc1ccc(C(=O)c2c(N)c(C(N)=O)c3ccccn23)cc1C
REMARK SMILES IDX 8 1 9 2 11 3 15 4 16 5 17 6 18 7 19 8 20 9 6 10 7 11 5 12
REMARK SMILES IDX 2 13 3 14 22 15 4 16 21 17 1 18 23 19 10 20 12 23 13 24
REMARK SMILES IDX 14 25
REMARK H PARENT 10 21 10 22 13 26 13 27
ROOT
ATOM      1  C   UNL     1      11.888 -22.484 -48.507  1.00  0.00     0.118 A 
ATOM      2  C   UNL     1      11.713 -22.300 -49.862  1.00  0.00     0.075 A 
ATOM      3  C   UNL     1      11.010 -23.404 -50.415  1.00  0.00     0.088 A 
ATOM      4  C   UNL     1      10.686 -24.219 -49.336  1.00  0.00     0.061 A 
ATOM      5  C   UNL     1       9.926 -25.422 -49.181  1.00  0.00     0.027 C 
ATOM      6  C   UNL     1       9.760 -25.966 -47.962  1.00  0.00     0.004 C 
ATOM      7  C   UNL     1      10.322 -25.354 -46.776  1.00  0.00     0.018 C 
ATOM      8  C   UNL     1      11.018 -24.214 -46.904  1.00  0.00     0.092 C 
ATOM      9  N   UNL     1      11.212 -23.646 -48.171  1.00  0.00    -0.311 N 
ENDROOT
BRANCH   1  10
ATOM     10  C   UNL     1      12.599 -21.617 -47.590  1.00  0.00     0.211 C 
ATOM     11  O   UNL     1      12.295 -20.436 -47.426  1.00  0.00    -0.287 OA
BRANCH  10  12
ATOM     12  C   UNL     1      13.768 -22.151 -46.831  1.00  0.00     0.024 A 
ATOM     13  C   UNL     1      16.017 -23.140 -45.456  1.00  0.00    -0.048 A 
ATOM     14  C   UNL     1      16.108 -22.766 -46.806  1.00  0.00     0.004 A 
ATOM     15  C   UNL     1      14.779 -23.031 -44.791  1.00  0.00    -0.047 A 
ATOM     16  C   UNL     1      14.994 -22.280 -47.490  1.00  0.00     0.012 A 
ATOM     17  C   UNL     1      13.662 -22.541 -45.489  1.00  0.00     0.016 A 
ATOM     18  C   UNL     1      17.241 -23.666 -44.756  1.00  0.00     0.044 C 
ATOM     19  C   UNL     1      14.625 -23.440 -43.350  1.00  0.00     0.044 C 
ENDBRANCH  10  12
ENDBRANCH   1  10
BRANCH   2  20
ATOM     20  N   UNL     1      12.191 -21.245 -50.554  1.00  0.00    -0.396 N 
ATOM     21  H   UNL     1      13.093 -20.853 -50.278  1.00  0.00     0.156 HD
ATOM     22  H   UNL     1      11.531 -20.505 -50.808  1.00  0.00     0.156 HD
ENDBRANCH   2  20
BRANCH   3  23
ATOM     23  C   UNL     1      10.675 -23.592 -51.820  1.00  0.00     0.253 C 
ATOM     24  N   UNL     1       9.372 -23.904 -52.092  1.00  0.00    -0.365 N 
ATOM     25  O   UNL     1      11.500 -23.548 -52.728  1.00  0.00    -0.269 OA
ATOM     26  H   UNL     1       9.199 -24.221 -53.037  1.00  0.00     0.159 HD
ATOM     27  H   UNL     1       8.796 -24.287 -51.357  1.00  0.00     0.159 HD
ENDBRANCH   3  23
TORSDOF 4
ENDMDL
