MODEL 1
REMARK VINA RESULT:    -7.473      0.000      0.000
REMARK INTER + INTRA:         -10.927
REMARK INTER:                 -10.313
REMARK INTRA:                  -0.614
REMARK UNBOUND:                -0.614
REMARK SMILES CC(C)c1ccc(CCNC(=O)c2cc(S(N)(=O)=O)cn2C)cc1
REMARK SMILES IDX 10 1 11 2 12 3 9 5 8 6 7 7 4 8 5 9 24 10 6 11 23 12 2 13
REMARK SMILES IDX 1 14 3 15 13 16 14 17 21 18 15 19 20 20 22 21 16 22 18 23
REMARK SMILES IDX 19 24 17 25
REMARK H PARENT 10 4 17 26 17 27
ROOT
ATOM      1  N   UNL     1      16.337 -23.028 -45.666  1.00  0.00    -0.350 N 
ATOM      2  C   UNL     1      15.363 -23.685 -46.385  1.00  0.00     0.267 C 
ATOM      3  O   UNL     1      15.290 -24.910 -46.415  1.00  0.00    -0.268 OA
ATOM      4  H   UNL     1      16.163 -22.057 -45.444  1.00  0.00     0.163 HD
ENDROOT
BRANCH   1   5
ATOM      5  C   UNL     1      17.222 -23.746 -44.767  1.00  0.00     0.121 C 
BRANCH   5   6
ATOM      6  C   UNL     1      17.346 -23.067 -43.400  1.00  0.00     0.057 C 
BRANCH   6   7
ATOM      7  C   UNL     1      16.339 -23.574 -42.394  1.00  0.00    -0.046 A 
ATOM      8  C   UNL     1      14.441 -24.453 -40.494  1.00  0.00    -0.045 A 
ATOM      9  C   UNL     1      15.771 -24.216 -40.122  1.00  0.00     0.004 A 
ATOM     10  C   UNL     1      14.075 -24.249 -41.832  1.00  0.00     0.004 A 
ATOM     11  C   UNL     1      16.711 -23.783 -41.060  1.00  0.00     0.004 A 
ATOM     12  C   UNL     1      15.013 -23.814 -42.772  1.00  0.00     0.004 A 
BRANCH   8  13
ATOM     13  C   UNL     1      13.438 -24.921 -39.454  1.00  0.00     0.013 C 
ATOM     14  C   UNL     1      13.685 -26.376 -39.050  1.00  0.00     0.012 C 
ATOM     15  C   UNL     1      13.432 -24.007 -38.226  1.00  0.00     0.012 C 
ENDBRANCH   8  13
ENDBRANCH   6   7
ENDBRANCH   5   6
ENDBRANCH   1   5
BRANCH   2  16
ATOM     16  C   UNL     1      14.431 -22.810 -47.084  1.00  0.00     0.108 A 
ATOM     17  C   UNL     1      14.611 -22.077 -48.255  1.00  0.00     0.055 A 
ATOM     18  N   UNL     1      13.128 -22.564 -46.677  1.00  0.00    -0.345 N 
ATOM     19  C   UNL     1      13.408 -21.386 -48.539  1.00  0.00     0.100 A 
ATOM     20  C   UNL     1      12.504 -21.709 -47.551  1.00  0.00     0.107 A 
ATOM     21  C   UNL     1      12.498 -23.104 -45.487  1.00  0.00     0.150 C 
BRANCH  19  22
ATOM     22  S   UNL     1      13.121 -20.355 -49.895  1.00  0.00     0.239 S 
ATOM     23  O   UNL     1      13.404 -19.022 -49.418  1.00  0.00    -0.207 OA
ATOM     24  O   UNL     1      11.840 -20.777 -50.407  1.00  0.00    -0.207 OA
BRANCH  22  25
ATOM     25  N   UNL     1      14.284 -20.747 -51.038  1.00  0.00    -0.225 NA
ATOM     26  H   UNL     1      15.079 -21.222 -50.616  1.00  0.00     0.137 HD
ATOM     27  H   UNL     1      14.519 -19.951 -51.627  1.00  0.00     0.137 HD
ENDBRANCH  22  25
ENDBRANCH  19  22
ENDBRANCH   2  16
TORSDOF 7
ENDMDL
MODEL 2
REMARK VINA RESULT:    -7.456      5.081     10.425
REMARK INTER + INTRA:         -10.903
REMARK INTER:                 -10.283
REMARK INTRA:                  -0.620
REMARK UNBOUND:                -0.614
REMARK SMILES CC(C)c1ccc(CCNC(=O)c2cc(S(N)(=O)=O)cn2C)cc1
REMARK SMILES IDX 10 1 11 2 12 3 9 5 8 6 7 7 4 8 5 9 24 10 6 11 23 12 2 13
REMARK SMILES IDX 1 14 3 15 13 16 14 17 21 18 15 19 20 20 22 21 16 22 18 23
REMARK SMILES IDX 19 24 17 25
REMARK H PARENT 10 4 17 26 17 27
ROOT
ATOM      1  N   UNL     1      13.823 -20.646 -50.441  1.00  0.00    -0.350 N 
ATOM      2  C   UNL     1      13.534 -20.531 -49.099  1.00  0.00     0.267 C 
ATOM      3  O   UNL     1      13.043 -19.511 -48.625  1.00  0.00    -0.268 OA
ATOM      4  H   UNL     1      13.936 -21.583 -50.804  1.00  0.00     0.163 HD
ENDROOT
BRANCH   1   5
ATOM      5  C   UNL     1      13.402 -19.632 -51.391  1.00  0.00     0.121 C 
BRANCH   5   6
ATOM      6  C   UNL     1      14.000 -19.850 -52.785  1.00  0.00     0.057 C 
BRANCH   6   7
ATOM      7  C   UNL     1      15.159 -18.928 -53.081  1.00  0.00    -0.046 A 
ATOM      8  C   UNL     1      17.297 -17.187 -53.699  1.00  0.00    -0.045 A 
ATOM      9  C   UNL     1      17.310 -18.519 -54.134  1.00  0.00     0.004 A 
ATOM     10  C   UNL     1      16.202 -16.739 -52.947  1.00  0.00     0.004 A 
ATOM     11  C   UNL     1      16.254 -19.381 -53.828  1.00  0.00     0.004 A 
ATOM     12  C   UNL     1      15.144 -17.600 -52.641  1.00  0.00     0.004 A 
BRANCH   8  13
ATOM     13  C   UNL     1      18.455 -16.268 -54.048  1.00  0.00     0.013 C 
ATOM     14  C   UNL     1      18.529 -15.072 -53.096  1.00  0.00     0.012 C 
ATOM     15  C   UNL     1      19.786 -17.024 -54.077  1.00  0.00     0.012 C 
ENDBRANCH   8  13
ENDBRANCH   6   7
ENDBRANCH   5   6
ENDBRANCH   1   5
BRANCH   2  16
ATOM     16  C   UNL     1      13.842 -21.715 -48.308  1.00  0.00     0.108 A 
ATOM     17  C   UNL     1      15.014 -22.049 -47.634  1.00  0.00     0.055 A 
ATOM     18  N   UNL     1      12.956 -22.756 -48.073  1.00  0.00    -0.345 N 
ATOM     19  C   UNL     1      14.823 -23.301 -47.001  1.00  0.00     0.100 A 
ATOM     20  C   UNL     1      13.539 -23.714 -47.283  1.00  0.00     0.107 A 
ATOM     21  C   UNL     1      11.606 -22.851 -48.596  1.00  0.00     0.150 C 
BRANCH  19  22
ATOM     22  S   UNL     1      15.980 -24.138 -46.028  1.00  0.00     0.239 S 
ATOM     23  O   UNL     1      15.536 -23.944 -44.668  1.00  0.00    -0.207 OA
ATOM     24  O   UNL     1      17.259 -23.703 -46.532  1.00  0.00    -0.207 OA
BRANCH  22  25
ATOM     25  N   UNL     1      15.812 -25.766 -46.394  1.00  0.00    -0.225 NA
ATOM     26  H   UNL     1      14.847 -26.074 -46.297  1.00  0.00     0.137 HD
ATOM     27  H   UNL     1      16.498 -26.337 -45.904  1.00  0.00     0.137 HD
ENDBRANCH  22  25
ENDBRANCH  19  22
ENDBRANCH   2  16
TORSDOF 7
ENDMDL
MODEL 3
REMARK VINA RESULT:    -7.340      1.556      2.349
REMARK INTER + INTRA:         -10.744
REMARK INTER:                 -10.324
REMARK INTRA:                  -0.419
REMARK UNBOUND:                -0.614
REMARK SMILES CC(C)c1ccc(CCNC(=O)c2cc(S(N)(=O)=O)cn2C)cc1
REMARK SMILES IDX 10 1 11 2 12 3 9 5 8 6 7 7 4 8 5 9 24 10 6 11 23 12 2 13
REMARK SMILES IDX 1 14 3 15 13 16 14 17 21 18 15 19 20 20 22 21 16 22 18 23
REMARK SMILES IDX 19 24 17 25
REMARK H PARENT 10 4 17 26 17 27
ROOT
ATOM      1  N   UNL     1      14.521 -22.209 -46.423  1.00  0.00    -0.350 N 
ATOM      2  C   UNL     1      14.087 -22.903 -47.531  1.00  0.00     0.267 C 
ATOM      3  O   UNL     1      14.101 -24.129 -47.577  1.00  0.00    -0.268 OA
ATOM      4  H   UNL     1      14.209 -21.251 -46.335  1.00  0.00     0.163 HD
ENDROOT
BRANCH   1   5
ATOM      5  C   UNL     1      14.855 -22.895 -45.188  1.00  0.00     0.121 C 
BRANCH   5   6
ATOM      6  C   UNL     1      13.618 -23.433 -44.462  1.00  0.00     0.057 C 
BRANCH   6   7
ATOM      7  C   UNL     1      13.882 -23.764 -43.012  1.00  0.00    -0.046 A 
ATOM      8  C   UNL     1      14.382 -24.453 -40.318  1.00  0.00    -0.045 A 
ATOM      9  C   UNL     1      13.087 -24.525 -40.847  1.00  0.00     0.004 A 
ATOM     10  C   UNL     1      15.424 -24.026 -41.154  1.00  0.00     0.004 A 
ATOM     11  C   UNL     1      12.838 -24.184 -42.179  1.00  0.00     0.004 A 
ATOM     12  C   UNL     1      15.177 -23.686 -42.487  1.00  0.00     0.004 A 
BRANCH   8  13
ATOM     13  C   UNL     1      14.628 -24.833 -38.868  1.00  0.00     0.013 C 
ATOM     14  C   UNL     1      13.627 -24.151 -37.932  1.00  0.00     0.012 C 
ATOM     15  C   UNL     1      14.610 -26.351 -38.672  1.00  0.00     0.012 C 
ENDBRANCH   8  13
ENDBRANCH   6   7
ENDBRANCH   5   6
ENDBRANCH   1   5
BRANCH   2  16
ATOM     16  C   UNL     1      13.601 -22.066 -48.620  1.00  0.00     0.108 A 
ATOM     17  C   UNL     1      14.310 -21.224 -49.474  1.00  0.00     0.055 A 
ATOM     18  N   UNL     1      12.275 -21.981 -49.014  1.00  0.00    -0.345 N 
ATOM     19  C   UNL     1      13.394 -20.630 -50.376  1.00  0.00     0.100 A 
ATOM     20  C   UNL     1      12.142 -21.119 -50.075  1.00  0.00     0.107 A 
ATOM     21  C   UNL     1      11.163 -22.676 -48.395  1.00  0.00     0.150 C 
BRANCH  19  22
ATOM     22  S   UNL     1      13.785 -19.520 -51.642  1.00  0.00     0.239 S 
ATOM     23  O   UNL     1      14.250 -18.332 -50.967  1.00  0.00    -0.207 OA
ATOM     24  O   UNL     1      12.643 -19.558 -52.522  1.00  0.00    -0.207 OA
BRANCH  22  25
ATOM     25  N   UNL     1      15.087 -20.185 -52.464  1.00  0.00    -0.225 NA
ATOM     26  H   UNL     1      15.534 -19.503 -53.072  1.00  0.00     0.137 HD
ATOM     27  H   UNL     1      14.842 -21.066 -52.911  1.00  0.00     0.137 HD
ENDBRANCH  22  25
ENDBRANCH  19  22
ENDBRANCH   2  16
TORSDOF 7
ENDMDL
MODEL 4
REMARK VINA RESULT:    -7.311      3.992      9.387
REMARK INTER + INTRA:         -10.703
REMARK INTER:                 -10.059
REMARK INTRA:                  -0.644
REMARK UNBOUND:                -0.614
REMARK SMILES CC(C)c1ccc(CCNC(=O)c2cc(S(N)(=O)=O)cn2C)cc1
REMARK SMILES IDX 10 1 11 2 12 3 9 5 8 6 7 7 4 8 5 9 24 10 6 11 23 12 2 13
REMARK SMILES IDX 1 14 3 15 13 16 14 17 21 18 15 19 20 20 22 21 16 22 18 23
REMARK SMILES IDX 19 24 17 25
REMARK H PARENT 10 4 17 26 17 27
ROOT
ATOM      1  N   UNL     1      13.708 -21.363 -46.959  1.00  0.00    -0.350 N 
ATOM      2  C   UNL     1      13.398 -22.334 -46.034  1.00  0.00     0.267 C 
ATOM      3  O   UNL     1      12.240 -22.566 -45.696  1.00  0.00    -0.268 OA
ATOM      4  H   UNL     1      14.614 -21.428 -47.402  1.00  0.00     0.163 HD
ENDROOT
BRANCH   1   5
ATOM      5  C   UNL     1      12.670 -20.681 -47.711  1.00  0.00     0.121 C 
BRANCH   5   6
ATOM      6  C   UNL     1      12.419 -21.323 -49.079  1.00  0.00     0.057 C 
BRANCH   6   7
ATOM      7  C   UNL     1      13.012 -20.532 -50.221  1.00  0.00    -0.046 A 
ATOM      8  C   UNL     1      14.190 -19.079 -52.340  1.00  0.00    -0.045 A 
ATOM      9  C   UNL     1      14.148 -18.548 -51.043  1.00  0.00     0.004 A 
ATOM     10  C   UNL     1      13.631 -20.346 -52.562  1.00  0.00     0.004 A 
ATOM     11  C   UNL     1      13.565 -19.265 -49.995  1.00  0.00     0.004 A 
ATOM     12  C   UNL     1      13.049 -21.065 -51.515  1.00  0.00     0.004 A 
BRANCH   8  13
ATOM     13  C   UNL     1      14.832 -18.281 -53.461  1.00  0.00     0.013 C 
ATOM     14  C   UNL     1      14.865 -16.786 -53.138  1.00  0.00     0.012 C 
ATOM     15  C   UNL     1      16.234 -18.799 -53.790  1.00  0.00     0.012 C 
ENDBRANCH   8  13
ENDBRANCH   6   7
ENDBRANCH   5   6
ENDBRANCH   1   5
BRANCH   2  16
ATOM     16  C   UNL     1      14.546 -23.063 -45.511  1.00  0.00     0.108 A 
ATOM     17  C   UNL     1      15.539 -22.639 -44.631  1.00  0.00     0.055 A 
ATOM     18  N   UNL     1      14.843 -24.383 -45.813  1.00  0.00    -0.345 N 
ATOM     19  C   UNL     1      16.435 -23.714 -44.416  1.00  0.00     0.100 A 
ATOM     20  C   UNL     1      15.978 -24.784 -45.154  1.00  0.00     0.107 A 
ATOM     21  C   UNL     1      14.088 -25.235 -46.712  1.00  0.00     0.150 C 
BRANCH  19  22
ATOM     22  S   UNL     1      17.826 -23.692 -43.391  1.00  0.00     0.239 S 
ATOM     23  O   UNL     1      18.145 -25.081 -43.164  1.00  0.00    -0.207 OA
ATOM     24  O   UNL     1      17.490 -22.756 -42.346  1.00  0.00    -0.207 OA
BRANCH  22  25
ATOM     25  N   UNL     1      19.068 -23.023 -44.299  1.00  0.00    -0.225 NA
ATOM     26  H   UNL     1      18.719 -22.598 -45.155  1.00  0.00     0.137 HD
ATOM     27  H   UNL     1      19.839 -23.676 -44.423  1.00  0.00     0.137 HD
ENDBRANCH  22  25
ENDBRANCH  19  22
ENDBRANCH   2  16
TORSDOF 7
ENDMDL
MODEL 5
REMARK VINA RESULT:    -7.225      2.531      3.374
REMARK INTER + INTRA:         -10.584
REMARK INTER:                 -10.067
REMARK INTRA:                  -0.517
REMARK UNBOUND:                -0.614
REMARK SMILES CC(C)c1ccc(CCNC(=O)c2cc(S(N)(=O)=O)cn2C)cc1
REMARK SMILES IDX 10 1 11 2 12 3 9 5 8 6 7 7 4 8 5 9 24 10 6 11 23 12 2 13
REMARK SMILES IDX 1 14 3 15 13 16 14 17 21 18 15 19 20 20 22 21 16 22 18 23
REMARK SMILES IDX 19 24 17 25
REMARK H PARENT 10 4 17 26 17 27
ROOT
ATOM      1  N   UNL     1      13.400 -24.469 -46.321  1.00  0.00    -0.350 N 
ATOM      2  C   UNL     1      12.156 -23.881 -46.272  1.00  0.00     0.267 C 
ATOM      3  O   UNL     1      11.518 -23.795 -45.226  1.00  0.00    -0.268 OA
ATOM      4  H   UNL     1      13.980 -24.243 -47.118  1.00  0.00     0.163 HD
ENDROOT
BRANCH   1   5
ATOM      5  C   UNL     1      14.095 -24.863 -45.109  1.00  0.00     0.121 C 
BRANCH   5   6
ATOM      6  C   UNL     1      14.515 -23.661 -44.256  1.00  0.00     0.057 C 
BRANCH   6   7
ATOM      7  C   UNL     1      14.478 -23.948 -42.774  1.00  0.00    -0.046 A 
ATOM      8  C   UNL     1      14.416 -24.556 -40.015  1.00  0.00    -0.045 A 
ATOM      9  C   UNL     1      13.242 -24.578 -40.780  1.00  0.00     0.004 A 
ATOM     10  C   UNL     1      15.622 -24.222 -40.648  1.00  0.00     0.004 A 
ATOM     11  C   UNL     1      13.272 -24.276 -42.143  1.00  0.00     0.004 A 
ATOM     12  C   UNL     1      15.653 -23.922 -42.013  1.00  0.00     0.004 A 
BRANCH   8  13
ATOM     13  C   UNL     1      14.359 -24.892 -38.534  1.00  0.00     0.013 C 
ATOM     14  C   UNL     1      13.341 -24.017 -37.800  1.00  0.00     0.012 C 
ATOM     15  C   UNL     1      14.068 -26.377 -38.303  1.00  0.00     0.012 C 
ENDBRANCH   8  13
ENDBRANCH   6   7
ENDBRANCH   5   6
ENDBRANCH   1   5
BRANCH   2  16
ATOM     16  C   UNL     1      11.679 -23.363 -47.547  1.00  0.00     0.108 A 
ATOM     17  C   UNL     1      10.827 -23.950 -48.479  1.00  0.00     0.055 A 
ATOM     18  N   UNL     1      12.005 -22.116 -48.060  1.00  0.00    -0.345 N 
ATOM     19  C   UNL     1      10.653 -23.048 -49.557  1.00  0.00     0.100 A 
ATOM     20  C   UNL     1      11.388 -21.918 -49.270  1.00  0.00     0.107 A 
ATOM     21  C   UNL     1      12.889 -21.150 -47.436  1.00  0.00     0.150 C 
BRANCH  19  22
ATOM     22  S   UNL     1       9.673 -23.308 -50.956  1.00  0.00     0.239 S 
ATOM     23  O   UNL     1       8.973 -24.543 -50.698  1.00  0.00    -0.207 OA
ATOM     24  O   UNL     1      10.568 -23.101 -52.068  1.00  0.00    -0.207 OA
BRANCH  22  25
ATOM     25  N   UNL     1       8.541 -22.071 -50.973  1.00  0.00    -0.225 NA
ATOM     26  H   UNL     1       7.982 -22.086 -51.823  1.00  0.00     0.137 HD
ATOM     27  H   UNL     1       8.961 -21.170 -50.749  1.00  0.00     0.137 HD
ENDBRANCH  22  25
ENDBRANCH  19  22
ENDBRANCH   2  16
TORSDOF 7
ENDMDL
MODEL 6
REMARK VINA RESULT:    -7.202      2.449      2.973
REMARK INTER + INTRA:         -10.553
REMARK INTER:                  -9.966
REMARK INTRA:                  -0.587
REMARK UNBOUND:                -0.614
REMARK SMILES CC(C)c1ccc(CCNC(=O)c2cc(S(N)(=O)=O)cn2C)cc1
REMARK SMILES IDX 10 1 11 2 12 3 9 5 8 6 7 7 4 8 5 9 24 10 6 11 23 12 2 13
REMARK SMILES IDX 1 14 3 15 13 16 14 17 21 18 15 19 20 20 22 21 16 22 18 23
REMARK SMILES IDX 19 24 17 25
REMARK H PARENT 10 4 17 26 17 27
ROOT
ATOM      1  N   UNL     1      14.225 -22.177 -45.774  1.00  0.00    -0.350 N 
ATOM      2  C   UNL     1      14.388 -22.271 -47.138  1.00  0.00     0.267 C 
ATOM      3  O   UNL     1      15.499 -22.310 -47.659  1.00  0.00    -0.268 OA
ATOM      4  H   UNL     1      13.324 -22.447 -45.403  1.00  0.00     0.163 HD
ENDROOT
BRANCH   1   5
ATOM      5  C   UNL     1      15.356 -22.291 -44.871  1.00  0.00     0.121 C 
BRANCH   5   6
ATOM      6  C   UNL     1      15.629 -23.740 -44.453  1.00  0.00     0.057 C 
BRANCH   6   7
ATOM      7  C   UNL     1      15.052 -24.083 -43.100  1.00  0.00    -0.046 A 
ATOM      8  C   UNL     1      13.973 -24.654 -40.551  1.00  0.00    -0.045 A 
ATOM      9  C   UNL     1      15.356 -24.512 -40.728  1.00  0.00     0.004 A 
ATOM     10  C   UNL     1      13.138 -24.510 -41.668  1.00  0.00     0.004 A 
ATOM     11  C   UNL     1      15.891 -24.231 -41.988  1.00  0.00     0.004 A 
ATOM     12  C   UNL     1      13.671 -24.227 -42.929  1.00  0.00     0.004 A 
BRANCH   8  13
ATOM     13  C   UNL     1      13.416 -24.955 -39.171  1.00  0.00     0.013 C 
ATOM     14  C   UNL     1      14.031 -26.228 -38.584  1.00  0.00     0.012 C 
ATOM     15  C   UNL     1      13.598 -23.772 -38.218  1.00  0.00     0.012 C 
ENDBRANCH   8  13
ENDBRANCH   6   7
ENDBRANCH   5   6
ENDBRANCH   1   5
BRANCH   2  16
ATOM     16  C   UNL     1      13.146 -22.338 -47.895  1.00  0.00     0.108 A 
ATOM     17  C   UNL     1      12.141 -23.303 -47.867  1.00  0.00     0.055 A 
ATOM     18  N   UNL     1      12.731 -21.383 -48.811  1.00  0.00    -0.345 N 
ATOM     19  C   UNL     1      11.128 -22.920 -48.778  1.00  0.00     0.100 A 
ATOM     20  C   UNL     1      11.514 -21.725 -49.345  1.00  0.00     0.107 A 
ATOM     21  C   UNL     1      13.472 -20.193 -49.185  1.00  0.00     0.150 C 
BRANCH  19  22
ATOM     22  S   UNL     1       9.663 -23.780 -49.094  1.00  0.00     0.239 S 
ATOM     23  O   UNL     1       8.906 -23.692 -47.869  1.00  0.00    -0.207 OA
ATOM     24  O   UNL     1      10.094 -25.019 -49.694  1.00  0.00    -0.207 OA
BRANCH  22  25
ATOM     25  N   UNL     1       8.846 -22.902 -50.266  1.00  0.00    -0.225 NA
ATOM     26  H   UNL     1       8.858 -23.375 -51.166  1.00  0.00     0.137 HD
ATOM     27  H   UNL     1       9.144 -21.928 -50.286  1.00  0.00     0.137 HD
ENDBRANCH  22  25
ENDBRANCH  19  22
ENDBRANCH   2  16
TORSDOF 7
ENDMDL
MODEL 7
REMARK VINA RESULT:    -7.149      1.743      2.063
REMARK INTER + INTRA:         -10.479
REMARK INTER:                  -9.963
REMARK INTRA:                  -0.516
REMARK UNBOUND:                -0.614
REMARK SMILES CC(C)c1ccc(CCNC(=O)c2cc(S(N)(=O)=O)cn2C)cc1
REMARK SMILES IDX 10 1 11 2 12 3 9 5 8 6 7 7 4 8 5 9 24 10 6 11 23 12 2 13
REMARK SMILES IDX 1 14 3 15 13 16 14 17 21 18 15 19 20 20 22 21 16 22 18 23
REMARK SMILES IDX 19 24 17 25
REMARK H PARENT 10 4 17 26 17 27
ROOT
ATOM      1  N   UNL     1      14.943 -22.196 -45.427  1.00  0.00    -0.350 N 
ATOM      2  C   UNL     1      15.234 -22.646 -46.695  1.00  0.00     0.267 C 
ATOM      3  O   UNL     1      16.389 -22.782 -47.089  1.00  0.00    -0.268 OA
ATOM      4  H   UNL     1      14.015 -22.391 -45.076  1.00  0.00     0.163 HD
ENDROOT
BRANCH   1   5
ATOM      5  C   UNL     1      15.986 -22.023 -44.432  1.00  0.00     0.121 C 
BRANCH   5   6
ATOM      6  C   UNL     1      16.477 -23.356 -43.858  1.00  0.00     0.057 C 
BRANCH   6   7
ATOM      7  C   UNL     1      15.709 -23.789 -42.631  1.00  0.00    -0.046 A 
ATOM      8  C   UNL     1      14.257 -24.529 -40.322  1.00  0.00    -0.045 A 
ATOM      9  C   UNL     1      15.614 -24.189 -40.238  1.00  0.00     0.004 A 
ATOM     10  C   UNL     1      13.637 -24.497 -41.580  1.00  0.00     0.004 A 
ATOM     11  C   UNL     1      16.333 -23.824 -41.378  1.00  0.00     0.004 A 
ATOM     12  C   UNL     1      14.355 -24.131 -42.722  1.00  0.00     0.004 A 
BRANCH   8  13
ATOM     13  C   UNL     1      13.497 -24.918 -39.067  1.00  0.00     0.013 C 
ATOM     14  C   UNL     1      14.062 -26.196 -38.442  1.00  0.00     0.012 C 
ATOM     15  C   UNL     1      13.472 -23.778 -38.046  1.00  0.00     0.012 C 
ENDBRANCH   8  13
ENDBRANCH   6   7
ENDBRANCH   5   6
ENDBRANCH   1   5
BRANCH   2  16
ATOM     16  C   UNL     1      14.068 -22.959 -47.511  1.00  0.00     0.108 A 
ATOM     17  C   UNL     1      13.397 -22.166 -48.439  1.00  0.00     0.055 A 
ATOM     18  N   UNL     1      13.408 -24.179 -47.504  1.00  0.00    -0.345 N 
ATOM     19  C   UNL     1      12.327 -22.919 -48.980  1.00  0.00     0.100 A 
ATOM     20  C   UNL     1      12.360 -24.164 -48.389  1.00  0.00     0.107 A 
ATOM     21  C   UNL     1      13.746 -25.317 -46.671  1.00  0.00     0.150 C 
BRANCH  19  22
ATOM     22  S   UNL     1      11.209 -22.383 -50.183  1.00  0.00     0.239 S 
ATOM     23  O   UNL     1      11.481 -23.202 -51.339  1.00  0.00    -0.207 OA
ATOM     24  O   UNL     1      11.320 -20.945 -50.164  1.00  0.00    -0.207 OA
BRANCH  22  25
ATOM     25  N   UNL     1       9.682 -22.785 -49.617  1.00  0.00    -0.225 NA
ATOM     26  H   UNL     1       9.117 -23.220 -50.343  1.00  0.00     0.137 HD
ATOM     27  H   UNL     1       9.240 -22.006 -49.134  1.00  0.00     0.137 HD
ENDBRANCH  22  25
ENDBRANCH  19  22
ENDBRANCH   2  16
TORSDOF 7
ENDMDL
MODEL 8
REMARK VINA RESULT:    -6.908      4.064      8.846
REMARK INTER + INTRA:         -10.147
REMARK INTER:                  -9.335
REMARK INTRA:                  -0.812
REMARK UNBOUND:                -0.614
REMARK SMILES CC(C)c1ccc(CCNC(=O)c2cc(S(N)(=O)=O)cn2C)cc1
REMARK SMILES IDX 10 1 11 2 12 3 9 5 8 6 7 7 4 8 5 9 24 10 6 11 23 12 2 13
REMARK SMILES IDX 1 14 3 15 13 16 14 17 21 18 15 19 20 20 22 21 16 22 18 23
REMARK SMILES IDX 19 24 17 25
REMARK H PARENT 10 4 17 26 17 27
ROOT
ATOM      1  N   UNL     1      12.357 -25.004 -45.346  1.00  0.00    -0.350 N 
ATOM      2  C   UNL     1      12.560 -23.828 -44.658  1.00  0.00     0.267 C 
ATOM      3  O   UNL     1      12.131 -22.753 -45.066  1.00  0.00    -0.268 OA
ATOM      4  H   UNL     1      12.466 -25.863 -44.824  1.00  0.00     0.163 HD
ENDROOT
BRANCH   1   5
ATOM      5  C   UNL     1      11.479 -25.058 -46.501  1.00  0.00     0.121 C 
BRANCH   5   6
ATOM      6  C   UNL     1      12.248 -25.224 -47.815  1.00  0.00     0.057 C 
BRANCH   6   7
ATOM      7  C   UNL     1      12.461 -23.918 -48.544  1.00  0.00    -0.046 A 
ATOM      8  C   UNL     1      12.814 -21.442 -49.859  1.00  0.00    -0.045 A 
ATOM      9  C   UNL     1      11.751 -22.290 -50.201  1.00  0.00     0.004 A 
ATOM     10  C   UNL     1      13.700 -21.852 -48.853  1.00  0.00     0.004 A 
ATOM     11  C   UNL     1      11.577 -23.515 -49.552  1.00  0.00     0.004 A 
ATOM     12  C   UNL     1      13.526 -23.076 -48.202  1.00  0.00     0.004 A 
BRANCH   8  13
ATOM     13  C   UNL     1      12.980 -20.114 -50.577  1.00  0.00     0.013 C 
ATOM     14  C   UNL     1      13.705 -19.089 -49.701  1.00  0.00     0.012 C 
ATOM     15  C   UNL     1      13.694 -20.284 -51.920  1.00  0.00     0.012 C 
ENDBRANCH   8  13
ENDBRANCH   6   7
ENDBRANCH   5   6
ENDBRANCH   1   5
BRANCH   2  16
ATOM     16  C   UNL     1      13.302 -23.974 -43.413  1.00  0.00     0.108 A 
ATOM     17  C   UNL     1      12.845 -24.332 -42.146  1.00  0.00     0.055 A 
ATOM     18  N   UNL     1      14.669 -23.784 -43.285  1.00  0.00    -0.345 N 
ATOM     19  C   UNL     1      13.950 -24.345 -41.260  1.00  0.00     0.100 A 
ATOM     20  C   UNL     1      15.068 -24.009 -41.991  1.00  0.00     0.107 A 
ATOM     21  C   UNL     1      15.569 -23.381 -44.350  1.00  0.00     0.150 C 
BRANCH  19  22
ATOM     22  S   UNL     1      13.904 -24.743 -39.580  1.00  0.00     0.239 S 
ATOM     23  O   UNL     1      13.793 -26.181 -39.538  1.00  0.00    -0.207 OA
ATOM     24  O   UNL     1      12.929 -23.839 -39.020  1.00  0.00    -0.207 OA
BRANCH  22  25
ATOM     25  N   UNL     1      15.405 -24.327 -38.957  1.00  0.00    -0.225 NA
ATOM     26  H   UNL     1      15.781 -25.062 -38.364  1.00  0.00     0.137 HD
ATOM     27  H   UNL     1      15.397 -23.398 -38.540  1.00  0.00     0.137 HD
ENDBRANCH  22  25
ENDBRANCH  19  22
ENDBRANCH   2  16
TORSDOF 7
ENDMDL
MODEL 9
REMARK VINA RESULT:    -6.763      4.453      8.321
REMARK INTER + INTRA:          -9.946
REMARK INTER:                  -9.397
REMARK INTRA:                  -0.550
REMARK UNBOUND:                -0.614
REMARK SMILES CC(C)c1ccc(CCNC(=O)c2cc(S(N)(=O)=O)cn2C)cc1
REMARK SMILES IDX 10 1 11 2 12 3 9 5 8 6 7 7 4 8 5 9 24 10 6 11 23 12 2 13
REMARK SMILES IDX 1 14 3 15 13 16 14 17 21 18 15 19 20 20 22 21 16 22 18 23
REMARK SMILES IDX 19 24 17 25
REMARK H PARENT 10 4 17 26 17 27
ROOT
ATOM      1  N   UNL     1      16.983 -24.244 -44.334  1.00  0.00    -0.350 N 
ATOM      2  C   UNL     1      17.377 -23.765 -43.105  1.00  0.00     0.267 C 
ATOM      3  O   UNL     1      18.168 -22.833 -42.992  1.00  0.00    -0.268 OA
ATOM      4  H   UNL     1      16.131 -24.787 -44.361  1.00  0.00     0.163 HD
ENDROOT
BRANCH   1   5
ATOM      5  C   UNL     1      17.350 -23.560 -45.561  1.00  0.00     0.121 C 
BRANCH   5   6
ATOM      6  C   UNL     1      16.479 -22.329 -45.830  1.00  0.00     0.057 C 
BRANCH   6   7
ATOM      7  C   UNL     1      15.298 -22.626 -46.725  1.00  0.00    -0.046 A 
ATOM      8  C   UNL     1      13.049 -23.134 -48.359  1.00  0.00    -0.045 A 
ATOM      9  C   UNL     1      13.251 -23.853 -47.173  1.00  0.00     0.004 A 
ATOM     10  C   UNL     1      13.991 -22.159 -48.717  1.00  0.00     0.004 A 
ATOM     11  C   UNL     1      14.363 -23.604 -46.366  1.00  0.00     0.004 A 
ATOM     12  C   UNL     1      15.103 -21.907 -47.910  1.00  0.00     0.004 A 
BRANCH   8  13
ATOM     13  C   UNL     1      11.830 -23.421 -49.218  1.00  0.00     0.013 C 
ATOM     14  C   UNL     1      10.572 -23.598 -48.365  1.00  0.00     0.012 C 
ATOM     15  C   UNL     1      11.621 -22.339 -50.280  1.00  0.00     0.012 C 
ENDBRANCH   8  13
ENDBRANCH   6   7
ENDBRANCH   5   6
ENDBRANCH   1   5
BRANCH   2  16
ATOM     16  C   UNL     1      16.767 -24.440 -41.967  1.00  0.00     0.108 A 
ATOM     17  C   UNL     1      15.634 -24.095 -41.235  1.00  0.00     0.055 A 
ATOM     18  N   UNL     1      17.240 -25.617 -41.406  1.00  0.00    -0.345 N 
ATOM     19  C   UNL     1      15.437 -25.070 -40.228  1.00  0.00     0.100 A 
ATOM     20  C   UNL     1      16.442 -26.005 -40.359  1.00  0.00     0.107 A 
ATOM     21  C   UNL     1      18.421 -26.342 -41.833  1.00  0.00     0.150 C 
BRANCH  19  22
ATOM     22  S   UNL     1      14.155 -25.097 -39.070  1.00  0.00     0.239 S 
ATOM     23  O   UNL     1      14.472 -26.193 -38.186  1.00  0.00    -0.207 OA
ATOM     24  O   UNL     1      12.952 -25.015 -39.861  1.00  0.00    -0.207 OA
BRANCH  22  25
ATOM     25  N   UNL     1      14.287 -23.675 -38.191  1.00  0.00    -0.225 NA
ATOM     26  H   UNL     1      15.189 -23.604 -37.725  1.00  0.00     0.137 HD
ATOM     27  H   UNL     1      13.478 -23.525 -37.590  1.00  0.00     0.137 HD
ENDBRANCH  22  25
ENDBRANCH  19  22
ENDBRANCH   2  16
TORSDOF 7
ENDMDL
