MODEL 1
REMARK VINA RESULT:    -7.113      0.000      0.000
REMARK INTER + INTRA:         -13.196
REMARK INTER:                 -11.687
REMARK INTRA:                  -1.509
REMARK UNBOUND:                -1.509
REMARK SMILES COCCNc1ccc(C(=O)N(C)CC(=O)NCc2ccco2)cc1[N+](=O)[O-]
REMARK SMILES IDX 6 1 7 2 8 3 9 4 24 5 25 6 5 7 4 9 3 10 2 11 1 12 26 13 27 14
REMARK SMILES IDX 28 15 10 16 11 17 12 18 13 19 14 20 15 21 16 22 17 23 18 25
REMARK SMILES IDX 19 26 20 27 23 28 21 29 22 30
REMARK H PARENT 5 8 17 24
ROOT
ATOM      1  C   UNL     1      13.478 -22.639 -46.452  1.00  0.00     0.113 A 
ATOM      2  C   UNL     1      14.814 -22.259 -46.663  1.00  0.00     0.034 A 
ATOM      3  C   UNL     1      15.792 -22.385 -45.666  1.00  0.00     0.016 A 
ATOM      4  C   UNL     1      15.463 -22.942 -44.431  1.00  0.00     0.047 A 
ATOM      5  C   UNL     1      14.155 -23.341 -44.175  1.00  0.00     0.101 A 
ATOM      6  C   UNL     1      13.187 -23.205 -45.186  1.00  0.00     0.293 A 
ENDROOT
BRANCH   1   7
ATOM      7  N   UNL     1      12.529 -22.597 -47.479  1.00  0.00    -0.377 N 
ATOM      8  H   UNL     1      11.700 -23.163 -47.262  1.00  0.00     0.160 HD
BRANCH   7   9
ATOM      9  C   UNL     1      12.175 -21.366 -48.196  1.00  0.00     0.141 C 
BRANCH   9  10
ATOM     10  C   UNL     1      11.803 -21.647 -49.659  1.00  0.00     0.181 C 
BRANCH  10  11
ATOM     11  O   UNL     1      12.277 -20.603 -50.513  1.00  0.00    -0.383 OA
ATOM     12  C   UNL     1      13.433 -19.972 -49.977  1.00  0.00     0.194 C 
ENDBRANCH  10  11
ENDBRANCH   9  10
ENDBRANCH   7   9
ENDBRANCH   1   7
BRANCH   6  13
ATOM     13  N   UNL     1      11.837 -23.676 -44.871  1.00  0.00     0.064 N 
ATOM     14  O   UNL     1      11.357 -23.338 -43.778  1.00  0.00    -0.258 OA
ATOM     15  O   UNL     1      11.247 -24.364 -45.719  1.00  0.00    -0.258 OA
ENDBRANCH   6  13
BRANCH   4  16
ATOM     16  C   UNL     1      16.505 -23.039 -43.387  1.00  0.00     0.254 C 
ATOM     17  O   UNL     1      16.285 -22.498 -42.305  1.00  0.00    -0.269 OA
BRANCH  16  18
ATOM     18  N   UNL     1      17.681 -23.736 -43.653  1.00  0.00    -0.332 N 
ATOM     19  C   UNL     1      19.005 -23.128 -43.730  1.00  0.00     0.147 C 
BRANCH  18  20
ATOM     20  C   UNL     1      17.647 -25.191 -43.492  1.00  0.00     0.219 C 
BRANCH  20  21
ATOM     21  C   UNL     1      17.655 -25.583 -42.011  1.00  0.00     0.239 C 
ATOM     22  O   UNL     1      18.695 -25.753 -41.380  1.00  0.00    -0.273 OA
ATOM     23  N   UNL     1      16.401 -25.668 -41.448  1.00  0.00    -0.347 N 
ATOM     24  H   UNL     1      15.650 -25.190 -41.953  1.00  0.00     0.164 HD
BRANCH  23  25
ATOM     25  C   UNL     1      16.256 -25.800 -40.020  1.00  0.00     0.191 C 
BRANCH  25  26
ATOM     26  C   UNL     1      15.022 -25.099 -39.600  1.00  0.00     0.122 A 
ATOM     27  C   UNL     1      13.977 -24.520 -40.290  1.00  0.00     0.047 A 
ATOM     28  O   UNL     1      14.828 -24.954 -38.255  1.00  0.00    -0.467 OA
ATOM     29  C   UNL     1      13.096 -23.994 -39.316  1.00  0.00     0.042 A 
ATOM     30  C   UNL     1      13.659 -24.283 -38.095  1.00  0.00     0.195 A 
ENDBRANCH  25  26
ENDBRANCH  23  25
ENDBRANCH  20  21
ENDBRANCH  18  20
ENDBRANCH  16  18
ENDBRANCH   4  16
TORSDOF 11
ENDMDL
MODEL 2
REMARK VINA RESULT:    -6.792      2.089      3.405
REMARK INTER + INTRA:         -12.669
REMARK INTER:                 -11.484
REMARK INTRA:                  -1.185
REMARK UNBOUND:                -1.509
REMARK SMILES COCCNc1ccc(C(=O)N(C)CC(=O)NCc2ccco2)cc1[N+](=O)[O-]
REMARK SMILES IDX 6 1 7 2 8 3 9 4 24 5 25 6 5 7 4 9 3 10 2 11 1 12 26 13 27 14
REMARK SMILES IDX 28 15 10 16 11 17 12 18 13 19 14 20 15 21 16 22 17 23 18 25
REMARK SMILES IDX 19 26 20 27 23 28 21 29 22 30
REMARK H PARENT 5 8 17 24
ROOT
ATOM      1  C   UNL     1      12.504 -22.787 -48.132  1.00  0.00     0.113 A 
ATOM      2  C   UNL     1      12.735 -24.044 -47.549  1.00  0.00     0.034 A 
ATOM      3  C   UNL     1      13.908 -24.331 -46.837  1.00  0.00     0.016 A 
ATOM      4  C   UNL     1      14.873 -23.343 -46.650  1.00  0.00     0.047 A 
ATOM      5  C   UNL     1      14.688 -22.079 -47.201  1.00  0.00     0.101 A 
ATOM      6  C   UNL     1      13.506 -21.809 -47.915  1.00  0.00     0.293 A 
ENDROOT
BRANCH   1   7
ATOM      7  N   UNL     1      11.293 -22.478 -48.761  1.00  0.00    -0.377 N 
ATOM      8  H   UNL     1      11.249 -21.494 -49.051  1.00  0.00     0.160 HD
BRANCH   7   9
ATOM      9  C   UNL     1      10.648 -23.362 -49.740  1.00  0.00     0.141 C 
BRANCH   9  10
ATOM     10  C   UNL     1       9.191 -23.663 -49.359  1.00  0.00     0.181 C 
BRANCH  10  11
ATOM     11  O   UNL     1       9.061 -23.837 -47.945  1.00  0.00    -0.383 OA
ATOM     12  C   UNL     1       9.193 -25.202 -47.571  1.00  0.00     0.194 C 
ENDBRANCH  10  11
ENDBRANCH   9  10
ENDBRANCH   7   9
ENDBRANCH   1   7
BRANCH   6  13
ATOM     13  N   UNL     1      13.351 -20.451 -48.440  1.00  0.00     0.064 N 
ATOM     14  O   UNL     1      13.689 -20.254 -49.617  1.00  0.00    -0.258 OA
ATOM     15  O   UNL     1      12.872 -19.587 -47.688  1.00  0.00    -0.258 OA
ENDBRANCH   6  13
BRANCH   4  16
ATOM     16  C   UNL     1      16.112 -23.679 -45.918  1.00  0.00     0.254 C 
ATOM     17  O   UNL     1      16.722 -24.692 -46.257  1.00  0.00    -0.269 OA
BRANCH  16  18
ATOM     18  N   UNL     1      16.551 -22.848 -44.891  1.00  0.00    -0.332 N 
ATOM     19  C   UNL     1      17.677 -21.926 -44.995  1.00  0.00     0.147 C 
BRANCH  18  20
ATOM     20  C   UNL     1      15.629 -22.618 -43.776  1.00  0.00     0.219 C 
BRANCH  20  21
ATOM     21  C   UNL     1      16.150 -23.261 -42.488  1.00  0.00     0.239 C 
ATOM     22  O   UNL     1      16.971 -22.707 -41.760  1.00  0.00    -0.273 OA
ATOM     23  N   UNL     1      15.574 -24.477 -42.196  1.00  0.00    -0.347 N 
ATOM     24  H   UNL     1      14.688 -24.678 -42.667  1.00  0.00     0.164 HD
BRANCH  23  25
ATOM     25  C   UNL     1      15.790 -25.092 -40.910  1.00  0.00     0.191 C 
BRANCH  25  26
ATOM     26  C   UNL     1      14.718 -24.657 -39.988  1.00  0.00     0.122 A 
ATOM     27  C   UNL     1      13.432 -24.193 -40.178  1.00  0.00     0.047 A 
ATOM     28  O   UNL     1      15.007 -24.692 -38.653  1.00  0.00    -0.467 OA
ATOM     29  C   UNL     1      12.907 -23.930 -38.891  1.00  0.00     0.042 A 
ATOM     30  C   UNL     1      13.903 -24.248 -37.998  1.00  0.00     0.195 A 
ENDBRANCH  25  26
ENDBRANCH  23  25
ENDBRANCH  20  21
ENDBRANCH  18  20
ENDBRANCH  16  18
ENDBRANCH   4  16
TORSDOF 11
ENDMDL
MODEL 3
REMARK VINA RESULT:    -6.772      2.380      4.369
REMARK INTER + INTRA:         -12.636
REMARK INTER:                 -11.450
REMARK INTRA:                  -1.186
REMARK UNBOUND:                -1.509
REMARK SMILES COCCNc1ccc(C(=O)N(C)CC(=O)NCc2ccco2)cc1[N+](=O)[O-]
REMARK SMILES IDX 6 1 7 2 8 3 9 4 24 5 25 6 5 7 4 9 3 10 2 11 1 12 26 13 27 14
REMARK SMILES IDX 28 15 10 16 11 17 12 18 13 19 14 20 15 21 16 22 17 23 18 25
REMARK SMILES IDX 19 26 20 27 23 28 21 29 22 30
REMARK H PARENT 5 8 17 24
ROOT
ATOM      1  C   UNL     1      12.792 -21.139 -50.016  1.00  0.00     0.113 A 
ATOM      2  C   UNL     1      13.712 -20.816 -49.005  1.00  0.00     0.034 A 
ATOM      3  C   UNL     1      13.734 -21.486 -47.773  1.00  0.00     0.016 A 
ATOM      4  C   UNL     1      12.852 -22.539 -47.535  1.00  0.00     0.047 A 
ATOM      5  C   UNL     1      11.925 -22.902 -48.506  1.00  0.00     0.101 A 
ATOM      6  C   UNL     1      11.916 -22.218 -49.735  1.00  0.00     0.293 A 
ENDROOT
BRANCH   1   7
ATOM      7  N   UNL     1      12.835 -20.530 -51.275  1.00  0.00    -0.377 N 
ATOM      8  H   UNL     1      11.907 -20.481 -51.712  1.00  0.00     0.160 HD
BRANCH   7   9
ATOM      9  C   UNL     1      13.636 -19.333 -51.561  1.00  0.00     0.141 C 
BRANCH   9  10
ATOM     10  C   UNL     1      14.128 -19.313 -53.016  1.00  0.00     0.181 C 
BRANCH  10  11
ATOM     11  O   UNL     1      15.089 -20.349 -53.240  1.00  0.00    -0.383 OA
ATOM     12  C   UNL     1      16.241 -19.857 -53.911  1.00  0.00     0.194 C 
ENDBRANCH  10  11
ENDBRANCH   9  10
ENDBRANCH   7   9
ENDBRANCH   1   7
BRANCH   6  13
ATOM     13  N   UNL     1      10.944 -22.669 -50.732  1.00  0.00     0.064 N 
ATOM     14  O   UNL     1       9.761 -22.764 -50.371  1.00  0.00    -0.258 OA
ATOM     15  O   UNL     1      11.354 -22.908 -51.879  1.00  0.00    -0.258 OA
ENDBRANCH   6  13
BRANCH   4  16
ATOM     16  C   UNL     1      12.877 -23.212 -46.219  1.00  0.00     0.254 C 
ATOM     17  O   UNL     1      12.229 -22.706 -45.304  1.00  0.00    -0.269 OA
BRANCH  16  18
ATOM     18  N   UNL     1      13.613 -24.382 -46.059  1.00  0.00    -0.332 N 
ATOM     19  C   UNL     1      13.061 -25.729 -46.167  1.00  0.00     0.147 C 
BRANCH  18  20
ATOM     20  C   UNL     1      15.071 -24.274 -46.144  1.00  0.00     0.219 C 
BRANCH  20  21
ATOM     21  C   UNL     1      15.636 -23.481 -44.962  1.00  0.00     0.239 C 
ATOM     22  O   UNL     1      16.047 -22.329 -45.078  1.00  0.00    -0.273 OA
ATOM     23  N   UNL     1      15.583 -24.153 -43.762  1.00  0.00    -0.347 N 
ATOM     24  H   UNL     1      14.933 -24.941 -43.717  1.00  0.00     0.164 HD
BRANCH  23  25
ATOM     25  C   UNL     1      15.862 -23.458 -42.530  1.00  0.00     0.191 C 
BRANCH  25  26
ATOM     26  C   UNL     1      14.936 -23.949 -41.485  1.00  0.00     0.122 A 
ATOM     27  C   UNL     1      13.584 -24.224 -41.469  1.00  0.00     0.047 A 
ATOM     28  O   UNL     1      15.474 -24.189 -40.253  1.00  0.00    -0.467 OA
ATOM     29  C   UNL     1      13.278 -24.655 -40.156  1.00  0.00     0.042 A 
ATOM     30  C   UNL     1      14.461 -24.615 -39.455  1.00  0.00     0.195 A 
ENDBRANCH  25  26
ENDBRANCH  23  25
ENDBRANCH  20  21
ENDBRANCH  18  20
ENDBRANCH  16  18
ENDBRANCH   4  16
TORSDOF 11
ENDMDL
MODEL 4
REMARK VINA RESULT:    -6.607      3.687     10.385
REMARK INTER + INTRA:         -12.365
REMARK INTER:                 -11.643
REMARK INTRA:                  -0.723
REMARK UNBOUND:                -1.509
REMARK SMILES COCCNc1ccc(C(=O)N(C)CC(=O)NCc2ccco2)cc1[N+](=O)[O-]
REMARK SMILES IDX 6 1 7 2 8 3 9 4 24 5 25 6 5 7 4 9 3 10 2 11 1 12 26 13 27 14
REMARK SMILES IDX 28 15 10 16 11 17 12 18 13 19 14 20 15 21 16 22 17 23 18 25
REMARK SMILES IDX 19 26 20 27 23 28 21 29 22 30
REMARK H PARENT 5 8 17 24
ROOT
ATOM      1  C   UNL     1      14.226 -23.045 -46.513  1.00  0.00     0.113 A 
ATOM      2  C   UNL     1      15.014 -22.404 -47.485  1.00  0.00     0.034 A 
ATOM      3  C   UNL     1      14.448 -21.708 -48.563  1.00  0.00     0.016 A 
ATOM      4  C   UNL     1      13.063 -21.599 -48.676  1.00  0.00     0.047 A 
ATOM      5  C   UNL     1      12.240 -22.210 -47.736  1.00  0.00     0.101 A 
ATOM      6  C   UNL     1      12.824 -22.906 -46.661  1.00  0.00     0.293 A 
ENDROOT
BRANCH   1   7
ATOM      7  N   UNL     1      14.794 -23.657 -45.391  1.00  0.00    -0.377 N 
ATOM      8  H   UNL     1      15.303 -24.514 -45.635  1.00  0.00     0.160 HD
BRANCH   7   9
ATOM      9  C   UNL     1      15.470 -22.909 -44.323  1.00  0.00     0.141 C 
BRANCH   9  10
ATOM     10  C   UNL     1      16.204 -23.845 -43.351  1.00  0.00     0.181 C 
BRANCH  10  11
ATOM     11  O   UNL     1      15.282 -24.721 -42.696  1.00  0.00    -0.383 OA
ATOM     12  C   UNL     1      15.051 -24.327 -41.350  1.00  0.00     0.194 C 
ENDBRANCH  10  11
ENDBRANCH   9  10
ENDBRANCH   7   9
ENDBRANCH   1   7
BRANCH   6  13
ATOM     13  N   UNL     1      11.908 -23.496 -45.684  1.00  0.00     0.064 N 
ATOM     14  O   UNL     1      11.962 -23.066 -44.522  1.00  0.00    -0.258 OA
ATOM     15  O   UNL     1      11.121 -24.371 -46.077  1.00  0.00    -0.258 OA
ENDBRANCH   6  13
BRANCH   4  16
ATOM     16  C   UNL     1      12.492 -20.884 -49.836  1.00  0.00     0.254 C 
ATOM     17  O   UNL     1      11.328 -21.133 -50.147  1.00  0.00    -0.269 OA
BRANCH  16  18
ATOM     18  N   UNL     1      13.271 -19.958 -50.525  1.00  0.00    -0.332 N 
ATOM     19  C   UNL     1      13.761 -18.705 -49.960  1.00  0.00     0.147 C 
BRANCH  18  20
ATOM     20  C   UNL     1      13.932 -20.418 -51.747  1.00  0.00     0.219 C 
BRANCH  20  21
ATOM     21  C   UNL     1      14.008 -19.297 -52.788  1.00  0.00     0.239 C 
ATOM     22  O   UNL     1      13.009 -18.837 -53.336  1.00  0.00    -0.273 OA
ATOM     23  N   UNL     1      15.282 -18.820 -53.004  1.00  0.00    -0.347 N 
ATOM     24  H   UNL     1      15.968 -19.027 -52.275  1.00  0.00     0.164 HD
BRANCH  23  25
ATOM     25  C   UNL     1      15.484 -17.620 -53.778  1.00  0.00     0.191 C 
BRANCH  25  26
ATOM     26  C   UNL     1      16.862 -17.130 -53.547  1.00  0.00     0.122 A 
ATOM     27  C   UNL     1      18.084 -17.758 -53.424  1.00  0.00     0.047 A 
ATOM     28  O   UNL     1      17.016 -15.780 -53.407  1.00  0.00    -0.467 OA
ATOM     29  C   UNL     1      19.038 -16.737 -53.197  1.00  0.00     0.042 A 
ATOM     30  C   UNL     1      18.338 -15.554 -53.194  1.00  0.00     0.195 A 
ENDBRANCH  25  26
ENDBRANCH  23  25
ENDBRANCH  20  21
ENDBRANCH  18  20
ENDBRANCH  16  18
ENDBRANCH   4  16
TORSDOF 11
ENDMDL
MODEL 5
REMARK VINA RESULT:    -6.557      2.926      9.684
REMARK INTER + INTRA:         -12.282
REMARK INTER:                 -11.307
REMARK INTRA:                  -0.975
REMARK UNBOUND:                -1.509
REMARK SMILES COCCNc1ccc(C(=O)N(C)CC(=O)NCc2ccco2)cc1[N+](=O)[O-]
REMARK SMILES IDX 6 1 7 2 8 3 9 4 24 5 25 6 5 7 4 9 3 10 2 11 1 12 26 13 27 14
REMARK SMILES IDX 28 15 10 16 11 17 12 18 13 19 14 20 15 21 16 22 17 23 18 25
REMARK SMILES IDX 19 26 20 27 23 28 21 29 22 30
REMARK H PARENT 5 8 17 24
ROOT
ATOM      1  C   UNL     1      16.560 -24.532 -45.180  1.00  0.00     0.113 A 
ATOM      2  C   UNL     1      15.618 -25.163 -46.010  1.00  0.00     0.034 A 
ATOM      3  C   UNL     1      14.458 -24.511 -46.452  1.00  0.00     0.016 A 
ATOM      4  C   UNL     1      14.228 -23.181 -46.104  1.00  0.00     0.047 A 
ATOM      5  C   UNL     1      15.133 -22.510 -45.289  1.00  0.00     0.101 A 
ATOM      6  C   UNL     1      16.292 -23.179 -44.854  1.00  0.00     0.293 A 
ENDROOT
BRANCH   1   7
ATOM      7  N   UNL     1      17.760 -25.156 -44.820  1.00  0.00    -0.377 N 
ATOM      8  H   UNL     1      18.433 -24.494 -44.417  1.00  0.00     0.160 HD
BRANCH   7   9
ATOM      9  C   UNL     1      17.817 -26.462 -44.153  1.00  0.00     0.141 C 
BRANCH   9  10
ATOM     10  C   UNL     1      17.997 -26.318 -42.634  1.00  0.00     0.181 C 
BRANCH  10  11
ATOM     11  O   UNL     1      19.005 -25.349 -42.333  1.00  0.00    -0.383 OA
ATOM     12  C   UNL     1      20.311 -25.864 -42.559  1.00  0.00     0.194 C 
ENDBRANCH  10  11
ENDBRANCH   9  10
ENDBRANCH   7   9
ENDBRANCH   1   7
BRANCH   6  13
ATOM     13  N   UNL     1      17.226 -22.411 -44.030  1.00  0.00     0.064 N 
ATOM     14  O   UNL     1      17.920 -21.557 -44.604  1.00  0.00    -0.258 OA
ATOM     15  O   UNL     1      17.253 -22.641 -42.811  1.00  0.00    -0.258 OA
ENDBRANCH   6  13
BRANCH   4  16
ATOM     16  C   UNL     1      12.984 -22.525 -46.560  1.00  0.00     0.254 C 
ATOM     17  O   UNL     1      11.930 -22.860 -46.023  1.00  0.00    -0.269 OA
BRANCH  16  18
ATOM     18  N   UNL     1      13.044 -21.558 -47.559  1.00  0.00    -0.332 N 
ATOM     19  C   UNL     1      13.084 -20.120 -47.318  1.00  0.00     0.147 C 
BRANCH  18  20
ATOM     20  C   UNL     1      13.447 -22.000 -48.896  1.00  0.00     0.219 C 
BRANCH  20  21
ATOM     21  C   UNL     1      12.899 -21.063 -49.976  1.00  0.00     0.239 C 
ATOM     22  O   UNL     1      11.695 -20.901 -50.158  1.00  0.00    -0.273 OA
ATOM     23  N   UNL     1      13.872 -20.384 -50.674  1.00  0.00    -0.347 N 
ATOM     24  H   UNL     1      14.792 -20.335 -50.228  1.00  0.00     0.164 HD
BRANCH  23  25
ATOM     25  C   UNL     1      13.510 -19.303 -51.557  1.00  0.00     0.191 C 
BRANCH  25  26
ATOM     26  C   UNL     1      14.596 -19.109 -52.543  1.00  0.00     0.122 A 
ATOM     27  C   UNL     1      15.202 -17.992 -53.080  1.00  0.00     0.047 A 
ATOM     28  O   UNL     1      15.147 -20.239 -53.078  1.00  0.00    -0.467 OA
ATOM     29  C   UNL     1      16.176 -18.464 -53.992  1.00  0.00     0.042 A 
ATOM     30  C   UNL     1      16.102 -19.837 -53.955  1.00  0.00     0.195 A 
ENDBRANCH  25  26
ENDBRANCH  23  25
ENDBRANCH  20  21
ENDBRANCH  18  20
ENDBRANCH  16  18
ENDBRANCH   4  16
TORSDOF 11
ENDMDL
MODEL 6
REMARK VINA RESULT:    -6.530      1.786      8.803
REMARK INTER + INTRA:         -12.239
REMARK INTER:                 -11.290
REMARK INTRA:                  -0.948
REMARK UNBOUND:                -1.509
REMARK SMILES COCCNc1ccc(C(=O)N(C)CC(=O)NCc2ccco2)cc1[N+](=O)[O-]
REMARK SMILES IDX 6 1 7 2 8 3 9 4 24 5 25 6 5 7 4 9 3 10 2 11 1 12 26 13 27 14
REMARK SMILES IDX 28 15 10 16 11 17 12 18 13 19 14 20 15 21 16 22 17 23 18 25
REMARK SMILES IDX 19 26 20 27 23 28 21 29 22 30
REMARK H PARENT 5 8 17 24
ROOT
ATOM      1  C   UNL     1      14.813 -24.206 -41.979  1.00  0.00     0.113 A 
ATOM      2  C   UNL     1      13.444 -24.482 -42.129  1.00  0.00     0.034 A 
ATOM      3  C   UNL     1      12.753 -24.208 -43.318  1.00  0.00     0.016 A 
ATOM      4  C   UNL     1      13.432 -23.684 -44.416  1.00  0.00     0.047 A 
ATOM      5  C   UNL     1      14.790 -23.399 -44.322  1.00  0.00     0.101 A 
ATOM      6  C   UNL     1      15.467 -23.678 -43.120  1.00  0.00     0.293 A 
ENDROOT
BRANCH   1   7
ATOM      7  N   UNL     1      15.516 -24.566 -40.824  1.00  0.00    -0.377 N 
ATOM      8  H   UNL     1      15.554 -23.800 -40.141  1.00  0.00     0.160 HD
BRANCH   7   9
ATOM      9  C   UNL     1      15.371 -25.872 -40.170  1.00  0.00     0.141 C 
BRANCH   9  10
ATOM     10  C   UNL     1      14.171 -25.897 -39.212  1.00  0.00     0.181 C 
BRANCH  10  11
ATOM     11  O   UNL     1      14.416 -25.071 -38.070  1.00  0.00    -0.383 OA
ATOM     12  C   UNL     1      13.408 -24.080 -37.914  1.00  0.00     0.194 C 
ENDBRANCH  10  11
ENDBRANCH   9  10
ENDBRANCH   7   9
ENDBRANCH   1   7
BRANCH   6  13
ATOM     13  N   UNL     1      16.903 -23.392 -43.093  1.00  0.00     0.064 N 
ATOM     14  O   UNL     1      17.310 -22.614 -42.216  1.00  0.00    -0.258 OA
ATOM     15  O   UNL     1      17.626 -23.957 -43.928  1.00  0.00    -0.258 OA
ENDBRANCH   6  13
BRANCH   4  16
ATOM     16  C   UNL     1      12.676 -23.380 -45.649  1.00  0.00     0.254 C 
ATOM     17  O   UNL     1      12.304 -22.220 -45.822  1.00  0.00    -0.269 OA
BRANCH  16  18
ATOM     18  N   UNL     1      12.419 -24.395 -46.567  1.00  0.00    -0.332 N 
ATOM     19  C   UNL     1      13.411 -25.356 -47.037  1.00  0.00     0.147 C 
BRANCH  18  20
ATOM     20  C   UNL     1      11.017 -24.746 -46.802  1.00  0.00     0.219 C 
BRANCH  20  21
ATOM     21  C   UNL     1      10.424 -23.915 -47.943  1.00  0.00     0.239 C 
ATOM     22  O   UNL     1       9.230 -23.633 -48.001  1.00  0.00    -0.273 OA
ATOM     23  N   UNL     1      11.356 -23.470 -48.855  1.00  0.00    -0.347 N 
ATOM     24  H   UNL     1      12.328 -23.472 -48.538  1.00  0.00     0.164 HD
BRANCH  23  25
ATOM     25  C   UNL     1      10.987 -22.493 -49.849  1.00  0.00     0.191 C 
BRANCH  25  26
ATOM     26  C   UNL     1      12.030 -21.444 -49.895  1.00  0.00     0.122 A 
ATOM     27  C   UNL     1      12.706 -20.734 -48.923  1.00  0.00     0.047 A 
ATOM     28  O   UNL     1      12.444 -21.046 -51.134  1.00  0.00    -0.467 OA
ATOM     29  C   UNL     1      13.580 -19.855 -49.606  1.00  0.00     0.042 A 
ATOM     30  C   UNL     1      13.382 -20.083 -50.947  1.00  0.00     0.195 A 
ENDBRANCH  25  26
ENDBRANCH  23  25
ENDBRANCH  20  21
ENDBRANCH  18  20
ENDBRANCH  16  18
ENDBRANCH   4  16
TORSDOF 11
ENDMDL
MODEL 7
REMARK VINA RESULT:    -6.504      2.235      9.789
REMARK INTER + INTRA:         -12.195
REMARK INTER:                 -11.628
REMARK INTRA:                  -0.567
REMARK UNBOUND:                -1.509
REMARK SMILES COCCNc1ccc(C(=O)N(C)CC(=O)NCc2ccco2)cc1[N+](=O)[O-]
REMARK SMILES IDX 6 1 7 2 8 3 9 4 24 5 25 6 5 7 4 9 3 10 2 11 1 12 26 13 27 14
REMARK SMILES IDX 28 15 10 16 11 17 12 18 13 19 14 20 15 21 16 22 17 23 18 25
REMARK SMILES IDX 19 26 20 27 23 28 21 29 22 30
REMARK H PARENT 5 8 17 24
ROOT
ATOM      1  C   UNL     1      14.443 -23.996 -42.965  1.00  0.00     0.113 A 
ATOM      2  C   UNL     1      13.195 -24.370 -43.490  1.00  0.00     0.034 A 
ATOM      3  C   UNL     1      12.703 -23.842 -44.693  1.00  0.00     0.016 A 
ATOM      4  C   UNL     1      13.476 -22.947 -45.431  1.00  0.00     0.047 A 
ATOM      5  C   UNL     1      14.722 -22.549 -44.957  1.00  0.00     0.101 A 
ATOM      6  C   UNL     1      15.199 -23.088 -43.748  1.00  0.00     0.293 A 
ENDROOT
BRANCH   1   7
ATOM      7  N   UNL     1      14.968 -24.595 -41.814  1.00  0.00    -0.377 N 
ATOM      8  H   UNL     1      15.980 -24.443 -41.728  1.00  0.00     0.160 HD
BRANCH   7   9
ATOM      9  C   UNL     1      14.298 -24.551 -40.509  1.00  0.00     0.141 C 
BRANCH   9  10
ATOM     10  C   UNL     1      15.156 -25.191 -39.408  1.00  0.00     0.181 C 
BRANCH  10  11
ATOM     11  O   UNL     1      14.473 -25.163 -38.151  1.00  0.00    -0.383 OA
ATOM     12  C   UNL     1      13.508 -24.120 -38.103  1.00  0.00     0.194 C 
ENDBRANCH  10  11
ENDBRANCH   9  10
ENDBRANCH   7   9
ENDBRANCH   1   7
BRANCH   6  13
ATOM     13  N   UNL     1      16.532 -22.662 -43.318  1.00  0.00     0.064 N 
ATOM     14  O   UNL     1      17.323 -22.296 -44.201  1.00  0.00    -0.258 OA
ATOM     15  O   UNL     1      16.783 -22.671 -42.103  1.00  0.00    -0.258 OA
ENDBRANCH   6  13
BRANCH   4  16
ATOM     16  C   UNL     1      12.924 -22.384 -46.681  1.00  0.00     0.254 C 
ATOM     17  O   UNL     1      11.727 -22.556 -46.908  1.00  0.00    -0.269 OA
BRANCH  16  18
ATOM     18  N   UNL     1      13.758 -21.681 -47.545  1.00  0.00    -0.332 N 
ATOM     19  C   UNL     1      14.948 -22.235 -48.182  1.00  0.00     0.147 C 
BRANCH  18  20
ATOM     20  C   UNL     1      13.229 -20.446 -48.130  1.00  0.00     0.219 C 
BRANCH  20  21
ATOM     21  C   UNL     1      12.868 -20.644 -49.605  1.00  0.00     0.239 C 
ATOM     22  O   UNL     1      11.920 -21.338 -49.964  1.00  0.00    -0.273 OA
ATOM     23  N   UNL     1      13.662 -19.931 -50.476  1.00  0.00    -0.347 N 
ATOM     24  H   UNL     1      14.180 -19.148 -50.071  1.00  0.00     0.164 HD
BRANCH  23  25
ATOM     25  C   UNL     1      13.303 -19.835 -51.869  1.00  0.00     0.191 C 
BRANCH  25  26
ATOM     26  C   UNL     1      14.444 -19.261 -52.616  1.00  0.00     0.122 A 
ATOM     27  C   UNL     1      14.921 -17.977 -52.782  1.00  0.00     0.047 A 
ATOM     28  O   UNL     1      15.221 -20.140 -53.317  1.00  0.00    -0.467 OA
ATOM     29  C   UNL     1      16.050 -18.076 -53.631  1.00  0.00     0.042 A 
ATOM     30  C   UNL     1      16.189 -19.411 -53.929  1.00  0.00     0.195 A 
ENDBRANCH  25  26
ENDBRANCH  23  25
ENDBRANCH  20  21
ENDBRANCH  18  20
ENDBRANCH  16  18
ENDBRANCH   4  16
TORSDOF 11
ENDMDL
MODEL 8
REMARK VINA RESULT:    -6.436      2.887      9.776
REMARK INTER + INTRA:         -12.083
REMARK INTER:                 -10.833
REMARK INTRA:                  -1.250
REMARK UNBOUND:                -1.509
REMARK SMILES COCCNc1ccc(C(=O)N(C)CC(=O)NCc2ccco2)cc1[N+](=O)[O-]
REMARK SMILES IDX 6 1 7 2 8 3 9 4 24 5 25 6 5 7 4 9 3 10 2 11 1 12 26 13 27 14
REMARK SMILES IDX 28 15 10 16 11 17 12 18 13 19 14 20 15 21 16 22 17 23 18 25
REMARK SMILES IDX 19 26 20 27 23 28 21 29 22 30
REMARK H PARENT 5 8 17 24
ROOT
ATOM      1  C   UNL     1      14.690 -23.665 -45.158  1.00  0.00     0.113 A 
ATOM      2  C   UNL     1      15.476 -22.900 -46.036  1.00  0.00     0.034 A 
ATOM      3  C   UNL     1      14.912 -21.992 -46.943  1.00  0.00     0.016 A 
ATOM      4  C   UNL     1      13.533 -21.792 -46.967  1.00  0.00     0.047 A 
ATOM      5  C   UNL     1      12.711 -22.520 -46.113  1.00  0.00     0.101 A 
ATOM      6  C   UNL     1      13.293 -23.429 -45.210  1.00  0.00     0.293 A 
ENDROOT
BRANCH   1   7
ATOM      7  N   UNL     1      15.263 -24.500 -44.193  1.00  0.00    -0.377 N 
ATOM      8  H   UNL     1      15.906 -25.185 -44.608  1.00  0.00     0.160 HD
BRANCH   7   9
ATOM      9  C   UNL     1      15.749 -24.013 -42.896  1.00  0.00     0.141 C 
BRANCH   9  10
ATOM     10  C   UNL     1      15.155 -24.816 -41.729  1.00  0.00     0.181 C 
BRANCH  10  11
ATOM     11  O   UNL     1      14.024 -24.139 -41.172  1.00  0.00    -0.383 OA
ATOM     12  C   UNL     1      13.138 -25.044 -40.525  1.00  0.00     0.194 C 
ENDBRANCH  10  11
ENDBRANCH   9  10
ENDBRANCH   7   9
ENDBRANCH   1   7
BRANCH   6  13
ATOM     13  N   UNL     1      12.382 -24.138 -44.311  1.00  0.00     0.064 N 
ATOM     14  O   UNL     1      12.578 -25.352 -44.145  1.00  0.00    -0.258 OA
ATOM     15  O   UNL     1      11.485 -23.485 -43.756  1.00  0.00    -0.258 OA
ENDBRANCH   6  13
BRANCH   4  16
ATOM     16  C   UNL     1      12.961 -20.849 -47.951  1.00  0.00     0.254 C 
ATOM     17  O   UNL     1      12.668 -19.720 -47.560  1.00  0.00    -0.269 OA
BRANCH  16  18
ATOM     18  N   UNL     1      12.783 -21.256 -49.270  1.00  0.00    -0.332 N 
ATOM     19  C   UNL     1      11.490 -21.545 -49.880  1.00  0.00     0.147 C 
BRANCH  18  20
ATOM     20  C   UNL     1      13.899 -21.040 -50.194  1.00  0.00     0.219 C 
BRANCH  20  21
ATOM     21  C   UNL     1      13.751 -19.709 -50.937  1.00  0.00     0.239 C 
ATOM     22  O   UNL     1      13.733 -18.627 -50.354  1.00  0.00    -0.273 OA
ATOM     23  N   UNL     1      13.700 -19.836 -52.307  1.00  0.00    -0.347 N 
ATOM     24  H   UNL     1      14.056 -20.715 -52.689  1.00  0.00     0.164 HD
BRANCH  23  25
ATOM     25  C   UNL     1      13.793 -18.667 -53.146  1.00  0.00     0.191 C 
BRANCH  25  26
ATOM     26  C   UNL     1      15.217 -18.285 -53.275  1.00  0.00     0.122 A 
ATOM     27  C   UNL     1      16.326 -18.918 -53.796  1.00  0.00     0.047 A 
ATOM     28  O   UNL     1      15.569 -17.060 -52.783  1.00  0.00    -0.467 OA
ATOM     29  C   UNL     1      17.415 -18.033 -53.613  1.00  0.00     0.042 A 
ATOM     30  C   UNL     1      16.903 -16.919 -52.992  1.00  0.00     0.195 A 
ENDBRANCH  25  26
ENDBRANCH  23  25
ENDBRANCH  20  21
ENDBRANCH  18  20
ENDBRANCH  16  18
ENDBRANCH   4  16
TORSDOF 11
ENDMDL
MODEL 9
REMARK VINA RESULT:    -6.388      2.131      3.116
REMARK INTER + INTRA:         -12.005
REMARK INTER:                 -11.056
REMARK INTRA:                  -0.949
REMARK UNBOUND:                -1.509
REMARK SMILES COCCNc1ccc(C(=O)N(C)CC(=O)NCc2ccco2)cc1[N+](=O)[O-]
REMARK SMILES IDX 6 1 7 2 8 3 9 4 24 5 25 6 5 7 4 9 3 10 2 11 1 12 26 13 27 14
REMARK SMILES IDX 28 15 10 16 11 17 12 18 13 19 14 20 15 21 16 22 17 23 18 25
REMARK SMILES IDX 19 26 20 27 23 28 21 29 22 30
REMARK H PARENT 5 8 17 24
ROOT
ATOM      1  C   UNL     1      13.255 -21.813 -49.124  1.00  0.00     0.113 A 
ATOM      2  C   UNL     1      14.561 -21.580 -48.660  1.00  0.00     0.034 A 
ATOM      3  C   UNL     1      15.140 -22.352 -47.642  1.00  0.00     0.016 A 
ATOM      4  C   UNL     1      14.435 -23.418 -47.086  1.00  0.00     0.047 A 
ATOM      5  C   UNL     1      13.140 -23.694 -47.515  1.00  0.00     0.101 A 
ATOM      6  C   UNL     1      12.574 -22.908 -48.536  1.00  0.00     0.293 A 
ENDROOT
BRANCH   1   7
ATOM      7  N   UNL     1      12.718 -21.101 -50.201  1.00  0.00    -0.377 N 
ATOM      8  H   UNL     1      11.707 -20.955 -50.101  1.00  0.00     0.160 HD
BRANCH   7   9
ATOM      9  C   UNL     1      13.378 -19.936 -50.804  1.00  0.00     0.141 C 
BRANCH   9  10
ATOM     10  C   UNL     1      13.744 -20.188 -52.274  1.00  0.00     0.181 C 
BRANCH  10  11
ATOM     11  O   UNL     1      13.491 -19.024 -53.066  1.00  0.00    -0.383 OA
ATOM     12  C   UNL     1      14.449 -18.003 -52.817  1.00  0.00     0.194 C 
ENDBRANCH  10  11
ENDBRANCH   9  10
ENDBRANCH   7   9
ENDBRANCH   1   7
BRANCH   6  13
ATOM     13  N   UNL     1      11.225 -23.270 -48.972  1.00  0.00     0.064 N 
ATOM     14  O   UNL     1      11.102 -23.730 -50.118  1.00  0.00    -0.258 OA
ATOM     15  O   UNL     1      10.292 -23.115 -48.169  1.00  0.00    -0.258 OA
ENDBRANCH   6  13
BRANCH   4  16
ATOM     16  C   UNL     1      15.056 -24.199 -45.996  1.00  0.00     0.254 C 
ATOM     17  O   UNL     1      15.060 -25.425 -46.100  1.00  0.00    -0.269 OA
BRANCH  16  18
ATOM     18  N   UNL     1      15.618 -23.536 -44.909  1.00  0.00    -0.332 N 
ATOM     19  C   UNL     1      14.858 -22.785 -43.915  1.00  0.00     0.147 C 
BRANCH  18  20
ATOM     20  C   UNL     1      16.986 -23.901 -44.535  1.00  0.00     0.219 C 
BRANCH  20  21
ATOM     21  C   UNL     1      17.154 -23.928 -43.013  1.00  0.00     0.239 C 
ATOM     22  O   UNL     1      17.577 -22.964 -42.380  1.00  0.00    -0.273 OA
ATOM     23  N   UNL     1      16.735 -25.100 -42.425  1.00  0.00    -0.347 N 
ATOM     24  H   UNL     1      16.105 -25.682 -42.983  1.00  0.00     0.164 HD
BRANCH  23  25
ATOM     25  C   UNL     1      16.616 -25.188 -40.991  1.00  0.00     0.191 C 
BRANCH  25  26
ATOM     26  C   UNL     1      15.226 -24.858 -40.606  1.00  0.00     0.122 A 
ATOM     27  C   UNL     1      14.657 -24.325 -39.467  1.00  0.00     0.047 A 
ATOM     28  O   UNL     1      14.255 -25.124 -41.530  1.00  0.00    -0.467 OA
ATOM     29  C   UNL     1      13.264 -24.261 -39.708  1.00  0.00     0.042 A 
ATOM     30  C   UNL     1      13.071 -24.760 -40.975  1.00  0.00     0.195 A 
ENDBRANCH  25  26
ENDBRANCH  23  25
ENDBRANCH  20  21
ENDBRANCH  18  20
ENDBRANCH  16  18
ENDBRANCH   4  16
TORSDOF 11
ENDMDL
