MODEL 1
REMARK VINA RESULT:    -8.134      0.000      0.000
REMARK INTER + INTRA:         -11.800
REMARK INTER:                 -10.511
REMARK INTRA:                  -1.289
REMARK UNBOUND:                -1.289
REMARK SMILES N/C(=N\[N+](=O)[O-])N/N=C/c1cn(Cc2ccc(Cl)cc2Cl)c2ccccc12
REMARK SMILES IDX 10 1 11 2 12 3 22 4 23 5 24 6 25 7 26 8 27 9 9 10 8 11 7 12
REMARK SMILES IDX 1 13 2 14 3 15 4 19 5 20 6 21 13 22 14 23 15 24 20 25 16 26
REMARK SMILES IDX 19 27 17 28 21 29 18 30
REMARK H PARENT 1 16 1 17 7 18
ROOT
ATOM      1  C   UNL     1      13.786 -23.887 -45.653  1.00  0.00     0.020 A 
ATOM      2  C   UNL     1      13.551 -24.936 -44.785  1.00  0.00     0.097 A 
ATOM      3  N   UNL     1      14.657 -25.109 -43.989  1.00  0.00    -0.342 N 
ATOM      4  C   UNL     1      15.605 -24.149 -44.293  1.00  0.00     0.049 A 
ATOM      5  C   UNL     1      16.872 -23.886 -43.742  1.00  0.00     0.027 A 
ATOM      6  C   UNL     1      17.621 -22.832 -44.270  1.00  0.00     0.002 A 
ATOM      7  C   UNL     1      17.128 -22.056 -45.313  1.00  0.00     0.001 A 
ATOM      8  C   UNL     1      15.866 -22.318 -45.853  1.00  0.00     0.011 A 
ATOM      9  C   UNL     1      15.085 -23.378 -45.340  1.00  0.00     0.008 A 
ENDROOT
BRANCH   1  10
ATOM     10  C   UNL     1      12.876 -23.402 -46.669  1.00  0.00     0.143 C 
ATOM     11  N   UNL     1      13.140 -23.622 -47.920  1.00  0.00    -0.180 NA
BRANCH  11  12
ATOM     12  N   UNL     1      12.214 -23.145 -48.813  1.00  0.00    -0.242 N 
ATOM     13  N   UNL     1      10.971 -21.633 -49.933  1.00  0.00    -0.363 N 
ATOM     14  C   UNL     1      12.222 -21.901 -49.426  1.00  0.00     0.286 C 
ATOM     15  N   UNL     1      13.297 -21.181 -49.509  1.00  0.00     0.102 NA
ATOM     16  H   UNL     1      10.857 -20.663 -50.234  1.00  0.00     0.160 HD
ATOM     17  H   UNL     1      10.202 -21.870 -49.318  1.00  0.00     0.160 HD
ATOM     18  H   UNL     1      11.288 -23.542 -48.680  1.00  0.00     0.194 HD
BRANCH  15  19
ATOM     19  N   UNL     1      13.243 -20.010 -50.160  1.00  0.00     0.194 N 
ATOM     20  O   UNL     1      13.044 -19.984 -51.388  1.00  0.00    -0.233 OA
ATOM     21  O   UNL     1      13.379 -18.979 -49.490  1.00  0.00    -0.233 OA
ENDBRANCH  15  19
ENDBRANCH  11  12
ENDBRANCH   1  10
BRANCH   3  22
ATOM     22  C   UNL     1      14.750 -26.105 -42.925  1.00  0.00     0.159 C 
BRANCH  22  23
ATOM     23  C   UNL     1      14.530 -25.511 -41.552  1.00  0.00    -0.010 A 
ATOM     24  C   UNL     1      13.265 -24.980 -41.234  1.00  0.00     0.008 A 
ATOM     25  C   UNL     1      15.532 -25.477 -40.566  1.00  0.00     0.047 A 
ATOM     26  C   UNL     1      13.010 -24.438 -39.974  1.00  0.00     0.021 A 
ATOM     27  C   UNL     1      15.276 -24.935 -39.304  1.00  0.00     0.041 A 
ATOM     28  C   UNL     1      14.017 -24.419 -39.013  1.00  0.00     0.042 A 
ATOM     29  Cl  UNL     1      17.125 -26.074 -40.860  1.00  0.00    -0.084 Cl
ATOM     30  Cl  UNL     1      13.702 -23.752 -37.459  1.00  0.00    -0.084 Cl
ENDBRANCH  22  23
ENDBRANCH   3  22
TORSDOF 5
ENDMDL
MODEL 2
REMARK VINA RESULT:    -7.849      3.929      6.757
REMARK INTER + INTRA:         -11.432
REMARK INTER:                 -10.338
REMARK INTRA:                  -1.094
REMARK UNBOUND:                -1.289
REMARK SMILES N/C(=N\[N+](=O)[O-])N/N=C/c1cn(Cc2ccc(Cl)cc2Cl)c2ccccc12
REMARK SMILES IDX 10 1 11 2 12 3 22 4 23 5 24 6 25 7 26 8 27 9 9 10 8 11 7 12
REMARK SMILES IDX 1 13 2 14 3 15 4 19 5 20 6 21 13 22 14 23 15 24 20 25 16 26
REMARK SMILES IDX 19 27 17 28 21 29 18 30
REMARK H PARENT 1 16 1 17 7 18
ROOT
ATOM      1  C   UNL     1      12.994 -20.506 -50.410  1.00  0.00     0.020 A 
ATOM      2  C   UNL     1      13.420 -20.196 -49.133  1.00  0.00     0.097 A 
ATOM      3  N   UNL     1      12.994 -21.178 -48.273  1.00  0.00    -0.342 N 
ATOM      4  C   UNL     1      12.330 -22.162 -48.981  1.00  0.00     0.049 A 
ATOM      5  C   UNL     1      11.745 -23.373 -48.567  1.00  0.00     0.027 A 
ATOM      6  C   UNL     1      11.125 -24.175 -49.529  1.00  0.00     0.002 A 
ATOM      7  C   UNL     1      11.088 -23.791 -50.864  1.00  0.00     0.001 A 
ATOM      8  C   UNL     1      11.674 -22.589 -51.271  1.00  0.00     0.011 A 
ATOM      9  C   UNL     1      12.308 -21.757 -50.322  1.00  0.00     0.008 A 
ENDROOT
BRANCH   1  10
ATOM     10  C   UNL     1      13.219 -19.710 -51.599  1.00  0.00     0.143 C 
ATOM     11  N   UNL     1      13.997 -18.674 -51.537  1.00  0.00    -0.180 NA
BRANCH  11  12
ATOM     12  N   UNL     1      14.168 -17.991 -52.715  1.00  0.00    -0.242 N 
ATOM     13  N   UNL     1      14.857 -16.353 -54.103  1.00  0.00    -0.363 N 
ATOM     14  C   UNL     1      15.212 -17.133 -53.028  1.00  0.00     0.286 C 
ATOM     15  N   UNL     1      16.340 -17.158 -52.386  1.00  0.00     0.102 NA
ATOM     16  H   UNL     1      15.501 -15.578 -54.271  1.00  0.00     0.160 HD
ATOM     17  H   UNL     1      13.914 -15.984 -54.069  1.00  0.00     0.160 HD
ATOM     18  H   UNL     1      13.293 -17.777 -53.184  1.00  0.00     0.194 HD
BRANCH  15  19
ATOM     19  N   UNL     1      17.323 -16.334 -52.775  1.00  0.00     0.194 N 
ATOM     20  O   UNL     1      17.900 -15.610 -51.943  1.00  0.00    -0.233 OA
ATOM     21  O   UNL     1      17.633 -16.342 -53.973  1.00  0.00    -0.233 OA
ENDBRANCH  15  19
ENDBRANCH  11  12
ENDBRANCH   1  10
BRANCH   3  22
ATOM     22  C   UNL     1      13.297 -21.200 -46.844  1.00  0.00     0.159 C 
BRANCH  22  23
ATOM     23  C   UNL     1      14.248 -22.315 -46.469  1.00  0.00    -0.010 A 
ATOM     24  C   UNL     1      15.557 -22.296 -46.987  1.00  0.00     0.008 A 
ATOM     25  C   UNL     1      13.888 -23.368 -45.610  1.00  0.00     0.047 A 
ATOM     26  C   UNL     1      16.475 -23.293 -46.654  1.00  0.00     0.021 A 
ATOM     27  C   UNL     1      14.808 -24.365 -45.276  1.00  0.00     0.041 A 
ATOM     28  C   UNL     1      16.097 -24.323 -45.798  1.00  0.00     0.042 A 
ATOM     29  Cl  UNL     1      12.301 -23.503 -44.942  1.00  0.00    -0.084 Cl
ATOM     30  Cl  UNL     1      17.229 -25.551 -45.387  1.00  0.00    -0.084 Cl
ENDBRANCH  22  23
ENDBRANCH   3  22
TORSDOF 5
ENDMDL
MODEL 3
REMARK VINA RESULT:    -7.841      2.129      3.728
REMARK INTER + INTRA:         -11.421
REMARK INTER:                 -10.255
REMARK INTRA:                  -1.167
REMARK UNBOUND:                -1.289
REMARK SMILES N/C(=N\[N+](=O)[O-])N/N=C/c1cn(Cc2ccc(Cl)cc2Cl)c2ccccc12
REMARK SMILES IDX 10 1 11 2 12 3 22 4 23 5 24 6 25 7 26 8 27 9 9 10 8 11 7 12
REMARK SMILES IDX 1 13 2 14 3 15 4 19 5 20 6 21 13 22 14 23 15 24 20 25 16 26
REMARK SMILES IDX 19 27 17 28 21 29 18 30
REMARK H PARENT 1 16 1 17 7 18
ROOT
ATOM      1  C   UNL     1      13.310 -22.594 -46.997  1.00  0.00     0.020 A 
ATOM      2  C   UNL     1      14.219 -23.163 -46.127  1.00  0.00     0.097 A 
ATOM      3  N   UNL     1      13.704 -24.347 -45.658  1.00  0.00    -0.342 N 
ATOM      4  C   UNL     1      12.478 -24.589 -46.251  1.00  0.00     0.049 A 
ATOM      5  C   UNL     1      11.584 -25.668 -46.130  1.00  0.00     0.027 A 
ATOM      6  C   UNL     1      10.394 -25.630 -46.863  1.00  0.00     0.002 A 
ATOM      7  C   UNL     1      10.100 -24.556 -47.694  1.00  0.00     0.001 A 
ATOM      8  C   UNL     1      10.995 -23.488 -47.814  1.00  0.00     0.011 A 
ATOM      9  C   UNL     1      12.205 -23.498 -47.086  1.00  0.00     0.008 A 
ENDROOT
BRANCH   1  10
ATOM     10  C   UNL     1      13.466 -21.330 -47.686  1.00  0.00     0.143 C 
ATOM     11  N   UNL     1      13.534 -21.313 -48.981  1.00  0.00    -0.180 NA
BRANCH  11  12
ATOM     12  N   UNL     1      13.661 -20.071 -49.551  1.00  0.00    -0.242 N 
ATOM     13  N   UNL     1      14.284 -18.515 -51.060  1.00  0.00    -0.363 N 
ATOM     14  C   UNL     1      13.802 -19.794 -50.903  1.00  0.00     0.286 C 
ATOM     15  N   UNL     1      13.463 -20.646 -51.821  1.00  0.00     0.102 NA
ATOM     16  H   UNL     1      14.583 -18.310 -52.015  1.00  0.00     0.160 HD
ATOM     17  H   UNL     1      15.034 -18.261 -50.427  1.00  0.00     0.160 HD
ATOM     18  H   UNL     1      14.096 -19.391 -48.935  1.00  0.00     0.194 HD
BRANCH  15  19
ATOM     19  N   UNL     1      13.579 -20.291 -53.108  1.00  0.00     0.194 N 
ATOM     20  O   UNL     1      13.083 -19.223 -53.511  1.00  0.00    -0.233 OA
ATOM     21  O   UNL     1      14.208 -21.052 -53.854  1.00  0.00    -0.233 OA
ENDBRANCH  15  19
ENDBRANCH  11  12
ENDBRANCH   1  10
BRANCH   3  22
ATOM     22  C   UNL     1      14.411 -25.241 -44.746  1.00  0.00     0.159 C 
BRANCH  22  23
ATOM     23  C   UNL     1      14.108 -24.948 -43.294  1.00  0.00    -0.010 A 
ATOM     24  C   UNL     1      12.997 -25.569 -42.691  1.00  0.00     0.008 A 
ATOM     25  C   UNL     1      14.898 -24.091 -42.507  1.00  0.00     0.047 A 
ATOM     26  C   UNL     1      12.689 -25.344 -41.348  1.00  0.00     0.021 A 
ATOM     27  C   UNL     1      14.590 -23.866 -41.163  1.00  0.00     0.041 A 
ATOM     28  C   UNL     1      13.489 -24.494 -40.589  1.00  0.00     0.042 A 
ATOM     29  Cl  UNL     1      16.265 -23.257 -43.153  1.00  0.00    -0.084 Cl
ATOM     30  Cl  UNL     1      13.110 -24.217 -38.935  1.00  0.00    -0.084 Cl
ENDBRANCH  22  23
ENDBRANCH   3  22
TORSDOF 5
ENDMDL
MODEL 4
REMARK VINA RESULT:    -7.678      2.141      2.462
REMARK INTER + INTRA:         -11.211
REMARK INTER:                 -10.047
REMARK INTRA:                  -1.164
REMARK UNBOUND:                -1.289
REMARK SMILES N/C(=N\[N+](=O)[O-])N/N=C/c1cn(Cc2ccc(Cl)cc2Cl)c2ccccc12
REMARK SMILES IDX 10 1 11 2 12 3 22 4 23 5 24 6 25 7 26 8 27 9 9 10 8 11 7 12
REMARK SMILES IDX 1 13 2 14 3 15 4 19 5 20 6 21 13 22 14 23 15 24 20 25 16 26
REMARK SMILES IDX 19 27 17 28 21 29 18 30
REMARK H PARENT 1 16 1 17 7 18
ROOT
ATOM      1  C   UNL     1      14.106 -23.972 -45.984  1.00  0.00     0.020 A 
ATOM      2  C   UNL     1      13.799 -25.043 -45.168  1.00  0.00     0.097 A 
ATOM      3  N   UNL     1      14.809 -25.205 -44.250  1.00  0.00    -0.342 N 
ATOM      4  C   UNL     1      15.759 -24.216 -44.424  1.00  0.00     0.049 A 
ATOM      5  C   UNL     1      16.946 -23.933 -43.724  1.00  0.00     0.027 A 
ATOM      6  C   UNL     1      17.723 -22.850 -44.143  1.00  0.00     0.002 A 
ATOM      7  C   UNL     1      17.335 -22.066 -45.223  1.00  0.00     0.001 A 
ATOM      8  C   UNL     1      16.152 -22.349 -45.913  1.00  0.00     0.011 A 
ATOM      9  C   UNL     1      15.346 -23.437 -45.513  1.00  0.00     0.008 A 
ENDROOT
BRANCH   1  10
ATOM     10  C   UNL     1      13.308 -23.490 -47.093  1.00  0.00     0.143 C 
ATOM     11  N   UNL     1      12.588 -22.422 -46.944  1.00  0.00    -0.180 NA
BRANCH  11  12
ATOM     12  N   UNL     1      11.880 -22.027 -48.051  1.00  0.00    -0.242 N 
ATOM     13  N   UNL     1      10.622 -22.225 -49.912  1.00  0.00    -0.363 N 
ATOM     14  C   UNL     1      10.817 -22.699 -48.635  1.00  0.00     0.286 C 
ATOM     15  N   UNL     1      10.130 -23.593 -47.993  1.00  0.00     0.102 NA
ATOM     16  H   UNL     1       9.979 -22.798 -50.462  1.00  0.00     0.160 HD
ATOM     17  H   UNL     1      11.470 -22.089 -50.451  1.00  0.00     0.160 HD
ATOM     18  H   UNL     1      12.428 -21.466 -48.697  1.00  0.00     0.194 HD
BRANCH  15  19
ATOM     19  N   UNL     1       9.084 -24.166 -48.603  1.00  0.00     0.194 N 
ATOM     20  O   UNL     1       9.256 -25.138 -49.361  1.00  0.00    -0.233 OA
ATOM     21  O   UNL     1       7.961 -23.703 -48.366  1.00  0.00    -0.233 OA
ENDBRANCH  15  19
ENDBRANCH  11  12
ENDBRANCH   1  10
BRANCH   3  22
ATOM     22  C   UNL     1      14.803 -26.219 -43.199  1.00  0.00     0.159 C 
BRANCH  22  23
ATOM     23  C   UNL     1      14.569 -25.631 -41.826  1.00  0.00    -0.010 A 
ATOM     24  C   UNL     1      13.347 -24.983 -41.561  1.00  0.00     0.008 A 
ATOM     25  C   UNL     1      15.515 -25.715 -40.789  1.00  0.00     0.047 A 
ATOM     26  C   UNL     1      13.079 -24.442 -40.303  1.00  0.00     0.021 A 
ATOM     27  C   UNL     1      15.245 -25.174 -39.529  1.00  0.00     0.041 A 
ATOM     28  C   UNL     1      14.029 -24.541 -39.292  1.00  0.00     0.042 A 
ATOM     29  Cl  UNL     1      17.055 -26.462 -41.013  1.00  0.00    -0.084 Cl
ATOM     30  Cl  UNL     1      13.698 -23.875 -37.741  1.00  0.00    -0.084 Cl
ENDBRANCH  22  23
ENDBRANCH   3  22
TORSDOF 5
ENDMDL
MODEL 5
REMARK VINA RESULT:    -7.506      3.643      6.388
REMARK INTER + INTRA:         -10.989
REMARK INTER:                 -10.232
REMARK INTRA:                  -0.757
REMARK UNBOUND:                -1.289
REMARK SMILES N/C(=N\[N+](=O)[O-])N/N=C/c1cn(Cc2ccc(Cl)cc2Cl)c2ccccc12
REMARK SMILES IDX 10 1 11 2 12 3 22 4 23 5 24 6 25 7 26 8 27 9 9 10 8 11 7 12
REMARK SMILES IDX 1 13 2 14 3 15 4 19 5 20 6 21 13 22 14 23 15 24 20 25 16 26
REMARK SMILES IDX 19 27 17 28 21 29 18 30
REMARK H PARENT 1 16 1 17 7 18
ROOT
ATOM      1  C   UNL     1      12.923 -20.859 -49.937  1.00  0.00     0.020 A 
ATOM      2  C   UNL     1      13.282 -20.675 -48.615  1.00  0.00     0.097 A 
ATOM      3  N   UNL     1      12.686 -21.650 -47.854  1.00  0.00    -0.342 N 
ATOM      4  C   UNL     1      11.974 -22.509 -48.671  1.00  0.00     0.049 A 
ATOM      5  C   UNL     1      11.230 -23.667 -48.380  1.00  0.00     0.027 A 
ATOM      6  C   UNL     1      10.601 -24.335 -49.433  1.00  0.00     0.002 A 
ATOM      7  C   UNL     1      10.708 -23.872 -50.740  1.00  0.00     0.001 A 
ATOM      8  C   UNL     1      11.452 -22.723 -51.024  1.00  0.00     0.011 A 
ATOM      9  C   UNL     1      12.099 -22.026 -49.980  1.00  0.00     0.008 A 
ENDROOT
BRANCH   1  10
ATOM     10  C   UNL     1      13.324 -20.026 -51.052  1.00  0.00     0.143 C 
ATOM     11  N   UNL     1      13.852 -20.576 -52.101  1.00  0.00    -0.180 NA
BRANCH  11  12
ATOM     12  N   UNL     1      14.184 -19.715 -53.117  1.00  0.00    -0.242 N 
ATOM     13  N   UNL     1      15.441 -18.276 -54.315  1.00  0.00    -0.363 N 
ATOM     14  C   UNL     1      15.461 -19.442 -53.585  1.00  0.00     0.286 C 
ATOM     15  N   UNL     1      16.460 -20.239 -53.365  1.00  0.00     0.102 NA
ATOM     16  H   UNL     1      16.373 -17.920 -54.534  1.00  0.00     0.160 HD
ATOM     17  H   UNL     1      14.899 -17.524 -53.904  1.00  0.00     0.160 HD
ATOM     18  H   UNL     1      13.525 -18.949 -53.224  1.00  0.00     0.194 HD
BRANCH  15  19
ATOM     19  N   UNL     1      17.656 -19.937 -53.890  1.00  0.00     0.194 N 
ATOM     20  O   UNL     1      18.024 -18.751 -53.968  1.00  0.00    -0.233 OA
ATOM     21  O   UNL     1      18.366 -20.877 -54.268  1.00  0.00    -0.233 OA
ENDBRANCH  15  19
ENDBRANCH  11  12
ENDBRANCH   1  10
BRANCH   3  22
ATOM     22  C   UNL     1      12.874 -21.791 -46.413  1.00  0.00     0.159 C 
BRANCH  22  23
ATOM     23  C   UNL     1      13.972 -22.769 -46.063  1.00  0.00    -0.010 A 
ATOM     24  C   UNL     1      15.205 -22.681 -46.739  1.00  0.00     0.008 A 
ATOM     25  C   UNL     1      13.825 -23.761 -45.076  1.00  0.00     0.047 A 
ATOM     26  C   UNL     1      16.253 -23.551 -46.437  1.00  0.00     0.021 A 
ATOM     27  C   UNL     1      14.876 -24.630 -44.773  1.00  0.00     0.041 A 
ATOM     28  C   UNL     1      16.085 -24.521 -45.454  1.00  0.00     0.042 A 
ATOM     29  Cl  UNL     1      12.349 -23.974 -44.207  1.00  0.00    -0.084 Cl
ATOM     30  Cl  UNL     1      17.378 -25.592 -45.081  1.00  0.00    -0.084 Cl
ENDBRANCH  22  23
ENDBRANCH   3  22
TORSDOF 5
ENDMDL
MODEL 6
REMARK VINA RESULT:    -7.439      3.408      4.828
REMARK INTER + INTRA:         -10.902
REMARK INTER:                  -9.942
REMARK INTRA:                  -0.960
REMARK UNBOUND:                -1.289
REMARK SMILES N/C(=N\[N+](=O)[O-])N/N=C/c1cn(Cc2ccc(Cl)cc2Cl)c2ccccc12
REMARK SMILES IDX 10 1 11 2 12 3 22 4 23 5 24 6 25 7 26 8 27 9 9 10 8 11 7 12
REMARK SMILES IDX 1 13 2 14 3 15 4 19 5 20 6 21 13 22 14 23 15 24 20 25 16 26
REMARK SMILES IDX 19 27 17 28 21 29 18 30
REMARK H PARENT 1 16 1 17 7 18
ROOT
ATOM      1  C   UNL     1      11.745 -24.245 -48.091  1.00  0.00     0.020 A 
ATOM      2  C   UNL     1      12.632 -24.896 -47.256  1.00  0.00     0.097 A 
ATOM      3  N   UNL     1      13.808 -24.188 -47.219  1.00  0.00    -0.342 N 
ATOM      4  C   UNL     1      13.688 -23.044 -47.986  1.00  0.00     0.049 A 
ATOM      5  C   UNL     1      14.588 -21.992 -48.235  1.00  0.00     0.027 A 
ATOM      6  C   UNL     1      14.180 -20.953 -49.076  1.00  0.00     0.002 A 
ATOM      7  C   UNL     1      12.915 -20.954 -49.652  1.00  0.00     0.001 A 
ATOM      8  C   UNL     1      12.023 -21.999 -49.397  1.00  0.00     0.011 A 
ATOM      9  C   UNL     1      12.406 -23.063 -48.552  1.00  0.00     0.008 A 
ENDROOT
BRANCH   1  10
ATOM     10  C   UNL     1      10.404 -24.682 -48.416  1.00  0.00     0.143 C 
ATOM     11  N   UNL     1       9.387 -24.036 -47.935  1.00  0.00    -0.180 NA
BRANCH  11  12
ATOM     12  N   UNL     1       8.155 -24.507 -48.311  1.00  0.00    -0.242 N 
ATOM     13  N   UNL     1       6.030 -24.443 -49.065  1.00  0.00    -0.363 N 
ATOM     14  C   UNL     1       7.294 -23.927 -49.232  1.00  0.00     0.286 C 
ATOM     15  N   UNL     1       7.706 -23.071 -50.116  1.00  0.00     0.102 NA
ATOM     16  H   UNL     1       5.313 -23.931 -49.583  1.00  0.00     0.160 HD
ATOM     17  H   UNL     1       5.729 -24.530 -48.101  1.00  0.00     0.160 HD
ATOM     18  H   UNL     1       7.691 -25.042 -47.582  1.00  0.00     0.194 HD
BRANCH  15  19
ATOM     19  N   UNL     1       6.829 -22.589 -51.007  1.00  0.00     0.194 N 
ATOM     20  O   UNL     1       7.066 -22.669 -52.226  1.00  0.00    -0.233 OA
ATOM     21  O   UNL     1       5.786 -22.089 -50.567  1.00  0.00    -0.233 OA
ENDBRANCH  15  19
ENDBRANCH  11  12
ENDBRANCH   1  10
BRANCH   3  22
ATOM     22  C   UNL     1      14.962 -24.561 -46.404  1.00  0.00     0.159 C 
BRANCH  22  23
ATOM     23  C   UNL     1      14.686 -24.451 -44.921  1.00  0.00    -0.010 A 
ATOM     24  C   UNL     1      13.914 -25.450 -44.296  1.00  0.00     0.008 A 
ATOM     25  C   UNL     1      15.179 -23.400 -44.129  1.00  0.00     0.047 A 
ATOM     26  C   UNL     1      13.650 -25.401 -42.927  1.00  0.00     0.021 A 
ATOM     27  C   UNL     1      14.915 -23.351 -42.758  1.00  0.00     0.041 A 
ATOM     28  C   UNL     1      14.153 -24.352 -42.163  1.00  0.00     0.042 A 
ATOM     29  Cl  UNL     1      16.111 -22.109 -44.799  1.00  0.00    -0.084 Cl
ATOM     30  Cl  UNL     1      13.827 -24.292 -40.475  1.00  0.00    -0.084 Cl
ENDBRANCH  22  23
ENDBRANCH   3  22
TORSDOF 5
ENDMDL
MODEL 7
REMARK VINA RESULT:    -7.355      2.794      5.025
REMARK INTER + INTRA:         -10.794
REMARK INTER:                 -10.247
REMARK INTRA:                  -0.547
REMARK UNBOUND:                -1.289
REMARK SMILES N/C(=N\[N+](=O)[O-])N/N=C/c1cn(Cc2ccc(Cl)cc2Cl)c2ccccc12
REMARK SMILES IDX 10 1 11 2 12 3 22 4 23 5 24 6 25 7 26 8 27 9 9 10 8 11 7 12
REMARK SMILES IDX 1 13 2 14 3 15 4 19 5 20 6 21 13 22 14 23 15 24 20 25 16 26
REMARK SMILES IDX 19 27 17 28 21 29 18 30
REMARK H PARENT 1 16 1 17 7 18
ROOT
ATOM      1  C   UNL     1      12.546 -22.390 -47.576  1.00  0.00     0.020 A 
ATOM      2  C   UNL     1      13.507 -22.865 -46.704  1.00  0.00     0.097 A 
ATOM      3  N   UNL     1      13.059 -24.038 -46.147  1.00  0.00    -0.342 N 
ATOM      4  C   UNL     1      11.827 -24.368 -46.681  1.00  0.00     0.049 A 
ATOM      5  C   UNL     1      10.985 -25.473 -46.465  1.00  0.00     0.027 A 
ATOM      6  C   UNL     1       9.772 -25.531 -47.157  1.00  0.00     0.002 A 
ATOM      7  C   UNL     1       9.405 -24.524 -48.042  1.00  0.00     0.001 A 
ATOM      8  C   UNL     1      10.248 -23.430 -48.257  1.00  0.00     0.011 A 
ATOM      9  C   UNL     1      11.480 -23.343 -47.572  1.00  0.00     0.008 A 
ENDROOT
BRANCH   1  10
ATOM     10  C   UNL     1      12.625 -21.166 -48.346  1.00  0.00     0.143 C 
ATOM     11  N   UNL     1      13.732 -20.860 -48.947  1.00  0.00    -0.180 NA
BRANCH  11  12
ATOM     12  N   UNL     1      13.711 -19.694 -49.669  1.00  0.00    -0.242 N 
ATOM     13  N   UNL     1      14.129 -18.282 -51.377  1.00  0.00    -0.363 N 
ATOM     14  C   UNL     1      13.794 -19.575 -51.049  1.00  0.00     0.286 C 
ATOM     15  N   UNL     1      13.534 -20.568 -51.843  1.00  0.00     0.102 NA
ATOM     16  H   UNL     1      14.386 -18.168 -52.360  1.00  0.00     0.160 HD
ATOM     17  H   UNL     1      14.859 -17.872 -50.806  1.00  0.00     0.160 HD
ATOM     18  H   UNL     1      14.081 -18.899 -49.156  1.00  0.00     0.194 HD
BRANCH  15  19
ATOM     19  N   UNL     1      13.586 -20.367 -53.167  1.00  0.00     0.194 N 
ATOM     20  O   UNL     1      14.173 -21.182 -53.902  1.00  0.00    -0.233 OA
ATOM     21  O   UNL     1      13.017 -19.363 -53.614  1.00  0.00    -0.233 OA
ENDBRANCH  15  19
ENDBRANCH  11  12
ENDBRANCH   1  10
BRANCH   3  22
ATOM     22  C   UNL     1      13.833 -24.844 -45.206  1.00  0.00     0.159 C 
BRANCH  22  23
ATOM     23  C   UNL     1      15.191 -24.247 -44.912  1.00  0.00    -0.010 A 
ATOM     24  C   UNL     1      16.164 -24.231 -45.931  1.00  0.00     0.008 A 
ATOM     25  C   UNL     1      15.526 -23.692 -43.664  1.00  0.00     0.047 A 
ATOM     26  C   UNL     1      17.424 -23.674 -45.711  1.00  0.00     0.021 A 
ATOM     27  C   UNL     1      16.788 -23.133 -43.445  1.00  0.00     0.041 A 
ATOM     28  C   UNL     1      17.731 -23.126 -44.469  1.00  0.00     0.042 A 
ATOM     29  Cl  UNL     1      14.420 -23.685 -42.339  1.00  0.00    -0.084 Cl
ATOM     30  Cl  UNL     1      19.284 -22.440 -44.199  1.00  0.00    -0.084 Cl
ENDBRANCH  22  23
ENDBRANCH   3  22
TORSDOF 5
ENDMDL
MODEL 8
REMARK VINA RESULT:    -7.227      5.790      8.347
REMARK INTER + INTRA:         -10.628
REMARK INTER:                  -9.565
REMARK INTRA:                  -1.063
REMARK UNBOUND:                -1.289
REMARK SMILES N/C(=N\[N+](=O)[O-])N/N=C/c1cn(Cc2ccc(Cl)cc2Cl)c2ccccc12
REMARK SMILES IDX 10 1 11 2 12 3 22 4 23 5 24 6 25 7 26 8 27 9 9 10 8 11 7 12
REMARK SMILES IDX 1 13 2 14 3 15 4 19 5 20 6 21 13 22 14 23 15 24 20 25 16 26
REMARK SMILES IDX 19 27 17 28 21 29 18 30
REMARK H PARENT 1 16 1 17 7 18
ROOT
ATOM      1  C   UNL     1      12.003 -22.153 -49.311  1.00  0.00     0.020 A 
ATOM      2  C   UNL     1      11.216 -23.036 -50.026  1.00  0.00     0.097 A 
ATOM      3  N   UNL     1      10.885 -24.093 -49.214  1.00  0.00    -0.342 N 
ATOM      4  C   UNL     1      11.407 -23.891 -47.950  1.00  0.00     0.049 A 
ATOM      5  C   UNL     1      11.317 -24.656 -46.773  1.00  0.00     0.027 A 
ATOM      6  C   UNL     1      11.969 -24.193 -45.627  1.00  0.00     0.002 A 
ATOM      7  C   UNL     1      12.687 -23.003 -45.645  1.00  0.00     0.001 A 
ATOM      8  C   UNL     1      12.770 -22.243 -46.815  1.00  0.00     0.011 A 
ATOM      9  C   UNL     1      12.121 -22.686 -47.989  1.00  0.00     0.008 A 
ENDROOT
BRANCH   1  10
ATOM     10  C   UNL     1      12.578 -20.924 -49.816  1.00  0.00     0.143 C 
ATOM     11  N   UNL     1      12.609 -20.711 -51.095  1.00  0.00    -0.180 NA
BRANCH  11  12
ATOM     12  N   UNL     1      13.154 -19.513 -51.483  1.00  0.00    -0.242 N 
ATOM     13  N   UNL     1      14.748 -18.032 -52.073  1.00  0.00    -0.363 N 
ATOM     14  C   UNL     1      14.322 -19.333 -52.208  1.00  0.00     0.286 C 
ATOM     15  N   UNL     1      14.845 -20.284 -52.919  1.00  0.00     0.102 NA
ATOM     16  H   UNL     1      15.694 -17.878 -52.428  1.00  0.00     0.160 HD
ATOM     17  H   UNL     1      14.695 -17.661 -51.132  1.00  0.00     0.160 HD
ATOM     18  H   UNL     1      12.928 -18.748 -50.854  1.00  0.00     0.194 HD
BRANCH  15  19
ATOM     19  N   UNL     1      15.949 -20.024 -53.635  1.00  0.00     0.194 N 
ATOM     20  O   UNL     1      16.024 -18.985 -54.315  1.00  0.00    -0.233 OA
ATOM     21  O   UNL     1      16.875 -20.842 -53.571  1.00  0.00    -0.233 OA
ENDBRANCH  15  19
ENDBRANCH  11  12
ENDBRANCH   1  10
BRANCH   3  22
ATOM     22  C   UNL     1      10.027 -25.201 -49.625  1.00  0.00     0.159 C 
BRANCH  22  23
ATOM     23  C   UNL     1       8.611 -24.760 -49.921  1.00  0.00    -0.010 A 
ATOM     24  C   UNL     1       7.700 -24.631 -48.854  1.00  0.00     0.008 A 
ATOM     25  C   UNL     1       8.162 -24.456 -51.219  1.00  0.00     0.047 A 
ATOM     26  C   UNL     1       6.388 -24.209 -49.078  1.00  0.00     0.021 A 
ATOM     27  C   UNL     1       6.849 -24.033 -51.441  1.00  0.00     0.041 A 
ATOM     28  C   UNL     1       5.969 -23.910 -50.371  1.00  0.00     0.042 A 
ATOM     29  Cl  UNL     1       9.187 -24.607 -52.600  1.00  0.00    -0.084 Cl
ATOM     30  Cl  UNL     1       4.353 -23.390 -50.645  1.00  0.00    -0.084 Cl
ENDBRANCH  22  23
ENDBRANCH   3  22
TORSDOF 5
ENDMDL
MODEL 9
REMARK VINA RESULT:    -6.995      5.513      8.925
REMARK INTER + INTRA:         -10.329
REMARK INTER:                  -9.127
REMARK INTRA:                  -1.202
REMARK UNBOUND:                -1.289
REMARK SMILES N/C(=N\[N+](=O)[O-])N/N=C/c1cn(Cc2ccc(Cl)cc2Cl)c2ccccc12
REMARK SMILES IDX 10 1 11 2 12 3 22 4 23 5 24 6 25 7 26 8 27 9 9 10 8 11 7 12
REMARK SMILES IDX 1 13 2 14 3 15 4 19 5 20 6 21 13 22 14 23 15 24 20 25 16 26
REMARK SMILES IDX 19 27 17 28 21 29 18 30
REMARK H PARENT 1 16 1 17 7 18
ROOT
ATOM      1  C   UNL     1      12.708 -22.849 -47.047  1.00  0.00     0.020 A 
ATOM      2  C   UNL     1      12.073 -23.947 -47.592  1.00  0.00     0.097 A 
ATOM      3  N   UNL     1      11.775 -23.681 -48.906  1.00  0.00    -0.342 N 
ATOM      4  C   UNL     1      12.254 -22.430 -49.248  1.00  0.00     0.049 A 
ATOM      5  C   UNL     1      12.232 -21.726 -50.466  1.00  0.00     0.027 A 
ATOM      6  C   UNL     1      12.799 -20.450 -50.506  1.00  0.00     0.002 A 
ATOM      7  C   UNL     1      13.375 -19.886 -49.374  1.00  0.00     0.001 A 
ATOM      8  C   UNL     1      13.399 -20.592 -48.167  1.00  0.00     0.011 A 
ATOM      9  C   UNL     1      12.833 -21.884 -48.095  1.00  0.00     0.008 A 
ENDROOT
BRANCH   1  10
ATOM     10  C   UNL     1      13.163 -22.720 -45.678  1.00  0.00     0.143 C 
ATOM     11  N   UNL     1      14.397 -22.993 -45.387  1.00  0.00    -0.180 NA
BRANCH  11  12
ATOM     12  N   UNL     1      14.747 -22.825 -44.071  1.00  0.00    -0.242 N 
ATOM     13  N   UNL     1      15.922 -23.098 -42.166  1.00  0.00    -0.363 N 
ATOM     14  C   UNL     1      16.018 -22.954 -43.531  1.00  0.00     0.286 C 
ATOM     15  N   UNL     1      17.087 -22.889 -44.263  1.00  0.00     0.102 NA
ATOM     16  H   UNL     1      16.801 -23.380 -41.727  1.00  0.00     0.160 HD
ATOM     17  H   UNL     1      15.192 -23.727 -41.854  1.00  0.00     0.160 HD
ATOM     18  H   UNL     1      13.992 -23.041 -43.426  1.00  0.00     0.194 HD
BRANCH  15  19
ATOM     19  N   UNL     1      18.285 -22.972 -43.666  1.00  0.00     0.194 N 
ATOM     20  O   UNL     1      19.112 -22.051 -43.791  1.00  0.00    -0.233 OA
ATOM     21  O   UNL     1      18.514 -23.980 -42.985  1.00  0.00    -0.233 OA
ENDBRANCH  15  19
ENDBRANCH  11  12
ENDBRANCH   1  10
BRANCH   3  22
ATOM     22  C   UNL     1      11.135 -24.635 -49.808  1.00  0.00     0.159 C 
BRANCH  22  23
ATOM     23  C   UNL     1       9.723 -24.234 -50.170  1.00  0.00    -0.010 A 
ATOM     24  C   UNL     1       8.743 -24.202 -49.158  1.00  0.00     0.008 A 
ATOM     25  C   UNL     1       9.341 -23.876 -51.475  1.00  0.00     0.047 A 
ATOM     26  C   UNL     1       7.431 -23.821 -49.440  1.00  0.00     0.021 A 
ATOM     27  C   UNL     1       8.027 -23.493 -51.757  1.00  0.00     0.041 A 
ATOM     28  C   UNL     1       7.079 -23.466 -50.739  1.00  0.00     0.042 A 
ATOM     29  Cl  UNL     1      10.454 -23.909 -52.794  1.00  0.00    -0.084 Cl
ATOM     30  Cl  UNL     1       5.462 -22.996 -51.087  1.00  0.00    -0.084 Cl
ENDBRANCH  22  23
ENDBRANCH   3  22
TORSDOF 5
ENDMDL
