REMARK SMILES CC1(C)[C@@]2(C)CC[C@]1(C(=O)N/N=C/c1ccc(O)c(O)c1)OC2=O
REMARK SMILES IDX 12 1 13 2 11 3 9 4 10 5 8 7 2 8 4 9 6 10 23 11 7 12 22 13
REMARK SMILES IDX 24 14 1 15 3 16 5 17 14 18 15 19 21 20 16 21 19 22 17 23
REMARK SMILES IDX 20 24 18 26
REMARK H PARENT 11 6 20 25 18 27
ROOT
ATOM      1  N   UNL     1       0.659  -0.300  -1.307  1.00  0.00    -0.181 NA
ATOM      2  C   UNL     1      -0.455   0.185  -1.761  1.00  0.00     0.141 C 
ENDROOT
BRANCH   1   3
ATOM      3  N   UNL     1       1.164   0.225  -0.143  1.00  0.00    -0.244 N 
ATOM      4  C   UNL     1       0.398   0.613   0.957  1.00  0.00     0.284 C 
ATOM      5  O   UNL     1      -0.832   0.624   0.978  1.00  0.00    -0.268 OA
ATOM      6  H   UNL     1       2.132  -0.038   0.006  1.00  0.00     0.193 HD
BRANCH   4   7
ATOM      7  C   UNL     1       1.224   1.001   2.200  1.00  0.00     0.198 C 
ATOM      8  C   UNL     1       1.804  -0.169   3.025  1.00  0.00     0.030 C 
ATOM      9  C   UNL     1       2.366   0.823   4.069  1.00  0.00     0.075 C 
ATOM     10  C   UNL     1       3.236   1.801   3.249  1.00  0.00     0.024 C 
ATOM     11  C   UNL     1       1.114   1.633   4.364  1.00  0.00     0.313 C 
ATOM     12  C   UNL     1       2.430   1.937   1.939  1.00  0.00     0.061 C 
ATOM     13  O   UNL     1       0.419   1.701   3.179  1.00  0.00    -0.448 OA
ATOM     14  O   UNL     1       0.787   2.158   5.411  1.00  0.00    -0.252 OA
ATOM     15  C   UNL     1       0.732  -1.131   3.582  1.00  0.00     0.017 C 
ATOM     16  C   UNL     1       2.874  -1.032   2.334  1.00  0.00     0.017 C 
ATOM     17  C   UNL     1       3.038   0.256   5.298  1.00  0.00     0.024 C 
ENDBRANCH   4   7
ENDBRANCH   1   3
BRANCH   2  18
ATOM     18  C   UNL     1      -1.094  -0.356  -2.979  1.00  0.00    -0.002 A 
ATOM     19  C   UNL     1      -2.292   0.223  -3.419  1.00  0.00     0.014 A 
ATOM     20  C   UNL     1      -0.515  -1.423  -3.678  1.00  0.00     0.060 A 
ATOM     21  C   UNL     1      -2.917  -0.263  -4.569  1.00  0.00     0.051 A 
ATOM     22  C   UNL     1      -1.149  -1.897  -4.820  1.00  0.00     0.158 A 
ATOM     23  C   UNL     1      -2.339  -1.319  -5.259  1.00  0.00     0.157 A 
BRANCH  22  24
ATOM     24  O   UNL     1      -0.640  -2.936  -5.550  1.00  0.00    -0.504 OA
ATOM     25  H   UNL     1       0.174  -3.243  -5.114  1.00  0.00     0.293 HD
ENDBRANCH  22  24
BRANCH  23  26
ATOM     26  O   UNL     1      -2.951  -1.793  -6.384  1.00  0.00    -0.504 OA
ATOM     27  H   UNL     1      -2.376  -2.523  -6.689  1.00  0.00     0.293 HD
ENDBRANCH  23  26
ENDBRANCH   2  18
TORSDOF 5
