REMARK SMILES Cc1ccc([C@@H]2C[C@@H](c3cccs3)n3nc(N)nc3N2)cc1
REMARK SMILES IDX 6 1 7 2 8 3 14 4 15 5 16 6 18 7 19 8 20 9 5 11 2 12 3 13
REMARK SMILES IDX 22 14 4 15 21 16 1 17 9 18 10 19 13 20 11 21 12 22 17 23
REMARK H PARENT 20 10 17 24 17 25
ROOT
ATOM      1  C   UNL     1      -0.306  -0.276  -0.527  1.00  0.00     0.115 C 
ATOM      2  C   UNL     1       0.377  -1.498  -1.171  1.00  0.00     0.063 C 
ATOM      3  C   UNL     1       1.526  -2.037  -0.300  1.00  0.00     0.154 C 
ATOM      4  N   UNL     1       1.201  -1.962   1.116  1.00  0.00    -0.221 N 
ATOM      5  N   UNL     1       1.875  -2.619   2.076  1.00  0.00    -0.130 NA
ATOM      6  C   UNL     1       1.186  -2.252   3.154  1.00  0.00     0.241 A 
ATOM      7  N   UNL     1       0.132  -1.416   2.932  1.00  0.00    -0.176 NA
ATOM      8  C   UNL     1       0.140  -1.270   1.632  1.00  0.00     0.224 A 
ATOM      9  N   UNL     1      -0.714  -0.598   0.835  1.00  0.00    -0.347 N 
ATOM     10  H   UNL     1      -1.317   0.086   1.288  1.00  0.00     0.164 HD
ENDROOT
BRANCH   1  11
ATOM     11  C   UNL     1      -1.510   0.160  -1.343  1.00  0.00    -0.026 A 
ATOM     12  C   UNL     1      -3.718   0.981  -2.901  1.00  0.00    -0.051 A 
ATOM     13  C   UNL     1      -3.812  -0.144  -2.077  1.00  0.00     0.004 A 
ATOM     14  C   UNL     1      -2.508   1.680  -2.961  1.00  0.00     0.004 A 
ATOM     15  C   UNL     1      -2.721  -0.549  -1.303  1.00  0.00     0.006 A 
ATOM     16  C   UNL     1      -1.416   1.276  -2.187  1.00  0.00     0.006 A 
ATOM     17  C   UNL     1      -4.879   1.396  -3.755  1.00  0.00     0.044 C 
ENDBRANCH   1  11
BRANCH   3  18
ATOM     18  C   UNL     1       2.859  -1.388  -0.626  1.00  0.00     0.029 A 
ATOM     19  C   UNL     1       3.894  -1.946  -1.357  1.00  0.00     0.017 A 
ATOM     20  S   UNL     1       3.265   0.199  -0.109  1.00  0.00    -0.147 S 
ATOM     21  C   UNL     1       5.010  -1.072  -1.489  1.00  0.00     0.012 A 
ATOM     22  C   UNL     1       4.799   0.130  -0.855  1.00  0.00     0.065 A 
ENDBRANCH   3  18
BRANCH   6  23
ATOM     23  N   UNL     1       1.461  -2.609   4.407  1.00  0.00    -0.366 N 
ATOM     24  H   UNL     1       2.411  -2.909   4.577  1.00  0.00     0.159 HD
ATOM     25  H   UNL     1       1.083  -2.005   5.124  1.00  0.00     0.159 HD
ENDBRANCH   6  23
TORSDOF 3
