MODEL 1
REMARK VINA RESULT:    -6.941      0.000      0.000
REMARK INTER + INTRA:          -8.624
REMARK INTER:                  -8.158
REMARK INTRA:                  -0.466
REMARK UNBOUND:                -0.466
REMARK SMILES COc1cc(C)c(C)cc1[C@@H]1[NH2+]CCc2cc(O)c(O)cc21
REMARK SMILES IDX 11 1 12 2 13 3 14 4 15 5 16 6 17 7 19 8 21 9 22 10 10 13
REMARK SMILES IDX 3 14 4 15 5 16 9 17 7 18 6 19 8 20 2 21 1 22 20 23 18 25
REMARK H PARENT 12 11 12 12 20 24 18 26
ROOT
ATOM      1  C   UNL     1      12.393 -24.505 -45.899  1.00  0.00     0.249 C 
ATOM      2  N   UNL     1      12.559 -25.862 -46.522  1.00  0.00    -0.336 N 
ATOM      3  C   UNL     1      11.778 -26.044 -47.768  1.00  0.00     0.266 C 
ATOM      4  C   UNL     1      12.293 -25.077 -48.826  1.00  0.00     0.097 C 
ATOM      5  C   UNL     1      12.392 -23.660 -48.314  1.00  0.00    -0.029 A 
ATOM      6  C   UNL     1      12.456 -22.616 -49.248  1.00  0.00     0.054 A 
ATOM      7  C   UNL     1      12.567 -21.306 -48.811  1.00  0.00     0.157 A 
ATOM      8  C   UNL     1      12.620 -21.011 -47.455  1.00  0.00     0.157 A 
ATOM      9  C   UNL     1      12.567 -22.031 -46.511  1.00  0.00     0.060 A 
ATOM     10  C   UNL     1      12.474 -23.377 -46.928  1.00  0.00     0.021 A 
ATOM     11  H   UNL     1      13.571 -25.948 -46.719  1.00  0.00     0.347 HD
ATOM     12  H   UNL     1      12.346 -26.579 -45.821  1.00  0.00     0.347 HD
ENDROOT
BRANCH   1  13
ATOM     13  C   UNL     1      13.354 -24.365 -44.730  1.00  0.00     0.056 A 
ATOM     14  C   UNL     1      14.736 -24.197 -44.934  1.00  0.00     0.128 A 
ATOM     15  C   UNL     1      15.590 -24.059 -43.839  1.00  0.00     0.050 A 
ATOM     16  C   UNL     1      15.090 -24.071 -42.526  1.00  0.00    -0.044 A 
ATOM     17  C   UNL     1      12.856 -24.382 -43.414  1.00  0.00     0.017 A 
ATOM     18  C   UNL     1      13.709 -24.237 -42.311  1.00  0.00    -0.047 A 
ATOM     19  C   UNL     1      16.048 -23.917 -41.372  1.00  0.00     0.045 C 
ATOM     20  C   UNL     1      13.132 -24.255 -40.919  1.00  0.00     0.044 C 
BRANCH  14  21
ATOM     21  O   UNL     1      15.155 -24.238 -46.243  1.00  0.00    -0.496 OA
ATOM     22  C   UNL     1      16.150 -23.278 -46.608  1.00  0.00     0.278 C 
ENDBRANCH  14  21
ENDBRANCH   1  13
BRANCH   8  23
ATOM     23  O   UNL     1      12.726 -19.697 -47.100  1.00  0.00    -0.504 OA
ATOM     24  H   UNL     1      11.869 -19.254 -47.222  1.00  0.00     0.293 HD
ENDBRANCH   8  23
BRANCH   7  25
ATOM     25  O   UNL     1      12.622 -20.306 -49.735  1.00  0.00    -0.504 OA
ATOM     26  H   UNL     1      13.542 -19.973 -49.702  1.00  0.00     0.293 HD
ENDBRANCH   7  25
TORSDOF 4
ENDMDL
MODEL 2
REMARK VINA RESULT:    -6.742      2.360      6.038
REMARK INTER + INTRA:          -8.390
REMARK INTER:                  -7.768
REMARK INTRA:                  -0.622
REMARK UNBOUND:                -0.466
REMARK SMILES COc1cc(C)c(C)cc1[C@@H]1[NH2+]CCc2cc(O)c(O)cc21
REMARK SMILES IDX 11 1 12 2 13 3 14 4 15 5 16 6 17 7 19 8 21 9 22 10 10 13
REMARK SMILES IDX 3 14 4 15 5 16 9 17 7 18 6 19 8 20 2 21 1 22 20 23 18 25
REMARK H PARENT 12 11 12 12 20 24 18 26
ROOT
ATOM      1  C   UNL     1      13.123 -24.589 -44.762  1.00  0.00     0.249 C 
ATOM      2  N   UNL     1      12.256 -24.154 -43.615  1.00  0.00    -0.336 N 
ATOM      3  C   UNL     1      12.714 -24.662 -42.299  1.00  0.00     0.266 C 
ATOM      4  C   UNL     1      14.081 -24.071 -41.984  1.00  0.00     0.097 C 
ATOM      5  C   UNL     1      15.057 -24.232 -43.126  1.00  0.00    -0.029 A 
ATOM      6  C   UNL     1      16.428 -24.113 -42.854  1.00  0.00     0.054 A 
ATOM      7  C   UNL     1      17.347 -24.237 -43.883  1.00  0.00     0.157 A 
ATOM      8  C   UNL     1      16.929 -24.473 -45.186  1.00  0.00     0.157 A 
ATOM      9  C   UNL     1      15.574 -24.585 -45.480  1.00  0.00     0.060 A 
ATOM     10  C   UNL     1      14.613 -24.445 -44.455  1.00  0.00     0.021 A 
ATOM     11  H   UNL     1      12.286 -23.121 -43.628  1.00  0.00     0.347 HD
ATOM     12  H   UNL     1      11.284 -24.412 -43.814  1.00  0.00     0.347 HD
ENDROOT
BRANCH   1  13
ATOM     13  C   UNL     1      12.669 -23.886 -46.032  1.00  0.00     0.056 A 
ATOM     14  C   UNL     1      11.936 -24.566 -47.022  1.00  0.00     0.128 A 
ATOM     15  C   UNL     1      11.524 -23.888 -48.171  1.00  0.00     0.050 A 
ATOM     16  C   UNL     1      11.818 -22.526 -48.352  1.00  0.00    -0.044 A 
ATOM     17  C   UNL     1      12.967 -22.524 -46.218  1.00  0.00     0.017 A 
ATOM     18  C   UNL     1      12.550 -21.838 -47.367  1.00  0.00    -0.047 A 
ATOM     19  C   UNL     1      11.352 -21.834 -49.608  1.00  0.00     0.045 C 
ATOM     20  C   UNL     1      12.885 -20.377 -47.522  1.00  0.00     0.044 C 
BRANCH  14  21
ATOM     21  O   UNL     1      11.724 -25.905 -46.795  1.00  0.00    -0.496 OA
ATOM     22  C   UNL     1      10.363 -26.292 -46.583  1.00  0.00     0.278 C 
ENDBRANCH  14  21
ENDBRANCH   1  13
BRANCH   8  23
ATOM     23  O   UNL     1      17.893 -24.586 -46.145  1.00  0.00    -0.504 OA
ATOM     24  H   UNL     1      18.629 -25.126 -45.809  1.00  0.00     0.293 HD
ENDBRANCH   8  23
BRANCH   7  25
ATOM     25  O   UNL     1      18.675 -24.123 -43.596  1.00  0.00    -0.504 OA
ATOM     26  H   UNL     1      18.721 -24.002 -42.626  1.00  0.00     0.293 HD
ENDBRANCH   7  25
TORSDOF 4
ENDMDL
MODEL 3
REMARK VINA RESULT:    -6.712      1.435      2.664
REMARK INTER + INTRA:          -8.355
REMARK INTER:                  -7.879
REMARK INTRA:                  -0.476
REMARK UNBOUND:                -0.466
REMARK SMILES COc1cc(C)c(C)cc1[C@@H]1[NH2+]CCc2cc(O)c(O)cc21
REMARK SMILES IDX 11 1 12 2 13 3 14 4 15 5 16 6 17 7 19 8 21 9 22 10 10 13
REMARK SMILES IDX 3 14 4 15 5 16 9 17 7 18 6 19 8 20 2 21 1 22 20 23 18 25
REMARK H PARENT 12 11 12 12 20 24 18 26
ROOT
ATOM      1  C   UNL     1      12.495 -23.941 -45.463  1.00  0.00     0.249 C 
ATOM      2  N   UNL     1      12.151 -25.391 -45.652  1.00  0.00    -0.336 N 
ATOM      3  C   UNL     1      10.873 -25.609 -46.371  1.00  0.00     0.266 C 
ATOM      4  C   UNL     1      10.997 -25.063 -47.787  1.00  0.00     0.097 C 
ATOM      5  C   UNL     1      11.534 -23.652 -47.816  1.00  0.00    -0.029 A 
ATOM      6  C   UNL     1      11.330 -22.884 -48.972  1.00  0.00     0.054 A 
ATOM      7  C   UNL     1      11.827 -21.592 -49.037  1.00  0.00     0.157 A 
ATOM      8  C   UNL     1      12.532 -21.047 -47.973  1.00  0.00     0.157 A 
ATOM      9  C   UNL     1      12.754 -21.793 -46.820  1.00  0.00     0.060 A 
ATOM     10  C   UNL     1      12.276 -23.119 -46.733  1.00  0.00     0.021 A 
ATOM     11  H   UNL     1      12.937 -25.788 -46.193  1.00  0.00     0.347 HD
ATOM     12  H   UNL     1      12.169 -25.860 -44.741  1.00  0.00     0.347 HD
ENDROOT
BRANCH   1  13
ATOM     13  C   UNL     1      13.890 -23.827 -44.868  1.00  0.00     0.056 A 
ATOM     14  C   UNL     1      14.096 -23.842 -43.477  1.00  0.00     0.128 A 
ATOM     15  C   UNL     1      15.391 -23.747 -42.964  1.00  0.00     0.050 A 
ATOM     16  C   UNL     1      16.502 -23.649 -43.818  1.00  0.00    -0.044 A 
ATOM     17  C   UNL     1      15.004 -23.723 -45.722  1.00  0.00     0.017 A 
ATOM     18  C   UNL     1      16.306 -23.634 -45.212  1.00  0.00    -0.047 A 
ATOM     19  C   UNL     1      17.882 -23.550 -43.221  1.00  0.00     0.045 C 
ATOM     20  C   UNL     1      17.470 -23.532 -46.163  1.00  0.00     0.044 C 
BRANCH  14  21
ATOM     21  O   UNL     1      12.959 -23.897 -42.706  1.00  0.00    -0.496 OA
ATOM     22  C   UNL     1      12.996 -24.813 -41.608  1.00  0.00     0.278 C 
ENDBRANCH  14  21
ENDBRANCH   1  13
BRANCH   8  23
ATOM     23  O   UNL     1      12.988 -19.767 -48.109  1.00  0.00    -0.504 OA
ATOM     24  H   UNL     1      13.869 -19.688 -47.705  1.00  0.00     0.293 HD
ENDBRANCH   8  23
BRANCH   7  25
ATOM     25  O   UNL     1      11.613 -20.861 -50.168  1.00  0.00    -0.504 OA
ATOM     26  H   UNL     1      11.840 -19.940 -49.927  1.00  0.00     0.293 HD
ENDBRANCH   7  25
TORSDOF 4
ENDMDL
MODEL 4
REMARK VINA RESULT:    -6.637      2.569      3.654
REMARK INTER + INTRA:          -8.266
REMARK INTER:                  -7.611
REMARK INTRA:                  -0.656
REMARK UNBOUND:                -0.466
REMARK SMILES COc1cc(C)c(C)cc1[C@@H]1[NH2+]CCc2cc(O)c(O)cc21
REMARK SMILES IDX 11 1 12 2 13 3 14 4 15 5 16 6 17 7 19 8 21 9 22 10 10 13
REMARK SMILES IDX 3 14 4 15 5 16 9 17 7 18 6 19 8 20 2 21 1 22 20 23 18 25
REMARK H PARENT 12 11 12 12 20 24 18 26
ROOT
ATOM      1  C   UNL     1      12.991 -24.123 -43.249  1.00  0.00     0.249 C 
ATOM      2  N   UNL     1      12.047 -25.098 -43.895  1.00  0.00    -0.336 N 
ATOM      3  C   UNL     1      11.534 -24.645 -45.210  1.00  0.00     0.266 C 
ATOM      4  C   UNL     1      12.695 -24.539 -46.189  1.00  0.00     0.097 C 
ATOM      5  C   UNL     1      13.853 -23.747 -45.629  1.00  0.00    -0.029 A 
ATOM      6  C   UNL     1      14.800 -23.226 -46.522  1.00  0.00     0.054 A 
ATOM      7  C   UNL     1      15.883 -22.512 -46.038  1.00  0.00     0.157 A 
ATOM      8  C   UNL     1      16.049 -22.307 -44.674  1.00  0.00     0.157 A 
ATOM      9  C   UNL     1      15.127 -22.822 -43.769  1.00  0.00     0.060 A 
ATOM     10  C   UNL     1      14.023 -23.571 -44.233  1.00  0.00     0.021 A 
ATOM     11  H   UNL     1      12.592 -25.970 -44.005  1.00  0.00     0.347 HD
ATOM     12  H   UNL     1      11.292 -25.317 -43.237  1.00  0.00     0.347 HD
ENDROOT
BRANCH   1  13
ATOM     13  C   UNL     1      13.583 -24.748 -41.996  1.00  0.00     0.056 A 
ATOM     14  C   UNL     1      14.450 -25.854 -42.069  1.00  0.00     0.128 A 
ATOM     15  C   UNL     1      14.986 -26.397 -40.900  1.00  0.00     0.050 A 
ATOM     16  C   UNL     1      14.685 -25.846 -39.642  1.00  0.00    -0.044 A 
ATOM     17  C   UNL     1      13.278 -24.202 -40.735  1.00  0.00     0.017 A 
ATOM     18  C   UNL     1      13.820 -24.739 -39.559  1.00  0.00    -0.047 A 
ATOM     19  C   UNL     1      15.287 -26.462 -38.406  1.00  0.00     0.045 C 
ATOM     20  C   UNL     1      13.472 -24.118 -38.231  1.00  0.00     0.044 C 
BRANCH  14  21
ATOM     21  O   UNL     1      14.663 -26.363 -43.328  1.00  0.00    -0.496 OA
ATOM     22  C   UNL     1      16.030 -26.462 -43.735  1.00  0.00     0.278 C 
ENDBRANCH  14  21
ENDBRANCH   1  13
BRANCH   8  23
ATOM     23  O   UNL     1      17.139 -21.591 -44.273  1.00  0.00    -0.504 OA
ATOM     24  H   UNL     1      17.948 -22.105 -44.436  1.00  0.00     0.293 HD
ENDBRANCH   8  23
BRANCH   7  25
ATOM     25  O   UNL     1      16.790 -22.010 -46.924  1.00  0.00    -0.504 OA
ATOM     26  H   UNL     1      16.474 -21.108 -47.135  1.00  0.00     0.293 HD
ENDBRANCH   7  25
TORSDOF 4
ENDMDL
MODEL 5
REMARK VINA RESULT:    -6.334      2.347      3.253
REMARK INTER + INTRA:          -7.911
REMARK INTER:                  -7.838
REMARK INTRA:                  -0.073
REMARK UNBOUND:                -0.466
REMARK SMILES COc1cc(C)c(C)cc1[C@@H]1[NH2+]CCc2cc(O)c(O)cc21
REMARK SMILES IDX 11 1 12 2 13 3 14 4 15 5 16 6 17 7 19 8 21 9 22 10 10 13
REMARK SMILES IDX 3 14 4 15 5 16 9 17 7 18 6 19 8 20 2 21 1 22 20 23 18 25
REMARK H PARENT 12 11 12 12 20 24 18 26
ROOT
ATOM      1  C   UNL     1      15.048 -23.549 -45.997  1.00  0.00     0.249 C 
ATOM      2  N   UNL     1      15.601 -22.243 -46.492  1.00  0.00    -0.336 N 
ATOM      3  C   UNL     1      15.254 -21.947 -47.902  1.00  0.00     0.266 C 
ATOM      4  C   UNL     1      13.744 -21.787 -48.023  1.00  0.00     0.097 C 
ATOM      5  C   UNL     1      12.990 -22.931 -47.387  1.00  0.00    -0.029 A 
ATOM      6  C   UNL     1      11.653 -23.136 -47.757  1.00  0.00     0.054 A 
ATOM      7  C   UNL     1      10.929 -24.165 -47.178  1.00  0.00     0.157 A 
ATOM      8  C   UNL     1      11.508 -24.997 -46.229  1.00  0.00     0.157 A 
ATOM      9  C   UNL     1      12.830 -24.807 -45.841  1.00  0.00     0.060 A 
ATOM     10  C   UNL     1      13.587 -23.754 -46.400  1.00  0.00     0.021 A 
ATOM     11  H   UNL     1      15.198 -21.524 -45.867  1.00  0.00     0.347 HD
ATOM     12  H   UNL     1      16.612 -22.225 -46.328  1.00  0.00     0.347 HD
ENDROOT
BRANCH   1  13
ATOM     13  C   UNL     1      15.316 -23.679 -44.506  1.00  0.00     0.056 A 
ATOM     14  C   UNL     1      16.617 -23.556 -43.984  1.00  0.00     0.128 A 
ATOM     15  C   UNL     1      16.828 -23.670 -42.608  1.00  0.00     0.050 A 
ATOM     16  C   UNL     1      15.755 -23.892 -41.728  1.00  0.00    -0.044 A 
ATOM     17  C   UNL     1      14.245 -23.908 -43.624  1.00  0.00     0.017 A 
ATOM     18  C   UNL     1      14.451 -24.016 -42.241  1.00  0.00    -0.047 A 
ATOM     19  C   UNL     1      16.029 -24.006 -40.250  1.00  0.00     0.045 C 
ATOM     20  C   UNL     1      13.273 -24.254 -41.332  1.00  0.00     0.044 C 
BRANCH  14  21
ATOM     21  O   UNL     1      17.618 -23.382 -44.909  1.00  0.00    -0.496 OA
ATOM     22  C   UNL     1      18.648 -22.459 -44.544  1.00  0.00     0.278 C 
ENDBRANCH  14  21
ENDBRANCH   1  13
BRANCH   8  23
ATOM     23  O   UNL     1      10.732 -25.991 -45.706  1.00  0.00    -0.504 OA
ATOM     24  H   UNL     1      10.862 -26.811 -46.214  1.00  0.00     0.293 HD
ENDBRANCH   8  23
BRANCH   7  25
ATOM     25  O   UNL     1       9.631 -24.351 -47.555  1.00  0.00    -0.504 OA
ATOM     26  H   UNL     1       9.155 -24.588 -46.734  1.00  0.00     0.293 HD
ENDBRANCH   7  25
TORSDOF 4
ENDMDL
MODEL 6
REMARK VINA RESULT:    -6.334      2.611      4.365
REMARK INTER + INTRA:          -7.910
REMARK INTER:                  -7.513
REMARK INTRA:                  -0.397
REMARK UNBOUND:                -0.466
REMARK SMILES COc1cc(C)c(C)cc1[C@@H]1[NH2+]CCc2cc(O)c(O)cc21
REMARK SMILES IDX 11 1 12 2 13 3 14 4 15 5 16 6 17 7 19 8 21 9 22 10 10 13
REMARK SMILES IDX 3 14 4 15 5 16 9 17 7 18 6 19 8 20 2 21 1 22 20 23 18 25
REMARK H PARENT 12 11 12 12 20 24 18 26
ROOT
ATOM      1  C   UNL     1      16.088 -24.461 -43.639  1.00  0.00     0.249 C 
ATOM      2  N   UNL     1      17.313 -23.594 -43.579  1.00  0.00    -0.336 N 
ATOM      3  C   UNL     1      17.696 -23.015 -44.889  1.00  0.00     0.266 C 
ATOM      4  C   UNL     1      16.593 -22.078 -45.363  1.00  0.00     0.097 C 
ATOM      5  C   UNL     1      15.227 -22.717 -45.302  1.00  0.00    -0.029 A 
ATOM      6  C   UNL     1      14.191 -22.153 -46.061  1.00  0.00     0.054 A 
ATOM      7  C   UNL     1      12.922 -22.705 -46.012  1.00  0.00     0.157 A 
ATOM      8  C   UNL     1      12.657 -23.810 -45.215  1.00  0.00     0.157 A 
ATOM      9  C   UNL     1      13.666 -24.381 -44.447  1.00  0.00     0.060 A 
ATOM     10  C   UNL     1      14.965 -23.829 -44.462  1.00  0.00     0.021 A 
ATOM     11  H   UNL     1      17.080 -22.840 -42.911  1.00  0.00     0.347 HD
ATOM     12  H   UNL     1      18.078 -24.126 -43.151  1.00  0.00     0.347 HD
ENDROOT
BRANCH   1  13
ATOM     13  C   UNL     1      15.687 -24.867 -42.230  1.00  0.00     0.056 A 
ATOM     14  C   UNL     1      16.402 -25.850 -41.520  1.00  0.00     0.128 A 
ATOM     15  C   UNL     1      16.014 -26.191 -40.224  1.00  0.00     0.050 A 
ATOM     16  C   UNL     1      14.924 -25.557 -39.603  1.00  0.00    -0.044 A 
ATOM     17  C   UNL     1      14.593 -24.237 -41.609  1.00  0.00     0.017 A 
ATOM     18  C   UNL     1      14.204 -24.572 -40.304  1.00  0.00    -0.047 A 
ATOM     19  C   UNL     1      14.542 -25.955 -38.201  1.00  0.00     0.045 C 
ATOM     20  C   UNL     1      13.030 -23.867 -39.676  1.00  0.00     0.044 C 
BRANCH  14  21
ATOM     21  O   UNL     1      17.427 -26.455 -42.207  1.00  0.00    -0.496 OA
ATOM     22  C   UNL     1      18.697 -26.462 -41.550  1.00  0.00     0.278 C 
ENDBRANCH  14  21
ENDBRANCH   1  13
BRANCH   8  23
ATOM     23  O   UNL     1      11.382 -24.300 -45.221  1.00  0.00    -0.504 OA
ATOM     24  H   UNL     1      10.810 -23.733 -44.676  1.00  0.00     0.293 HD
ENDBRANCH   8  23
BRANCH   7  25
ATOM     25  O   UNL     1      11.930 -22.144 -46.761  1.00  0.00    -0.504 OA
ATOM     26  H   UNL     1      11.964 -22.606 -47.623  1.00  0.00     0.293 HD
ENDBRANCH   7  25
TORSDOF 4
ENDMDL
MODEL 7
REMARK VINA RESULT:    -6.226     23.623     25.420
REMARK INTER + INTRA:          -7.783
REMARK INTER:                  -6.961
REMARK INTRA:                  -0.823
REMARK UNBOUND:                -0.466
REMARK SMILES COc1cc(C)c(C)cc1[C@@H]1[NH2+]CCc2cc(O)c(O)cc21
REMARK SMILES IDX 11 1 12 2 13 3 14 4 15 5 16 6 17 7 19 8 21 9 22 10 10 13
REMARK SMILES IDX 3 14 4 15 5 16 9 17 7 18 6 19 8 20 2 21 1 22 20 23 18 25
REMARK H PARENT 12 11 12 12 20 24 18 26
ROOT
ATOM      1  C   UNL     1       1.691  -4.953 -33.732  1.00  0.00     0.249 C 
ATOM      2  N   UNL     1       0.633  -3.903 -33.918  1.00  0.00    -0.336 N 
ATOM      3  C   UNL     1      -0.372  -4.249 -34.952  1.00  0.00     0.266 C 
ATOM      4  C   UNL     1      -1.142  -5.485 -34.506  1.00  0.00     0.097 C 
ATOM      5  C   UNL     1      -0.230  -6.608 -34.075  1.00  0.00    -0.029 A 
ATOM      6  C   UNL     1      -0.751  -7.910 -34.028  1.00  0.00     0.054 A 
ATOM      7  C   UNL     1       0.055  -8.959 -33.618  1.00  0.00     0.157 A 
ATOM      8  C   UNL     1       1.375  -8.740 -33.247  1.00  0.00     0.157 A 
ATOM      9  C   UNL     1       1.910  -7.457 -33.278  1.00  0.00     0.060 A 
ATOM     10  C   UNL     1       1.107  -6.365 -33.673  1.00  0.00     0.021 A 
ATOM     11  H   UNL     1       0.178  -3.809 -32.995  1.00  0.00     0.347 HD
ATOM     12  H   UNL     1       1.086  -3.002 -34.103  1.00  0.00     0.347 HD
ENDROOT
BRANCH   1  13
ATOM     13  C   UNL     1       2.568  -4.581 -32.547  1.00  0.00     0.056 A 
ATOM     14  C   UNL     1       2.023  -4.393 -31.264  1.00  0.00     0.128 A 
ATOM     15  C   UNL     1       2.858  -4.063 -30.194  1.00  0.00     0.050 A 
ATOM     16  C   UNL     1       4.245  -3.930 -30.374  1.00  0.00    -0.044 A 
ATOM     17  C   UNL     1       3.957  -4.442 -32.726  1.00  0.00     0.017 A 
ATOM     18  C   UNL     1       4.800  -4.118 -31.654  1.00  0.00    -0.047 A 
ATOM     19  C   UNL     1       5.110  -3.576 -29.192  1.00  0.00     0.045 C 
ATOM     20  C   UNL     1       6.282  -3.985 -31.890  1.00  0.00     0.044 C 
BRANCH  14  21
ATOM     21  O   UNL     1       0.656  -4.498 -31.174  1.00  0.00    -0.496 OA
ATOM     22  C   UNL     1       0.166  -5.445 -30.221  1.00  0.00     0.278 C 
ENDBRANCH  14  21
ENDBRANCH   1  13
BRANCH   8  23
ATOM     23  O   UNL     1       2.108  -9.825 -32.858  1.00  0.00    -0.504 OA
ATOM     24  H   UNL     1       1.512 -10.557 -32.625  1.00  0.00     0.293 HD
ENDBRANCH   8  23
BRANCH   7  25
ATOM     25  O   UNL     1      -0.470 -10.217 -33.584  1.00  0.00    -0.504 OA
ATOM     26  H   UNL     1      -1.439 -10.092 -33.529  1.00  0.00     0.293 HD
ENDBRANCH   7  25
TORSDOF 4
ENDMDL
MODEL 8
REMARK VINA RESULT:    -6.144      3.398      5.467
REMARK INTER + INTRA:          -7.687
REMARK INTER:                  -7.029
REMARK INTRA:                  -0.658
REMARK UNBOUND:                -0.466
REMARK SMILES COc1cc(C)c(C)cc1[C@@H]1[NH2+]CCc2cc(O)c(O)cc21
REMARK SMILES IDX 11 1 12 2 13 3 14 4 15 5 16 6 17 7 19 8 21 9 22 10 10 13
REMARK SMILES IDX 3 14 4 15 5 16 9 17 7 18 6 19 8 20 2 21 1 22 20 23 18 25
REMARK H PARENT 12 11 12 12 20 24 18 26
ROOT
ATOM      1  C   UNL     1      10.433 -22.988 -49.294  1.00  0.00     0.249 C 
ATOM      2  N   UNL     1       9.538 -23.582 -48.244  1.00  0.00    -0.336 N 
ATOM      3  C   UNL     1       8.169 -23.880 -48.731  1.00  0.00     0.266 C 
ATOM      4  C   UNL     1       8.245 -24.950 -49.811  1.00  0.00     0.097 C 
ATOM      5  C   UNL     1       9.264 -24.623 -50.877  1.00  0.00    -0.029 A 
ATOM      6  C   UNL     1       9.170 -25.278 -52.113  1.00  0.00     0.054 A 
ATOM      7  C   UNL     1      10.101 -25.015 -53.105  1.00  0.00     0.157 A 
ATOM      8  C   UNL     1      11.133 -24.110 -52.890  1.00  0.00     0.157 A 
ATOM      9  C   UNL     1      11.250 -23.455 -51.669  1.00  0.00     0.060 A 
ATOM     10  C   UNL     1      10.328 -23.718 -50.633  1.00  0.00     0.021 A 
ATOM     11  H   UNL     1      10.008 -24.453 -47.947  1.00  0.00     0.347 HD
ATOM     12  H   UNL     1       9.533 -22.968 -47.423  1.00  0.00     0.347 HD
ENDROOT
BRANCH   1  13
ATOM     13  C   UNL     1      11.847 -22.875 -48.746  1.00  0.00     0.056 A 
ATOM     14  C   UNL     1      12.629 -21.727 -48.970  1.00  0.00     0.128 A 
ATOM     15  C   UNL     1      13.920 -21.651 -48.444  1.00  0.00     0.050 A 
ATOM     16  C   UNL     1      14.451 -22.700 -47.675  1.00  0.00    -0.044 A 
ATOM     17  C   UNL     1      12.383 -23.927 -47.981  1.00  0.00     0.017 A 
ATOM     18  C   UNL     1      13.676 -23.851 -47.443  1.00  0.00    -0.047 A 
ATOM     19  C   UNL     1      15.848 -22.574 -47.123  1.00  0.00     0.045 C 
ATOM     20  C   UNL     1      14.207 -24.999 -46.624  1.00  0.00     0.044 C 
BRANCH  14  21
ATOM     21  O   UNL     1      12.059 -20.762 -49.766  1.00  0.00    -0.496 OA
ATOM     22  C   UNL     1      12.960 -20.038 -50.608  1.00  0.00     0.278 C 
ENDBRANCH  14  21
ENDBRANCH   1  13
BRANCH   8  23
ATOM     23  O   UNL     1      12.009 -23.900 -53.915  1.00  0.00    -0.504 OA
ATOM     24  H   UNL     1      12.862 -23.595 -53.560  1.00  0.00     0.293 HD
ENDBRANCH   8  23
BRANCH   7  25
ATOM     25  O   UNL     1       9.989 -25.659 -54.301  1.00  0.00    -0.504 OA
ATOM     26  H   UNL     1       9.076 -26.010 -54.322  1.00  0.00     0.293 HD
ENDBRANCH   7  25
TORSDOF 4
ENDMDL
MODEL 9
REMARK VINA RESULT:    -4.187     24.184     26.258
REMARK INTER + INTRA:          -5.387
REMARK INTER:                  -4.691
REMARK INTRA:                  -0.696
REMARK UNBOUND:                -0.466
REMARK SMILES COc1cc(C)c(C)cc1[C@@H]1[NH2+]CCc2cc(O)c(O)cc21
REMARK SMILES IDX 11 1 12 2 13 3 14 4 15 5 16 6 17 7 19 8 21 9 22 10 10 13
REMARK SMILES IDX 3 14 4 15 5 16 9 17 7 18 6 19 8 20 2 21 1 22 20 23 18 25
REMARK H PARENT 12 11 12 12 20 24 18 26
ROOT
ATOM      1  C   UNL     1       1.895  -3.973 -33.391  1.00  0.00     0.249 C 
ATOM      2  N   UNL     1       3.329  -3.644 -33.692  1.00  0.00    -0.336 N 
ATOM      3  C   UNL     1       4.298  -4.388 -32.851  1.00  0.00     0.266 C 
ATOM      4  C   UNL     1       4.181  -5.876 -33.152  1.00  0.00     0.097 C 
ATOM      5  C   UNL     1       2.753  -6.365 -33.098  1.00  0.00    -0.029 A 
ATOM      6  C   UNL     1       2.524  -7.741 -32.952  1.00  0.00     0.054 A 
ATOM      7  C   UNL     1       1.226  -8.224 -32.918  1.00  0.00     0.157 A 
ATOM      8  C   UNL     1       0.144  -7.362 -33.032  1.00  0.00     0.157 A 
ATOM      9  C   UNL     1       0.347  -5.995 -33.187  1.00  0.00     0.060 A 
ATOM     10  C   UNL     1       1.659  -5.476 -33.244  1.00  0.00     0.021 A 
ATOM     11  H   UNL     1       3.461  -3.888 -34.688  1.00  0.00     0.347 HD
ATOM     12  H   UNL     1       3.459  -2.629 -33.629  1.00  0.00     0.347 HD
ENDROOT
BRANCH   1  13
ATOM     13  C   UNL     1       0.996  -3.289 -34.409  1.00  0.00     0.056 A 
ATOM     14  C   UNL     1       0.151  -2.226 -34.042  1.00  0.00     0.128 A 
ATOM     15  C   UNL     1      -0.654  -1.613 -35.004  1.00  0.00     0.050 A 
ATOM     16  C   UNL     1      -0.624  -2.030 -36.345  1.00  0.00    -0.044 A 
ATOM     17  C   UNL     1       1.020  -3.709 -35.752  1.00  0.00     0.017 A 
ATOM     18  C   UNL     1       0.220  -3.091 -36.723  1.00  0.00    -0.047 A 
ATOM     19  C   UNL     1      -1.507  -1.337 -37.351  1.00  0.00     0.045 C 
ATOM     20  C   UNL     1       0.283  -3.569 -38.150  1.00  0.00     0.044 C 
BRANCH  14  21
ATOM     21  O   UNL     1       0.144  -1.903 -32.706  1.00  0.00    -0.496 OA
ATOM     22  C   UNL     1      -1.102  -2.086 -32.028  1.00  0.00     0.278 C 
ENDBRANCH  14  21
ENDBRANCH   1  13
BRANCH   8  23
ATOM     23  O   UNL     1      -1.106  -7.911 -32.987  1.00  0.00    -0.504 OA
ATOM     24  H   UNL     1      -1.161  -8.539 -32.247  1.00  0.00     0.293 HD
ENDBRANCH   8  23
BRANCH   7  25
ATOM     25  O   UNL     1       1.026  -9.564 -32.771  1.00  0.00    -0.504 OA
ATOM     26  H   UNL     1       1.203  -9.750 -31.826  1.00  0.00     0.293 HD
ENDBRANCH   7  25
TORSDOF 4
ENDMDL
