MODEL 1
REMARK VINA RESULT:    -8.060      0.000      0.000
REMARK INTER + INTRA:         -10.833
REMARK INTER:                 -10.180
REMARK INTRA:                  -0.653
REMARK UNBOUND:                -0.653
REMARK SMILES CCOC(=O)Nc1cc2c(c(N)[nH+]1)N=C(c1ccc(F)cc1)CN2
REMARK SMILES IDX 4 1 5 2 6 3 3 5 2 6 1 7 7 8 8 9 13 10 9 11 11 12 10 13 24 14
REMARK SMILES IDX 14 15 23 16 15 17 12 20 16 23 17 24 22 25 18 26 21 27 19 28
REMARK SMILES IDX 20 29
REMARK H PARENT 6 4 13 18 24 19 12 21 12 22
ROOT
ATOM      1  C   UNL     1      12.765 -21.083 -49.833  1.00  0.00     0.473 C 
ATOM      2  O   UNL     1      11.756 -20.852 -49.174  1.00  0.00    -0.208 OA
ATOM      3  N   UNL     1      13.824 -21.781 -49.331  1.00  0.00    -0.206 N 
ATOM      4  H   UNL     1      14.614 -21.917 -49.949  1.00  0.00     0.271 HD
ENDROOT
BRANCH   1   5
ATOM      5  O   UNL     1      13.011 -20.713 -51.105  1.00  0.00    -0.438 OA
BRANCH   5   6
ATOM      6  C   UNL     1      13.492 -19.369 -51.293  1.00  0.00     0.233 C 
ATOM      7  C   UNL     1      13.899 -19.160 -52.739  1.00  0.00     0.049 C 
ENDBRANCH   5   6
ENDBRANCH   1   5
BRANCH   3   8
ATOM      8  C   UNL     1      13.820 -22.272 -48.023  1.00  0.00     0.231 A 
ATOM      9  C   UNL     1      14.873 -21.943 -47.168  1.00  0.00     0.108 A 
ATOM     10  N   UNL     1      12.830 -23.045 -47.558  1.00  0.00    -0.245 N 
ATOM     11  C   UNL     1      14.890 -22.438 -45.860  1.00  0.00     0.074 A 
ATOM     12  C   UNL     1      12.773 -23.513 -46.314  1.00  0.00     0.245 A 
ATOM     13  C   UNL     1      13.804 -23.210 -45.411  1.00  0.00     0.159 A 
ATOM     14  N   UNL     1      15.891 -22.027 -44.972  1.00  0.00    -0.377 N 
ATOM     15  N   UNL     1      13.698 -23.659 -44.078  1.00  0.00    -0.242 NA
ATOM     16  C   UNL     1      16.049 -22.870 -43.778  1.00  0.00     0.170 C 
ATOM     17  C   UNL     1      14.726 -23.479 -43.294  1.00  0.00     0.068 C 
ATOM     18  H   UNL     1      12.055 -23.279 -48.189  1.00  0.00     0.267 HD
ATOM     19  H   UNL     1      16.779 -21.779 -45.400  1.00  0.00     0.161 HD
BRANCH  12  20
ATOM     20  N   UNL     1      11.653 -24.276 -45.960  1.00  0.00    -0.317 N 
ATOM     21  H   UNL     1      11.012 -23.671 -45.435  1.00  0.00     0.253 HD
ATOM     22  H   UNL     1      11.939 -24.950 -45.243  1.00  0.00     0.253 HD
ENDBRANCH  12  20
BRANCH  17  23
ATOM     23  C   UNL     1      14.639 -23.927 -41.869  1.00  0.00    -0.002 A 
ATOM     24  C   UNL     1      15.774 -24.005 -41.048  1.00  0.00     0.013 A 
ATOM     25  C   UNL     1      13.387 -24.293 -41.349  1.00  0.00     0.013 A 
ATOM     26  C   UNL     1      15.652 -24.434 -39.724  1.00  0.00     0.040 A 
ATOM     27  C   UNL     1      13.270 -24.719 -40.025  1.00  0.00     0.040 A 
ATOM     28  C   UNL     1      14.402 -24.785 -39.224  1.00  0.00     0.123 A 
ATOM     29  F   UNL     1      14.292 -25.195 -37.955  1.00  0.00    -0.207 F 
ENDBRANCH  17  23
ENDBRANCH   3   8
TORSDOF 5
ENDMDL
MODEL 2
REMARK VINA RESULT:    -7.143      4.622      8.952
REMARK INTER + INTRA:          -9.675
REMARK INTER:                  -9.214
REMARK INTRA:                  -0.461
REMARK UNBOUND:                -0.653
REMARK SMILES CCOC(=O)Nc1cc2c(c(N)[nH+]1)N=C(c1ccc(F)cc1)CN2
REMARK SMILES IDX 4 1 5 2 6 3 3 5 2 6 1 7 7 8 8 9 13 10 9 11 11 12 10 13 24 14
REMARK SMILES IDX 14 15 23 16 15 17 12 20 16 23 17 24 22 25 18 26 21 27 19 28
REMARK SMILES IDX 20 29
REMARK H PARENT 6 4 13 18 24 19 12 21 12 22
ROOT
ATOM      1  C   UNL     1      15.644 -24.385 -39.998  1.00  0.00     0.473 C 
ATOM      2  O   UNL     1      16.412 -23.464 -40.254  1.00  0.00    -0.208 OA
ATOM      3  N   UNL     1      14.743 -24.861 -40.904  1.00  0.00    -0.206 N 
ATOM      4  H   UNL     1      14.147 -25.620 -40.600  1.00  0.00     0.271 HD
ENDROOT
BRANCH   1   5
ATOM      5  O   UNL     1      15.544 -25.066 -38.840  1.00  0.00    -0.438 OA
BRANCH   5   6
ATOM      6  C   UNL     1      14.210 -25.380 -38.402  1.00  0.00     0.233 C 
ATOM      7  C   UNL     1      13.554 -24.147 -37.809  1.00  0.00     0.049 C 
ENDBRANCH   5   6
ENDBRANCH   1   5
BRANCH   3   8
ATOM      8  C   UNL     1      14.640 -24.315 -42.187  1.00  0.00     0.231 A 
ATOM      9  C   UNL     1      13.409 -24.346 -42.845  1.00  0.00     0.108 A 
ATOM     10  N   UNL     1      15.687 -23.752 -42.805  1.00  0.00    -0.245 N 
ATOM     11  C   UNL     1      13.294 -23.816 -44.134  1.00  0.00     0.074 A 
ATOM     12  C   UNL     1      15.627 -23.198 -44.012  1.00  0.00     0.245 A 
ATOM     13  C   UNL     1      14.414 -23.199 -44.718  1.00  0.00     0.159 A 
ATOM     14  N   UNL     1      12.040 -23.756 -44.753  1.00  0.00    -0.377 N 
ATOM     15  N   UNL     1      14.351 -22.551 -45.969  1.00  0.00    -0.242 NA
ATOM     16  C   UNL     1      12.074 -23.548 -46.209  1.00  0.00     0.170 C 
ATOM     17  C   UNL     1      13.253 -22.679 -46.664  1.00  0.00     0.068 C 
ATOM     18  H   UNL     1      16.587 -23.725 -42.314  1.00  0.00     0.267 HD
ATOM     19  H   UNL     1      11.379 -24.476 -44.473  1.00  0.00     0.161 HD
BRANCH  12  20
ATOM     20  N   UNL     1      16.797 -22.610 -44.513  1.00  0.00    -0.317 N 
ATOM     21  H   UNL     1      16.544 -22.059 -45.341  1.00  0.00     0.253 HD
ATOM     22  H   UNL     1      17.376 -23.350 -44.923  1.00  0.00     0.253 HD
ENDBRANCH  12  20
BRANCH  17  23
ATOM     23  C   UNL     1      13.148 -21.989 -47.987  1.00  0.00    -0.002 A 
ATOM     24  C   UNL     1      11.915 -21.822 -48.636  1.00  0.00     0.013 A 
ATOM     25  C   UNL     1      14.318 -21.511 -48.598  1.00  0.00     0.013 A 
ATOM     26  C   UNL     1      11.859 -21.176 -49.875  1.00  0.00     0.040 A 
ATOM     27  C   UNL     1      14.256 -20.866 -49.834  1.00  0.00     0.040 A 
ATOM     28  C   UNL     1      13.028 -20.704 -50.461  1.00  0.00     0.123 A 
ATOM     29  F   UNL     1      12.968 -20.086 -51.647  1.00  0.00    -0.207 F 
ENDBRANCH  17  23
ENDBRANCH   3   8
TORSDOF 5
ENDMDL
MODEL 3
REMARK VINA RESULT:    -7.014      2.112      2.355
REMARK INTER + INTRA:          -9.513
REMARK INTER:                  -8.851
REMARK INTRA:                  -0.662
REMARK UNBOUND:                -0.653
REMARK SMILES CCOC(=O)Nc1cc2c(c(N)[nH+]1)N=C(c1ccc(F)cc1)CN2
REMARK SMILES IDX 4 1 5 2 6 3 3 5 2 6 1 7 7 8 8 9 13 10 9 11 11 12 10 13 24 14
REMARK SMILES IDX 14 15 23 16 15 17 12 20 16 23 17 24 22 25 18 26 21 27 19 28
REMARK SMILES IDX 20 29
REMARK H PARENT 6 4 13 18 24 19 12 21 12 22
ROOT
ATOM      1  C   UNL     1      10.692 -23.017 -49.995  1.00  0.00     0.473 C 
ATOM      2  O   UNL     1       9.721 -23.130 -49.254  1.00  0.00    -0.208 OA
ATOM      3  N   UNL     1      11.974 -23.167 -49.551  1.00  0.00    -0.206 N 
ATOM      4  H   UNL     1      12.710 -23.050 -50.236  1.00  0.00     0.271 HD
ENDROOT
BRANCH   1   5
ATOM      5  O   UNL     1      10.686 -22.738 -51.313  1.00  0.00    -0.438 OA
BRANCH   5   6
ATOM      6  C   UNL     1      10.810 -23.864 -52.201  1.00  0.00     0.233 C 
ATOM      7  C   UNL     1       9.435 -24.371 -52.594  1.00  0.00     0.049 C 
ENDBRANCH   5   6
ENDBRANCH   1   5
BRANCH   3   8
ATOM      8  C   UNL     1      12.254 -23.454 -48.213  1.00  0.00     0.231 A 
ATOM      9  C   UNL     1      13.304 -22.791 -47.577  1.00  0.00     0.108 A 
ATOM     10  N   UNL     1      11.537 -24.345 -47.513  1.00  0.00    -0.245 N 
ATOM     11  C   UNL     1      13.604 -23.078 -46.242  1.00  0.00     0.074 A 
ATOM     12  C   UNL     1      11.752 -24.630 -46.232  1.00  0.00     0.245 A 
ATOM     13  C   UNL     1      12.794 -23.990 -45.543  1.00  0.00     0.159 A 
ATOM     14  N   UNL     1      14.590 -22.341 -45.575  1.00  0.00    -0.377 N 
ATOM     15  N   UNL     1      12.968 -24.255 -44.169  1.00  0.00    -0.242 NA
ATOM     16  C   UNL     1      15.092 -22.951 -44.335  1.00  0.00     0.170 C 
ATOM     17  C   UNL     1      14.020 -23.750 -43.583  1.00  0.00     0.068 C 
ATOM     18  H   UNL     1      10.762 -24.826 -47.983  1.00  0.00     0.267 HD
ATOM     19  H   UNL     1      15.334 -21.974 -46.163  1.00  0.00     0.161 HD
BRANCH  12  20
ATOM     20  N   UNL     1      10.894 -25.555 -45.622  1.00  0.00    -0.317 N 
ATOM     21  H   UNL     1      10.005 -25.080 -45.427  1.00  0.00     0.253 HD
ATOM     22  H   UNL     1      11.244 -25.741 -44.677  1.00  0.00     0.253 HD
ENDBRANCH  12  20
BRANCH  17  23
ATOM     23  C   UNL     1      14.224 -23.997 -42.121  1.00  0.00    -0.002 A 
ATOM     24  C   UNL     1      15.494 -23.921 -41.530  1.00  0.00     0.013 A 
ATOM     25  C   UNL     1      13.114 -24.329 -41.328  1.00  0.00     0.013 A 
ATOM     26  C   UNL     1      15.644 -24.165 -40.162  1.00  0.00     0.040 A 
ATOM     27  C   UNL     1      13.269 -24.569 -39.962  1.00  0.00     0.040 A 
ATOM     28  C   UNL     1      14.532 -24.485 -39.391  1.00  0.00     0.123 A 
ATOM     29  F   UNL     1      14.682 -24.716 -38.081  1.00  0.00    -0.207 F 
ENDBRANCH  17  23
ENDBRANCH   3   8
TORSDOF 5
ENDMDL
MODEL 4
REMARK VINA RESULT:    -6.995      4.325      6.025
REMARK INTER + INTRA:          -9.488
REMARK INTER:                  -8.817
REMARK INTRA:                  -0.672
REMARK UNBOUND:                -0.653
REMARK SMILES CCOC(=O)Nc1cc2c(c(N)[nH+]1)N=C(c1ccc(F)cc1)CN2
REMARK SMILES IDX 4 1 5 2 6 3 3 5 2 6 1 7 7 8 8 9 13 10 9 11 11 12 10 13 24 14
REMARK SMILES IDX 14 15 23 16 15 17 12 20 16 23 17 24 22 25 18 26 21 27 19 28
REMARK SMILES IDX 20 29
REMARK H PARENT 6 4 13 18 24 19 12 21 12 22
ROOT
ATOM      1  C   UNL     1       7.085 -22.763 -51.386  1.00  0.00     0.473 C 
ATOM      2  O   UNL     1       7.178 -21.612 -50.974  1.00  0.00    -0.208 OA
ATOM      3  N   UNL     1       8.010 -23.722 -51.094  1.00  0.00    -0.206 N 
ATOM      4  H   UNL     1       7.851 -24.642 -51.484  1.00  0.00     0.271 HD
ENDROOT
BRANCH   1   5
ATOM      5  O   UNL     1       6.112 -23.276 -52.165  1.00  0.00    -0.438 OA
BRANCH   5   6
ATOM      6  C   UNL     1       4.763 -22.934 -51.801  1.00  0.00     0.233 C 
ATOM      7  C   UNL     1       4.174 -21.979 -52.822  1.00  0.00     0.049 C 
ENDBRANCH   5   6
ENDBRANCH   1   5
BRANCH   3   8
ATOM      8  C   UNL     1       9.128 -23.442 -50.304  1.00  0.00     0.231 A 
ATOM      9  C   UNL     1       9.337 -24.171 -49.133  1.00  0.00     0.108 A 
ATOM     10  N   UNL     1      10.016 -22.496 -50.641  1.00  0.00    -0.245 N 
ATOM     11  C   UNL     1      10.444 -23.892 -48.326  1.00  0.00     0.074 A 
ATOM     12  C   UNL     1      11.106 -22.214 -49.934  1.00  0.00     0.245 A 
ATOM     13  C   UNL     1      11.366 -22.919 -48.748  1.00  0.00     0.159 A 
ATOM     14  N   UNL     1      10.710 -24.690 -47.206  1.00  0.00    -0.377 N 
ATOM     15  N   UNL     1      12.559 -22.653 -48.044  1.00  0.00    -0.242 NA
ATOM     16  C   UNL     1      11.640 -24.104 -46.230  1.00  0.00     0.170 C 
ATOM     17  C   UNL     1      12.716 -23.224 -46.880  1.00  0.00     0.068 C 
ATOM     18  H   UNL     1       9.861 -21.967 -51.507  1.00  0.00     0.267 HD
ATOM     19  H   UNL     1       9.895 -25.114 -46.769  1.00  0.00     0.161 HD
BRANCH  12  20
ATOM     20  N   UNL     1      11.964 -21.225 -50.434  1.00  0.00    -0.317 N 
ATOM     21  H   UNL     1      12.892 -21.375 -50.022  1.00  0.00     0.253 HD
ATOM     22  H   UNL     1      11.692 -20.328 -50.019  1.00  0.00     0.253 HD
ENDBRANCH  12  20
BRANCH  17  23
ATOM     23  C   UNL     1      13.978 -22.978 -46.116  1.00  0.00    -0.002 A 
ATOM     24  C   UNL     1      14.023 -23.068 -44.716  1.00  0.00     0.013 A 
ATOM     25  C   UNL     1      15.141 -22.631 -46.821  1.00  0.00     0.013 A 
ATOM     26  C   UNL     1      15.221 -22.825 -44.038  1.00  0.00     0.040 A 
ATOM     27  C   UNL     1      16.335 -22.390 -46.139  1.00  0.00     0.040 A 
ATOM     28  C   UNL     1      16.364 -22.490 -44.755  1.00  0.00     0.123 A 
ATOM     29  F   UNL     1      17.508 -22.258 -44.099  1.00  0.00    -0.207 F 
ENDBRANCH  17  23
ENDBRANCH   3   8
TORSDOF 5
ENDMDL
MODEL 5
REMARK VINA RESULT:    -6.989      4.826      8.005
REMARK INTER + INTRA:          -9.481
REMARK INTER:                  -8.817
REMARK INTRA:                  -0.664
REMARK UNBOUND:                -0.653
REMARK SMILES CCOC(=O)Nc1cc2c(c(N)[nH+]1)N=C(c1ccc(F)cc1)CN2
REMARK SMILES IDX 4 1 5 2 6 3 3 5 2 6 1 7 7 8 8 9 13 10 9 11 11 12 10 13 24 14
REMARK SMILES IDX 14 15 23 16 15 17 12 20 16 23 17 24 22 25 18 26 21 27 19 28
REMARK SMILES IDX 20 29
REMARK H PARENT 6 4 13 18 24 19 12 21 12 22
ROOT
ATOM      1  C   UNL     1      16.986 -23.052 -43.974  1.00  0.00     0.473 C 
ATOM      2  O   UNL     1      16.479 -24.133 -43.692  1.00  0.00    -0.208 OA
ATOM      3  N   UNL     1      16.377 -22.149 -44.795  1.00  0.00    -0.206 N 
ATOM      4  H   UNL     1      16.876 -21.287 -44.973  1.00  0.00     0.271 HD
ENDROOT
BRANCH   1   5
ATOM      5  O   UNL     1      18.174 -22.574 -43.555  1.00  0.00    -0.438 OA
BRANCH   5   6
ATOM      6  C   UNL     1      19.020 -22.000 -44.569  1.00  0.00     0.233 C 
ATOM      7  C   UNL     1      20.464 -22.003 -44.105  1.00  0.00     0.049 C 
ENDBRANCH   5   6
ENDBRANCH   1   5
BRANCH   3   8
ATOM      8  C   UNL     1      15.131 -22.410 -45.370  1.00  0.00     0.231 A 
ATOM      9  C   UNL     1      14.940 -22.155 -46.729  1.00  0.00     0.108 A 
ATOM     10  N   UNL     1      14.111 -22.909 -44.659  1.00  0.00    -0.245 N 
ATOM     11  C   UNL     1      13.694 -22.399 -47.316  1.00  0.00     0.074 A 
ATOM     12  C   UNL     1      12.918 -23.197 -45.171  1.00  0.00     0.245 A 
ATOM     13  C   UNL     1      12.672 -22.962 -46.533  1.00  0.00     0.159 A 
ATOM     14  N   UNL     1      13.531 -22.239 -48.697  1.00  0.00    -0.377 N 
ATOM     15  N   UNL     1      11.423 -23.333 -47.075  1.00  0.00    -0.242 NA
ATOM     16  C   UNL     1      12.136 -22.144 -49.153  1.00  0.00     0.170 C 
ATOM     17  C   UNL     1      11.171 -22.985 -48.308  1.00  0.00     0.068 C 
ATOM     18  H   UNL     1      14.259 -23.102 -43.662  1.00  0.00     0.267 HD
ATOM     19  H   UNL     1      14.136 -21.546 -49.131  1.00  0.00     0.161 HD
BRANCH  12  20
ATOM     20  N   UNL     1      11.961 -23.753 -44.310  1.00  0.00    -0.317 N 
ATOM     21  H   UNL     1      11.820 -24.731 -44.586  1.00  0.00     0.253 HD
ATOM     22  H   UNL     1      11.051 -23.338 -44.535  1.00  0.00     0.253 HD
ENDBRANCH  12  20
BRANCH  17  23
ATOM     23  C   UNL     1       9.863 -23.379 -48.918  1.00  0.00    -0.002 A 
ATOM     24  C   UNL     1       8.889 -24.079 -48.190  1.00  0.00     0.013 A 
ATOM     25  C   UNL     1       9.615 -23.050 -50.261  1.00  0.00     0.013 A 
ATOM     26  C   UNL     1       7.681 -24.433 -48.798  1.00  0.00     0.040 A 
ATOM     27  C   UNL     1       8.406 -23.405 -50.863  1.00  0.00     0.040 A 
ATOM     28  C   UNL     1       7.451 -24.092 -50.126  1.00  0.00     0.123 A 
ATOM     29  F   UNL     1       6.292 -24.435 -50.703  1.00  0.00    -0.207 F 
ENDBRANCH  17  23
ENDBRANCH   3   8
TORSDOF 5
ENDMDL
MODEL 6
REMARK VINA RESULT:    -6.769      4.885      8.648
REMARK INTER + INTRA:          -9.204
REMARK INTER:                  -8.883
REMARK INTRA:                  -0.320
REMARK UNBOUND:                -0.653
REMARK SMILES CCOC(=O)Nc1cc2c(c(N)[nH+]1)N=C(c1ccc(F)cc1)CN2
REMARK SMILES IDX 4 1 5 2 6 3 3 5 2 6 1 7 7 8 8 9 13 10 9 11 11 12 10 13 24 14
REMARK SMILES IDX 14 15 23 16 15 17 12 20 16 23 17 24 22 25 18 26 21 27 19 28
REMARK SMILES IDX 20 29
REMARK H PARENT 6 4 13 18 24 19 12 21 12 22
ROOT
ATOM      1  C   UNL     1      15.981 -22.756 -43.004  1.00  0.00     0.473 C 
ATOM      2  O   UNL     1      16.289 -21.951 -43.877  1.00  0.00    -0.208 OA
ATOM      3  N   UNL     1      14.862 -23.531 -43.084  1.00  0.00    -0.206 N 
ATOM      4  H   UNL     1      14.688 -24.162 -42.312  1.00  0.00     0.271 HD
ENDROOT
BRANCH   1   5
ATOM      5  O   UNL     1      16.646 -23.015 -41.862  1.00  0.00    -0.438 OA
BRANCH   5   6
ATOM      6  C   UNL     1      16.347 -24.269 -41.224  1.00  0.00     0.233 C 
ATOM      7  C   UNL     1      15.952 -24.036 -39.778  1.00  0.00     0.049 C 
ENDBRANCH   5   6
ENDBRANCH   1   5
BRANCH   3   8
ATOM      8  C   UNL     1      13.992 -23.447 -44.174  1.00  0.00     0.231 A 
ATOM      9  C   UNL     1      12.987 -24.405 -44.322  1.00  0.00     0.108 A 
ATOM     10  N   UNL     1      14.085 -22.466 -45.083  1.00  0.00    -0.245 N 
ATOM     11  C   UNL     1      12.118 -24.341 -45.415  1.00  0.00     0.074 A 
ATOM     12  C   UNL     1      13.263 -22.333 -46.120  1.00  0.00     0.245 A 
ATOM     13  C   UNL     1      12.234 -23.267 -46.315  1.00  0.00     0.159 A 
ATOM     14  N   UNL     1      11.048 -25.240 -45.509  1.00  0.00    -0.377 N 
ATOM     15  N   UNL     1      11.331 -23.076 -47.382  1.00  0.00    -0.242 NA
ATOM     16  C   UNL     1      10.439 -25.345 -46.843  1.00  0.00     0.170 C 
ATOM     17  C   UNL     1      10.466 -24.024 -47.621  1.00  0.00     0.068 C 
ATOM     18  H   UNL     1      14.821 -21.761 -44.966  1.00  0.00     0.267 HD
ATOM     19  H   UNL     1      11.200 -26.145 -45.071  1.00  0.00     0.161 HD
BRANCH  12  20
ATOM     20  N   UNL     1      13.460 -21.232 -46.964  1.00  0.00    -0.317 N 
ATOM     21  H   UNL     1      13.979 -21.556 -47.788  1.00  0.00     0.253 HD
ATOM     22  H   UNL     1      14.141 -20.607 -46.520  1.00  0.00     0.253 HD
ENDBRANCH  12  20
BRANCH  17  23
ATOM     23  C   UNL     1       9.483 -23.844 -48.734  1.00  0.00    -0.002 A 
ATOM     24  C   UNL     1       9.855 -23.280 -49.964  1.00  0.00     0.013 A 
ATOM     25  C   UNL     1       8.150 -24.238 -48.532  1.00  0.00     0.013 A 
ATOM     26  C   UNL     1       8.905 -23.123 -50.977  1.00  0.00     0.040 A 
ATOM     27  C   UNL     1       7.206 -24.080 -49.548  1.00  0.00     0.040 A 
ATOM     28  C   UNL     1       7.592 -23.526 -50.761  1.00  0.00     0.123 A 
ATOM     29  F   UNL     1       6.687 -23.373 -51.736  1.00  0.00    -0.207 F 
ENDBRANCH  17  23
ENDBRANCH   3   8
TORSDOF 5
ENDMDL
MODEL 7
REMARK VINA RESULT:    -6.724      4.965      8.176
REMARK INTER + INTRA:          -9.146
REMARK INTER:                  -8.489
REMARK INTRA:                  -0.657
REMARK UNBOUND:                -0.653
REMARK SMILES CCOC(=O)Nc1cc2c(c(N)[nH+]1)N=C(c1ccc(F)cc1)CN2
REMARK SMILES IDX 4 1 5 2 6 3 3 5 2 6 1 7 7 8 8 9 13 10 9 11 11 12 10 13 24 14
REMARK SMILES IDX 14 15 23 16 15 17 12 20 16 23 17 24 22 25 18 26 21 27 19 28
REMARK SMILES IDX 20 29
REMARK H PARENT 6 4 13 18 24 19 12 21 12 22
ROOT
ATOM      1  C   UNL     1      16.355 -22.511 -44.054  1.00  0.00     0.473 C 
ATOM      2  O   UNL     1      15.355 -22.266 -43.387  1.00  0.00    -0.208 OA
ATOM      3  N   UNL     1      16.300 -22.750 -45.395  1.00  0.00    -0.206 N 
ATOM      4  H   UNL     1      17.177 -22.948 -45.859  1.00  0.00     0.271 HD
ENDROOT
BRANCH   1   5
ATOM      5  O   UNL     1      17.627 -22.590 -43.618  1.00  0.00    -0.438 OA
BRANCH   5   6
ATOM      6  C   UNL     1      18.641 -22.691 -44.634  1.00  0.00     0.233 C 
ATOM      7  C   UNL     1      19.923 -22.036 -44.158  1.00  0.00     0.049 C 
ENDBRANCH   5   6
ENDBRANCH   1   5
BRANCH   3   8
ATOM      8  C   UNL     1      15.089 -22.733 -46.091  1.00  0.00     0.231 A 
ATOM      9  C   UNL     1      14.515 -23.941 -46.492  1.00  0.00     0.108 A 
ATOM     10  N   UNL     1      14.451 -21.591 -46.379  1.00  0.00    -0.245 N 
ATOM     11  C   UNL     1      13.310 -23.940 -47.200  1.00  0.00     0.074 A 
ATOM     12  C   UNL     1      13.284 -21.530 -47.015  1.00  0.00     0.245 A 
ATOM     13  C   UNL     1      12.662 -22.715 -47.439  1.00  0.00     0.159 A 
ATOM     14  N   UNL     1      12.684 -25.152 -47.514  1.00  0.00    -0.377 N 
ATOM     15  N   UNL     1      11.395 -22.639 -48.054  1.00  0.00    -0.242 NA
ATOM     16  C   UNL     1      11.657 -25.070 -48.562  1.00  0.00     0.170 C 
ATOM     17  C   UNL     1      10.898 -23.737 -48.556  1.00  0.00     0.068 C 
ATOM     18  H   UNL     1      14.873 -20.706 -46.076  1.00  0.00     0.267 HD
ATOM     19  H   UNL     1      13.307 -25.947 -47.633  1.00  0.00     0.161 HD
BRANCH  12  20
ATOM     20  N   UNL     1      12.718 -20.263 -47.210  1.00  0.00    -0.317 N 
ATOM     21  H   UNL     1      12.511 -19.865 -46.286  1.00  0.00     0.253 HD
ATOM     22  H   UNL     1      11.779 -20.389 -47.600  1.00  0.00     0.253 HD
ENDBRANCH  12  20
BRANCH  17  23
ATOM     23  C   UNL     1       9.548 -23.693 -49.200  1.00  0.00    -0.002 A 
ATOM     24  C   UNL     1       9.359 -23.159 -50.483  1.00  0.00     0.013 A 
ATOM     25  C   UNL     1       8.442 -24.188 -48.489  1.00  0.00     0.013 A 
ATOM     26  C   UNL     1       8.080 -23.131 -51.048  1.00  0.00     0.040 A 
ATOM     27  C   UNL     1       7.168 -24.159 -49.058  1.00  0.00     0.040 A 
ATOM     28  C   UNL     1       6.999 -23.632 -50.332  1.00  0.00     0.123 A 
ATOM     29  F   UNL     1       5.777 -23.603 -50.878  1.00  0.00    -0.207 F 
ENDBRANCH  17  23
ENDBRANCH   3   8
TORSDOF 5
ENDMDL
MODEL 8
REMARK VINA RESULT:    -6.692      3.632      5.030
REMARK INTER + INTRA:          -9.106
REMARK INTER:                  -8.452
REMARK INTRA:                  -0.654
REMARK UNBOUND:                -0.653
REMARK SMILES CCOC(=O)Nc1cc2c(c(N)[nH+]1)N=C(c1ccc(F)cc1)CN2
REMARK SMILES IDX 4 1 5 2 6 3 3 5 2 6 1 7 7 8 8 9 13 10 9 11 11 12 10 13 24 14
REMARK SMILES IDX 14 15 23 16 15 17 12 20 16 23 17 24 22 25 18 26 21 27 19 28
REMARK SMILES IDX 20 29
REMARK H PARENT 6 4 13 18 24 19 12 21 12 22
ROOT
ATOM      1  C   UNL     1       7.790 -22.910 -51.074  1.00  0.00     0.473 C 
ATOM      2  O   UNL     1       7.271 -23.079 -49.976  1.00  0.00    -0.208 OA
ATOM      3  N   UNL     1       9.142 -22.851 -51.245  1.00  0.00    -0.206 N 
ATOM      4  H   UNL     1       9.476 -22.703 -52.188  1.00  0.00     0.271 HD
ENDROOT
BRANCH   1   5
ATOM      5  O   UNL     1       7.164 -22.755 -52.258  1.00  0.00    -0.438 OA
BRANCH   5   6
ATOM      6  C   UNL     1       7.313 -23.834 -53.199  1.00  0.00     0.233 C 
ATOM      7  C   UNL     1       6.239 -24.879 -52.968  1.00  0.00     0.049 C 
ENDBRANCH   5   6
ENDBRANCH   1   5
BRANCH   3   8
ATOM      8  C   UNL     1      10.019 -22.976 -50.165  1.00  0.00     0.231 A 
ATOM      9  C   UNL     1      11.148 -22.157 -50.104  1.00  0.00     0.108 A 
ATOM     10  N   UNL     1       9.807 -23.854 -49.175  1.00  0.00    -0.245 N 
ATOM     11  C   UNL     1      12.042 -22.280 -49.036  1.00  0.00     0.074 A 
ATOM     12  C   UNL     1      10.601 -23.989 -48.117  1.00  0.00     0.245 A 
ATOM     13  C   UNL     1      11.749 -23.189 -48.004  1.00  0.00     0.159 A 
ATOM     14  N   UNL     1      13.118 -21.392 -48.921  1.00  0.00    -0.377 N 
ATOM     15  N   UNL     1      12.545 -23.297 -46.845  1.00  0.00    -0.242 NA
ATOM     16  C   UNL     1      14.191 -21.826 -48.014  1.00  0.00     0.170 C 
ATOM     17  C   UNL     1      13.674 -22.641 -46.822  1.00  0.00     0.068 C 
ATOM     18  H   UNL     1       8.972 -24.449 -49.221  1.00  0.00     0.267 HD
ATOM     19  H   UNL     1      13.471 -21.018 -49.799  1.00  0.00     0.161 HD
BRANCH  12  20
ATOM     20  N   UNL     1      10.227 -24.924 -47.142  1.00  0.00    -0.317 N 
ATOM     21  H   UNL     1      10.132 -25.837 -47.601  1.00  0.00     0.253 HD
ATOM     22  H   UNL     1       9.260 -24.727 -46.865  1.00  0.00     0.253 HD
ENDBRANCH  12  20
BRANCH  17  23
ATOM     23  C   UNL     1      14.534 -22.721 -45.600  1.00  0.00    -0.002 A 
ATOM     24  C   UNL     1      14.021 -23.138 -44.362  1.00  0.00     0.013 A 
ATOM     25  C   UNL     1      15.885 -22.353 -45.696  1.00  0.00     0.013 A 
ATOM     26  C   UNL     1      14.855 -23.194 -43.242  1.00  0.00     0.040 A 
ATOM     27  C   UNL     1      16.715 -22.412 -44.575  1.00  0.00     0.040 A 
ATOM     28  C   UNL     1      16.193 -22.832 -43.359  1.00  0.00     0.123 A 
ATOM     29  F   UNL     1      16.987 -22.888 -42.282  1.00  0.00    -0.207 F 
ENDBRANCH  17  23
ENDBRANCH   3   8
TORSDOF 5
ENDMDL
MODEL 9
REMARK VINA RESULT:    -6.560      3.737      5.334
REMARK INTER + INTRA:          -8.939
REMARK INTER:                  -8.350
REMARK INTRA:                  -0.590
REMARK UNBOUND:                -0.653
REMARK SMILES CCOC(=O)Nc1cc2c(c(N)[nH+]1)N=C(c1ccc(F)cc1)CN2
REMARK SMILES IDX 4 1 5 2 6 3 3 5 2 6 1 7 7 8 8 9 13 10 9 11 11 12 10 13 24 14
REMARK SMILES IDX 14 15 23 16 15 17 12 20 16 23 17 24 22 25 18 26 21 27 19 28
REMARK SMILES IDX 20 29
REMARK H PARENT 6 4 13 18 24 19 12 21 12 22
ROOT
ATOM      1  C   UNL     1       8.996 -23.473 -51.912  1.00  0.00     0.473 C 
ATOM      2  O   UNL     1      10.028 -24.003 -52.309  1.00  0.00    -0.208 OA
ATOM      3  N   UNL     1       8.933 -22.777 -50.741  1.00  0.00    -0.206 N 
ATOM      4  H   UNL     1       8.036 -22.380 -50.494  1.00  0.00     0.271 HD
ENDROOT
BRANCH   1   5
ATOM      5  O   UNL     1       7.791 -23.476 -52.516  1.00  0.00    -0.438 OA
BRANCH   5   6
ATOM      6  C   UNL     1       7.768 -23.931 -53.881  1.00  0.00     0.233 C 
ATOM      7  C   UNL     1       6.357 -24.322 -54.276  1.00  0.00     0.049 C 
ENDBRANCH   5   6
ENDBRANCH   1   5
BRANCH   3   8
ATOM      8  C   UNL     1      10.053 -22.632 -49.917  1.00  0.00     0.231 A 
ATOM      9  C   UNL     1      10.182 -23.445 -48.790  1.00  0.00     0.108 A 
ATOM     10  N   UNL     1      11.016 -21.738 -50.180  1.00  0.00    -0.245 N 
ATOM     11  C   UNL     1      11.290 -23.302 -47.950  1.00  0.00     0.074 A 
ATOM     12  C   UNL     1      12.110 -21.585 -49.440  1.00  0.00     0.245 A 
ATOM     13  C   UNL     1      12.292 -22.379 -48.297  1.00  0.00     0.159 A 
ATOM     14  N   UNL     1      11.471 -24.185 -46.879  1.00  0.00    -0.377 N 
ATOM     15  N   UNL     1      13.487 -22.249 -47.558  1.00  0.00    -0.242 NA
ATOM     16  C   UNL     1      12.423 -23.733 -45.853  1.00  0.00     0.170 C 
ATOM     17  C   UNL     1      13.576 -22.901 -46.430  1.00  0.00     0.068 C 
ATOM     18  H   UNL     1      10.920 -21.147 -51.014  1.00  0.00     0.267 HD
ATOM     19  H   UNL     1      10.618 -24.571 -46.482  1.00  0.00     0.161 HD
BRANCH  12  20
ATOM     20  N   UNL     1      13.051 -20.636 -49.864  1.00  0.00    -0.317 N 
ATOM     21  H   UNL     1      12.643 -20.118 -50.650  1.00  0.00     0.253 HD
ATOM     22  H   UNL     1      13.823 -21.134 -50.318  1.00  0.00     0.253 HD
ENDBRANCH  12  20
BRANCH  17  23
ATOM     23  C   UNL     1      14.837 -22.799 -45.632  1.00  0.00    -0.002 A 
ATOM     24  C   UNL     1      14.821 -22.738 -44.230  1.00  0.00     0.013 A 
ATOM     25  C   UNL     1      16.066 -22.748 -46.309  1.00  0.00     0.013 A 
ATOM     26  C   UNL     1      16.021 -22.637 -43.520  1.00  0.00     0.040 A 
ATOM     27  C   UNL     1      17.261 -22.649 -45.595  1.00  0.00     0.040 A 
ATOM     28  C   UNL     1      17.228 -22.596 -44.208  1.00  0.00     0.123 A 
ATOM     29  F   UNL     1      18.374 -22.500 -43.523  1.00  0.00    -0.207 F 
ENDBRANCH  17  23
ENDBRANCH   3   8
TORSDOF 5
ENDMDL
