MODEL 1
REMARK VINA RESULT:    -7.671      0.000      0.000
REMARK INTER + INTRA:          -9.640
REMARK INTER:                  -9.017
REMARK INTRA:                  -0.624
REMARK UNBOUND:                -0.624
REMARK SMILES C[C@@H]1CN(CC(=O)C(C#N)=C2Nc3ccccc3N2)CCO1
REMARK SMILES IDX 6 1 7 2 5 3 4 4 2 5 3 6 22 7 21 8 20 9 1 10 8 11 9 12 11 13
REMARK SMILES IDX 10 14 12 15 19 16 13 17 18 18 14 19 17 20 15 21 16 22
REMARK H PARENT 12 23 19 24
ROOT
ATOM      1  C   UNL     1      13.274 -23.115 -45.602  1.00  0.00     0.191 C 
ATOM      2  O   UNL     1      12.238 -22.720 -45.061  1.00  0.00    -0.292 OA
ENDROOT
BRANCH   1   3
ATOM      3  C   UNL     1      13.345 -23.591 -47.060  1.00  0.00     0.166 C 
BRANCH   3   4
ATOM      4  N   UNL     1      12.640 -22.749 -48.042  1.00  0.00    -0.291 NA
ATOM      5  C   UNL     1      12.636 -20.777 -49.555  1.00  0.00     0.129 C 
ATOM      6  C   UNL     1      13.477 -21.688 -48.630  1.00  0.00     0.116 C 
ATOM      7  O   UNL     1      12.006 -21.547 -50.592  1.00  0.00    -0.376 OA
ATOM      8  C   UNL     1      11.165 -22.559 -50.021  1.00  0.00     0.176 C 
ATOM      9  C   UNL     1      11.966 -23.505 -49.111  1.00  0.00     0.113 C 
ATOM     10  C   UNL     1      13.511 -19.727 -50.226  1.00  0.00     0.040 C 
ENDBRANCH   3   4
ENDBRANCH   1   3
BRANCH   1  11
ATOM     11  C   UNL     1      14.552 -23.118 -44.829  1.00  0.00     0.137 C 
ATOM     12  C   UNL     1      15.722 -22.606 -45.444  1.00  0.00     0.107 C 
ATOM     13  C   UNL     1      14.566 -23.639 -43.584  1.00  0.00     0.130 C 
ATOM     14  N   UNL     1      16.668 -22.176 -45.959  1.00  0.00    -0.192 NA
ATOM     15  N   UNL     1      13.443 -24.164 -42.919  1.00  0.00    -0.339 N 
ATOM     16  N   UNL     1      15.684 -23.691 -42.731  1.00  0.00    -0.339 N 
ATOM     17  C   UNL     1      13.803 -24.277 -41.564  1.00  0.00     0.063 A 
ATOM     18  C   UNL     1      15.182 -23.991 -41.447  1.00  0.00     0.063 A 
ATOM     19  C   UNL     1      13.054 -24.677 -40.483  1.00  0.00     0.028 A 
ATOM     20  C   UNL     1      15.844 -24.101 -40.246  1.00  0.00     0.028 A 
ATOM     21  C   UNL     1      13.710 -24.768 -39.250  1.00  0.00     0.002 A 
ATOM     22  C   UNL     1      15.088 -24.484 -39.134  1.00  0.00     0.002 A 
ATOM     23  H   UNL     1      12.536 -23.774 -43.165  1.00  0.00     0.168 HD
ATOM     24  H   UNL     1      16.406 -22.986 -42.807  1.00  0.00     0.168 HD
ENDBRANCH   1  11
TORSDOF 3
ENDMDL
MODEL 2
REMARK VINA RESULT:    -7.136      3.032      7.672
REMARK INTER + INTRA:          -9.011
REMARK INTER:                  -8.330
REMARK INTRA:                  -0.681
REMARK UNBOUND:                -0.624
REMARK SMILES C[C@@H]1CN(CC(=O)C(C#N)=C2Nc3ccccc3N2)CCO1
REMARK SMILES IDX 6 1 7 2 5 3 4 4 2 5 3 6 22 7 21 8 20 9 1 10 8 11 9 12 11 13
REMARK SMILES IDX 10 14 12 15 19 16 13 17 18 18 14 19 17 20 15 21 16 22
REMARK H PARENT 12 23 19 24
ROOT
ATOM      1  C   UNL     1      13.217 -20.865 -48.568  1.00  0.00     0.191 C 
ATOM      2  O   UNL     1      12.764 -19.921 -47.915  1.00  0.00    -0.292 OA
ENDROOT
BRANCH   1   3
ATOM      3  C   UNL     1      14.425 -21.703 -48.128  1.00  0.00     0.166 C 
BRANCH   3   4
ATOM      4  N   UNL     1      14.461 -22.072 -46.702  1.00  0.00    -0.291 NA
ATOM      5  C   UNL     1      13.340 -23.083 -44.727  1.00  0.00     0.129 C 
ATOM      6  C   UNL     1      13.285 -22.840 -46.254  1.00  0.00     0.116 C 
ATOM      7  O   UNL     1      14.551 -23.768 -44.364  1.00  0.00    -0.376 OA
ATOM      8  C   UNL     1      15.696 -23.007 -44.770  1.00  0.00     0.176 C 
ATOM      9  C   UNL     1      15.696 -22.761 -46.288  1.00  0.00     0.113 C 
ATOM     10  C   UNL     1      12.169 -23.942 -44.271  1.00  0.00     0.040 C 
ENDBRANCH   3   4
ENDBRANCH   1   3
BRANCH   1  11
ATOM     11  C   UNL     1      12.557 -21.256 -49.850  1.00  0.00     0.137 C 
ATOM     12  C   UNL     1      13.146 -20.848 -51.072  1.00  0.00     0.107 C 
ATOM     13  C   UNL     1      11.402 -21.953 -49.807  1.00  0.00     0.130 C 
ATOM     14  N   UNL     1      13.646 -20.513 -52.064  1.00  0.00    -0.192 NA
ATOM     15  N   UNL     1      10.765 -22.385 -48.630  1.00  0.00    -0.339 N 
ATOM     16  N   UNL     1      10.679 -22.407 -50.926  1.00  0.00    -0.339 N 
ATOM     17  C   UNL     1       9.812 -23.341 -49.024  1.00  0.00     0.063 A 
ATOM     18  C   UNL     1       9.755 -23.354 -50.436  1.00  0.00     0.063 A 
ATOM     19  C   UNL     1       8.968 -24.112 -48.260  1.00  0.00     0.028 A 
ATOM     20  C   UNL     1       8.849 -24.135 -51.116  1.00  0.00     0.028 A 
ATOM     21  C   UNL     1       8.060 -24.931 -48.940  1.00  0.00     0.002 A 
ATOM     22  C   UNL     1       8.001 -24.942 -50.350  1.00  0.00     0.002 A 
ATOM     23  H   UNL     1      11.358 -22.572 -47.825  1.00  0.00     0.168 HD
ATOM     24  H   UNL     1      11.168 -22.622 -51.786  1.00  0.00     0.168 HD
ENDBRANCH   1  11
TORSDOF 3
ENDMDL
MODEL 3
REMARK VINA RESULT:    -7.111      2.099      7.859
REMARK INTER + INTRA:          -8.982
REMARK INTER:                  -8.574
REMARK INTRA:                  -0.408
REMARK UNBOUND:                -0.624
REMARK SMILES C[C@@H]1CN(CC(=O)C(C#N)=C2Nc3ccccc3N2)CCO1
REMARK SMILES IDX 6 1 7 2 5 3 4 4 2 5 3 6 22 7 21 8 20 9 1 10 8 11 9 12 11 13
REMARK SMILES IDX 10 14 12 15 19 16 13 17 18 18 14 19 17 20 15 21 16 22
REMARK H PARENT 12 23 19 24
ROOT
ATOM      1  C   UNL     1      13.218 -24.045 -43.610  1.00  0.00     0.191 C 
ATOM      2  O   UNL     1      12.004 -23.834 -43.546  1.00  0.00    -0.292 OA
ENDROOT
BRANCH   1   3
ATOM      3  C   UNL     1      13.907 -25.252 -42.959  1.00  0.00     0.166 C 
BRANCH   3   4
ATOM      4  N   UNL     1      14.580 -24.989 -41.675  1.00  0.00    -0.291 NA
ATOM      5  C   UNL     1      14.433 -24.352 -39.277  1.00  0.00     0.129 C 
ATOM      6  C   UNL     1      13.654 -24.737 -40.556  1.00  0.00     0.116 C 
ATOM      7  O   UNL     1      15.374 -25.381 -38.924  1.00  0.00    -0.376 OA
ATOM      8  C   UNL     1      16.296 -25.603 -40.000  1.00  0.00     0.176 C 
ATOM      9  C   UNL     1      15.565 -26.014 -41.289  1.00  0.00     0.113 C 
ATOM     10  C   UNL     1      13.487 -24.168 -38.098  1.00  0.00     0.040 C 
ENDBRANCH   3   4
ENDBRANCH   1   3
BRANCH   1  11
ATOM     11  C   UNL     1      14.088 -23.105 -44.378  1.00  0.00     0.137 C 
ATOM     12  C   UNL     1      15.348 -22.747 -43.839  1.00  0.00     0.107 C 
ATOM     13  C   UNL     1      13.636 -22.596 -45.543  1.00  0.00     0.130 C 
ATOM     14  N   UNL     1      16.380 -22.471 -43.386  1.00  0.00    -0.192 NA
ATOM     15  N   UNL     1      12.396 -22.908 -46.131  1.00  0.00    -0.339 N 
ATOM     16  N   UNL     1      14.347 -21.720 -46.385  1.00  0.00    -0.339 N 
ATOM     17  C   UNL     1      12.464 -22.452 -47.460  1.00  0.00     0.063 A 
ATOM     18  C   UNL     1      13.661 -21.718 -47.617  1.00  0.00     0.063 A 
ATOM     19  C   UNL     1      11.546 -22.563 -48.478  1.00  0.00     0.028 A 
ATOM     20  C   UNL     1      13.966 -21.075 -48.794  1.00  0.00     0.028 A 
ATOM     21  C   UNL     1      11.856 -21.936 -49.689  1.00  0.00     0.002 A 
ATOM     22  C   UNL     1      13.051 -21.200 -49.845  1.00  0.00     0.002 A 
ATOM     23  H   UNL     1      12.011 -23.830 -45.937  1.00  0.00     0.168 HD
ATOM     24  H   UNL     1      15.359 -21.754 -46.404  1.00  0.00     0.168 HD
ENDBRANCH   1  11
TORSDOF 3
ENDMDL
MODEL 4
REMARK VINA RESULT:    -7.007      1.243      2.185
REMARK INTER + INTRA:          -8.860
REMARK INTER:                  -8.606
REMARK INTRA:                  -0.253
REMARK UNBOUND:                -0.624
REMARK SMILES C[C@@H]1CN(CC(=O)C(C#N)=C2Nc3ccccc3N2)CCO1
REMARK SMILES IDX 6 1 7 2 5 3 4 4 2 5 3 6 22 7 21 8 20 9 1 10 8 11 9 12 11 13
REMARK SMILES IDX 10 14 12 15 19 16 13 17 18 18 14 19 17 20 15 21 16 22
REMARK H PARENT 12 23 19 24
ROOT
ATOM      1  C   UNL     1      14.344 -22.945 -46.035  1.00  0.00     0.191 C 
ATOM      2  O   UNL     1      15.268 -22.248 -45.607  1.00  0.00    -0.292 OA
ENDROOT
BRANCH   1   3
ATOM      3  C   UNL     1      14.140 -23.270 -47.522  1.00  0.00     0.166 C 
BRANCH   3   4
ATOM      4  N   UNL     1      13.265 -22.347 -48.264  1.00  0.00    -0.291 NA
ATOM      5  C   UNL     1      13.010 -20.339 -49.707  1.00  0.00     0.129 C 
ATOM      6  C   UNL     1      13.994 -21.341 -49.057  1.00  0.00     0.116 C 
ATOM      7  O   UNL     1      12.053 -21.027 -50.531  1.00  0.00    -0.376 OA
ATOM      8  C   UNL     1      11.320 -21.983 -49.752  1.00  0.00     0.176 C 
ATOM      9  C   UNL     1      12.258 -23.016 -49.106  1.00  0.00     0.113 C 
ATOM     10  C   UNL     1      13.751 -19.345 -50.591  1.00  0.00     0.040 C 
ENDBRANCH   3   4
ENDBRANCH   1   3
BRANCH   1  11
ATOM     11  C   UNL     1      13.368 -23.542 -45.075  1.00  0.00     0.137 C 
ATOM     12  C   UNL     1      12.097 -23.943 -45.555  1.00  0.00     0.107 C 
ATOM     13  C   UNL     1      13.709 -23.649 -43.774  1.00  0.00     0.130 C 
ATOM     14  N   UNL     1      11.064 -24.273 -45.967  1.00  0.00    -0.192 NA
ATOM     15  N   UNL     1      14.951 -23.267 -43.233  1.00  0.00    -0.339 N 
ATOM     16  N   UNL     1      12.907 -24.206 -42.760  1.00  0.00    -0.339 N 
ATOM     17  C   UNL     1      15.019 -23.848 -41.954  1.00  0.00     0.063 A 
ATOM     18  C   UNL     1      13.762 -24.422 -41.659  1.00  0.00     0.063 A 
ATOM     19  C   UNL     1      16.041 -23.836 -41.034  1.00  0.00     0.028 A 
ATOM     20  C   UNL     1      13.497 -24.995 -40.437  1.00  0.00     0.028 A 
ATOM     21  C   UNL     1      15.793 -24.440 -39.796  1.00  0.00     0.002 A 
ATOM     22  C   UNL     1      14.537 -25.011 -39.501  1.00  0.00     0.002 A 
ATOM     23  H   UNL     1      15.759 -23.318 -43.849  1.00  0.00     0.168 HD
ATOM     24  H   UNL     1      12.238 -24.929 -42.992  1.00  0.00     0.168 HD
ENDBRANCH   1  11
TORSDOF 3
ENDMDL
MODEL 5
REMARK VINA RESULT:    -6.932      1.819      2.739
REMARK INTER + INTRA:          -8.771
REMARK INTER:                  -8.216
REMARK INTRA:                  -0.555
REMARK UNBOUND:                -0.624
REMARK SMILES C[C@@H]1CN(CC(=O)C(C#N)=C2Nc3ccccc3N2)CCO1
REMARK SMILES IDX 6 1 7 2 5 3 4 4 2 5 3 6 22 7 21 8 20 9 1 10 8 11 9 12 11 13
REMARK SMILES IDX 10 14 12 15 19 16 13 17 18 18 14 19 17 20 15 21 16 22
REMARK H PARENT 12 23 19 24
ROOT
ATOM      1  C   UNL     1      16.097 -23.339 -45.818  1.00  0.00     0.191 C 
ATOM      2  O   UNL     1      16.266 -24.377 -46.463  1.00  0.00    -0.292 OA
ENDROOT
BRANCH   1   3
ATOM      3  C   UNL     1      15.184 -22.191 -46.273  1.00  0.00     0.166 C 
BRANCH   3   4
ATOM      4  N   UNL     1      13.971 -22.592 -47.005  1.00  0.00    -0.291 NA
ATOM      5  C   UNL     1      11.917 -23.987 -47.136  1.00  0.00     0.129 C 
ATOM      6  C   UNL     1      13.102 -23.520 -46.259  1.00  0.00     0.116 C 
ATOM      7  O   UNL     1      11.156 -22.860 -47.606  1.00  0.00    -0.376 OA
ATOM      8  C   UNL     1      11.994 -21.973 -48.361  1.00  0.00     0.176 C 
ATOM      9  C   UNL     1      13.174 -21.464 -47.518  1.00  0.00     0.113 C 
ATOM     10  C   UNL     1      10.974 -24.883 -46.346  1.00  0.00     0.040 C 
ENDBRANCH   3   4
ENDBRANCH   1   3
BRANCH   1  11
ATOM     11  C   UNL     1      16.785 -23.171 -44.503  1.00  0.00     0.137 C 
ATOM     12  C   UNL     1      18.034 -22.502 -44.467  1.00  0.00     0.107 C 
ATOM     13  C   UNL     1      16.218 -23.691 -43.394  1.00  0.00     0.130 C 
ATOM     14  N   UNL     1      19.051 -21.944 -44.455  1.00  0.00    -0.192 NA
ATOM     15  N   UNL     1      14.985 -24.368 -43.362  1.00  0.00    -0.339 N 
ATOM     16  N   UNL     1      16.736 -23.596 -42.088  1.00  0.00    -0.339 N 
ATOM     17  C   UNL     1      14.608 -24.438 -42.009  1.00  0.00     0.063 A 
ATOM     18  C   UNL     1      15.684 -23.967 -41.223  1.00  0.00     0.063 A 
ATOM     19  C   UNL     1      13.464 -24.941 -41.437  1.00  0.00     0.028 A 
ATOM     20  C   UNL     1      15.643 -23.992 -39.849  1.00  0.00     0.028 A 
ATOM     21  C   UNL     1      13.397 -24.948 -40.040  1.00  0.00     0.002 A 
ATOM     22  C   UNL     1      14.473 -24.480 -39.255  1.00  0.00     0.002 A 
ATOM     23  H   UNL     1      14.295 -24.104 -44.061  1.00  0.00     0.168 HD
ATOM     24  H   UNL     1      17.304 -22.798 -41.831  1.00  0.00     0.168 HD
ENDBRANCH   1  11
TORSDOF 3
ENDMDL
MODEL 6
REMARK VINA RESULT:    -6.854      2.127      3.149
REMARK INTER + INTRA:          -8.679
REMARK INTER:                  -8.068
REMARK INTRA:                  -0.611
REMARK UNBOUND:                -0.624
REMARK SMILES C[C@@H]1CN(CC(=O)C(C#N)=C2Nc3ccccc3N2)CCO1
REMARK SMILES IDX 6 1 7 2 5 3 4 4 2 5 3 6 22 7 21 8 20 9 1 10 8 11 9 12 11 13
REMARK SMILES IDX 10 14 12 15 19 16 13 17 18 18 14 19 17 20 15 21 16 22
REMARK H PARENT 12 23 19 24
ROOT
ATOM      1  C   UNL     1      16.715 -23.155 -44.282  1.00  0.00     0.191 C 
ATOM      2  O   UNL     1      17.036 -21.966 -44.353  1.00  0.00    -0.292 OA
ENDROOT
BRANCH   1   3
ATOM      3  C   UNL     1      15.877 -23.876 -45.346  1.00  0.00     0.166 C 
BRANCH   3   4
ATOM      4  N   UNL     1      14.473 -23.443 -45.456  1.00  0.00    -0.291 NA
ATOM      5  C   UNL     1      12.746 -22.059 -46.587  1.00  0.00     0.129 C 
ATOM      6  C   UNL     1      14.207 -22.566 -46.610  1.00  0.00     0.116 C 
ATOM      7  O   UNL     1      11.824 -23.162 -46.576  1.00  0.00    -0.376 OA
ATOM      8  C   UNL     1      12.061 -23.999 -45.435  1.00  0.00     0.176 C 
ATOM      9  C   UNL     1      13.497 -24.546 -45.430  1.00  0.00     0.113 C 
ATOM     10  C   UNL     1      12.443 -21.216 -47.818  1.00  0.00     0.040 C 
ENDBRANCH   3   4
ENDBRANCH   1   3
BRANCH   1  11
ATOM     11  C   UNL     1      17.177 -23.973 -43.120  1.00  0.00     0.137 C 
ATOM     12  C   UNL     1      18.528 -24.401 -43.081  1.00  0.00     0.107 C 
ATOM     13  C   UNL     1      16.290 -24.310 -42.161  1.00  0.00     0.130 C 
ATOM     14  N   UNL     1      19.638 -24.736 -43.062  1.00  0.00    -0.192 NA
ATOM     15  N   UNL     1      14.938 -23.921 -42.142  1.00  0.00    -0.339 N 
ATOM     16  N   UNL     1      16.581 -25.055 -41.002  1.00  0.00    -0.339 N 
ATOM     17  C   UNL     1      14.471 -24.181 -40.841  1.00  0.00     0.063 A 
ATOM     18  C   UNL     1      15.478 -24.882 -40.139  1.00  0.00     0.063 A 
ATOM     19  C   UNL     1      13.242 -23.928 -40.278  1.00  0.00     0.028 A 
ATOM     20  C   UNL     1      15.279 -25.349 -38.861  1.00  0.00     0.028 A 
ATOM     21  C   UNL     1      13.035 -24.374 -38.968  1.00  0.00     0.002 A 
ATOM     22  C   UNL     1      14.041 -25.077 -38.269  1.00  0.00     0.002 A 
ATOM     23  H   UNL     1      14.705 -23.038 -42.590  1.00  0.00     0.168 HD
ATOM     24  H   UNL     1      17.510 -25.015 -40.601  1.00  0.00     0.168 HD
ENDBRANCH   1  11
TORSDOF 3
ENDMDL
MODEL 7
REMARK VINA RESULT:    -6.835      2.828      3.835
REMARK INTER + INTRA:          -8.658
REMARK INTER:                  -8.058
REMARK INTRA:                  -0.600
REMARK UNBOUND:                -0.624
REMARK SMILES C[C@@H]1CN(CC(=O)C(C#N)=C2Nc3ccccc3N2)CCO1
REMARK SMILES IDX 6 1 7 2 5 3 4 4 2 5 3 6 22 7 21 8 20 9 1 10 8 11 9 12 11 13
REMARK SMILES IDX 10 14 12 15 19 16 13 17 18 18 14 19 17 20 15 21 16 22
REMARK H PARENT 12 23 19 24
ROOT
ATOM      1  C   UNL     1      12.002 -23.560 -45.597  1.00  0.00     0.191 C 
ATOM      2  O   UNL     1      11.528 -23.445 -44.464  1.00  0.00    -0.292 OA
ENDROOT
BRANCH   1   3
ATOM      3  C   UNL     1      11.509 -24.587 -46.627  1.00  0.00     0.166 C 
BRANCH   3   4
ATOM      4  N   UNL     1      10.543 -24.085 -47.619  1.00  0.00    -0.291 NA
ATOM      5  C   UNL     1      10.048 -23.371 -49.947  1.00  0.00     0.129 C 
ATOM      6  C   UNL     1      11.077 -24.018 -48.991  1.00  0.00     0.116 C 
ATOM      7  O   UNL     1       8.807 -24.097 -49.929  1.00  0.00    -0.376 OA
ATOM      8  C   UNL     1       8.271 -24.134 -48.600  1.00  0.00     0.176 C 
ATOM      9  C   UNL     1       9.252 -24.794 -47.617  1.00  0.00     0.113 C 
ATOM     10  C   UNL     1      10.562 -23.371 -51.381  1.00  0.00     0.040 C 
ENDBRANCH   3   4
ENDBRANCH   1   3
BRANCH   1  11
ATOM     11  C   UNL     1      13.099 -22.644 -46.031  1.00  0.00     0.137 C 
ATOM     12  C   UNL     1      12.784 -21.556 -46.881  1.00  0.00     0.107 C 
ATOM     13  C   UNL     1      14.363 -22.899 -45.631  1.00  0.00     0.130 C 
ATOM     14  N   UNL     1      12.506 -20.665 -47.570  1.00  0.00    -0.192 NA
ATOM     15  N   UNL     1      14.743 -23.962 -44.792  1.00  0.00    -0.339 N 
ATOM     16  N   UNL     1      15.492 -22.118 -45.940  1.00  0.00    -0.339 N 
ATOM     17  C   UNL     1      16.048 -23.673 -44.355  1.00  0.00     0.063 A 
ATOM     18  C   UNL     1      16.513 -22.542 -45.063  1.00  0.00     0.063 A 
ATOM     19  C   UNL     1      16.855 -24.355 -43.474  1.00  0.00     0.028 A 
ATOM     20  C   UNL     1      17.795 -22.068 -44.909  1.00  0.00     0.028 A 
ATOM     21  C   UNL     1      18.153 -23.868 -43.289  1.00  0.00     0.002 A 
ATOM     22  C   UNL     1      18.618 -22.739 -43.998  1.00  0.00     0.002 A 
ATOM     23  H   UNL     1      14.052 -24.292 -44.121  1.00  0.00     0.168 HD
ATOM     24  H   UNL     1      15.386 -21.124 -46.101  1.00  0.00     0.168 HD
ENDBRANCH   1  11
TORSDOF 3
ENDMDL
MODEL 8
REMARK VINA RESULT:    -6.552      1.899      2.381
REMARK INTER + INTRA:          -8.325
REMARK INTER:                  -7.781
REMARK INTRA:                  -0.544
REMARK UNBOUND:                -0.624
REMARK SMILES C[C@@H]1CN(CC(=O)C(C#N)=C2Nc3ccccc3N2)CCO1
REMARK SMILES IDX 6 1 7 2 5 3 4 4 2 5 3 6 22 7 21 8 20 9 1 10 8 11 9 12 11 13
REMARK SMILES IDX 10 14 12 15 19 16 13 17 18 18 14 19 17 20 15 21 16 22
REMARK H PARENT 12 23 19 24
ROOT
ATOM      1  C   UNL     1      13.280 -23.153 -45.560  1.00  0.00     0.191 C 
ATOM      2  O   UNL     1      12.273 -22.709 -45.002  1.00  0.00    -0.292 OA
ENDROOT
BRANCH   1   3
ATOM      3  C   UNL     1      13.301 -23.649 -47.013  1.00  0.00     0.166 C 
BRANCH   3   4
ATOM      4  N   UNL     1      12.151 -24.472 -47.424  1.00  0.00    -0.291 NA
ATOM      5  C   UNL     1       9.829 -24.614 -48.299  1.00  0.00     0.129 C 
ATOM      6  C   UNL     1      11.040 -23.698 -48.006  1.00  0.00     0.116 C 
ATOM      7  O   UNL     1      10.203 -25.688 -49.179  1.00  0.00    -0.376 OA
ATOM      8  C   UNL     1      11.262 -26.462 -48.598  1.00  0.00     0.176 C 
ATOM      9  C   UNL     1      12.499 -25.595 -48.312  1.00  0.00     0.113 C 
ATOM     10  C   UNL     1       8.708 -23.835 -48.973  1.00  0.00     0.040 C 
ENDBRANCH   3   4
ENDBRANCH   1   3
BRANCH   1  11
ATOM     11  C   UNL     1      14.574 -23.199 -44.814  1.00  0.00     0.137 C 
ATOM     12  C   UNL     1      15.747 -22.731 -45.455  1.00  0.00     0.107 C 
ATOM     13  C   UNL     1      14.594 -23.715 -43.567  1.00  0.00     0.130 C 
ATOM     14  N   UNL     1      16.697 -22.336 -45.991  1.00  0.00    -0.192 NA
ATOM     15  N   UNL     1      13.468 -24.198 -42.877  1.00  0.00    -0.339 N 
ATOM     16  N   UNL     1      15.728 -23.805 -42.737  1.00  0.00    -0.339 N 
ATOM     17  C   UNL     1      13.852 -24.319 -41.529  1.00  0.00     0.063 A 
ATOM     18  C   UNL     1      15.242 -24.081 -41.441  1.00  0.00     0.063 A 
ATOM     19  C   UNL     1      13.112 -24.688 -40.431  1.00  0.00     0.028 A 
ATOM     20  C   UNL     1      15.925 -24.211 -40.255  1.00  0.00     0.028 A 
ATOM     21  C   UNL     1      13.789 -24.798 -39.211  1.00  0.00     0.002 A 
ATOM     22  C   UNL     1      15.179 -24.563 -39.125  1.00  0.00     0.002 A 
ATOM     23  H   UNL     1      12.570 -23.777 -43.105  1.00  0.00     0.168 HD
ATOM     24  H   UNL     1      16.472 -23.125 -42.831  1.00  0.00     0.168 HD
ENDBRANCH   1  11
TORSDOF 3
ENDMDL
MODEL 9
REMARK VINA RESULT:    -6.430      2.346      8.082
REMARK INTER + INTRA:          -8.181
REMARK INTER:                  -7.727
REMARK INTRA:                  -0.454
REMARK UNBOUND:                -0.624
REMARK SMILES C[C@@H]1CN(CC(=O)C(C#N)=C2Nc3ccccc3N2)CCO1
REMARK SMILES IDX 6 1 7 2 5 3 4 4 2 5 3 6 22 7 21 8 20 9 1 10 8 11 9 12 11 13
REMARK SMILES IDX 10 14 12 15 19 16 13 17 18 18 14 19 17 20 15 21 16 22
REMARK H PARENT 12 23 19 24
ROOT
ATOM      1  C   UNL     1      15.494 -23.152 -43.830  1.00  0.00     0.191 C 
ATOM      2  O   UNL     1      15.947 -22.027 -43.602  1.00  0.00    -0.292 OA
ENDROOT
BRANCH   1   3
ATOM      3  C   UNL     1      16.276 -24.450 -43.587  1.00  0.00     0.166 C 
BRANCH   3   4
ATOM      4  N   UNL     1      16.622 -24.735 -42.184  1.00  0.00    -0.291 NA
ATOM      5  C   UNL     1      15.986 -24.722 -39.781  1.00  0.00     0.129 C 
ATOM      6  C   UNL     1      15.511 -24.520 -41.239  1.00  0.00     0.116 C 
ATOM      7  O   UNL     1      16.544 -26.035 -39.604  1.00  0.00    -0.376 OA
ATOM      8  C   UNL     1      17.647 -26.232 -40.500  1.00  0.00     0.176 C 
ATOM      9  C   UNL     1      17.215 -26.066 -41.966  1.00  0.00     0.113 C 
ATOM     10  C   UNL     1      14.825 -24.579 -38.806  1.00  0.00     0.040 C 
ENDBRANCH   3   4
ENDBRANCH   1   3
BRANCH   1  11
ATOM     11  C   UNL     1      14.099 -23.292 -44.347  1.00  0.00     0.137 C 
ATOM     12  C   UNL     1      13.096 -23.787 -43.477  1.00  0.00     0.107 C 
ATOM     13  C   UNL     1      13.842 -22.977 -45.634  1.00  0.00     0.130 C 
ATOM     14  N   UNL     1      12.286 -24.187 -42.750  1.00  0.00    -0.192 NA
ATOM     15  N   UNL     1      14.791 -22.484 -46.548  1.00  0.00    -0.339 N 
ATOM     16  N   UNL     1      12.579 -23.037 -46.254  1.00  0.00    -0.339 N 
ATOM     17  C   UNL     1      14.062 -21.974 -47.637  1.00  0.00     0.063 A 
ATOM     18  C   UNL     1      12.702 -22.317 -47.461  1.00  0.00     0.063 A 
ATOM     19  C   UNL     1      14.502 -21.328 -48.768  1.00  0.00     0.028 A 
ATOM     20  C   UNL     1      11.753 -22.024 -48.412  1.00  0.00     0.028 A 
ATOM     21  C   UNL     1      13.543 -21.000 -49.732  1.00  0.00     0.002 A 
ATOM     22  C   UNL     1      12.185 -21.345 -49.556  1.00  0.00     0.002 A 
ATOM     23  H   UNL     1      15.563 -21.943 -46.166  1.00  0.00     0.168 HD
ATOM     24  H   UNL     1      11.742 -22.900 -45.701  1.00  0.00     0.168 HD
ENDBRANCH   1  11
TORSDOF 3
ENDMDL
