REMARK SMILES CN1CCN(c2nc3c(c(NN)n2)CN(Cc2ccccc2)CC3)CC1
REMARK SMILES IDX 6 1 7 2 8 3 9 4 10 5 13 6 14 7 15 8 23 9 24 10 5 11 2 12
REMARK SMILES IDX 3 13 26 14 4 15 25 16 1 17 11 18 12 20 16 23 17 24 18 25
REMARK SMILES IDX 22 26 19 27 21 28 20 29
REMARK H PARENT 11 19 12 21 12 22
ROOT
ATOM      1  C   UNL     1      -0.477  -2.930  -0.602  1.00  0.00     0.227 A 
ATOM      2  N   UNL     1      -0.056  -1.719  -0.990  1.00  0.00    -0.217 NA
ATOM      3  C   UNL     1       0.346  -0.846  -0.043  1.00  0.00     0.054 A 
ATOM      4  C   UNL     1       0.345  -1.146   1.304  1.00  0.00     0.032 A 
ATOM      5  C   UNL     1      -0.060  -2.432   1.621  1.00  0.00     0.150 A 
ATOM      6  N   UNL     1      -0.481  -3.308   0.683  1.00  0.00    -0.194 NA
ATOM      7  C   UNL     1       0.817  -0.153   2.327  1.00  0.00     0.126 C 
ATOM      8  N   UNL     1       0.891   1.234   1.827  1.00  0.00    -0.294 NA
ATOM      9  C   UNL     1       1.586   1.267   0.531  1.00  0.00     0.091 C 
ATOM     10  C   UNL     1       0.760   0.519  -0.518  1.00  0.00     0.072 C 
ENDROOT
BRANCH   1  11
ATOM     11  N   UNL     1      -0.883  -3.833  -1.563  1.00  0.00    -0.338 N 
ATOM     12  N   UNL     1      -2.692  -5.417  -3.329  1.00  0.00    -0.303 NA
ATOM     13  C   UNL     1      -2.611  -3.940  -3.348  1.00  0.00     0.105 C 
ATOM     14  C   UNL     1      -1.781  -5.998  -2.317  1.00  0.00     0.105 C 
ATOM     15  C   UNL     1      -1.267  -3.329  -2.885  1.00  0.00     0.135 C 
ATOM     16  C   UNL     1      -1.512  -5.074  -1.108  1.00  0.00     0.135 C 
ATOM     17  C   UNL     1      -2.429  -5.992  -4.645  1.00  0.00     0.105 C 
ENDBRANCH   1  11
BRANCH   5  18
ATOM     18  N   UNL     1      -0.058  -2.856   2.985  1.00  0.00    -0.308 N 
ATOM     19  H   UNL     1       0.872  -2.700   3.378  1.00  0.00     0.183 HD
BRANCH  18  20
ATOM     20  N   UNL     1      -0.549  -4.171   3.229  1.00  0.00    -0.249 NA
ATOM     21  H   UNL     1      -1.568  -4.150   3.114  1.00  0.00     0.143 HD
ATOM     22  H   UNL     1      -0.250  -4.770   2.447  1.00  0.00     0.143 HD
ENDBRANCH  18  20
ENDBRANCH   5  18
BRANCH   8  23
ATOM     23  C   UNL     1       1.546   2.094   2.828  1.00  0.00     0.120 C 
BRANCH  23  24
ATOM     24  C   UNL     1       1.403   3.573   2.534  1.00  0.00    -0.034 A 
ATOM     25  C   UNL     1       2.535   4.398   2.455  1.00  0.00     0.005 A 
ATOM     26  C   UNL     1       0.134   4.147   2.362  1.00  0.00     0.005 A 
ATOM     27  C   UNL     1       2.399   5.764   2.200  1.00  0.00     0.000 A 
ATOM     28  C   UNL     1       0.001   5.512   2.106  1.00  0.00     0.000 A 
ATOM     29  C   UNL     1       1.133   6.320   2.025  1.00  0.00     0.000 A 
ENDBRANCH  23  24
ENDBRANCH   8  23
TORSDOF 5
