REMARK SMILES Cc1ccc(C)c(S(=O)(=O)NCCNC(=O)c2cc3c(C)cc(C)cc3[nH]2)c1
REMARK SMILES IDX 12 1 11 2 8 4 9 5 10 6 7 7 2 8 3 9 28 10 4 11 5 12 1 13 6 14
REMARK SMILES IDX 13 15 14 16 15 17 16 18 17 20 18 21 27 22 19 23 26 24 20 25
REMARK SMILES IDX 25 26 22 27 23 28 21 30 24 31
REMARK H PARENT 11 3 14 19 27 29
ROOT
ATOM      1  C   UNL     1       2.224  -0.689   2.762  1.00  0.00     0.120 C 
ENDROOT
BRANCH   1   2
ATOM      2  N   UNL     1       3.120  -0.539   1.599  1.00  0.00    -0.209 NA
ATOM      3  H   UNL     1       3.893  -1.197   1.500  1.00  0.00     0.141 HD
BRANCH   2   4
ATOM      4  S   UNL     1       3.553   1.012   1.116  1.00  0.00     0.240 S 
ATOM      5  O   UNL     1       3.575   1.850   2.294  1.00  0.00    -0.207 OA
ATOM      6  O   UNL     1       4.726   0.860   0.285  1.00  0.00    -0.207 OA
BRANCH   4   7
ATOM      7  C   UNL     1       2.175   1.468   0.080  1.00  0.00     0.085 A 
ATOM      8  C   UNL     1       0.164   2.821  -0.162  1.00  0.00    -0.050 A 
ATOM      9  C   UNL     1      -0.012   2.294  -1.443  1.00  0.00     0.004 A 
ATOM     10  C   UNL     1       1.259   2.399   0.598  1.00  0.00     0.025 A 
ATOM     11  C   UNL     1       0.898   1.371  -1.964  1.00  0.00     0.005 A 
ATOM     12  C   UNL     1       2.001   0.935  -1.212  1.00  0.00    -0.031 A 
ATOM     13  C   UNL     1      -0.839   3.775   0.416  1.00  0.00     0.044 C 
ATOM     14  C   UNL     1       2.947  -0.046  -1.844  1.00  0.00     0.046 C 
ENDBRANCH   4   7
ENDBRANCH   2   4
ENDBRANCH   1   2
BRANCH   1  15
ATOM     15  C   UNL     1       1.327  -1.914   2.546  1.00  0.00     0.132 C 
BRANCH  15  16
ATOM     16  N   UNL     1       0.419  -1.727   1.424  1.00  0.00    -0.349 N 
ATOM     17  C   UNL     1      -0.760  -1.028   1.603  1.00  0.00     0.267 C 
ATOM     18  O   UNL     1      -1.119  -0.640   2.711  1.00  0.00    -0.268 OA
ATOM     19  H   UNL     1       0.853  -1.670   0.515  1.00  0.00     0.163 HD
BRANCH  17  20
ATOM     20  C   UNL     1      -1.506  -0.768   0.393  1.00  0.00     0.105 A 
ATOM     21  C   UNL     1      -2.543   0.131   0.216  1.00  0.00     0.042 A 
ATOM     22  N   UNL     1      -1.342  -1.401  -0.817  1.00  0.00    -0.351 N 
ATOM     23  C   UNL     1      -2.966   0.091  -1.143  1.00  0.00     0.003 A 
ATOM     24  C   UNL     1      -2.191  -0.883  -1.768  1.00  0.00     0.046 A 
ATOM     25  C   UNL     1      -3.930   0.799  -1.898  1.00  0.00    -0.041 A 
ATOM     26  C   UNL     1      -2.323  -1.210  -3.122  1.00  0.00     0.030 A 
ATOM     27  C   UNL     1      -4.060   0.474  -3.265  1.00  0.00     0.007 A 
ATOM     28  C   UNL     1      -3.285  -0.521  -3.871  1.00  0.00    -0.049 A 
ATOM     29  H   UNL     1      -0.693  -2.154  -0.990  1.00  0.00     0.167 HD
ATOM     30  C   UNL     1      -4.807   1.879  -1.329  1.00  0.00     0.045 C 
ATOM     31  C   UNL     1      -3.443  -0.808  -5.337  1.00  0.00     0.044 C 
ENDBRANCH  17  20
ENDBRANCH  15  16
ENDBRANCH   1  15
TORSDOF 6
