MODEL 1
REMARK VINA RESULT:    -9.604      0.000      0.000
REMARK INTER + INTRA:         -14.959
REMARK INTER:                 -14.096
REMARK INTRA:                  -0.863
REMARK UNBOUND:                -0.863
REMARK SMILES Cc1ccc(C)c(NC(=O)[C@H](C)OC(=O)CNS(=O)(=O)c2ccc3c(c2)nnn3[O-])c1
REMARK SMILES IDX 14 1 15 2 13 3 11 4 12 5 9 6 8 7 10 8 7 10 2 11 3 12 31 13
REMARK SMILES IDX 4 14 5 15 1 16 6 17 16 18 17 19 18 21 19 22 20 23 21 24
REMARK SMILES IDX 22 25 26 26 23 27 25 28 24 29 27 30 29 31 28 32 30 33
REMARK H PARENT 8 9 17 20
ROOT
ATOM      1  C   UNL     1      12.429 -21.034 -49.972  1.00  0.00     0.321 C 
ATOM      2  O   UNL     1      11.215 -20.958 -50.141  1.00  0.00    -0.251 OA
ENDROOT
BRANCH   1   3
ATOM      3  O   UNL     1      13.088 -21.977 -49.259  1.00  0.00    -0.452 OA
BRANCH   3   4
ATOM      4  C   UNL     1      12.294 -22.877 -48.465  1.00  0.00     0.262 C 
ATOM      5  C   UNL     1      12.244 -24.315 -48.944  1.00  0.00     0.064 C 
BRANCH   4   6
ATOM      6  C   UNL     1      12.714 -22.716 -46.996  1.00  0.00     0.265 C 
ATOM      7  N   UNL     1      13.523 -23.693 -46.437  1.00  0.00    -0.323 N 
ATOM      8  O   UNL     1      12.327 -21.698 -46.401  1.00  0.00    -0.270 OA
ATOM      9  H   UNL     1      13.619 -24.613 -46.946  1.00  0.00     0.170 HD
BRANCH   7  10
ATOM     10  C   UNL     1      14.186 -23.563 -45.180  1.00  0.00     0.044 A 
ATOM     11  C   UNL     1      14.177 -23.865 -42.732  1.00  0.00    -0.049 A 
ATOM     12  C   UNL     1      15.410 -23.224 -42.646  1.00  0.00     0.004 A 
ATOM     13  C   UNL     1      13.574 -24.010 -43.993  1.00  0.00     0.029 A 
ATOM     14  C   UNL     1      16.036 -22.771 -43.806  1.00  0.00     0.006 A 
ATOM     15  C   UNL     1      15.446 -22.947 -45.075  1.00  0.00    -0.027 A 
ATOM     16  C   UNL     1      13.463 -24.325 -41.499  1.00  0.00     0.044 C 
ATOM     17  C   UNL     1      16.218 -22.458 -46.269  1.00  0.00     0.046 C 
ENDBRANCH   7  10
ENDBRANCH   4   6
ENDBRANCH   3   4
ENDBRANCH   1   3
BRANCH   1  18
ATOM     18  C   UNL     1      13.386 -19.969 -50.478  1.00  0.00     0.221 C 
BRANCH  18  19
ATOM     19  N   UNL     1      14.308 -20.507 -51.510  1.00  0.00    -0.200 NA
ATOM     20  H   UNL     1      15.294 -20.436 -51.241  1.00  0.00     0.142 HD
BRANCH  19  21
ATOM     21  S   UNL     1      14.062 -20.028 -53.112  1.00  0.00     0.241 S 
ATOM     22  O   UNL     1      12.932 -19.124 -53.135  1.00  0.00    -0.207 OA
ATOM     23  O   UNL     1      14.050 -21.249 -53.892  1.00  0.00    -0.207 OA
BRANCH  21  24
ATOM     24  C   UNL     1      15.538 -19.134 -53.478  1.00  0.00     0.084 A 
ATOM     25  C   UNL     1      16.649 -19.824 -54.012  1.00  0.00     0.024 A 
ATOM     26  C   UNL     1      15.591 -17.792 -53.080  1.00  0.00     0.054 A 
ATOM     27  C   UNL     1      17.899 -19.202 -54.080  1.00  0.00     0.031 A 
ATOM     28  C   UNL     1      16.859 -17.220 -53.027  1.00  0.00     0.114 A 
ATOM     29  C   UNL     1      17.962 -17.926 -53.535  1.00  0.00     0.084 A 
ATOM     30  N   UNL     1      17.284 -16.046 -52.443  1.00  0.00    -0.131 NA
ATOM     31  N   UNL     1      19.126 -17.125 -53.297  1.00  0.00    -0.273 N 
ATOM     32  N   UNL     1      18.682 -15.979 -52.514  1.00  0.00    -0.071 NA
ATOM     33  O   UNL     1      20.484 -17.523 -53.470  1.00  0.00    -0.789 OA
ENDBRANCH  21  24
ENDBRANCH  19  21
ENDBRANCH  18  19
ENDBRANCH   1  18
TORSDOF 8
ENDMDL
MODEL 2
REMARK VINA RESULT:    -8.830      1.564      2.085
REMARK INTER + INTRA:         -13.823
REMARK INTER:                 -13.141
REMARK INTRA:                  -0.682
REMARK UNBOUND:                -0.863
REMARK SMILES Cc1ccc(C)c(NC(=O)[C@H](C)OC(=O)CNS(=O)(=O)c2ccc3c(c2)nnn3[O-])c1
REMARK SMILES IDX 14 1 15 2 13 3 11 4 12 5 9 6 8 7 10 8 7 10 2 11 3 12 31 13
REMARK SMILES IDX 4 14 5 15 1 16 6 17 16 18 17 19 18 21 19 22 20 23 21 24
REMARK SMILES IDX 22 25 26 26 23 27 25 28 24 29 27 30 29 31 28 32 30 33
REMARK H PARENT 8 9 17 20
ROOT
ATOM      1  C   UNL     1      13.410 -20.765 -49.220  1.00  0.00     0.321 C 
ATOM      2  O   UNL     1      14.534 -21.216 -49.010  1.00  0.00    -0.251 OA
ENDROOT
BRANCH   1   3
ATOM      3  O   UNL     1      12.357 -20.792 -48.370  1.00  0.00    -0.452 OA
BRANCH   3   4
ATOM      4  C   UNL     1      11.828 -22.083 -48.017  1.00  0.00     0.262 C 
ATOM      5  C   UNL     1      11.543 -23.021 -49.174  1.00  0.00     0.064 C 
BRANCH   4   6
ATOM      6  C   UNL     1      12.726 -22.684 -46.924  1.00  0.00     0.265 C 
ATOM      7  N   UNL     1      13.857 -23.382 -47.319  1.00  0.00    -0.323 N 
ATOM      8  O   UNL     1      12.400 -22.482 -45.743  1.00  0.00    -0.270 OA
ATOM      9  H   UNL     1      13.932 -23.681 -48.328  1.00  0.00     0.170 HD
BRANCH   7  10
ATOM     10  C   UNL     1      14.902 -23.783 -46.433  1.00  0.00     0.044 A 
ATOM     11  C   UNL     1      16.981 -23.247 -45.218  1.00  0.00    -0.049 A 
ATOM     12  C   UNL     1      17.060 -24.562 -44.769  1.00  0.00     0.004 A 
ATOM     13  C   UNL     1      15.914 -22.879 -46.056  1.00  0.00     0.029 A 
ATOM     14  C   UNL     1      16.071 -25.476 -45.128  1.00  0.00     0.006 A 
ATOM     15  C   UNL     1      14.983 -25.099 -45.942  1.00  0.00    -0.027 A 
ATOM     16  C   UNL     1      18.050 -22.254 -44.882  1.00  0.00     0.044 C 
ATOM     17  C   UNL     1      13.949 -26.147 -46.242  1.00  0.00     0.046 C 
ENDBRANCH   7  10
ENDBRANCH   4   6
ENDBRANCH   3   4
ENDBRANCH   1   3
BRANCH   1  18
ATOM     18  C   UNL     1      13.008 -20.186 -50.564  1.00  0.00     0.221 C 
BRANCH  18  19
ATOM     19  N   UNL     1      14.194 -19.867 -51.400  1.00  0.00    -0.200 NA
ATOM     20  H   UNL     1      14.729 -19.070 -51.046  1.00  0.00     0.142 HD
BRANCH  19  21
ATOM     21  S   UNL     1      13.975 -19.780 -53.074  1.00  0.00     0.241 S 
ATOM     22  O   UNL     1      12.819 -18.947 -53.326  1.00  0.00    -0.207 OA
ATOM     23  O   UNL     1      14.020 -21.148 -53.550  1.00  0.00    -0.207 OA
BRANCH  21  24
ATOM     24  C   UNL     1      15.433 -18.943 -53.610  1.00  0.00     0.084 A 
ATOM     25  C   UNL     1      16.612 -19.686 -53.836  1.00  0.00     0.024 A 
ATOM     26  C   UNL     1      15.392 -17.544 -53.645  1.00  0.00     0.054 A 
ATOM     27  C   UNL     1      17.834 -19.032 -54.018  1.00  0.00     0.031 A 
ATOM     28  C   UNL     1      16.624 -16.897 -53.696  1.00  0.00     0.114 A 
ATOM     29  C   UNL     1      17.795 -17.649 -53.893  1.00  0.00     0.084 A 
ATOM     30  N   UNL     1      16.948 -15.576 -53.481  1.00  0.00    -0.131 NA
ATOM     31  N   UNL     1      18.899 -16.737 -53.845  1.00  0.00    -0.273 N 
ATOM     32  N   UNL     1      18.343 -15.439 -53.484  1.00  0.00    -0.071 NA
ATOM     33  O   UNL     1      20.283 -17.075 -53.805  1.00  0.00    -0.789 OA
ENDBRANCH  21  24
ENDBRANCH  19  21
ENDBRANCH  18  19
ENDBRANCH   1  18
TORSDOF 8
ENDMDL
MODEL 3
REMARK VINA RESULT:    -8.142      5.000     10.124
REMARK INTER + INTRA:         -12.813
REMARK INTER:                 -11.984
REMARK INTRA:                  -0.829
REMARK UNBOUND:                -0.863
REMARK SMILES Cc1ccc(C)c(NC(=O)[C@H](C)OC(=O)CNS(=O)(=O)c2ccc3c(c2)nnn3[O-])c1
REMARK SMILES IDX 14 1 15 2 13 3 11 4 12 5 9 6 8 7 10 8 7 10 2 11 3 12 31 13
REMARK SMILES IDX 4 14 5 15 1 16 6 17 16 18 17 19 18 21 19 22 20 23 21 24
REMARK SMILES IDX 22 25 26 26 23 27 25 28 24 29 27 30 29 31 28 32 30 33
REMARK H PARENT 8 9 17 20
ROOT
ATOM      1  C   UNL     1      13.314 -21.345 -47.623  1.00  0.00     0.321 C 
ATOM      2  O   UNL     1      12.666 -20.377 -47.234  1.00  0.00    -0.251 OA
ENDROOT
BRANCH   1   3
ATOM      3  O   UNL     1      13.206 -21.960 -48.824  1.00  0.00    -0.452 OA
BRANCH   3   4
ATOM      4  C   UNL     1      12.360 -21.338 -49.809  1.00  0.00     0.262 C 
ATOM      5  C   UNL     1      13.072 -20.699 -50.986  1.00  0.00     0.064 C 
BRANCH   4   6
ATOM      6  C   UNL     1      11.267 -22.344 -50.203  1.00  0.00     0.265 C 
ATOM      7  N   UNL     1      10.326 -22.694 -49.246  1.00  0.00    -0.323 N 
ATOM      8  O   UNL     1      11.273 -22.763 -51.371  1.00  0.00    -0.270 OA
ATOM      9  H   UNL     1      10.528 -22.457 -48.237  1.00  0.00     0.170 HD
BRANCH   7  10
ATOM     10  C   UNL     1       9.128 -23.416 -49.527  1.00  0.00     0.044 A 
ATOM     11  C   UNL     1       7.099 -23.715 -50.898  1.00  0.00    -0.049 A 
ATOM     12  C   UNL     1       6.681 -24.744 -50.058  1.00  0.00     0.004 A 
ATOM     13  C   UNL     1       8.306 -23.054 -50.612  1.00  0.00     0.029 A 
ATOM     14  C   UNL     1       7.476 -25.120 -48.977  1.00  0.00     0.006 A 
ATOM     15  C   UNL     1       8.703 -24.479 -48.710  1.00  0.00    -0.027 A 
ATOM     16  C   UNL     1       6.246 -23.263 -52.042  1.00  0.00     0.044 C 
ATOM     17  C   UNL     1       9.506 -24.983 -47.543  1.00  0.00     0.046 C 
ENDBRANCH   7  10
ENDBRANCH   4   6
ENDBRANCH   3   4
ENDBRANCH   1   3
BRANCH   1  18
ATOM     18  C   UNL     1      14.293 -22.078 -46.724  1.00  0.00     0.221 C 
BRANCH  18  19
ATOM     19  N   UNL     1      13.736 -22.287 -45.363  1.00  0.00    -0.200 NA
ATOM     20  H   UNL     1      14.408 -22.076 -44.620  1.00  0.00     0.142 HD
BRANCH  19  21
ATOM     21  S   UNL     1      12.907 -23.730 -45.064  1.00  0.00     0.241 S 
ATOM     22  O   UNL     1      13.320 -24.691 -46.064  1.00  0.00    -0.207 OA
ATOM     23  O   UNL     1      11.512 -23.362 -44.922  1.00  0.00    -0.207 OA
BRANCH  21  24
ATOM     24  C   UNL     1      13.531 -24.214 -43.488  1.00  0.00     0.084 A 
ATOM     25  C   UNL     1      12.627 -24.609 -42.478  1.00  0.00     0.024 A 
ATOM     26  C   UNL     1      14.903 -24.041 -43.260  1.00  0.00     0.054 A 
ATOM     27  C   UNL     1      13.064 -24.759 -41.159  1.00  0.00     0.031 A 
ATOM     28  C   UNL     1      15.310 -24.063 -41.929  1.00  0.00     0.114 A 
ATOM     29  C   UNL     1      14.394 -24.430 -40.929  1.00  0.00     0.084 A 
ATOM     30  N   UNL     1      16.499 -23.674 -41.354  1.00  0.00    -0.131 NA
ATOM     31  N   UNL     1      15.067 -24.308 -39.670  1.00  0.00    -0.273 N 
ATOM     32  N   UNL     1      16.374 -23.732 -39.959  1.00  0.00    -0.071 NA
ATOM     33  O   UNL     1      14.476 -24.392 -38.376  1.00  0.00    -0.789 OA
ENDBRANCH  21  24
ENDBRANCH  19  21
ENDBRANCH  18  19
ENDBRANCH   1  18
TORSDOF 8
ENDMDL
MODEL 4
REMARK VINA RESULT:    -8.056      5.601      8.746
REMARK INTER + INTRA:         -12.687
REMARK INTER:                 -11.578
REMARK INTRA:                  -1.109
REMARK UNBOUND:                -0.863
REMARK SMILES Cc1ccc(C)c(NC(=O)[C@H](C)OC(=O)CNS(=O)(=O)c2ccc3c(c2)nnn3[O-])c1
REMARK SMILES IDX 14 1 15 2 13 3 11 4 12 5 9 6 8 7 10 8 7 10 2 11 3 12 31 13
REMARK SMILES IDX 4 14 5 15 1 16 6 17 16 18 17 19 18 21 19 22 20 23 21 24
REMARK SMILES IDX 22 25 26 26 23 27 25 28 24 29 27 30 29 31 28 32 30 33
REMARK H PARENT 8 9 17 20
ROOT
ATOM      1  C   UNL     1      11.832 -22.238 -49.476  1.00  0.00     0.321 C 
ATOM      2  O   UNL     1      11.861 -21.023 -49.299  1.00  0.00    -0.251 OA
ENDROOT
BRANCH   1   3
ATOM      3  O   UNL     1      12.634 -23.159 -48.891  1.00  0.00    -0.452 OA
BRANCH   3   4
ATOM      4  C   UNL     1      12.038 -24.018 -47.903  1.00  0.00     0.262 C 
ATOM      5  C   UNL     1      12.098 -25.506 -48.194  1.00  0.00     0.064 C 
BRANCH   4   6
ATOM      6  C   UNL     1      12.595 -23.622 -46.527  1.00  0.00     0.265 C 
ATOM      7  N   UNL     1      13.752 -24.246 -46.086  1.00  0.00    -0.323 N 
ATOM      8  O   UNL     1      11.991 -22.737 -45.900  1.00  0.00    -0.270 OA
ATOM      9  H   UNL     1      14.066 -25.124 -46.582  1.00  0.00     0.170 HD
BRANCH   7  10
ATOM     10  C   UNL     1      14.515 -23.818 -44.958  1.00  0.00     0.044 A 
ATOM     11  C   UNL     1      14.901 -23.838 -42.522  1.00  0.00    -0.049 A 
ATOM     12  C   UNL     1      15.926 -22.909 -42.675  1.00  0.00     0.004 A 
ATOM     13  C   UNL     1      14.198 -24.267 -43.662  1.00  0.00     0.029 A 
ATOM     14  C   UNL     1      16.258 -22.449 -43.948  1.00  0.00     0.006 A 
ATOM     15  C   UNL     1      15.575 -22.904 -45.095  1.00  0.00    -0.027 A 
ATOM     16  C   UNL     1      14.496 -24.319 -41.164  1.00  0.00     0.044 C 
ATOM     17  C   UNL     1      16.033 -22.377 -46.426  1.00  0.00     0.046 C 
ENDBRANCH   7  10
ENDBRANCH   4   6
ENDBRANCH   3   4
ENDBRANCH   1   3
BRANCH   1  18
ATOM     18  C   UNL     1      10.919 -22.886 -50.501  1.00  0.00     0.221 C 
BRANCH  18  19
ATOM     19  N   UNL     1       9.488 -22.619 -50.206  1.00  0.00    -0.200 NA
ATOM     20  H   UNL     1       9.340 -21.736 -49.710  1.00  0.00     0.142 HD
BRANCH  19  21
ATOM     21  S   UNL     1       8.575 -23.873 -49.533  1.00  0.00     0.241 S 
ATOM     22  O   UNL     1       8.528 -23.666 -48.102  1.00  0.00    -0.207 OA
ATOM     23  O   UNL     1       9.119 -25.098 -50.087  1.00  0.00    -0.207 OA
BRANCH  21  24
ATOM     24  C   UNL     1       6.975 -23.599 -50.221  1.00  0.00     0.084 A 
ATOM     25  C   UNL     1       6.846 -22.780 -51.364  1.00  0.00     0.024 A 
ATOM     26  C   UNL     1       5.876 -24.093 -49.507  1.00  0.00     0.054 A 
ATOM     27  C   UNL     1       5.585 -22.346 -51.782  1.00  0.00     0.031 A 
ATOM     28  C   UNL     1       4.636 -23.557 -49.844  1.00  0.00     0.114 A 
ATOM     29  C   UNL     1       4.524 -22.720 -50.967  1.00  0.00     0.084 A 
ATOM     30  N   UNL     1       3.429 -23.619 -49.185  1.00  0.00    -0.131 NA
ATOM     31  N   UNL     1       3.162 -22.279 -51.034  1.00  0.00    -0.273 N 
ATOM     32  N   UNL     1       2.508 -22.785 -49.834  1.00  0.00    -0.071 NA
ATOM     33  O   UNL     1       2.634 -21.270 -51.891  1.00  0.00    -0.789 OA
ENDBRANCH  21  24
ENDBRANCH  19  21
ENDBRANCH  18  19
ENDBRANCH   1  18
TORSDOF 8
ENDMDL
MODEL 5
REMARK VINA RESULT:    -8.022      4.977      7.832
REMARK INTER + INTRA:         -12.636
REMARK INTER:                 -11.559
REMARK INTRA:                  -1.078
REMARK UNBOUND:                -0.863
REMARK SMILES Cc1ccc(C)c(NC(=O)[C@H](C)OC(=O)CNS(=O)(=O)c2ccc3c(c2)nnn3[O-])c1
REMARK SMILES IDX 14 1 15 2 13 3 11 4 12 5 9 6 8 7 10 8 7 10 2 11 3 12 31 13
REMARK SMILES IDX 4 14 5 15 1 16 6 17 16 18 17 19 18 21 19 22 20 23 21 24
REMARK SMILES IDX 22 25 26 26 23 27 25 28 24 29 27 30 29 31 28 32 30 33
REMARK H PARENT 8 9 17 20
ROOT
ATOM      1  C   UNL     1      12.554 -21.421 -48.428  1.00  0.00     0.321 C 
ATOM      2  O   UNL     1      12.549 -20.387 -47.764  1.00  0.00    -0.251 OA
ENDROOT
BRANCH   1   3
ATOM      3  O   UNL     1      12.924 -22.652 -48.003  1.00  0.00    -0.452 OA
BRANCH   3   4
ATOM      4  C   UNL     1      12.298 -23.151 -46.807  1.00  0.00     0.262 C 
ATOM      5  C   UNL     1      11.207 -24.185 -47.011  1.00  0.00     0.064 C 
BRANCH   4   6
ATOM      6  C   UNL     1      13.406 -23.586 -45.835  1.00  0.00     0.265 C 
ATOM      7  N   UNL     1      13.685 -22.765 -44.753  1.00  0.00    -0.323 N 
ATOM      8  O   UNL     1      13.968 -24.669 -46.060  1.00  0.00    -0.270 OA
ATOM      9  H   UNL     1      13.313 -21.777 -44.767  1.00  0.00     0.170 HD
BRANCH   7  10
ATOM     10  C   UNL     1      14.504 -23.145 -43.648  1.00  0.00     0.044 A 
ATOM     11  C   UNL     1      14.733 -24.251 -41.455  1.00  0.00    -0.049 A 
ATOM     12  C   UNL     1      16.057 -23.828 -41.378  1.00  0.00     0.004 A 
ATOM     13  C   UNL     1      13.970 -23.890 -42.579  1.00  0.00     0.029 A 
ATOM     14  C   UNL     1      16.609 -23.088 -42.422  1.00  0.00     0.006 A 
ATOM     15  C   UNL     1      15.853 -22.755 -43.565  1.00  0.00    -0.027 A 
ATOM     16  C   UNL     1      14.103 -25.011 -40.330  1.00  0.00     0.044 C 
ATOM     17  C   UNL     1      16.549 -21.987 -44.654  1.00  0.00     0.046 C 
ENDBRANCH   7  10
ENDBRANCH   4   6
ENDBRANCH   3   4
ENDBRANCH   1   3
BRANCH   1  18
ATOM     18  C   UNL     1      12.231 -21.433 -49.911  1.00  0.00     0.221 C 
BRANCH  18  19
ATOM     19  N   UNL     1      10.868 -21.962 -50.171  1.00  0.00    -0.200 NA
ATOM     20  H   UNL     1      10.280 -21.978 -49.333  1.00  0.00     0.142 HD
BRANCH  19  21
ATOM     21  S   UNL     1      10.736 -23.398 -51.054  1.00  0.00     0.241 S 
ATOM     22  O   UNL     1      11.395 -24.442 -50.300  1.00  0.00    -0.207 OA
ATOM     23  O   UNL     1      11.163 -23.073 -52.400  1.00  0.00    -0.207 OA
BRANCH  21  24
ATOM     24  C   UNL     1       8.996 -23.686 -51.063  1.00  0.00     0.084 A 
ATOM     25  C   UNL     1       8.255 -23.406 -52.232  1.00  0.00     0.024 A 
ATOM     26  C   UNL     1       8.399 -24.044 -49.847  1.00  0.00     0.054 A 
ATOM     27  C   UNL     1       6.859 -23.388 -52.195  1.00  0.00     0.031 A 
ATOM     28  C   UNL     1       7.016 -23.899 -49.779  1.00  0.00     0.114 A 
ATOM     29  C   UNL     1       6.291 -23.593 -50.943  1.00  0.00     0.084 A 
ATOM     30  N   UNL     1       6.171 -23.906 -48.691  1.00  0.00    -0.131 NA
ATOM     31  N   UNL     1       4.918 -23.450 -50.563  1.00  0.00    -0.273 N 
ATOM     32  N   UNL     1       4.880 -23.557 -49.111  1.00  0.00    -0.071 NA
ATOM     33  O   UNL     1       3.856 -22.956 -51.376  1.00  0.00    -0.789 OA
ENDBRANCH  21  24
ENDBRANCH  19  21
ENDBRANCH  18  19
ENDBRANCH   1  18
TORSDOF 8
ENDMDL
MODEL 6
REMARK VINA RESULT:    -7.940      4.487      6.871
REMARK INTER + INTRA:         -12.517
REMARK INTER:                 -11.216
REMARK INTRA:                  -1.301
REMARK UNBOUND:                -0.863
REMARK SMILES Cc1ccc(C)c(NC(=O)[C@H](C)OC(=O)CNS(=O)(=O)c2ccc3c(c2)nnn3[O-])c1
REMARK SMILES IDX 14 1 15 2 13 3 11 4 12 5 9 6 8 7 10 8 7 10 2 11 3 12 31 13
REMARK SMILES IDX 4 14 5 15 1 16 6 17 16 18 17 19 18 21 19 22 20 23 21 24
REMARK SMILES IDX 22 25 26 26 23 27 25 28 24 29 27 30 29 31 28 32 30 33
REMARK H PARENT 8 9 17 20
ROOT
ATOM      1  C   UNL     1      16.395 -24.465 -45.774  1.00  0.00     0.321 C 
ATOM      2  O   UNL     1      16.815 -25.619 -45.824  1.00  0.00    -0.251 OA
ENDROOT
BRANCH   1   3
ATOM      3  O   UNL     1      16.961 -23.427 -45.113  1.00  0.00    -0.452 OA
BRANCH   3   4
ATOM      4  C   UNL     1      17.936 -23.743 -44.103  1.00  0.00     0.262 C 
ATOM      5  C   UNL     1      18.946 -22.654 -43.793  1.00  0.00     0.064 C 
BRANCH   4   6
ATOM      6  C   UNL     1      17.190 -24.281 -42.872  1.00  0.00     0.265 C 
ATOM      7  N   UNL     1      15.860 -23.925 -42.706  1.00  0.00    -0.323 N 
ATOM      8  O   UNL     1      17.818 -25.032 -42.108  1.00  0.00    -0.270 OA
ATOM      9  H   UNL     1      15.483 -23.122 -43.279  1.00  0.00     0.170 HD
BRANCH   7  10
ATOM     10  C   UNL     1      14.980 -24.531 -41.761  1.00  0.00     0.044 A 
ATOM     11  C   UNL     1      13.931 -24.529 -39.528  1.00  0.00    -0.049 A 
ATOM     12  C   UNL     1      13.330 -25.753 -39.807  1.00  0.00     0.004 A 
ATOM     13  C   UNL     1      14.760 -23.943 -40.500  1.00  0.00     0.029 A 
ATOM     14  C   UNL     1      13.532 -26.356 -41.047  1.00  0.00     0.006 A 
ATOM     15  C   UNL     1      14.337 -25.752 -42.035  1.00  0.00    -0.027 A 
ATOM     16  C   UNL     1      13.765 -23.879 -38.190  1.00  0.00     0.044 C 
ATOM     17  C   UNL     1      14.462 -26.462 -43.354  1.00  0.00     0.046 C 
ENDBRANCH   7  10
ENDBRANCH   4   6
ENDBRANCH   3   4
ENDBRANCH   1   3
BRANCH   1  18
ATOM     18  C   UNL     1      15.069 -24.058 -46.390  1.00  0.00     0.221 C 
BRANCH  18  19
ATOM     19  N   UNL     1      14.113 -23.576 -45.360  1.00  0.00    -0.200 NA
ATOM     20  H   UNL     1      14.362 -23.873 -44.413  1.00  0.00     0.142 HD
BRANCH  19  21
ATOM     21  S   UNL     1      12.462 -23.777 -45.664  1.00  0.00     0.241 S 
ATOM     22  O   UNL     1      11.734 -23.134 -44.591  1.00  0.00    -0.207 OA
ATOM     23  O   UNL     1      12.281 -25.188 -45.941  1.00  0.00    -0.207 OA
BRANCH  21  24
ATOM     24  C   UNL     1      12.231 -22.871 -47.159  1.00  0.00     0.084 A 
ATOM     25  C   UNL     1      11.896 -23.563 -48.343  1.00  0.00     0.024 A 
ATOM     26  C   UNL     1      12.540 -21.504 -47.135  1.00  0.00     0.054 A 
ATOM     27  C   UNL     1      11.949 -22.914 -49.579  1.00  0.00     0.031 A 
ATOM     28  C   UNL     1      12.719 -20.895 -48.374  1.00  0.00     0.114 A 
ATOM     29  C   UNL     1      12.408 -21.604 -49.547  1.00  0.00     0.084 A 
ATOM     30  N   UNL     1      13.271 -19.675 -48.697  1.00  0.00    -0.131 NA
ATOM     31  N   UNL     1      12.741 -20.758 -50.654  1.00  0.00    -0.273 N 
ATOM     32  N   UNL     1      13.379 -19.576 -50.090  1.00  0.00    -0.071 NA
ATOM     33  O   UNL     1      12.775 -21.130 -52.030  1.00  0.00    -0.789 OA
ENDBRANCH  21  24
ENDBRANCH  19  21
ENDBRANCH  18  19
ENDBRANCH   1  18
TORSDOF 8
ENDMDL
MODEL 7
REMARK VINA RESULT:    -7.835      5.079     10.437
REMARK INTER + INTRA:         -12.362
REMARK INTER:                 -11.385
REMARK INTRA:                  -0.976
REMARK UNBOUND:                -0.863
REMARK SMILES Cc1ccc(C)c(NC(=O)[C@H](C)OC(=O)CNS(=O)(=O)c2ccc3c(c2)nnn3[O-])c1
REMARK SMILES IDX 14 1 15 2 13 3 11 4 12 5 9 6 8 7 10 8 7 10 2 11 3 12 31 13
REMARK SMILES IDX 4 14 5 15 1 16 6 17 16 18 17 19 18 21 19 22 20 23 21 24
REMARK SMILES IDX 22 25 26 26 23 27 25 28 24 29 27 30 29 31 28 32 30 33
REMARK H PARENT 8 9 17 20
ROOT
ATOM      1  C   UNL     1      14.263 -22.351 -47.637  1.00  0.00     0.321 C 
ATOM      2  O   UNL     1      15.492 -22.336 -47.633  1.00  0.00    -0.251 OA
ENDROOT
BRANCH   1   3
ATOM      3  O   UNL     1      13.462 -22.628 -48.691  1.00  0.00    -0.452 OA
BRANCH   3   4
ATOM      4  C   UNL     1      12.500 -21.626 -49.069  1.00  0.00     0.262 C 
ATOM      5  C   UNL     1      12.916 -20.698 -50.194  1.00  0.00     0.064 C 
BRANCH   4   6
ATOM      6  C   UNL     1      11.148 -22.322 -49.292  1.00  0.00     0.265 C 
ATOM      7  N   UNL     1      10.611 -22.310 -50.570  1.00  0.00    -0.323 N 
ATOM      8  O   UNL     1      10.628 -22.884 -48.315  1.00  0.00    -0.270 OA
ATOM      9  H   UNL     1      11.012 -21.633 -51.274  1.00  0.00     0.170 HD
BRANCH   7  10
ATOM     10  C   UNL     1       9.502 -23.109 -50.981  1.00  0.00     0.044 A 
ATOM     11  C   UNL     1       7.070 -23.365 -51.300  1.00  0.00    -0.049 A 
ATOM     12  C   UNL     1       7.257 -24.691 -51.679  1.00  0.00     0.004 A 
ATOM     13  C   UNL     1       8.191 -22.597 -50.940  1.00  0.00     0.029 A 
ATOM     14  C   UNL     1       8.544 -25.222 -51.727  1.00  0.00     0.006 A 
ATOM     15  C   UNL     1       9.672 -24.442 -51.398  1.00  0.00    -0.027 A 
ATOM     16  C   UNL     1       5.695 -22.781 -51.200  1.00  0.00     0.044 C 
ATOM     17  C   UNL     1      11.021 -25.093 -51.518  1.00  0.00     0.046 C 
ENDBRANCH   7  10
ENDBRANCH   4   6
ENDBRANCH   3   4
ENDBRANCH   1   3
BRANCH   1  18
ATOM     18  C   UNL     1      13.445 -21.937 -46.427  1.00  0.00     0.221 C 
BRANCH  18  19
ATOM     19  N   UNL     1      13.829 -22.708 -45.216  1.00  0.00    -0.200 NA
ATOM     20  H   UNL     1      14.821 -22.960 -45.202  1.00  0.00     0.142 HD
BRANCH  19  21
ATOM     21  S   UNL     1      12.847 -24.009 -44.767  1.00  0.00     0.241 S 
ATOM     22  O   UNL     1      13.051 -25.069 -45.730  1.00  0.00    -0.207 OA
ATOM     23  O   UNL     1      11.528 -23.451 -44.548  1.00  0.00    -0.207 OA
BRANCH  21  24
ATOM     24  C   UNL     1      13.528 -24.487 -43.212  1.00  0.00     0.084 A 
ATOM     25  C   UNL     1      12.674 -25.003 -42.213  1.00  0.00     0.024 A 
ATOM     26  C   UNL     1      14.878 -24.190 -42.984  1.00  0.00     0.054 A 
ATOM     27  C   UNL     1      13.133 -25.156 -40.902  1.00  0.00     0.031 A 
ATOM     28  C   UNL     1      15.295 -24.219 -41.656  1.00  0.00     0.114 A 
ATOM     29  C   UNL     1      14.427 -24.709 -40.666  1.00  0.00     0.084 A 
ATOM     30  N   UNL     1      16.446 -23.738 -41.072  1.00  0.00    -0.131 NA
ATOM     31  N   UNL     1      15.095 -24.567 -39.407  1.00  0.00    -0.273 N 
ATOM     32  N   UNL     1      16.338 -23.857 -39.680  1.00  0.00    -0.071 NA
ATOM     33  O   UNL     1      14.525 -24.754 -38.114  1.00  0.00    -0.789 OA
ENDBRANCH  21  24
ENDBRANCH  19  21
ENDBRANCH  18  19
ENDBRANCH   1  18
TORSDOF 8
ENDMDL
MODEL 8
REMARK VINA RESULT:    -7.777      4.536      8.475
REMARK INTER + INTRA:         -12.277
REMARK INTER:                 -11.079
REMARK INTRA:                  -1.199
REMARK UNBOUND:                -0.863
REMARK SMILES Cc1ccc(C)c(NC(=O)[C@H](C)OC(=O)CNS(=O)(=O)c2ccc3c(c2)nnn3[O-])c1
REMARK SMILES IDX 14 1 15 2 13 3 11 4 12 5 9 6 8 7 10 8 7 10 2 11 3 12 31 13
REMARK SMILES IDX 4 14 5 15 1 16 6 17 16 18 17 19 18 21 19 22 20 23 21 24
REMARK SMILES IDX 22 25 26 26 23 27 25 28 24 29 27 30 29 31 28 32 30 33
REMARK H PARENT 8 9 17 20
ROOT
ATOM      1  C   UNL     1      11.330 -25.505 -48.025  1.00  0.00     0.321 C 
ATOM      2  O   UNL     1      12.195 -26.337 -48.288  1.00  0.00    -0.251 OA
ENDROOT
BRANCH   1   3
ATOM      3  O   UNL     1      10.329 -25.095 -48.839  1.00  0.00    -0.452 OA
BRANCH   3   4
ATOM      4  C   UNL     1      10.684 -24.726 -50.184  1.00  0.00     0.262 C 
ATOM      5  C   UNL     1       9.740 -25.200 -51.273  1.00  0.00     0.064 C 
BRANCH   4   6
ATOM      6  C   UNL     1      10.965 -23.216 -50.207  1.00  0.00     0.265 C 
ATOM      7  N   UNL     1      12.223 -22.779 -49.821  1.00  0.00    -0.323 N 
ATOM      8  O   UNL     1      10.053 -22.472 -50.601  1.00  0.00    -0.270 OA
ATOM      9  H   UNL     1      12.849 -23.454 -49.304  1.00  0.00     0.170 HD
BRANCH   7  10
ATOM     10  C   UNL     1      12.706 -21.451 -50.017  1.00  0.00     0.044 A 
ATOM     11  C   UNL     1      13.518 -19.688 -51.539  1.00  0.00    -0.049 A 
ATOM     12  C   UNL     1      13.775 -18.862 -50.449  1.00  0.00     0.004 A 
ATOM     13  C   UNL     1      13.003 -20.975 -51.309  1.00  0.00     0.029 A 
ATOM     14  C   UNL     1      13.491 -19.309 -49.160  1.00  0.00     0.006 A 
ATOM     15  C   UNL     1      12.944 -20.589 -48.931  1.00  0.00    -0.027 A 
ATOM     16  C   UNL     1      13.852 -19.250 -52.931  1.00  0.00     0.044 C 
ATOM     17  C   UNL     1      12.637 -20.964 -47.508  1.00  0.00     0.046 C 
ENDBRANCH   7  10
ENDBRANCH   4   6
ENDBRANCH   3   4
ENDBRANCH   1   3
BRANCH   1  18
ATOM     18  C   UNL     1      11.334 -24.714 -46.730  1.00  0.00     0.221 C 
BRANCH  18  19
ATOM     19  N   UNL     1      12.498 -25.067 -45.877  1.00  0.00    -0.200 NA
ATOM     20  H   UNL     1      12.679 -26.074 -45.845  1.00  0.00     0.142 HD
BRANCH  19  21
ATOM     21  S   UNL     1      12.589 -24.367 -44.340  1.00  0.00     0.241 S 
ATOM     22  O   UNL     1      12.674 -25.438 -43.371  1.00  0.00    -0.207 OA
ATOM     23  O   UNL     1      11.511 -23.400 -44.283  1.00  0.00    -0.207 OA
BRANCH  21  24
ATOM     24  C   UNL     1      14.125 -23.503 -44.401  1.00  0.00     0.084 A 
ATOM     25  C   UNL     1      14.714 -23.227 -45.654  1.00  0.00     0.024 A 
ATOM     26  C   UNL     1      14.771 -23.257 -43.182  1.00  0.00     0.054 A 
ATOM     27  C   UNL     1      16.033 -22.771 -45.729  1.00  0.00     0.031 A 
ATOM     28  C   UNL     1      16.121 -22.928 -43.261  1.00  0.00     0.114 A 
ATOM     29  C   UNL     1      16.704 -22.683 -44.516  1.00  0.00     0.084 A 
ATOM     30  N   UNL     1      17.088 -22.886 -42.280  1.00  0.00    -0.131 NA
ATOM     31  N   UNL     1      18.097 -22.429 -44.295  1.00  0.00    -0.273 N 
ATOM     32  N   UNL     1      18.336 -22.660 -42.876  1.00  0.00    -0.071 NA
ATOM     33  O   UNL     1      19.112 -22.321 -45.290  1.00  0.00    -0.789 OA
ENDBRANCH  21  24
ENDBRANCH  19  21
ENDBRANCH  18  19
ENDBRANCH   1  18
TORSDOF 8
ENDMDL
MODEL 9
REMARK VINA RESULT:    -7.745      4.941      8.714
REMARK INTER + INTRA:         -12.231
REMARK INTER:                 -10.610
REMARK INTRA:                  -1.620
REMARK UNBOUND:                -0.863
REMARK SMILES Cc1ccc(C)c(NC(=O)[C@H](C)OC(=O)CNS(=O)(=O)c2ccc3c(c2)nnn3[O-])c1
REMARK SMILES IDX 14 1 15 2 13 3 11 4 12 5 9 6 8 7 10 8 7 10 2 11 3 12 31 13
REMARK SMILES IDX 4 14 5 15 1 16 6 17 16 18 17 19 18 21 19 22 20 23 21 24
REMARK SMILES IDX 22 25 26 26 23 27 25 28 24 29 27 30 29 31 28 32 30 33
REMARK H PARENT 8 9 17 20
ROOT
ATOM      1  C   UNL     1      12.973 -20.846 -47.645  1.00  0.00     0.321 C 
ATOM      2  O   UNL     1      12.639 -19.665 -47.584  1.00  0.00    -0.251 OA
ENDROOT
BRANCH   1   3
ATOM      3  O   UNL     1      13.134 -21.584 -48.768  1.00  0.00    -0.452 OA
BRANCH   3   4
ATOM      4  C   UNL     1      12.331 -21.230 -49.909  1.00  0.00     0.262 C 
ATOM      5  C   UNL     1      13.079 -20.638 -51.089  1.00  0.00     0.064 C 
BRANCH   4   6
ATOM      6  C   UNL     1      11.449 -22.437 -50.264  1.00  0.00     0.265 C 
ATOM      7  N   UNL     1      10.911 -23.181 -49.225  1.00  0.00    -0.323 N 
ATOM      8  O   UNL     1      11.243 -22.659 -51.468  1.00  0.00    -0.270 OA
ATOM      9  H   UNL     1      11.312 -23.049 -48.257  1.00  0.00     0.170 HD
BRANCH   7  10
ATOM     10  C   UNL     1       9.891 -24.166 -49.387  1.00  0.00     0.044 A 
ATOM     11  C   UNL     1       7.506 -24.790 -49.308  1.00  0.00    -0.049 A 
ATOM     12  C   UNL     1       7.841 -26.112 -49.587  1.00  0.00     0.004 A 
ATOM     13  C   UNL     1       8.536 -23.839 -49.196  1.00  0.00     0.029 A 
ATOM     14  C   UNL     1       9.175 -26.462 -49.781  1.00  0.00     0.006 A 
ATOM     15  C   UNL     1      10.205 -25.502 -49.700  1.00  0.00    -0.027 A 
ATOM     16  C   UNL     1       6.085 -24.394 -49.055  1.00  0.00     0.044 C 
ATOM     17  C   UNL     1      11.609 -25.971 -49.962  1.00  0.00     0.046 C 
ENDBRANCH   7  10
ENDBRANCH   4   6
ENDBRANCH   3   4
ENDBRANCH   1   3
BRANCH   1  18
ATOM     18  C   UNL     1      13.154 -21.701 -46.404  1.00  0.00     0.221 C 
BRANCH  18  19
ATOM     19  N   UNL     1      12.111 -22.754 -46.307  1.00  0.00    -0.200 NA
ATOM     20  H   UNL     1      11.396 -22.544 -45.605  1.00  0.00     0.142 HD
BRANCH  19  21
ATOM     21  S   UNL     1      12.622 -24.363 -46.217  1.00  0.00     0.241 S 
ATOM     22  O   UNL     1      13.243 -24.700 -47.479  1.00  0.00    -0.207 OA
ATOM     23  O   UNL     1      11.481 -25.112 -45.728  1.00  0.00    -0.207 OA
BRANCH  21  24
ATOM     24  C   UNL     1      13.850 -24.307 -44.952  1.00  0.00     0.084 A 
ATOM     25  C   UNL     1      13.456 -24.075 -43.616  1.00  0.00     0.024 A 
ATOM     26  C   UNL     1      15.190 -24.349 -45.358  1.00  0.00     0.054 A 
ATOM     27  C   UNL     1      14.412 -23.782 -42.640  1.00  0.00     0.031 A 
ATOM     28  C   UNL     1      16.127 -23.930 -44.417  1.00  0.00     0.114 A 
ATOM     29  C   UNL     1      15.719 -23.675 -43.096  1.00  0.00     0.084 A 
ATOM     30  N   UNL     1      17.457 -23.603 -44.567  1.00  0.00    -0.131 NA
ATOM     31  N   UNL     1      16.869 -23.211 -42.379  1.00  0.00    -0.273 N 
ATOM     32  N   UNL     1      17.940 -23.081 -43.359  1.00  0.00    -0.071 NA
ATOM     33  O   UNL     1      16.887 -22.654 -41.067  1.00  0.00    -0.789 OA
ENDBRANCH  21  24
ENDBRANCH  19  21
ENDBRANCH  18  19
ENDBRANCH   1  18
TORSDOF 8
ENDMDL
