MODEL 1
REMARK VINA RESULT:    -8.558      0.000      0.000
REMARK INTER + INTRA:         -13.271
REMARK INTER:                 -12.060
REMARK INTRA:                  -1.211
REMARK UNBOUND:                -1.211
REMARK SMILES CC(C)[C@@H](Sc1nnc(-c2ccc(C(C)(C)C)cc2)n1C1CCCC1)C(=O)NC(N)=O
REMARK SMILES IDX 6 1 7 2 8 3 9 4 20 5 5 6 4 7 2 8 1 9 3 10 26 11 27 12 28 13
REMARK SMILES IDX 29 14 30 15 31 16 21 20 22 21 25 22 23 23 24 24 10 25 11 26
REMARK SMILES IDX 19 27 12 28 18 29 13 30 14 31 15 32 16 33 17 34
REMARK H PARENT 28 17 30 18 30 19
ROOT
ATOM      1  C   UNL     1      12.449 -24.209 -46.653  1.00  0.00     0.192 A 
ATOM      2  N   UNL     1      11.443 -23.547 -46.130  1.00  0.00    -0.123 NA
ATOM      3  N   UNL     1      11.646 -23.473 -44.782  1.00  0.00    -0.129 NA
ATOM      4  C   UNL     1      12.745 -24.145 -44.488  1.00  0.00     0.164 A 
ATOM      5  N   UNL     1      13.329 -24.582 -45.669  1.00  0.00    -0.299 N 
ENDROOT
BRANCH   1   6
ATOM      6  S   UNL     1      12.630 -24.527 -48.340  1.00  0.00    -0.072 SA
BRANCH   6   7
ATOM      7  C   UNL     1      12.852 -22.833 -49.033  1.00  0.00     0.147 C 
BRANCH   7   8
ATOM      8  C   UNL     1      13.522 -21.893 -47.997  1.00  0.00     0.006 C 
ATOM      9  C   UNL     1      15.049 -21.906 -48.157  1.00  0.00     0.009 C 
ATOM     10  C   UNL     1      13.025 -20.442 -47.968  1.00  0.00     0.009 C 
ENDBRANCH   7   8
BRANCH   7  11
ATOM     11  C   UNL     1      11.496 -22.325 -49.557  1.00  0.00     0.241 C 
ATOM     12  O   UNL     1      11.378 -21.605 -50.547  1.00  0.00    -0.273 OA
ATOM     13  N   UNL     1      10.420 -22.670 -48.768  1.00  0.00    -0.277 N 
ATOM     14  C   UNL     1       9.686 -23.748 -49.158  1.00  0.00     0.318 C 
ATOM     15  N   UNL     1       8.843 -24.178 -48.177  1.00  0.00    -0.351 N 
ATOM     16  O   UNL     1       9.728 -24.316 -50.239  1.00  0.00    -0.249 OA
ATOM     17  H   UNL     1      10.650 -22.775 -47.782  1.00  0.00     0.174 HD
ATOM     18  H   UNL     1       8.186 -24.882 -48.489  1.00  0.00     0.161 HD
ATOM     19  H   UNL     1       8.444 -23.476 -47.567  1.00  0.00     0.161 HD
ENDBRANCH   7  11
ENDBRANCH   6   7
ENDBRANCH   1   6
BRANCH   5  20
ATOM     20  C   UNL     1      14.616 -25.237 -45.785  1.00  0.00     0.091 C 
ATOM     21  C   UNL     1      14.841 -26.460 -44.872  1.00  0.00     0.025 C 
ATOM     22  C   UNL     1      15.825 -24.315 -45.578  1.00  0.00     0.025 C 
ATOM     23  C   UNL     1      16.173 -26.211 -44.168  1.00  0.00     0.002 C 
ATOM     24  C   UNL     1      16.917 -25.253 -45.085  1.00  0.00     0.002 C 
ENDBRANCH   5  20
BRANCH   4  25
ATOM     25  C   UNL     1      13.263 -24.346 -43.139  1.00  0.00     0.019 A 
ATOM     26  C   UNL     1      12.656 -25.277 -42.293  1.00  0.00     0.012 A 
ATOM     27  C   UNL     1      14.384 -23.649 -42.681  1.00  0.00     0.012 A 
ATOM     28  C   UNL     1      13.140 -25.482 -40.994  1.00  0.00     0.005 A 
ATOM     29  C   UNL     1      14.865 -23.858 -41.384  1.00  0.00     0.005 A 
ATOM     30  C   UNL     1      14.252 -24.775 -40.508  1.00  0.00    -0.043 A 
BRANCH  30  31
ATOM     31  C   UNL     1      14.812 -24.983 -39.089  1.00  0.00    -0.013 C 
ATOM     32  C   UNL     1      13.941 -24.225 -38.064  1.00  0.00     0.016 C 
ATOM     33  C   UNL     1      16.257 -24.441 -39.023  1.00  0.00     0.016 C 
ATOM     34  C   UNL     1      14.855 -26.462 -38.645  1.00  0.00     0.016 C 
ENDBRANCH  30  31
ENDBRANCH   4  25
TORSDOF 7
ENDMDL
MODEL 2
REMARK VINA RESULT:    -8.148      1.620      2.373
REMARK INTER + INTRA:         -12.694
REMARK INTER:                 -11.265
REMARK INTRA:                  -1.429
REMARK UNBOUND:                -1.211
REMARK SMILES CC(C)[C@@H](Sc1nnc(-c2ccc(C(C)(C)C)cc2)n1C1CCCC1)C(=O)NC(N)=O
REMARK SMILES IDX 6 1 7 2 8 3 9 4 20 5 5 6 4 7 2 8 1 9 3 10 26 11 27 12 28 13
REMARK SMILES IDX 29 14 30 15 31 16 21 20 22 21 25 22 23 23 24 24 10 25 11 26
REMARK SMILES IDX 19 27 12 28 18 29 13 30 14 31 15 32 16 33 17 34
REMARK H PARENT 28 17 30 18 30 19
ROOT
ATOM      1  C   UNL     1      12.917 -23.017 -46.943  1.00  0.00     0.192 A 
ATOM      2  N   UNL     1      11.885 -22.688 -46.201  1.00  0.00    -0.123 NA
ATOM      3  N   UNL     1      12.195 -22.974 -44.903  1.00  0.00    -0.129 NA
ATOM      4  C   UNL     1      13.391 -23.532 -44.872  1.00  0.00     0.164 A 
ATOM      5  N   UNL     1      13.920 -23.523 -46.156  1.00  0.00    -0.299 N 
ENDROOT
BRANCH   1   6
ATOM      6  S   UNL     1      12.989 -22.809 -48.655  1.00  0.00    -0.072 SA
BRANCH   6   7
ATOM      7  C   UNL     1      11.300 -23.330 -49.180  1.00  0.00     0.147 C 
BRANCH   7   8
ATOM      8  C   UNL     1      11.193 -24.876 -49.255  1.00  0.00     0.006 C 
ATOM      9  C   UNL     1       9.843 -25.356 -48.704  1.00  0.00     0.009 C 
ATOM     10  C   UNL     1      11.438 -25.513 -50.629  1.00  0.00     0.009 C 
ENDBRANCH   7   8
BRANCH   7  11
ATOM     11  C   UNL     1      10.939 -22.611 -50.493  1.00  0.00     0.241 C 
ATOM     12  O   UNL     1      11.743 -22.413 -51.401  1.00  0.00    -0.273 OA
ATOM     13  N   UNL     1       9.652 -22.120 -50.532  1.00  0.00    -0.277 N 
ATOM     14  C   UNL     1       8.723 -22.871 -51.185  1.00  0.00     0.318 C 
ATOM     15  N   UNL     1       7.451 -22.458 -50.922  1.00  0.00    -0.351 N 
ATOM     16  O   UNL     1       8.931 -23.818 -51.929  1.00  0.00    -0.249 OA
ATOM     17  H   UNL     1       9.279 -21.867 -49.620  1.00  0.00     0.174 HD
ATOM     18  H   UNL     1       6.752 -22.904 -51.504  1.00  0.00     0.161 HD
ATOM     19  H   UNL     1       7.304 -21.467 -50.778  1.00  0.00     0.161 HD
ENDBRANCH   7  11
ENDBRANCH   6   7
ENDBRANCH   1   6
BRANCH   5  20
ATOM     20  C   UNL     1      15.266 -23.921 -46.519  1.00  0.00     0.091 C 
ATOM     21  C   UNL     1      15.716 -25.315 -46.038  1.00  0.00     0.025 C 
ATOM     22  C   UNL     1      16.363 -22.939 -46.087  1.00  0.00     0.025 C 
ATOM     23  C   UNL     1      17.059 -25.100 -45.346  1.00  0.00     0.002 C 
ATOM     24  C   UNL     1      17.600 -23.814 -45.952  1.00  0.00     0.002 C 
ENDBRANCH   5  20
BRANCH   4  25
ATOM     25  C   UNL     1      14.046 -24.033 -43.668  1.00  0.00     0.019 A 
ATOM     26  C   UNL     1      13.749 -25.312 -43.196  1.00  0.00     0.012 A 
ATOM     27  C   UNL     1      15.001 -23.269 -42.992  1.00  0.00     0.012 A 
ATOM     28  C   UNL     1      14.368 -25.809 -42.041  1.00  0.00     0.005 A 
ATOM     29  C   UNL     1      15.619 -23.769 -41.840  1.00  0.00     0.005 A 
ATOM     30  C   UNL     1      15.313 -25.047 -41.333  1.00  0.00    -0.043 A 
BRANCH  30  31
ATOM     31  C   UNL     1      16.017 -25.566 -40.067  1.00  0.00    -0.013 C 
ATOM     32  C   UNL     1      15.053 -26.462 -39.260  1.00  0.00     0.016 C 
ATOM     33  C   UNL     1      16.445 -24.369 -39.190  1.00  0.00     0.016 C 
ATOM     34  C   UNL     1      17.284 -26.402 -40.354  1.00  0.00     0.016 C 
ENDBRANCH  30  31
ENDBRANCH   4  25
TORSDOF 7
ENDMDL
MODEL 3
REMARK VINA RESULT:    -8.067      1.270      2.643
REMARK INTER + INTRA:         -12.580
REMARK INTER:                 -11.138
REMARK INTRA:                  -1.443
REMARK UNBOUND:                -1.211
REMARK SMILES CC(C)[C@@H](Sc1nnc(-c2ccc(C(C)(C)C)cc2)n1C1CCCC1)C(=O)NC(N)=O
REMARK SMILES IDX 6 1 7 2 8 3 9 4 20 5 5 6 4 7 2 8 1 9 3 10 26 11 27 12 28 13
REMARK SMILES IDX 29 14 30 15 31 16 21 20 22 21 25 22 23 23 24 24 10 25 11 26
REMARK SMILES IDX 19 27 12 28 18 29 13 30 14 31 15 32 16 33 17 34
REMARK H PARENT 28 17 30 18 30 19
ROOT
ATOM      1  C   UNL     1      12.242 -24.369 -46.873  1.00  0.00     0.192 A 
ATOM      2  N   UNL     1      11.241 -23.720 -46.327  1.00  0.00    -0.123 NA
ATOM      3  N   UNL     1      11.480 -23.633 -44.986  1.00  0.00    -0.129 NA
ATOM      4  C   UNL     1      12.597 -24.284 -44.718  1.00  0.00     0.164 A 
ATOM      5  N   UNL     1      13.155 -24.721 -45.912  1.00  0.00    -0.299 N 
ENDROOT
BRANCH   1   6
ATOM      6  S   UNL     1      12.381 -24.698 -48.562  1.00  0.00    -0.072 SA
BRANCH   6   7
ATOM      7  C   UNL     1      11.357 -23.356 -49.304  1.00  0.00     0.147 C 
BRANCH   7   8
ATOM      8  C   UNL     1      10.532 -23.886 -50.505  1.00  0.00     0.006 C 
ATOM      9  C   UNL     1      11.016 -25.281 -50.926  1.00  0.00     0.009 C 
ATOM     10  C   UNL     1       9.008 -23.906 -50.333  1.00  0.00     0.009 C 
ENDBRANCH   7   8
BRANCH   7  11
ATOM     11  C   UNL     1      12.267 -22.162 -49.645  1.00  0.00     0.241 C 
ATOM     12  O   UNL     1      12.121 -21.461 -50.645  1.00  0.00    -0.273 OA
ATOM     13  N   UNL     1      13.327 -21.994 -48.780  1.00  0.00    -0.277 N 
ATOM     14  C   UNL     1      13.184 -21.060 -47.800  1.00  0.00     0.318 C 
ATOM     15  N   UNL     1      14.143 -21.172 -46.838  1.00  0.00    -0.351 N 
ATOM     16  O   UNL     1      12.322 -20.196 -47.725  1.00  0.00    -0.249 OA
ATOM     17  H   UNL     1      13.652 -22.859 -48.355  1.00  0.00     0.174 HD
ATOM     18  H   UNL     1      14.146 -20.403 -46.179  1.00  0.00     0.161 HD
ATOM     19  H   UNL     1      15.063 -21.474 -47.132  1.00  0.00     0.161 HD
ENDBRANCH   7  11
ENDBRANCH   6   7
ENDBRANCH   1   6
BRANCH   5  20
ATOM     20  C   UNL     1      14.450 -25.356 -46.058  1.00  0.00     0.091 C 
ATOM     21  C   UNL     1      14.793 -26.446 -45.023  1.00  0.00     0.025 C 
ATOM     22  C   UNL     1      15.640 -24.387 -46.078  1.00  0.00     0.025 C 
ATOM     23  C   UNL     1      16.171 -26.078 -44.477  1.00  0.00     0.002 C 
ATOM     24  C   UNL     1      16.801 -25.229 -45.570  1.00  0.00     0.002 C 
ENDBRANCH   5  20
BRANCH   4  25
ATOM     25  C   UNL     1      13.156 -24.466 -43.382  1.00  0.00     0.019 A 
ATOM     26  C   UNL     1      14.217 -23.665 -42.957  1.00  0.00     0.012 A 
ATOM     27  C   UNL     1      12.624 -25.407 -42.496  1.00  0.00     0.012 A 
ATOM     28  C   UNL     1      14.766 -23.826 -41.678  1.00  0.00     0.005 A 
ATOM     29  C   UNL     1      13.174 -25.564 -41.219  1.00  0.00     0.005 A 
ATOM     30  C   UNL     1      14.261 -24.782 -40.781  1.00  0.00    -0.043 A 
BRANCH  30  31
ATOM     31  C   UNL     1      14.835 -24.980 -39.367  1.00  0.00    -0.013 C 
ATOM     32  C   UNL     1      13.889 -24.351 -38.323  1.00  0.00     0.016 C 
ATOM     33  C   UNL     1      16.217 -24.296 -39.274  1.00  0.00     0.016 C 
ATOM     34  C   UNL     1      15.029 -26.462 -38.973  1.00  0.00     0.016 C 
ENDBRANCH  30  31
ENDBRANCH   4  25
TORSDOF 7
ENDMDL
MODEL 4
REMARK VINA RESULT:    -7.733      1.759      3.021
REMARK INTER + INTRA:         -12.109
REMARK INTER:                 -10.923
REMARK INTRA:                  -1.186
REMARK UNBOUND:                -1.211
REMARK SMILES CC(C)[C@@H](Sc1nnc(-c2ccc(C(C)(C)C)cc2)n1C1CCCC1)C(=O)NC(N)=O
REMARK SMILES IDX 6 1 7 2 8 3 9 4 20 5 5 6 4 7 2 8 1 9 3 10 26 11 27 12 28 13
REMARK SMILES IDX 29 14 30 15 31 16 21 20 22 21 25 22 23 23 24 24 10 25 11 26
REMARK SMILES IDX 19 27 12 28 18 29 13 30 14 31 15 32 16 33 17 34
REMARK H PARENT 28 17 30 18 30 19
ROOT
ATOM      1  C   UNL     1      12.622 -24.595 -46.822  1.00  0.00     0.192 A 
ATOM      2  N   UNL     1      11.582 -25.319 -46.478  1.00  0.00    -0.123 NA
ATOM      3  N   UNL     1      11.635 -25.514 -45.129  1.00  0.00    -0.129 NA
ATOM      4  C   UNL     1      12.742 -24.958 -44.670  1.00  0.00     0.164 A 
ATOM      5  N   UNL     1      13.376 -24.300 -45.715  1.00  0.00    -0.299 N 
ENDROOT
BRANCH   1   6
ATOM      6  S   UNL     1      12.956 -24.079 -48.435  1.00  0.00    -0.072 SA
BRANCH   6   7
ATOM      7  C   UNL     1      11.379 -23.250 -48.911  1.00  0.00     0.147 C 
BRANCH   7   8
ATOM      8  C   UNL     1      10.850 -23.796 -50.263  1.00  0.00     0.006 C 
ATOM      9  C   UNL     1      11.112 -25.304 -50.382  1.00  0.00     0.009 C 
ATOM     10  C   UNL     1       9.379 -23.507 -50.590  1.00  0.00     0.009 C 
ENDBRANCH   7   8
BRANCH   7  11
ATOM     11  C   UNL     1      11.589 -21.725 -48.888  1.00  0.00     0.241 C 
ATOM     12  O   UNL     1      11.528 -21.046 -47.864  1.00  0.00    -0.273 OA
ATOM     13  N   UNL     1      11.761 -21.160 -50.134  1.00  0.00    -0.277 N 
ATOM     14  C   UNL     1      13.039 -20.902 -50.525  1.00  0.00     0.318 C 
ATOM     15  N   UNL     1      13.123 -20.625 -51.857  1.00  0.00    -0.351 N 
ATOM     16  O   UNL     1      14.040 -20.905 -49.823  1.00  0.00    -0.249 OA
ATOM     17  H   UNL     1      11.289 -21.662 -50.882  1.00  0.00     0.174 HD
ATOM     18  H   UNL     1      14.035 -20.290 -52.143  1.00  0.00     0.161 HD
ATOM     19  H   UNL     1      12.346 -20.134 -52.279  1.00  0.00     0.161 HD
ENDBRANCH   7  11
ENDBRANCH   6   7
ENDBRANCH   1   6
BRANCH   5  20
ATOM     20  C   UNL     1      14.547 -23.455 -45.596  1.00  0.00     0.091 C 
ATOM     21  C   UNL     1      14.562 -22.187 -46.474  1.00  0.00     0.025 C 
ATOM     22  C   UNL     1      15.881 -24.169 -45.846  1.00  0.00     0.025 C 
ATOM     23  C   UNL     1      15.904 -22.204 -47.202  1.00  0.00     0.002 C 
ATOM     24  C   UNL     1      16.804 -23.058 -46.324  1.00  0.00     0.002 C 
ENDBRANCH   5  20
BRANCH   4  25
ATOM     25  C   UNL     1      13.184 -25.005 -43.280  1.00  0.00     0.019 A 
ATOM     26  C   UNL     1      12.580 -24.179 -42.330  1.00  0.00     0.012 A 
ATOM     27  C   UNL     1      14.181 -25.892 -42.865  1.00  0.00     0.012 A 
ATOM     28  C   UNL     1      12.992 -24.210 -40.991  1.00  0.00     0.005 A 
ATOM     29  C   UNL     1      14.588 -25.921 -41.527  1.00  0.00     0.005 A 
ATOM     30  C   UNL     1      14.008 -25.078 -40.559  1.00  0.00    -0.043 A 
BRANCH  30  31
ATOM     31  C   UNL     1      14.479 -25.142 -39.096  1.00  0.00    -0.013 C 
ATOM     32  C   UNL     1      14.004 -26.462 -38.449  1.00  0.00     0.016 C 
ATOM     33  C   UNL     1      13.884 -23.953 -38.312  1.00  0.00     0.016 C 
ATOM     34  C   UNL     1      16.014 -25.080 -38.929  1.00  0.00     0.016 C 
ENDBRANCH  30  31
ENDBRANCH   4  25
TORSDOF 7
ENDMDL
MODEL 5
REMARK VINA RESULT:    -7.681      2.183      3.397
REMARK INTER + INTRA:         -12.036
REMARK INTER:                 -10.714
REMARK INTRA:                  -1.322
REMARK UNBOUND:                -1.211
REMARK SMILES CC(C)[C@@H](Sc1nnc(-c2ccc(C(C)(C)C)cc2)n1C1CCCC1)C(=O)NC(N)=O
REMARK SMILES IDX 6 1 7 2 8 3 9 4 20 5 5 6 4 7 2 8 1 9 3 10 26 11 27 12 28 13
REMARK SMILES IDX 29 14 30 15 31 16 21 20 22 21 25 22 23 23 24 24 10 25 11 26
REMARK SMILES IDX 19 27 12 28 18 29 13 30 14 31 15 32 16 33 17 34
REMARK H PARENT 28 17 30 18 30 19
ROOT
ATOM      1  C   UNL     1      14.049 -23.208 -46.877  1.00  0.00     0.192 A 
ATOM      2  N   UNL     1      14.959 -22.319 -46.555  1.00  0.00    -0.123 NA
ATOM      3  N   UNL     1      15.225 -22.458 -45.223  1.00  0.00    -0.129 NA
ATOM      4  C   UNL     1      14.429 -23.391 -44.733  1.00  0.00     0.164 A 
ATOM      5  N   UNL     1      13.699 -23.946 -45.775  1.00  0.00    -0.299 N 
ENDROOT
BRANCH   1   6
ATOM      6  S   UNL     1      13.419 -23.419 -48.471  1.00  0.00    -0.072 SA
BRANCH   6   7
ATOM      7  C   UNL     1      11.914 -22.355 -48.437  1.00  0.00     0.147 C 
BRANCH   7   8
ATOM      8  C   UNL     1      10.796 -22.943 -49.337  1.00  0.00     0.006 C 
ATOM      9  C   UNL     1      11.357 -24.034 -50.260  1.00  0.00     0.009 C 
ATOM     10  C   UNL     1       9.548 -23.475 -48.619  1.00  0.00     0.009 C 
ENDBRANCH   7   8
BRANCH   7  11
ATOM     11  C   UNL     1      12.313 -20.911 -48.794  1.00  0.00     0.241 C 
ATOM     12  O   UNL     1      12.625 -20.066 -47.956  1.00  0.00    -0.273 OA
ATOM     13  N   UNL     1      12.203 -20.610 -50.134  1.00  0.00    -0.277 N 
ATOM     14  C   UNL     1      13.344 -20.657 -50.875  1.00  0.00     0.318 C 
ATOM     15  N   UNL     1      13.090 -20.633 -52.213  1.00  0.00    -0.351 N 
ATOM     16  O   UNL     1      14.492 -20.718 -50.458  1.00  0.00    -0.249 OA
ATOM     17  H   UNL     1      11.482 -21.141 -50.617  1.00  0.00     0.174 HD
ATOM     18  H   UNL     1      13.921 -20.521 -52.781  1.00  0.00     0.161 HD
ATOM     19  H   UNL     1      12.294 -20.091 -52.526  1.00  0.00     0.161 HD
ENDBRANCH   7  11
ENDBRANCH   6   7
ENDBRANCH   1   6
BRANCH   5  20
ATOM     20  C   UNL     1      12.815 -25.090 -45.674  1.00  0.00     0.091 C 
ATOM     21  C   UNL     1      13.012 -26.196 -46.731  1.00  0.00     0.025 C 
ATOM     22  C   UNL     1      11.320 -24.747 -45.679  1.00  0.00     0.025 C 
ATOM     23  C   UNL     1      11.626 -26.462 -47.313  1.00  0.00     0.002 C 
ATOM     24  C   UNL     1      10.662 -26.003 -46.230  1.00  0.00     0.002 C 
ENDBRANCH   5  20
BRANCH   4  25
ATOM     25  C   UNL     1      14.374 -23.786 -43.329  1.00  0.00     0.019 A 
ATOM     26  C   UNL     1      13.162 -24.197 -42.770  1.00  0.00     0.012 A 
ATOM     27  C   UNL     1      15.522 -23.797 -42.533  1.00  0.00     0.012 A 
ATOM     28  C   UNL     1      13.090 -24.579 -41.424  1.00  0.00     0.005 A 
ATOM     29  C   UNL     1      15.447 -24.181 -41.190  1.00  0.00     0.005 A 
ATOM     30  C   UNL     1      14.229 -24.575 -40.601  1.00  0.00    -0.043 A 
BRANCH  30  31
ATOM     31  C   UNL     1      14.186 -24.996 -39.122  1.00  0.00    -0.013 C 
ATOM     32  C   UNL     1      15.622 -25.126 -38.570  1.00  0.00     0.016 C 
ATOM     33  C   UNL     1      13.471 -26.359 -38.996  1.00  0.00     0.016 C 
ATOM     34  C   UNL     1      13.436 -23.998 -38.210  1.00  0.00     0.016 C 
ENDBRANCH  30  31
ENDBRANCH   4  25
TORSDOF 7
ENDMDL
MODEL 6
REMARK VINA RESULT:    -7.624      2.158      3.924
REMARK INTER + INTRA:         -11.955
REMARK INTER:                 -10.957
REMARK INTRA:                  -0.998
REMARK UNBOUND:                -1.211
REMARK SMILES CC(C)[C@@H](Sc1nnc(-c2ccc(C(C)(C)C)cc2)n1C1CCCC1)C(=O)NC(N)=O
REMARK SMILES IDX 6 1 7 2 8 3 9 4 20 5 5 6 4 7 2 8 1 9 3 10 26 11 27 12 28 13
REMARK SMILES IDX 29 14 30 15 31 16 21 20 22 21 25 22 23 23 24 24 10 25 11 26
REMARK SMILES IDX 19 27 12 28 18 29 13 30 14 31 15 32 16 33 17 34
REMARK H PARENT 28 17 30 18 30 19
ROOT
ATOM      1  C   UNL     1      10.950 -23.750 -47.683  1.00  0.00     0.192 A 
ATOM      2  N   UNL     1      10.204 -24.627 -47.053  1.00  0.00    -0.123 NA
ATOM      3  N   UNL     1      10.775 -24.864 -45.836  1.00  0.00    -0.129 NA
ATOM      4  C   UNL     1      11.899 -24.174 -45.761  1.00  0.00     0.164 A 
ATOM      5  N   UNL     1      12.020 -23.394 -46.903  1.00  0.00    -0.299 N 
ENDROOT
BRANCH   1   6
ATOM      6  S   UNL     1      10.601 -23.130 -49.257  1.00  0.00    -0.072 SA
BRANCH   6   7
ATOM      7  C   UNL     1       9.581 -24.481 -49.988  1.00  0.00     0.147 C 
BRANCH   7   8
ATOM      8  C   UNL     1      10.065 -24.830 -51.420  1.00  0.00     0.006 C 
ATOM      9  C   UNL     1      10.897 -23.683 -52.009  1.00  0.00     0.009 C 
ATOM     10  C   UNL     1      10.831 -26.150 -51.580  1.00  0.00     0.009 C 
ENDBRANCH   7   8
BRANCH   7  11
ATOM     11  C   UNL     1       8.095 -24.086 -49.906  1.00  0.00     0.241 C 
ATOM     12  O   UNL     1       7.517 -23.831 -48.851  1.00  0.00    -0.273 OA
ATOM     13  N   UNL     1       7.432 -24.130 -51.114  1.00  0.00    -0.277 N 
ATOM     14  C   UNL     1       7.270 -22.951 -51.775  1.00  0.00     0.318 C 
ATOM     15  N   UNL     1       6.874 -23.135 -53.066  1.00  0.00    -0.351 N 
ATOM     16  O   UNL     1       7.444 -21.826 -51.329  1.00  0.00    -0.249 OA
ATOM     17  H   UNL     1       7.807 -24.816 -51.765  1.00  0.00     0.174 HD
ATOM     18  H   UNL     1       6.608 -22.277 -53.533  1.00  0.00     0.161 HD
ATOM     19  H   UNL     1       6.266 -23.921 -53.258  1.00  0.00     0.161 HD
ENDBRANCH   7  11
ENDBRANCH   6   7
ENDBRANCH   1   6
BRANCH   5  20
ATOM     20  C   UNL     1      13.043 -22.396 -47.141  1.00  0.00     0.091 C 
ATOM     21  C   UNL     1      12.543 -20.977 -47.480  1.00  0.00     0.025 C 
ATOM     22  C   UNL     1      14.060 -22.767 -48.228  1.00  0.00     0.025 C 
ATOM     23  C   UNL     1      13.286 -20.569 -48.749  1.00  0.00     0.002 C 
ATOM     24  C   UNL     1      14.545 -21.422 -48.746  1.00  0.00     0.002 C 
ENDBRANCH   5  20
BRANCH   4  25
ATOM     25  C   UNL     1      12.826 -24.211 -44.634  1.00  0.00     0.019 A 
ATOM     26  C   UNL     1      12.334 -24.159 -43.328  1.00  0.00     0.012 A 
ATOM     27  C   UNL     1      14.203 -24.336 -44.832  1.00  0.00     0.012 A 
ATOM     28  C   UNL     1      13.209 -24.193 -42.234  1.00  0.00     0.005 A 
ATOM     29  C   UNL     1      15.074 -24.371 -43.737  1.00  0.00     0.005 A 
ATOM     30  C   UNL     1      14.599 -24.295 -42.413  1.00  0.00    -0.043 A 
BRANCH  30  31
ATOM     31  C   UNL     1      15.586 -24.342 -41.233  1.00  0.00    -0.013 C 
ATOM     32  C   UNL     1      14.816 -24.243 -39.899  1.00  0.00     0.016 C 
ATOM     33  C   UNL     1      16.570 -23.156 -41.338  1.00  0.00     0.016 C 
ATOM     34  C   UNL     1      16.431 -25.636 -41.177  1.00  0.00     0.016 C 
ENDBRANCH  30  31
ENDBRANCH   4  25
TORSDOF 7
ENDMDL
MODEL 7
REMARK VINA RESULT:    -7.443      3.320      8.493
REMARK INTER + INTRA:         -11.700
REMARK INTER:                 -10.090
REMARK INTRA:                  -1.610
REMARK UNBOUND:                -1.211
REMARK SMILES CC(C)[C@@H](Sc1nnc(-c2ccc(C(C)(C)C)cc2)n1C1CCCC1)C(=O)NC(N)=O
REMARK SMILES IDX 6 1 7 2 8 3 9 4 20 5 5 6 4 7 2 8 1 9 3 10 26 11 27 12 28 13
REMARK SMILES IDX 29 14 30 15 31 16 21 20 22 21 25 22 23 23 24 24 10 25 11 26
REMARK SMILES IDX 19 27 12 28 18 29 13 30 14 31 15 32 16 33 17 34
REMARK H PARENT 28 17 30 18 30 19
ROOT
ATOM      1  C   UNL     1      13.810 -23.842 -45.001  1.00  0.00     0.192 A 
ATOM      2  N   UNL     1      13.295 -25.021 -44.741  1.00  0.00    -0.123 NA
ATOM      3  N   UNL     1      12.434 -25.334 -45.752  1.00  0.00    -0.129 NA
ATOM      4  C   UNL     1      12.386 -24.314 -46.590  1.00  0.00     0.164 A 
ATOM      5  N   UNL     1      13.304 -23.357 -46.180  1.00  0.00    -0.299 N 
ENDROOT
BRANCH   1   6
ATOM      6  S   UNL     1      14.976 -23.049 -44.004  1.00  0.00    -0.072 SA
BRANCH   6   7
ATOM      7  C   UNL     1      16.406 -24.210 -44.081  1.00  0.00     0.147 C 
BRANCH   7   8
ATOM      8  C   UNL     1      17.087 -24.347 -42.694  1.00  0.00     0.006 C 
ATOM      9  C   UNL     1      16.376 -23.474 -41.650  1.00  0.00     0.009 C 
ATOM     10  C   UNL     1      17.243 -25.772 -42.146  1.00  0.00     0.009 C 
ENDBRANCH   7   8
BRANCH   7  11
ATOM     11  C   UNL     1      17.357 -23.759 -45.205  1.00  0.00     0.241 C 
ATOM     12  O   UNL     1      17.026 -23.693 -46.388  1.00  0.00    -0.273 OA
ATOM     13  N   UNL     1      18.649 -23.519 -44.790  1.00  0.00    -0.277 N 
ATOM     14  C   UNL     1      18.994 -22.223 -44.558  1.00  0.00     0.318 C 
ATOM     15  N   UNL     1      20.174 -22.118 -43.883  1.00  0.00    -0.351 N 
ATOM     16  O   UNL     1      18.369 -21.224 -44.882  1.00  0.00    -0.249 OA
ATOM     17  H   UNL     1      18.934 -24.078 -43.989  1.00  0.00     0.174 HD
ATOM     18  H   UNL     1      20.523 -21.169 -43.826  1.00  0.00     0.161 HD
ATOM     19  H   UNL     1      20.883 -22.814 -44.076  1.00  0.00     0.161 HD
ENDBRANCH   7  11
ENDBRANCH   6   7
ENDBRANCH   1   6
BRANCH   5  20
ATOM     20  C   UNL     1      13.652 -22.152 -46.906  1.00  0.00     0.091 C 
ATOM     21  C   UNL     1      12.477 -21.241 -47.315  1.00  0.00     0.025 C 
ATOM     22  C   UNL     1      14.480 -22.386 -48.176  1.00  0.00     0.025 C 
ATOM     23  C   UNL     1      12.661 -20.973 -48.807  1.00  0.00     0.002 C 
ATOM     24  C   UNL     1      14.146 -21.189 -49.053  1.00  0.00     0.002 C 
ENDBRANCH   5  20
BRANCH   4  25
ATOM     25  C   UNL     1      11.530 -24.245 -47.770  1.00  0.00     0.019 A 
ATOM     26  C   UNL     1      12.041 -24.598 -49.020  1.00  0.00     0.012 A 
ATOM     27  C   UNL     1      10.189 -23.865 -47.672  1.00  0.00     0.012 A 
ATOM     28  C   UNL     1      11.234 -24.537 -50.165  1.00  0.00     0.005 A 
ATOM     29  C   UNL     1       9.386 -23.807 -48.816  1.00  0.00     0.005 A 
ATOM     30  C   UNL     1       9.889 -24.136 -50.090  1.00  0.00    -0.043 A 
BRANCH  30  31
ATOM     31  C   UNL     1       8.974 -24.065 -51.325  1.00  0.00    -0.013 C 
ATOM     32  C   UNL     1       8.176 -22.744 -51.313  1.00  0.00     0.016 C 
ATOM     33  C   UNL     1       7.987 -25.252 -51.302  1.00  0.00     0.016 C 
ATOM     34  C   UNL     1       9.734 -24.126 -52.670  1.00  0.00     0.016 C 
ENDBRANCH  30  31
ENDBRANCH   4  25
TORSDOF 7
ENDMDL
MODEL 8
REMARK VINA RESULT:    -7.397      3.435      8.441
REMARK INTER + INTRA:         -11.636
REMARK INTER:                  -9.960
REMARK INTRA:                  -1.676
REMARK UNBOUND:                -1.211
REMARK SMILES CC(C)[C@@H](Sc1nnc(-c2ccc(C(C)(C)C)cc2)n1C1CCCC1)C(=O)NC(N)=O
REMARK SMILES IDX 6 1 7 2 8 3 9 4 20 5 5 6 4 7 2 8 1 9 3 10 26 11 27 12 28 13
REMARK SMILES IDX 29 14 30 15 31 16 21 20 22 21 25 22 23 23 24 24 10 25 11 26
REMARK SMILES IDX 19 27 12 28 18 29 13 30 14 31 15 32 16 33 17 34
REMARK H PARENT 28 17 30 18 30 19
ROOT
ATOM      1  C   UNL     1      13.332 -24.049 -44.526  1.00  0.00     0.192 A 
ATOM      2  N   UNL     1      12.678 -25.164 -44.302  1.00  0.00    -0.123 NA
ATOM      3  N   UNL     1      11.968 -25.467 -45.428  1.00  0.00    -0.129 NA
ATOM      4  C   UNL     1      12.149 -24.499 -46.308  1.00  0.00     0.164 A 
ATOM      5  N   UNL     1      13.070 -23.596 -45.794  1.00  0.00    -0.299 N 
ENDROOT
BRANCH   1   6
ATOM      6  S   UNL     1      14.385 -23.293 -43.384  1.00  0.00    -0.072 SA
BRANCH   6   7
ATOM      7  C   UNL     1      15.212 -24.743 -42.602  1.00  0.00     0.147 C 
BRANCH   7   8
ATOM      8  C   UNL     1      14.723 -24.942 -41.144  1.00  0.00     0.006 C 
ATOM      9  C   UNL     1      13.385 -24.226 -40.915  1.00  0.00     0.009 C 
ATOM     10  C   UNL     1      14.618 -26.390 -40.649  1.00  0.00     0.009 C 
ENDBRANCH   7   8
BRANCH   7  11
ATOM     11  C   UNL     1      16.738 -24.582 -42.737  1.00  0.00     0.241 C 
ATOM     12  O   UNL     1      17.532 -24.859 -41.839  1.00  0.00    -0.273 OA
ATOM     13  N   UNL     1      17.142 -24.012 -43.924  1.00  0.00    -0.277 N 
ATOM     14  C   UNL     1      17.572 -24.855 -44.902  1.00  0.00     0.318 C 
ATOM     15  N   UNL     1      17.669 -24.235 -46.112  1.00  0.00    -0.351 N 
ATOM     16  O   UNL     1      17.853 -26.040 -44.783  1.00  0.00    -0.249 OA
ATOM     17  H   UNL     1      16.461 -23.372 -44.327  1.00  0.00     0.174 HD
ATOM     18  H   UNL     1      18.122 -24.799 -46.820  1.00  0.00     0.161 HD
ATOM     19  H   UNL     1      17.944 -23.261 -46.113  1.00  0.00     0.161 HD
ENDBRANCH   7  11
ENDBRANCH   6   7
ENDBRANCH   1   6
BRANCH   5  20
ATOM     20  C   UNL     1      13.638 -22.469 -46.506  1.00  0.00     0.091 C 
ATOM     21  C   UNL     1      12.633 -21.515 -47.183  1.00  0.00     0.025 C 
ATOM     22  C   UNL     1      14.669 -22.843 -47.579  1.00  0.00     0.025 C 
ATOM     23  C   UNL     1      13.112 -21.364 -48.624  1.00  0.00     0.002 C 
ATOM     24  C   UNL     1      14.596 -21.691 -48.569  1.00  0.00     0.002 C 
ENDBRANCH   5  20
BRANCH   4  25
ATOM     25  C   UNL     1      11.508 -24.432 -47.617  1.00  0.00     0.019 A 
ATOM     26  C   UNL     1      12.146 -24.977 -48.732  1.00  0.00     0.012 A 
ATOM     27  C   UNL     1      10.241 -23.864 -47.775  1.00  0.00     0.012 A 
ATOM     28  C   UNL     1      11.545 -24.922 -49.997  1.00  0.00     0.005 A 
ATOM     29  C   UNL     1       9.643 -23.812 -49.039  1.00  0.00     0.005 A 
ATOM     30  C   UNL     1      10.282 -24.334 -50.181  1.00  0.00    -0.043 A 
BRANCH  30  31
ATOM     31  C   UNL     1       9.591 -24.263 -51.554  1.00  0.00    -0.013 C 
ATOM     32  C   UNL     1      10.627 -23.923 -52.647  1.00  0.00     0.016 C 
ATOM     33  C   UNL     1       8.506 -23.165 -51.528  1.00  0.00     0.016 C 
ATOM     34  C   UNL     1       8.902 -25.581 -51.975  1.00  0.00     0.016 C 
ENDBRANCH  30  31
ENDBRANCH   4  25
TORSDOF 7
ENDMDL
MODEL 9
REMARK VINA RESULT:    -7.072      1.779      3.067
REMARK INTER + INTRA:         -11.177
REMARK INTER:                  -9.952
REMARK INTRA:                  -1.226
REMARK UNBOUND:                -1.211
REMARK SMILES CC(C)[C@@H](Sc1nnc(-c2ccc(C(C)(C)C)cc2)n1C1CCCC1)C(=O)NC(N)=O
REMARK SMILES IDX 6 1 7 2 8 3 9 4 20 5 5 6 4 7 2 8 1 9 3 10 26 11 27 12 28 13
REMARK SMILES IDX 29 14 30 15 31 16 21 20 22 21 25 22 23 23 24 24 10 25 11 26
REMARK SMILES IDX 19 27 12 28 18 29 13 30 14 31 15 32 16 33 17 34
REMARK H PARENT 28 17 30 18 30 19
ROOT
ATOM      1  C   UNL     1      12.246 -25.337 -47.071  1.00  0.00     0.192 A 
ATOM      2  N   UNL     1      11.561 -26.365 -46.627  1.00  0.00    -0.123 NA
ATOM      3  N   UNL     1      11.773 -26.460 -45.282  1.00  0.00    -0.129 NA
ATOM      4  C   UNL     1      12.634 -25.524 -44.928  1.00  0.00     0.164 A 
ATOM      5  N   UNL     1      12.918 -24.737 -46.036  1.00  0.00    -0.299 N 
ENDROOT
BRANCH   1   6
ATOM      6  S   UNL     1      12.261 -24.818 -48.718  1.00  0.00    -0.072 SA
BRANCH   6   7
ATOM      7  C   UNL     1      10.616 -24.001 -48.882  1.00  0.00     0.147 C 
BRANCH   7   8
ATOM      8  C   UNL     1       9.501 -25.046 -49.147  1.00  0.00     0.006 C 
ATOM      9  C   UNL     1      10.095 -26.348 -49.704  1.00  0.00     0.009 C 
ATOM     10  C   UNL     1       8.574 -25.372 -47.969  1.00  0.00     0.009 C 
ENDBRANCH   7   8
BRANCH   7  11
ATOM     11  C   UNL     1      10.710 -22.897 -49.951  1.00  0.00     0.241 C 
ATOM     12  O   UNL     1      11.458 -21.925 -49.860  1.00  0.00    -0.273 OA
ATOM     13  N   UNL     1       9.812 -23.037 -50.987  1.00  0.00    -0.277 N 
ATOM     14  C   UNL     1      10.276 -23.599 -52.137  1.00  0.00     0.318 C 
ATOM     15  N   UNL     1       9.267 -23.957 -52.979  1.00  0.00    -0.351 N 
ATOM     16  O   UNL     1      11.444 -23.794 -52.443  1.00  0.00    -0.249 OA
ATOM     17  H   UNL     1       8.949 -23.507 -50.724  1.00  0.00     0.174 HD
ATOM     18  H   UNL     1       9.587 -24.242 -53.896  1.00  0.00     0.161 HD
ATOM     19  H   UNL     1       8.440 -23.373 -52.988  1.00  0.00     0.161 HD
ENDBRANCH   7  11
ENDBRANCH   6   7
ENDBRANCH   1   6
BRANCH   5  20
ATOM     20  C   UNL     1      13.712 -23.525 -46.033  1.00  0.00     0.091 C 
ATOM     21  C   UNL     1      13.027 -22.262 -46.592  1.00  0.00     0.025 C 
ATOM     22  C   UNL     1      15.061 -23.642 -46.755  1.00  0.00     0.025 C 
ATOM     23  C   UNL     1      14.000 -21.683 -47.617  1.00  0.00     0.002 C 
ATOM     24  C   UNL     1      15.360 -22.217 -47.197  1.00  0.00     0.002 C 
ENDBRANCH   5  20
BRANCH   4  25
ATOM     25  C   UNL     1      13.158 -25.340 -43.578  1.00  0.00     0.019 A 
ATOM     26  C   UNL     1      12.447 -24.569 -42.656  1.00  0.00     0.012 A 
ATOM     27  C   UNL     1      14.345 -25.954 -43.171  1.00  0.00     0.012 A 
ATOM     28  C   UNL     1      12.934 -24.381 -41.356  1.00  0.00     0.005 A 
ATOM     29  C   UNL     1      14.828 -25.766 -41.871  1.00  0.00     0.005 A 
ATOM     30  C   UNL     1      14.138 -24.971 -40.935  1.00  0.00    -0.043 A 
BRANCH  30  31
ATOM     31  C   UNL     1      14.697 -24.791 -39.512  1.00  0.00    -0.013 C 
ATOM     32  C   UNL     1      13.736 -23.918 -38.677  1.00  0.00     0.016 C 
ATOM     33  C   UNL     1      16.075 -24.098 -39.585  1.00  0.00     0.016 C 
ATOM     34  C   UNL     1      14.891 -26.118 -38.745  1.00  0.00     0.016 C 
ENDBRANCH  30  31
ENDBRANCH   4  25
TORSDOF 7
ENDMDL
