MODEL 1
REMARK VINA RESULT:    -9.401      0.000      0.000
REMARK INTER + INTRA:         -12.838
REMARK INTER:                 -12.149
REMARK INTRA:                  -0.689
REMARK UNBOUND:                -0.689
REMARK SMILES Cc1nn(-c2ccccc2)c2sc(C(=O)[N-]c3nnc([C@]45C[C@H]6C[C@H](C[C@H](C6)C4)C5)s3)cc12
REMARK SMILES IDX 14 1 15 2 13 3 2 4 3 5 33 6 4 7 32 8 11 9 12 10 1 11 5 12
REMARK SMILES IDX 6 13 10 14 7 15 9 16 8 17 16 18 17 19 18 20 31 21 19 22
REMARK SMILES IDX 20 23 21 24 29 25 30 26 22 27 27 28 25 29 23 30 28 31 26 32
REMARK SMILES IDX 24 33
REMARK H PARENT
ROOT
ATOM      1  C   UNL     1      14.316 -22.025 -47.444  1.00  0.00     0.189 C 
ATOM      2  O   UNL     1      14.972 -22.075 -48.485  1.00  0.00    -0.292 OA
ENDROOT
BRANCH   1   3
ATOM      3  C   UNL     1      14.950 -22.380 -46.163  1.00  0.00     0.074 A 
ATOM      4  C   UNL     1      17.681 -22.808 -43.792  1.00  0.00     0.069 A 
ATOM      5  N   UNL     1      17.325 -23.273 -42.578  1.00  0.00    -0.171 NA
ATOM      6  C   UNL     1      16.557 -22.694 -44.588  1.00  0.00     0.035 A 
ATOM      7  N   UNL     1      15.947 -23.449 -42.641  1.00  0.00    -0.223 N 
ATOM      8  C   UNL     1      16.319 -22.280 -45.891  1.00  0.00     0.036 A 
ATOM      9  C   UNL     1      15.491 -23.086 -43.882  1.00  0.00     0.128 A 
ATOM     10  S   UNL     1      14.082 -22.979 -44.766  1.00  0.00    -0.112 S 
ATOM     11  C   UNL     1      19.091 -22.500 -44.112  1.00  0.00     0.069 C 
BRANCH   7  12
ATOM     12  C   UNL     1      15.247 -23.941 -41.499  1.00  0.00     0.066 A 
ATOM     13  C   UNL     1      15.950 -24.125 -40.296  1.00  0.00     0.028 A 
ATOM     14  C   UNL     1      13.881 -24.246 -41.536  1.00  0.00     0.028 A 
ATOM     15  C   UNL     1      15.300 -24.606 -39.156  1.00  0.00     0.002 A 
ATOM     16  C   UNL     1      13.234 -24.728 -40.392  1.00  0.00     0.002 A 
ATOM     17  C   UNL     1      13.941 -24.906 -39.205  1.00  0.00     0.000 A 
ENDBRANCH   7  12
ENDBRANCH   1   3
BRANCH   1  18
ATOM     18  N   UNL     1      13.024 -21.709 -47.301  1.00  0.00    -0.390 NA
BRANCH  18  19
ATOM     19  C   UNL     1      12.180 -21.952 -48.334  1.00  0.00     0.018 A 
ATOM     20  N   UNL     1      11.882 -21.056 -49.257  1.00  0.00    -0.342 NA
ATOM     21  S   UNL     1      11.539 -23.513 -48.690  1.00  0.00    -0.128 S 
ATOM     22  N   UNL     1      11.048 -21.548 -50.240  1.00  0.00    -0.251 NA
ATOM     23  C   UNL     1      10.768 -22.823 -50.067  1.00  0.00     0.098 A 
BRANCH  23  24
ATOM     24  C   UNL     1       9.872 -23.637 -50.980  1.00  0.00     0.023 C 
ATOM     25  C   UNL     1       8.516 -22.923 -51.221  1.00  0.00     0.018 C 
ATOM     26  C   UNL     1       9.568 -25.022 -50.334  1.00  0.00     0.018 C 
ATOM     27  C   UNL     1      10.553 -23.898 -52.351  1.00  0.00     0.018 C 
ATOM     28  C   UNL     1       7.608 -23.766 -52.135  1.00  0.00    -0.010 C 
ATOM     29  C   UNL     1       8.659 -25.870 -51.240  1.00  0.00    -0.010 C 
ATOM     30  C   UNL     1       9.642 -24.741 -53.262  1.00  0.00    -0.010 C 
ATOM     31  C   UNL     1       8.316 -23.995 -53.481  1.00  0.00     0.007 C 
ATOM     32  C   UNL     1       7.337 -25.124 -51.468  1.00  0.00     0.007 C 
ATOM     33  C   UNL     1       9.359 -26.093 -52.589  1.00  0.00     0.007 C 
ENDBRANCH  23  24
ENDBRANCH  18  19
ENDBRANCH   1  18
TORSDOF 5
ENDMDL
MODEL 2
REMARK VINA RESULT:    -9.171      1.394      1.822
REMARK INTER + INTRA:         -12.540
REMARK INTER:                 -11.773
REMARK INTRA:                  -0.767
REMARK UNBOUND:                -0.689
REMARK SMILES Cc1nn(-c2ccccc2)c2sc(C(=O)[N-]c3nnc([C@]45C[C@H]6C[C@H](C[C@H](C6)C4)C5)s3)cc12
REMARK SMILES IDX 14 1 15 2 13 3 2 4 3 5 33 6 4 7 32 8 11 9 12 10 1 11 5 12
REMARK SMILES IDX 6 13 10 14 7 15 9 16 8 17 16 18 17 19 18 20 31 21 19 22
REMARK SMILES IDX 20 23 21 24 29 25 30 26 22 27 27 28 25 29 23 30 28 31 26 32
REMARK SMILES IDX 24 33
REMARK H PARENT
ROOT
ATOM      1  C   UNL     1      13.653 -22.268 -47.581  1.00  0.00     0.189 C 
ATOM      2  O   UNL     1      13.517 -21.110 -47.979  1.00  0.00    -0.292 OA
ENDROOT
BRANCH   1   3
ATOM      3  C   UNL     1      14.398 -22.531 -46.338  1.00  0.00     0.074 A 
ATOM      4  C   UNL     1      17.308 -22.685 -44.157  1.00  0.00     0.069 A 
ATOM      5  N   UNL     1      17.071 -23.124 -42.905  1.00  0.00    -0.171 NA
ATOM      6  C   UNL     1      16.127 -22.676 -44.873  1.00  0.00     0.035 A 
ATOM      7  N   UNL     1      15.707 -23.394 -42.863  1.00  0.00    -0.223 N 
ATOM      8  C   UNL     1      15.772 -22.330 -46.169  1.00  0.00     0.036 A 
ATOM      9  C   UNL     1      15.142 -23.111 -44.080  1.00  0.00     0.128 A 
ATOM     10  S   UNL     1      13.671 -23.131 -44.863  1.00  0.00    -0.112 S 
ATOM     11  C   UNL     1      18.669 -22.297 -44.588  1.00  0.00     0.069 C 
BRANCH   7  12
ATOM     12  C   UNL     1      15.123 -23.886 -41.658  1.00  0.00     0.066 A 
ATOM     13  C   UNL     1      15.941 -24.064 -40.527  1.00  0.00     0.028 A 
ATOM     14  C   UNL     1      13.762 -24.199 -41.562  1.00  0.00     0.028 A 
ATOM     15  C   UNL     1      15.406 -24.545 -39.329  1.00  0.00     0.002 A 
ATOM     16  C   UNL     1      13.232 -24.681 -40.359  1.00  0.00     0.002 A 
ATOM     17  C   UNL     1      14.051 -24.852 -39.245  1.00  0.00     0.000 A 
ENDBRANCH   7  12
ENDBRANCH   1   3
BRANCH   1  18
ATOM     18  N   UNL     1      13.228 -23.393 -48.168  1.00  0.00    -0.390 NA
BRANCH  18  19
ATOM     19  C   UNL     1      11.900 -23.542 -48.397  1.00  0.00     0.018 A 
ATOM     20  N   UNL     1      10.981 -23.418 -47.457  1.00  0.00    -0.342 NA
ATOM     21  S   UNL     1      11.222 -23.721 -49.973  1.00  0.00    -0.128 S 
ATOM     22  N   UNL     1       9.694 -23.556 -47.937  1.00  0.00    -0.251 NA
ATOM     23  C   UNL     1       9.663 -23.737 -49.241  1.00  0.00     0.098 A 
BRANCH  23  24
ATOM     24  C   UNL     1       8.396 -23.927 -50.051  1.00  0.00     0.023 C 
ATOM     25  C   UNL     1       7.166 -24.146 -49.130  1.00  0.00     0.018 C 
ATOM     26  C   UNL     1       8.529 -25.181 -50.966  1.00  0.00     0.018 C 
ATOM     27  C   UNL     1       8.124 -22.704 -50.969  1.00  0.00     0.018 C 
ATOM     28  C   UNL     1       5.888 -24.356 -49.963  1.00  0.00    -0.010 C 
ATOM     29  C   UNL     1       7.255 -25.399 -51.799  1.00  0.00    -0.010 C 
ATOM     30  C   UNL     1       6.845 -22.917 -51.800  1.00  0.00    -0.010 C 
ATOM     31  C   UNL     1       5.654 -23.122 -50.850  1.00  0.00     0.007 C 
ATOM     32  C   UNL     1       6.061 -25.595 -50.854  1.00  0.00     0.007 C 
ATOM     33  C   UNL     1       7.013 -24.164 -52.681  1.00  0.00     0.007 C 
ENDBRANCH  23  24
ENDBRANCH  18  19
ENDBRANCH   1  18
TORSDOF 5
ENDMDL
MODEL 3
REMARK VINA RESULT:    -9.165      1.387      2.191
REMARK INTER + INTRA:         -12.533
REMARK INTER:                 -11.760
REMARK INTRA:                  -0.773
REMARK UNBOUND:                -0.689
REMARK SMILES Cc1nn(-c2ccccc2)c2sc(C(=O)[N-]c3nnc([C@]45C[C@H]6C[C@H](C[C@H](C6)C4)C5)s3)cc12
REMARK SMILES IDX 14 1 15 2 13 3 2 4 3 5 33 6 4 7 32 8 11 9 12 10 1 11 5 12
REMARK SMILES IDX 6 13 10 14 7 15 9 16 8 17 16 18 17 19 18 20 31 21 19 22
REMARK SMILES IDX 20 23 21 24 29 25 30 26 22 27 27 28 25 29 23 30 28 31 26 32
REMARK SMILES IDX 24 33
REMARK H PARENT
ROOT
ATOM      1  C   UNL     1      13.590 -22.234 -47.531  1.00  0.00     0.189 C 
ATOM      2  O   UNL     1      13.410 -21.070 -47.889  1.00  0.00    -0.292 OA
ENDROOT
BRANCH   1   3
ATOM      3  C   UNL     1      14.345 -22.510 -46.296  1.00  0.00     0.074 A 
ATOM      4  C   UNL     1      17.274 -22.688 -44.141  1.00  0.00     0.069 A 
ATOM      5  N   UNL     1      17.046 -23.139 -42.892  1.00  0.00    -0.171 NA
ATOM      6  C   UNL     1      16.087 -22.671 -44.847  1.00  0.00     0.035 A 
ATOM      7  N   UNL     1      15.682 -23.407 -42.841  1.00  0.00    -0.223 N 
ATOM      8  C   UNL     1      15.721 -22.312 -46.137  1.00  0.00     0.036 A 
ATOM      9  C   UNL     1      15.108 -23.112 -44.050  1.00  0.00     0.128 A 
ATOM     10  S   UNL     1      13.630 -23.123 -44.821  1.00  0.00    -0.112 S 
ATOM     11  C   UNL     1      18.631 -22.297 -44.580  1.00  0.00     0.069 C 
BRANCH   7  12
ATOM     12  C   UNL     1      15.108 -23.911 -41.635  1.00  0.00     0.066 A 
ATOM     13  C   UNL     1      15.935 -24.096 -40.512  1.00  0.00     0.028 A 
ATOM     14  C   UNL     1      13.749 -24.227 -41.532  1.00  0.00     0.028 A 
ATOM     15  C   UNL     1      15.409 -24.587 -39.314  1.00  0.00     0.002 A 
ATOM     16  C   UNL     1      13.228 -24.719 -40.329  1.00  0.00     0.002 A 
ATOM     17  C   UNL     1      14.055 -24.898 -39.223  1.00  0.00     0.000 A 
ENDBRANCH   7  12
ENDBRANCH   1   3
BRANCH   1  18
ATOM     18  N   UNL     1      13.208 -23.354 -48.154  1.00  0.00    -0.390 NA
BRANCH  18  19
ATOM     19  C   UNL     1      11.888 -23.540 -48.402  1.00  0.00     0.018 A 
ATOM     20  N   UNL     1      10.958 -23.499 -47.465  1.00  0.00    -0.342 NA
ATOM     21  S   UNL     1      11.227 -23.659 -49.991  1.00  0.00    -0.128 S 
ATOM     22  N   UNL     1       9.681 -23.659 -47.962  1.00  0.00    -0.251 NA
ATOM     23  C   UNL     1       9.665 -23.771 -49.274  1.00  0.00     0.098 A 
BRANCH  23  24
ATOM     24  C   UNL     1       8.411 -23.963 -50.103  1.00  0.00     0.023 C 
ATOM     25  C   UNL     1       8.548 -25.178 -51.060  1.00  0.00     0.018 C 
ATOM     26  C   UNL     1       8.150 -22.701 -50.979  1.00  0.00     0.018 C 
ATOM     27  C   UNL     1       7.165 -24.173 -49.201  1.00  0.00     0.018 C 
ATOM     28  C   UNL     1       7.276 -25.353 -51.909  1.00  0.00    -0.010 C 
ATOM     29  C   UNL     1       6.882 -22.869 -51.833  1.00  0.00    -0.010 C 
ATOM     30  C   UNL     1       5.894 -24.349 -50.053  1.00  0.00    -0.010 C 
ATOM     31  C   UNL     1       6.070 -25.564 -50.978  1.00  0.00     0.007 C 
ATOM     32  C   UNL     1       7.050 -24.088 -52.751  1.00  0.00     0.007 C 
ATOM     33  C   UNL     1       5.676 -23.089 -50.906  1.00  0.00     0.007 C 
ENDBRANCH  23  24
ENDBRANCH  18  19
ENDBRANCH   1  18
TORSDOF 5
ENDMDL
MODEL 4
REMARK VINA RESULT:    -8.675      3.852      6.326
REMARK INTER + INTRA:         -11.900
REMARK INTER:                 -11.139
REMARK INTRA:                  -0.761
REMARK UNBOUND:                -0.689
REMARK SMILES Cc1nn(-c2ccccc2)c2sc(C(=O)[N-]c3nnc([C@]45C[C@H]6C[C@H](C[C@H](C6)C4)C5)s3)cc12
REMARK SMILES IDX 14 1 15 2 13 3 2 4 3 5 33 6 4 7 32 8 11 9 12 10 1 11 5 12
REMARK SMILES IDX 6 13 10 14 7 15 9 16 8 17 16 18 17 19 18 20 31 21 19 22
REMARK SMILES IDX 20 23 21 24 29 25 30 26 22 27 27 28 25 29 23 30 28 31 26 32
REMARK SMILES IDX 24 33
REMARK H PARENT
ROOT
ATOM      1  C   UNL     1       9.154 -23.661 -48.916  1.00  0.00     0.189 C 
ATOM      2  O   UNL     1       8.437 -23.772 -47.920  1.00  0.00    -0.292 OA
ENDROOT
BRANCH   1   3
ATOM      3  C   UNL     1      10.550 -23.219 -48.766  1.00  0.00     0.074 A 
ATOM      4  C   UNL     1      13.508 -21.205 -49.440  1.00  0.00     0.069 A 
ATOM      5  N   UNL     1      14.595 -21.511 -48.705  1.00  0.00    -0.171 NA
ATOM      6  C   UNL     1      12.465 -22.040 -49.086  1.00  0.00     0.035 A 
ATOM      7  N   UNL     1      14.202 -22.564 -47.886  1.00  0.00    -0.223 N 
ATOM      8  C   UNL     1      11.146 -22.182 -49.492  1.00  0.00     0.036 A 
ATOM      9  C   UNL     1      12.889 -22.875 -48.131  1.00  0.00     0.128 A 
ATOM     10  S   UNL     1      11.690 -23.921 -47.638  1.00  0.00    -0.112 S 
ATOM     11  C   UNL     1      13.541 -20.119 -50.443  1.00  0.00     0.069 C 
BRANCH   7  12
ATOM     12  C   UNL     1      15.138 -23.133 -46.972  1.00  0.00     0.066 A 
ATOM     13  C   UNL     1      16.163 -22.322 -46.452  1.00  0.00     0.028 A 
ATOM     14  C   UNL     1      15.071 -24.474 -46.575  1.00  0.00     0.028 A 
ATOM     15  C   UNL     1      17.099 -22.844 -45.556  1.00  0.00     0.002 A 
ATOM     16  C   UNL     1      16.012 -24.991 -45.676  1.00  0.00     0.002 A 
ATOM     17  C   UNL     1      17.022 -24.179 -45.167  1.00  0.00     0.000 A 
ENDBRANCH   7  12
ENDBRANCH   1   3
BRANCH   1  18
ATOM     18  N   UNL     1       8.818 -23.862 -50.195  1.00  0.00    -0.390 NA
BRANCH  18  19
ATOM     19  C   UNL     1       7.623 -23.395 -50.633  1.00  0.00     0.018 A 
ATOM     20  N   UNL     1       7.482 -22.260 -51.294  1.00  0.00    -0.342 NA
ATOM     21  S   UNL     1       6.161 -24.307 -50.558  1.00  0.00    -0.128 S 
ATOM     22  N   UNL     1       6.182 -22.020 -51.687  1.00  0.00    -0.251 NA
ATOM     23  C   UNL     1       5.369 -23.002 -51.355  1.00  0.00     0.098 A 
BRANCH  23  24
ATOM     24  C   UNL     1       3.882 -23.020 -51.647  1.00  0.00     0.023 C 
ATOM     25  C   UNL     1       3.512 -22.003 -52.759  1.00  0.00     0.018 C 
ATOM     26  C   UNL     1       3.082 -22.632 -50.367  1.00  0.00     0.018 C 
ATOM     27  C   UNL     1       3.410 -24.434 -52.083  1.00  0.00     0.018 C 
ATOM     28  C   UNL     1       1.998 -22.017 -53.034  1.00  0.00    -0.010 C 
ATOM     29  C   UNL     1       1.567 -22.641 -50.634  1.00  0.00    -0.010 C 
ATOM     30  C   UNL     1       1.895 -24.444 -52.358  1.00  0.00    -0.010 C 
ATOM     31  C   UNL     1       1.575 -23.430 -53.468  1.00  0.00     0.007 C 
ATOM     32  C   UNL     1       1.245 -21.636 -51.750  1.00  0.00     0.007 C 
ATOM     33  C   UNL     1       1.143 -24.049 -51.078  1.00  0.00     0.007 C 
ENDBRANCH  23  24
ENDBRANCH  18  19
ENDBRANCH   1  18
TORSDOF 5
ENDMDL
MODEL 5
REMARK VINA RESULT:    -8.245      6.522     10.274
REMARK INTER + INTRA:         -11.344
REMARK INTER:                 -10.572
REMARK INTRA:                  -0.772
REMARK UNBOUND:                -0.689
REMARK SMILES Cc1nn(-c2ccccc2)c2sc(C(=O)[N-]c3nnc([C@]45C[C@H]6C[C@H](C[C@H](C6)C4)C5)s3)cc12
REMARK SMILES IDX 14 1 15 2 13 3 2 4 3 5 33 6 4 7 32 8 11 9 12 10 1 11 5 12
REMARK SMILES IDX 6 13 10 14 7 15 9 16 8 17 16 18 17 19 18 20 31 21 19 22
REMARK SMILES IDX 20 23 21 24 29 25 30 26 22 27 27 28 25 29 23 30 28 31 26 32
REMARK SMILES IDX 24 33
REMARK H PARENT
ROOT
ATOM      1  C   UNL     1      13.637 -19.561 -52.729  1.00  0.00     0.189 C 
ATOM      2  O   UNL     1      12.978 -20.194 -53.555  1.00  0.00    -0.292 OA
ENDROOT
BRANCH   1   3
ATOM      3  C   UNL     1      15.031 -19.194 -53.033  1.00  0.00     0.074 A 
ATOM      4  C   UNL     1      18.499 -19.752 -53.989  1.00  0.00     0.069 A 
ATOM      5  N   UNL     1      19.268 -18.647 -54.048  1.00  0.00    -0.171 NA
ATOM      6  C   UNL     1      17.216 -19.401 -53.617  1.00  0.00     0.035 A 
ATOM      7  N   UNL     1      18.427 -17.595 -53.699  1.00  0.00    -0.223 N 
ATOM      8  C   UNL     1      16.034 -20.096 -53.403  1.00  0.00     0.036 A 
ATOM      9  C   UNL     1      17.169 -18.076 -53.439  1.00  0.00     0.128 A 
ATOM     10  S   UNL     1      15.651 -17.558 -52.990  1.00  0.00    -0.112 S 
ATOM     11  C   UNL     1      19.053 -21.089 -54.297  1.00  0.00     0.069 C 
BRANCH   7  12
ATOM     12  C   UNL     1      18.942 -16.265 -53.662  1.00  0.00     0.066 A 
ATOM     13  C   UNL     1      20.155 -15.985 -54.316  1.00  0.00     0.028 A 
ATOM     14  C   UNL     1      18.279 -15.227 -52.996  1.00  0.00     0.028 A 
ATOM     15  C   UNL     1      20.691 -14.695 -54.301  1.00  0.00     0.002 A 
ATOM     16  C   UNL     1      18.820 -13.937 -52.984  1.00  0.00     0.002 A 
ATOM     17  C   UNL     1      20.023 -13.670 -53.636  1.00  0.00     0.000 A 
ENDBRANCH   7  12
ENDBRANCH   1   3
BRANCH   1  18
ATOM     18  N   UNL     1      13.261 -19.163 -51.509  1.00  0.00    -0.390 NA
BRANCH  18  19
ATOM     19  C   UNL     1      13.076 -20.103 -50.549  1.00  0.00     0.018 A 
ATOM     20  N   UNL     1      11.987 -20.843 -50.455  1.00  0.00    -0.342 NA
ATOM     21  S   UNL     1      14.310 -20.593 -49.448  1.00  0.00    -0.128 S 
ATOM     22  N   UNL     1      12.049 -21.771 -49.436  1.00  0.00    -0.251 NA
ATOM     23  C   UNL     1      13.206 -21.747 -48.806  1.00  0.00     0.098 A 
BRANCH  23  24
ATOM     24  C   UNL     1      13.566 -22.643 -47.638  1.00  0.00     0.023 C 
ATOM     25  C   UNL     1      13.233 -24.128 -47.944  1.00  0.00     0.018 C 
ATOM     26  C   UNL     1      12.754 -22.228 -46.375  1.00  0.00     0.018 C 
ATOM     27  C   UNL     1      15.073 -22.530 -47.285  1.00  0.00     0.018 C 
ATOM     28  C   UNL     1      13.586 -25.027 -46.745  1.00  0.00    -0.010 C 
ATOM     29  C   UNL     1      13.099 -23.123 -45.173  1.00  0.00    -0.010 C 
ATOM     30  C   UNL     1      15.424 -23.431 -46.085  1.00  0.00    -0.010 C 
ATOM     31  C   UNL     1      15.086 -24.890 -46.434  1.00  0.00     0.007 C 
ATOM     32  C   UNL     1      12.772 -24.583 -45.520  1.00  0.00     0.007 C 
ATOM     33  C   UNL     1      14.599 -22.996 -44.864  1.00  0.00     0.007 C 
ENDBRANCH  23  24
ENDBRANCH  18  19
ENDBRANCH   1  18
TORSDOF 5
ENDMDL
MODEL 6
REMARK VINA RESULT:    -7.850      3.393     11.176
REMARK INTER + INTRA:         -10.834
REMARK INTER:                 -10.037
REMARK INTRA:                  -0.796
REMARK UNBOUND:                -0.689
REMARK SMILES Cc1nn(-c2ccccc2)c2sc(C(=O)[N-]c3nnc([C@]45C[C@H]6C[C@H](C[C@H](C6)C4)C5)s3)cc12
REMARK SMILES IDX 14 1 15 2 13 3 2 4 3 5 33 6 4 7 32 8 11 9 12 10 1 11 5 12
REMARK SMILES IDX 6 13 10 14 7 15 9 16 8 17 16 18 17 19 18 20 31 21 19 22
REMARK SMILES IDX 20 23 21 24 29 25 30 26 22 27 27 28 25 29 23 30 28 31 26 32
REMARK SMILES IDX 24 33
REMARK H PARENT
ROOT
ATOM      1  C   UNL     1       9.265 -25.106 -48.688  1.00  0.00     0.189 C 
ATOM      2  O   UNL     1       9.793 -26.217 -48.752  1.00  0.00    -0.292 OA
ENDROOT
BRANCH   1   3
ATOM      3  C   UNL     1       8.301 -24.694 -49.722  1.00  0.00     0.074 A 
ATOM      4  C   UNL     1       7.135 -23.929 -53.086  1.00  0.00     0.069 A 
ATOM      5  N   UNL     1       5.844 -23.553 -53.178  1.00  0.00    -0.171 NA
ATOM      6  C   UNL     1       7.445 -24.187 -51.764  1.00  0.00     0.035 A 
ATOM      7  N   UNL     1       5.358 -23.581 -51.875  1.00  0.00    -0.223 N 
ATOM      8  C   UNL     1       8.585 -24.598 -51.089  1.00  0.00     0.036 A 
ATOM      9  C   UNL     1       6.354 -23.974 -51.019  1.00  0.00     0.128 A 
ATOM     10  S   UNL     1       6.635 -24.266 -49.403  1.00  0.00    -0.112 S 
ATOM     11  C   UNL     1       7.996 -24.018 -54.285  1.00  0.00     0.069 C 
BRANCH   7  12
ATOM     12  C   UNL     1       3.999 -23.226 -51.623  1.00  0.00     0.066 A 
ATOM     13  C   UNL     1       3.474 -22.068 -52.224  1.00  0.00     0.028 A 
ATOM     14  C   UNL     1       3.170 -23.993 -50.796  1.00  0.00     0.028 A 
ATOM     15  C   UNL     1       2.148 -21.688 -52.000  1.00  0.00     0.002 A 
ATOM     16  C   UNL     1       1.843 -23.608 -50.575  1.00  0.00     0.002 A 
ATOM     17  C   UNL     1       1.332 -22.459 -51.176  1.00  0.00     0.000 A 
ENDBRANCH   7  12
ENDBRANCH   1   3
BRANCH   1  18
ATOM     18  N   UNL     1       9.476 -24.148 -47.778  1.00  0.00    -0.390 NA
BRANCH  18  19
ATOM     19  C   UNL     1      10.753 -23.772 -47.518  1.00  0.00     0.018 A 
ATOM     20  N   UNL     1      11.321 -22.705 -48.050  1.00  0.00    -0.342 NA
ATOM     21  S   UNL     1      11.736 -24.520 -46.314  1.00  0.00    -0.128 S 
ATOM     22  N   UNL     1      12.605 -22.491 -47.593  1.00  0.00    -0.251 NA
ATOM     23  C   UNL     1      12.969 -23.376 -46.687  1.00  0.00     0.098 A 
BRANCH  23  24
ATOM     24  C   UNL     1      14.323 -23.402 -46.008  1.00  0.00     0.023 C 
ATOM     25  C   UNL     1      14.198 -23.120 -44.488  1.00  0.00     0.018 C 
ATOM     26  C   UNL     1      15.247 -22.305 -46.617  1.00  0.00     0.018 C 
ATOM     27  C   UNL     1      15.028 -24.771 -46.209  1.00  0.00     0.018 C 
ATOM     28  C   UNL     1      15.582 -23.131 -43.813  1.00  0.00    -0.010 C 
ATOM     29  C   UNL     1      16.631 -22.307 -45.946  1.00  0.00    -0.010 C 
ATOM     30  C   UNL     1      16.411 -24.779 -45.531  1.00  0.00    -0.010 C 
ATOM     31  C   UNL     1      16.240 -24.504 -44.028  1.00  0.00     0.007 C 
ATOM     32  C   UNL     1      16.463 -22.042 -44.443  1.00  0.00     0.007 C 
ATOM     33  C   UNL     1      17.288 -23.681 -46.152  1.00  0.00     0.007 C 
ENDBRANCH  23  24
ENDBRANCH  18  19
ENDBRANCH   1  18
TORSDOF 5
ENDMDL
MODEL 7
REMARK VINA RESULT:    -7.848      2.290     10.447
REMARK INTER + INTRA:         -10.831
REMARK INTER:                 -10.037
REMARK INTRA:                  -0.795
REMARK UNBOUND:                -0.689
REMARK SMILES Cc1nn(-c2ccccc2)c2sc(C(=O)[N-]c3nnc([C@]45C[C@H]6C[C@H](C[C@H](C6)C4)C5)s3)cc12
REMARK SMILES IDX 14 1 15 2 13 3 2 4 3 5 33 6 4 7 32 8 11 9 12 10 1 11 5 12
REMARK SMILES IDX 6 13 10 14 7 15 9 16 8 17 16 18 17 19 18 20 31 21 19 22
REMARK SMILES IDX 20 23 21 24 29 25 30 26 22 27 27 28 25 29 23 30 28 31 26 32
REMARK SMILES IDX 24 33
REMARK H PARENT
ROOT
ATOM      1  C   UNL     1      12.832 -23.038 -48.090  1.00  0.00     0.189 C 
ATOM      2  O   UNL     1      13.955 -23.470 -48.356  1.00  0.00    -0.292 OA
ENDROOT
BRANCH   1   3
ATOM      3  C   UNL     1      11.729 -23.234 -49.045  1.00  0.00     0.074 A 
ATOM      4  C   UNL     1      10.184 -23.932 -52.268  1.00  0.00     0.069 A 
ATOM      5  N   UNL     1       8.837 -23.924 -52.277  1.00  0.00    -0.171 NA
ATOM      6  C   UNL     1      10.637 -23.654 -50.992  1.00  0.00     0.035 A 
ATOM      7  N   UNL     1       8.462 -23.630 -50.970  1.00  0.00    -0.223 N 
ATOM      8  C   UNL     1      11.887 -23.535 -50.403  1.00  0.00     0.036 A 
ATOM      9  C   UNL     1       9.580 -23.469 -50.194  1.00  0.00     0.128 A 
ATOM     10  S   UNL     1      10.032 -23.130 -48.626  1.00  0.00    -0.112 S 
ATOM     11  C   UNL     1      10.958 -24.209 -53.498  1.00  0.00     0.069 C 
BRANCH   7  12
ATOM     12  C   UNL     1       7.077 -23.543 -50.638  1.00  0.00     0.066 A 
ATOM     13  C   UNL     1       6.573 -24.348 -49.600  1.00  0.00     0.028 A 
ATOM     14  C   UNL     1       6.201 -22.682 -51.310  1.00  0.00     0.028 A 
ATOM     15  C   UNL     1       5.222 -24.291 -49.246  1.00  0.00     0.002 A 
ATOM     16  C   UNL     1       4.849 -22.630 -50.951  1.00  0.00     0.002 A 
ATOM     17  C   UNL     1       4.361 -23.431 -49.922  1.00  0.00     0.000 A 
ENDBRANCH   7  12
ENDBRANCH   1   3
BRANCH   1  18
ATOM     18  N   UNL     1      12.454 -22.345 -47.011  1.00  0.00    -0.390 NA
BRANCH  18  19
ATOM     19  C   UNL     1      12.597 -22.917 -45.790  1.00  0.00     0.018 A 
ATOM     20  N   UNL     1      11.604 -23.490 -45.134  1.00  0.00    -0.342 NA
ATOM     21  S   UNL     1      14.123 -23.146 -45.020  1.00  0.00    -0.128 S 
ATOM     22  N   UNL     1      11.999 -24.054 -43.938  1.00  0.00    -0.251 NA
ATOM     23  C   UNL     1      13.296 -23.938 -43.734  1.00  0.00     0.098 A 
BRANCH  23  24
ATOM     24  C   UNL     1      14.020 -24.453 -42.507  1.00  0.00     0.023 C 
ATOM     25  C   UNL     1      13.162 -24.271 -41.227  1.00  0.00     0.018 C 
ATOM     26  C   UNL     1      15.349 -23.665 -42.300  1.00  0.00     0.018 C 
ATOM     27  C   UNL     1      14.385 -25.955 -42.657  1.00  0.00     0.018 C 
ATOM     28  C   UNL     1      13.915 -24.781 -39.985  1.00  0.00    -0.010 C 
ATOM     29  C   UNL     1      16.106 -24.167 -41.060  1.00  0.00    -0.010 C 
ATOM     30  C   UNL     1      15.138 -26.462 -41.412  1.00  0.00    -0.010 C 
ATOM     31  C   UNL     1      14.250 -26.270 -40.172  1.00  0.00     0.007 C 
ATOM     32  C   UNL     1      15.219 -23.986 -39.819  1.00  0.00     0.007 C 
ATOM     33  C   UNL     1      16.434 -25.657 -41.239  1.00  0.00     0.007 C 
ENDBRANCH  23  24
ENDBRANCH  18  19
ENDBRANCH   1  18
TORSDOF 5
ENDMDL
MODEL 8
REMARK VINA RESULT:    -7.796      4.599      8.260
REMARK INTER + INTRA:         -10.763
REMARK INTER:                  -9.970
REMARK INTRA:                  -0.794
REMARK UNBOUND:                -0.689
REMARK SMILES Cc1nn(-c2ccccc2)c2sc(C(=O)[N-]c3nnc([C@]45C[C@H]6C[C@H](C[C@H](C6)C4)C5)s3)cc12
REMARK SMILES IDX 14 1 15 2 13 3 2 4 3 5 33 6 4 7 32 8 11 9 12 10 1 11 5 12
REMARK SMILES IDX 6 13 10 14 7 15 9 16 8 17 16 18 17 19 18 20 31 21 19 22
REMARK SMILES IDX 20 23 21 24 29 25 30 26 22 27 27 28 25 29 23 30 28 31 26 32
REMARK SMILES IDX 24 33
REMARK H PARENT
ROOT
ATOM      1  C   UNL     1       8.760 -24.719 -49.750  1.00  0.00     0.189 C 
ATOM      2  O   UNL     1       8.924 -25.730 -50.434  1.00  0.00    -0.292 OA
ENDROOT
BRANCH   1   3
ATOM      3  C   UNL     1       9.881 -23.786 -49.545  1.00  0.00     0.074 A 
ATOM      4  C   UNL     1      12.529 -22.100 -47.700  1.00  0.00     0.069 A 
ATOM      5  N   UNL     1      13.246 -21.204 -48.407  1.00  0.00    -0.171 NA
ATOM      6  C   UNL     1      11.564 -22.661 -48.515  1.00  0.00     0.035 A 
ATOM      7  N   UNL     1      12.698 -21.221 -49.685  1.00  0.00    -0.223 N 
ATOM      8  C   UNL     1      10.570 -23.613 -48.339  1.00  0.00     0.036 A 
ATOM      9  C   UNL     1      11.667 -22.123 -49.735  1.00  0.00     0.128 A 
ATOM     10  S   UNL     1      10.539 -22.747 -50.791  1.00  0.00    -0.112 S 
ATOM     11  C   UNL     1      12.820 -22.361 -46.274  1.00  0.00     0.069 C 
BRANCH   7  12
ATOM     12  C   UNL     1      13.237 -20.367 -50.694  1.00  0.00     0.066 A 
ATOM     13  C   UNL     1      13.346 -20.851 -52.010  1.00  0.00     0.028 A 
ATOM     14  C   UNL     1      13.663 -19.063 -50.418  1.00  0.00     0.028 A 
ATOM     15  C   UNL     1      13.870 -20.046 -53.025  1.00  0.00     0.002 A 
ATOM     16  C   UNL     1      14.187 -18.260 -51.438  1.00  0.00     0.002 A 
ATOM     17  C   UNL     1      14.289 -18.750 -52.738  1.00  0.00     0.000 A 
ENDBRANCH   7  12
ENDBRANCH   1   3
BRANCH   1  18
ATOM     18  N   UNL     1       7.656 -24.339 -49.097  1.00  0.00    -0.390 NA
BRANCH  18  19
ATOM     19  C   UNL     1       6.638 -23.795 -49.808  1.00  0.00     0.018 A 
ATOM     20  N   UNL     1       6.777 -22.738 -50.588  1.00  0.00    -0.342 NA
ATOM     21  S   UNL     1       5.079 -24.521 -49.944  1.00  0.00    -0.128 S 
ATOM     22  N   UNL     1       5.617 -22.401 -51.256  1.00  0.00    -0.251 NA
ATOM     23  C   UNL     1       4.633 -23.239 -51.003  1.00  0.00     0.098 A 
BRANCH  23  24
ATOM     24  C   UNL     1       3.238 -23.124 -51.585  1.00  0.00     0.023 C 
ATOM     25  C   UNL     1       2.509 -21.859 -51.057  1.00  0.00     0.018 C 
ATOM     26  C   UNL     1       2.385 -24.363 -51.178  1.00  0.00     0.018 C 
ATOM     27  C   UNL     1       3.276 -23.070 -53.136  1.00  0.00     0.018 C 
ATOM     28  C   UNL     1       1.088 -21.762 -51.640  1.00  0.00    -0.010 C 
ATOM     29  C   UNL     1       0.963 -24.273 -51.755  1.00  0.00    -0.010 C 
ATOM     30  C   UNL     1       1.853 -22.972 -53.716  1.00  0.00    -0.010 C 
ATOM     31  C   UNL     1       1.173 -21.704 -53.175  1.00  0.00     0.007 C 
ATOM     32  C   UNL     1       0.283 -23.002 -51.224  1.00  0.00     0.007 C 
ATOM     33  C   UNL     1       1.044 -24.206 -53.288  1.00  0.00     0.007 C 
ENDBRANCH  23  24
ENDBRANCH  18  19
ENDBRANCH   1  18
TORSDOF 5
ENDMDL
MODEL 9
REMARK VINA RESULT:    -7.795      2.846     10.930
REMARK INTER + INTRA:         -10.762
REMARK INTER:                 -10.013
REMARK INTRA:                  -0.749
REMARK UNBOUND:                -0.689
REMARK SMILES Cc1nn(-c2ccccc2)c2sc(C(=O)[N-]c3nnc([C@]45C[C@H]6C[C@H](C[C@H](C6)C4)C5)s3)cc12
REMARK SMILES IDX 14 1 15 2 13 3 2 4 3 5 33 6 4 7 32 8 11 9 12 10 1 11 5 12
REMARK SMILES IDX 6 13 10 14 7 15 9 16 8 17 16 18 17 19 18 20 31 21 19 22
REMARK SMILES IDX 20 23 21 24 29 25 30 26 22 27 27 28 25 29 23 30 28 31 26 32
REMARK SMILES IDX 24 33
REMARK H PARENT
ROOT
ATOM      1  C   UNL     1      11.163 -24.396 -48.373  1.00  0.00     0.189 C 
ATOM      2  O   UNL     1      12.280 -24.602 -48.851  1.00  0.00    -0.292 OA
ENDROOT
BRANCH   1   3
ATOM      3  C   UNL     1      10.007 -24.220 -49.268  1.00  0.00     0.074 A 
ATOM      4  C   UNL     1       8.245 -24.010 -52.447  1.00  0.00     0.069 A 
ATOM      5  N   UNL     1       6.919 -23.786 -52.360  1.00  0.00    -0.171 NA
ATOM      6  C   UNL     1       8.786 -24.066 -51.177  1.00  0.00     0.035 A 
ATOM      7  N   UNL     1       6.649 -23.701 -50.998  1.00  0.00    -0.223 N 
ATOM      8  C   UNL     1      10.060 -24.267 -50.665  1.00  0.00     0.036 A 
ATOM      9  C   UNL     1       7.808 -23.878 -50.286  1.00  0.00     0.128 A 
ATOM     10  S   UNL     1       8.370 -23.933 -48.718  1.00  0.00    -0.112 S 
ATOM     11  C   UNL     1       8.913 -24.157 -53.759  1.00  0.00     0.069 C 
BRANCH   7  12
ATOM     12  C   UNL     1       5.313 -23.463 -50.558  1.00  0.00     0.066 A 
ATOM     13  C   UNL     1       4.823 -24.175 -49.449  1.00  0.00     0.028 A 
ATOM     14  C   UNL     1       4.471 -22.543 -51.195  1.00  0.00     0.028 A 
ATOM     15  C   UNL     1       3.520 -23.969 -48.989  1.00  0.00     0.002 A 
ATOM     16  C   UNL     1       3.166 -22.341 -50.730  1.00  0.00     0.002 A 
ATOM     17  C   UNL     1       2.692 -23.051 -49.629  1.00  0.00     0.000 A 
ENDBRANCH   7  12
ENDBRANCH   1   3
BRANCH   1  18
ATOM     18  N   UNL     1      10.833 -24.266 -47.083  1.00  0.00    -0.390 NA
BRANCH  18  19
ATOM     19  C   UNL     1      11.814 -23.993 -46.188  1.00  0.00     0.018 A 
ATOM     20  N   UNL     1      12.175 -22.768 -45.855  1.00  0.00    -0.342 NA
ATOM     21  S   UNL     1      12.582 -25.199 -45.223  1.00  0.00    -0.128 S 
ATOM     22  N   UNL     1      13.153 -22.737 -44.882  1.00  0.00    -0.251 NA
ATOM     23  C   UNL     1      13.481 -23.942 -44.463  1.00  0.00     0.098 A 
BRANCH  23  24
ATOM     24  C   UNL     1      14.530 -24.227 -43.407  1.00  0.00     0.023 C 
ATOM     25  C   UNL     1      15.583 -23.089 -43.335  1.00  0.00     0.018 C 
ATOM     26  C   UNL     1      15.285 -25.547 -43.747  1.00  0.00     0.018 C 
ATOM     27  C   UNL     1      13.885 -24.403 -42.006  1.00  0.00     0.018 C 
ATOM     28  C   UNL     1      16.652 -23.397 -42.272  1.00  0.00    -0.010 C 
ATOM     29  C   UNL     1      16.358 -25.861 -42.690  1.00  0.00    -0.010 C 
ATOM     30  C   UNL     1      14.958 -24.711 -40.944  1.00  0.00    -0.010 C 
ATOM     31  C   UNL     1      15.973 -23.557 -40.902  1.00  0.00     0.007 C 
ATOM     32  C   UNL     1      17.368 -24.706 -42.638  1.00  0.00     0.007 C 
ATOM     33  C   UNL     1      15.684 -26.013 -41.318  1.00  0.00     0.007 C 
ENDBRANCH  23  24
ENDBRANCH  18  19
ENDBRANCH   1  18
TORSDOF 5
ENDMDL
