MODEL 1
REMARK VINA RESULT:    -6.402      0.000      0.000
REMARK INTER + INTRA:          -7.841
REMARK INTER:                  -7.524
REMARK INTRA:                  -0.317
REMARK UNBOUND:                -0.317
REMARK SMILES CC[C@@]1(C)[N-]C(=O)N(CC(=O)N2CC[NH2+]CC2)C1=O
REMARK SMILES IDX 3 1 4 2 5 3 6 4 7 5 8 6 18 7 19 8 2 9 1 10 9 11 10 12 11 13
REMARK SMILES IDX 12 14 13 15 17 16 14 17 16 18 15 19
REMARK H PARENT 15 20 15 21
ROOT
ATOM      1  C   UNL     1      10.626 -23.305 -50.307  1.00  0.00     0.033 C 
ATOM      2  C   UNL     1      11.117 -24.721 -50.608  1.00  0.00     0.019 C 
ATOM      3  N   UNL     1      11.566 -22.315 -50.877  1.00  0.00    -0.417 NA
ATOM      4  C   UNL     1      12.237 -21.717 -49.899  1.00  0.00     0.162 C 
ATOM      5  O   UNL     1      13.005 -20.771 -50.028  1.00  0.00    -0.298 OA
ATOM      6  N   UNL     1      11.895 -22.229 -48.688  1.00  0.00    -0.372 N 
ATOM      7  C   UNL     1      10.788 -22.998 -48.832  1.00  0.00     0.155 C 
ATOM      8  O   UNL     1      10.044 -23.391 -47.935  1.00  0.00    -0.298 OA
ENDROOT
BRANCH   1   9
ATOM      9  C   UNL     1       9.199 -23.012 -50.806  1.00  0.00     0.010 C 
ATOM     10  C   UNL     1       8.776 -23.772 -52.057  1.00  0.00     0.005 C 
ENDBRANCH   1   9
BRANCH   6  11
ATOM     11  C   UNL     1      12.306 -21.563 -47.470  1.00  0.00     0.112 C 
BRANCH  11  12
ATOM     12  C   UNL     1      12.694 -22.558 -46.378  1.00  0.00     0.222 C 
ATOM     13  O   UNL     1      11.977 -22.755 -45.392  1.00  0.00    -0.275 OA
ATOM     14  N   UNL     1      13.928 -23.219 -46.477  1.00  0.00    -0.331 N 
ATOM     15  C   UNL     1      14.284 -24.058 -45.332  1.00  0.00     0.181 C 
ATOM     16  C   UNL     1      15.098 -22.650 -47.176  1.00  0.00     0.181 C 
ATOM     17  C   UNL     1      14.913 -23.193 -44.221  1.00  0.00     0.282 C 
ATOM     18  C   UNL     1      16.242 -22.298 -46.189  1.00  0.00     0.282 C 
ATOM     19  N   UNL     1      15.679 -22.042 -44.822  1.00  0.00    -0.343 N 
ATOM     20  H   UNL     1      14.987 -21.268 -44.974  1.00  0.00     0.346 HD
ATOM     21  H   UNL     1      16.363 -21.640 -44.174  1.00  0.00     0.346 HD
ENDBRANCH  11  12
ENDBRANCH   6  11
TORSDOF 3
ENDMDL
MODEL 2
REMARK VINA RESULT:    -6.390      2.160      3.266
REMARK INTER + INTRA:          -7.828
REMARK INTER:                  -7.226
REMARK INTRA:                  -0.602
REMARK UNBOUND:                -0.317
REMARK SMILES CC[C@@]1(C)[N-]C(=O)N(CC(=O)N2CC[NH2+]CC2)C1=O
REMARK SMILES IDX 3 1 4 2 5 3 6 4 7 5 8 6 18 7 19 8 2 9 1 10 9 11 10 12 11 13
REMARK SMILES IDX 12 14 13 15 17 16 14 17 16 18 15 19
REMARK H PARENT 15 20 15 21
ROOT
ATOM      1  C   UNL     1      13.029 -20.704 -49.300  1.00  0.00     0.033 C 
ATOM      2  C   UNL     1      13.194 -19.370 -48.572  1.00  0.00     0.019 C 
ATOM      3  N   UNL     1      11.644 -21.196 -49.141  1.00  0.00    -0.417 NA
ATOM      4  C   UNL     1      11.630 -22.246 -48.326  1.00  0.00     0.162 C 
ATOM      5  O   UNL     1      10.659 -22.952 -48.081  1.00  0.00    -0.298 OA
ATOM      6  N   UNL     1      12.874 -22.513 -47.852  1.00  0.00    -0.372 N 
ATOM      7  C   UNL     1      13.780 -21.796 -48.563  1.00  0.00     0.155 C 
ATOM      8  O   UNL     1      14.995 -21.981 -48.606  1.00  0.00    -0.298 OA
ENDROOT
BRANCH   1   9
ATOM      9  C   UNL     1      13.395 -20.658 -50.794  1.00  0.00     0.010 C 
ATOM     10  C   UNL     1      13.585 -19.263 -51.377  1.00  0.00     0.005 C 
ENDBRANCH   1   9
BRANCH   6  11
ATOM     11  C   UNL     1      13.142 -23.755 -47.157  1.00  0.00     0.112 C 
BRANCH  11  12
ATOM     12  C   UNL     1      13.564 -23.518 -45.708  1.00  0.00     0.222 C 
ATOM     13  O   UNL     1      12.898 -22.815 -44.943  1.00  0.00    -0.275 OA
ATOM     14  N   UNL     1      14.773 -24.074 -45.260  1.00  0.00    -0.331 N 
ATOM     15  C   UNL     1      15.169 -23.698 -43.902  1.00  0.00     0.181 C 
ATOM     16  C   UNL     1      15.916 -24.352 -46.152  1.00  0.00     0.181 C 
ATOM     17  C   UNL     1      15.883 -22.331 -43.920  1.00  0.00     0.282 C 
ATOM     18  C   UNL     1      17.122 -23.426 -45.845  1.00  0.00     0.282 C 
ATOM     19  N   UNL     1      16.644 -22.154 -45.209  1.00  0.00    -0.343 N 
ATOM     20  H   UNL     1      15.965 -21.762 -45.907  1.00  0.00     0.346 HD
ATOM     21  H   UNL     1      17.373 -21.438 -45.142  1.00  0.00     0.346 HD
ENDBRANCH  11  12
ENDBRANCH   6  11
TORSDOF 3
ENDMDL
MODEL 3
REMARK VINA RESULT:    -6.071      5.022      8.486
REMARK INTER + INTRA:          -7.452
REMARK INTER:                  -7.040
REMARK INTRA:                  -0.413
REMARK UNBOUND:                -0.317
REMARK SMILES CC[C@@]1(C)[N-]C(=O)N(CC(=O)N2CC[NH2+]CC2)C1=O
REMARK SMILES IDX 3 1 4 2 5 3 6 4 7 5 8 6 18 7 19 8 2 9 1 10 9 11 10 12 11 13
REMARK SMILES IDX 12 14 13 15 17 16 14 17 16 18 15 19
REMARK H PARENT 15 20 15 21
ROOT
ATOM      1  C   UNL     1      14.561 -25.231 -39.862  1.00  0.00     0.033 C 
ATOM      2  C   UNL     1      14.923 -26.297 -38.828  1.00  0.00     0.019 C 
ATOM      3  N   UNL     1      14.105 -25.877 -41.112  1.00  0.00    -0.417 NA
ATOM      4  C   UNL     1      15.024 -25.722 -42.058  1.00  0.00     0.162 C 
ATOM      5  O   UNL     1      14.903 -26.040 -43.236  1.00  0.00    -0.298 OA
ATOM      6  N   UNL     1      16.115 -25.070 -41.580  1.00  0.00    -0.372 N 
ATOM      7  C   UNL     1      15.816 -24.546 -40.365  1.00  0.00     0.155 C 
ATOM      8  O   UNL     1      16.444 -23.677 -39.764  1.00  0.00    -0.298 OA
ENDROOT
BRANCH   1   9
ATOM      9  C   UNL     1      13.502 -24.221 -39.384  1.00  0.00     0.010 C 
ATOM     10  C   UNL     1      13.462 -23.981 -37.879  1.00  0.00     0.005 C 
ENDBRANCH   1   9
BRANCH   6  11
ATOM     11  C   UNL     1      17.125 -24.569 -42.488  1.00  0.00     0.112 C 
BRANCH  11  12
ATOM     12  C   UNL     1      16.611 -23.398 -43.323  1.00  0.00     0.222 C 
ATOM     13  O   UNL     1      16.027 -22.439 -42.810  1.00  0.00    -0.275 OA
ATOM     14  N   UNL     1      16.761 -23.449 -44.718  1.00  0.00    -0.331 N 
ATOM     15  C   UNL     1      16.132 -22.353 -45.456  1.00  0.00     0.181 C 
ATOM     16  C   UNL     1      16.825 -24.712 -45.480  1.00  0.00     0.181 C 
ATOM     17  C   UNL     1      14.635 -22.655 -45.674  1.00  0.00     0.282 C 
ATOM     18  C   UNL     1      15.577 -24.902 -46.382  1.00  0.00     0.282 C 
ATOM     19  N   UNL     1      14.415 -24.139 -45.819  1.00  0.00    -0.343 N 
ATOM     20  H   UNL     1      14.308 -24.522 -44.847  1.00  0.00     0.346 HD
ATOM     21  H   UNL     1      13.526 -24.364 -46.274  1.00  0.00     0.346 HD
ENDBRANCH  11  12
ENDBRANCH   6  11
TORSDOF 3
ENDMDL
MODEL 4
REMARK VINA RESULT:    -5.997      3.652      5.726
REMARK INTER + INTRA:          -7.365
REMARK INTER:                  -6.817
REMARK INTRA:                  -0.548
REMARK UNBOUND:                -0.317
REMARK SMILES CC[C@@]1(C)[N-]C(=O)N(CC(=O)N2CC[NH2+]CC2)C1=O
REMARK SMILES IDX 3 1 4 2 5 3 6 4 7 5 8 6 18 7 19 8 2 9 1 10 9 11 10 12 11 13
REMARK SMILES IDX 12 14 13 15 17 16 14 17 16 18 15 19
REMARK H PARENT 15 20 15 21
ROOT
ATOM      1  C   UNL     1      13.816 -24.085 -46.687  1.00  0.00     0.033 C 
ATOM      2  C   UNL     1      12.893 -25.271 -46.973  1.00  0.00     0.019 C 
ATOM      3  N   UNL     1      15.183 -24.570 -46.398  1.00  0.00    -0.417 NA
ATOM      4  C   UNL     1      15.454 -24.408 -45.108  1.00  0.00     0.162 C 
ATOM      5  O   UNL     1      16.538 -24.602 -44.571  1.00  0.00    -0.298 OA
ATOM      6  N   UNL     1      14.384 -23.898 -44.444  1.00  0.00    -0.372 N 
ATOM      7  C   UNL     1      13.470 -23.466 -45.348  1.00  0.00     0.155 C 
ATOM      8  O   UNL     1      12.522 -22.714 -45.133  1.00  0.00    -0.298 OA
ENDROOT
BRANCH   1   9
ATOM      9  C   UNL     1      13.865 -23.037 -47.814  1.00  0.00     0.010 C 
ATOM     10  C   UNL     1      15.072 -22.106 -47.787  1.00  0.00     0.005 C 
ENDBRANCH   1   9
BRANCH   6  11
ATOM     11  C   UNL     1      14.530 -23.404 -43.092  1.00  0.00     0.112 C 
BRANCH  11  12
ATOM     12  C   UNL     1      13.827 -24.302 -42.076  1.00  0.00     0.222 C 
ATOM     13  O   UNL     1      12.606 -24.250 -41.895  1.00  0.00    -0.275 OA
ATOM     14  N   UNL     1      14.604 -25.167 -41.289  1.00  0.00    -0.331 N 
ATOM     15  C   UNL     1      13.874 -25.900 -40.255  1.00  0.00     0.181 C 
ATOM     16  C   UNL     1      16.012 -24.895 -40.936  1.00  0.00     0.181 C 
ATOM     17  C   UNL     1      13.709 -25.018 -39.000  1.00  0.00     0.282 C 
ATOM     18  C   UNL     1      16.180 -24.616 -39.419  1.00  0.00     0.282 C 
ATOM     19  N   UNL     1      14.893 -24.097 -38.848  1.00  0.00    -0.343 N 
ATOM     20  H   UNL     1      14.686 -23.244 -39.423  1.00  0.00     0.346 HD
ATOM     21  H   UNL     1      14.992 -23.735 -37.895  1.00  0.00     0.346 HD
ENDBRANCH  11  12
ENDBRANCH   6  11
TORSDOF 3
ENDMDL
MODEL 5
REMARK VINA RESULT:    -5.907      2.442      4.148
REMARK INTER + INTRA:          -7.260
REMARK INTER:                  -6.714
REMARK INTRA:                  -0.546
REMARK UNBOUND:                -0.317
REMARK SMILES CC[C@@]1(C)[N-]C(=O)N(CC(=O)N2CC[NH2+]CC2)C1=O
REMARK SMILES IDX 3 1 4 2 5 3 6 4 7 5 8 6 18 7 19 8 2 9 1 10 9 11 10 12 11 13
REMARK SMILES IDX 12 14 13 15 17 16 14 17 16 18 15 19
REMARK H PARENT 15 20 15 21
ROOT
ATOM      1  C   UNL     1      12.883 -21.214 -48.281  1.00  0.00     0.033 C 
ATOM      2  C   UNL     1      12.968 -19.801 -47.701  1.00  0.00     0.019 C 
ATOM      3  N   UNL     1      11.813 -21.974 -47.599  1.00  0.00    -0.417 NA
ATOM      4  C   UNL     1      12.351 -22.902 -46.816  1.00  0.00     0.162 C 
ATOM      5  O   UNL     1      11.739 -23.770 -46.205  1.00  0.00    -0.298 OA
ATOM      6  N   UNL     1      13.708 -22.837 -46.840  1.00  0.00    -0.372 N 
ATOM      7  C   UNL     1      14.090 -22.025 -47.857  1.00  0.00     0.155 C 
ATOM      8  O   UNL     1      15.213 -21.945 -48.351  1.00  0.00    -0.298 OA
ENDROOT
BRANCH   1   9
ATOM      9  C   UNL     1      12.661 -21.259 -49.804  1.00  0.00     0.010 C 
ATOM     10  C   UNL     1      13.203 -20.063 -50.578  1.00  0.00     0.005 C 
ENDBRANCH   1   9
BRANCH   6  11
ATOM     11  C   UNL     1      14.502 -23.903 -46.269  1.00  0.00     0.112 C 
BRANCH  11  12
ATOM     12  C   UNL     1      15.483 -23.385 -45.219  1.00  0.00     0.222 C 
ATOM     13  O   UNL     1      16.676 -23.200 -45.478  1.00  0.00    -0.275 OA
ATOM     14  N   UNL     1      15.019 -23.171 -43.912  1.00  0.00    -0.331 N 
ATOM     15  C   UNL     1      16.044 -22.797 -42.936  1.00  0.00     0.181 C 
ATOM     16  C   UNL     1      13.888 -23.914 -43.322  1.00  0.00     0.181 C 
ATOM     17  C   UNL     1      16.751 -24.060 -42.405  1.00  0.00     0.282 C 
ATOM     18  C   UNL     1      14.351 -24.852 -42.176  1.00  0.00     0.282 C 
ATOM     19  N   UNL     1      15.792 -25.223 -42.368  1.00  0.00    -0.343 N 
ATOM     20  H   UNL     1      15.816 -25.661 -43.321  1.00  0.00     0.346 HD
ATOM     21  H   UNL     1      16.102 -25.972 -41.742  1.00  0.00     0.346 HD
ENDBRANCH  11  12
ENDBRANCH   6  11
TORSDOF 3
ENDMDL
MODEL 6
REMARK VINA RESULT:    -5.887      3.282      5.350
REMARK INTER + INTRA:          -7.236
REMARK INTER:                  -6.668
REMARK INTRA:                  -0.568
REMARK UNBOUND:                -0.317
REMARK SMILES CC[C@@]1(C)[N-]C(=O)N(CC(=O)N2CC[NH2+]CC2)C1=O
REMARK SMILES IDX 3 1 4 2 5 3 6 4 7 5 8 6 18 7 19 8 2 9 1 10 9 11 10 12 11 13
REMARK SMILES IDX 12 14 13 15 17 16 14 17 16 18 15 19
REMARK H PARENT 15 20 15 21
ROOT
ATOM      1  C   UNL     1      13.461 -23.058 -46.951  1.00  0.00     0.033 C 
ATOM      2  C   UNL     1      14.481 -21.921 -47.019  1.00  0.00     0.019 C 
ATOM      3  N   UNL     1      12.346 -22.680 -46.056  1.00  0.00    -0.417 NA
ATOM      4  C   UNL     1      12.413 -23.386 -44.932  1.00  0.00     0.162 C 
ATOM      5  O   UNL     1      11.575 -23.392 -44.037  1.00  0.00    -0.298 OA
ATOM      6  N   UNL     1      13.504 -24.194 -44.926  1.00  0.00    -0.372 N 
ATOM      7  C   UNL     1      14.034 -24.227 -46.173  1.00  0.00     0.155 C 
ATOM      8  O   UNL     1      14.841 -25.046 -46.609  1.00  0.00    -0.298 OA
ENDROOT
BRANCH   1   9
ATOM      9  C   UNL     1      12.904 -23.490 -48.319  1.00  0.00     0.010 C 
ATOM     10  C   UNL     1      11.521 -22.948 -48.662  1.00  0.00     0.005 C 
ENDBRANCH   1   9
BRANCH   6  11
ATOM     11  C   UNL     1      13.640 -25.231 -43.925  1.00  0.00     0.112 C 
BRANCH  11  12
ATOM     12  C   UNL     1      14.839 -24.987 -43.010  1.00  0.00     0.222 C 
ATOM     13  O   UNL     1      15.964 -25.415 -43.283  1.00  0.00    -0.275 OA
ATOM     14  N   UNL     1      14.634 -24.306 -41.800  1.00  0.00    -0.331 N 
ATOM     15  C   UNL     1      15.803 -24.224 -40.922  1.00  0.00     0.181 C 
ATOM     16  C   UNL     1      13.350 -24.317 -41.072  1.00  0.00     0.181 C 
ATOM     17  C   UNL     1      15.932 -25.518 -40.093  1.00  0.00     0.282 C 
ATOM     18  C   UNL     1      13.458 -25.085 -39.727  1.00  0.00     0.282 C 
ATOM     19  N   UNL     1      14.569 -26.091 -39.800  1.00  0.00    -0.343 N 
ATOM     20  H   UNL     1      14.313 -26.692 -40.621  1.00  0.00     0.346 HD
ATOM     21  H   UNL     1      14.575 -26.741 -39.008  1.00  0.00     0.346 HD
ENDBRANCH  11  12
ENDBRANCH   6  11
TORSDOF 3
ENDMDL
MODEL 7
REMARK VINA RESULT:    -5.745      3.604      5.275
REMARK INTER + INTRA:          -7.070
REMARK INTER:                  -6.759
REMARK INTRA:                  -0.310
REMARK UNBOUND:                -0.317
REMARK SMILES CC[C@@]1(C)[N-]C(=O)N(CC(=O)N2CC[NH2+]CC2)C1=O
REMARK SMILES IDX 3 1 4 2 5 3 6 4 7 5 8 6 18 7 19 8 2 9 1 10 9 11 10 12 11 13
REMARK SMILES IDX 12 14 13 15 17 16 14 17 16 18 15 19
REMARK H PARENT 15 20 15 21
ROOT
ATOM      1  C   UNL     1      14.199 -22.922 -46.451  1.00  0.00     0.033 C 
ATOM      2  C   UNL     1      15.379 -22.072 -45.979  1.00  0.00     0.019 C 
ATOM      3  N   UNL     1      12.963 -22.491 -45.763  1.00  0.00    -0.417 NA
ATOM      4  C   UNL     1      12.590 -23.417 -44.886  1.00  0.00     0.162 C 
ATOM      5  O   UNL     1      11.549 -23.416 -44.239  1.00  0.00    -0.298 OA
ATOM      6  N   UNL     1      13.479 -24.443 -44.851  1.00  0.00    -0.372 N 
ATOM      7  C   UNL     1      14.321 -24.332 -45.908  1.00  0.00     0.155 C 
ATOM      8  O   UNL     1      15.062 -25.206 -46.353  1.00  0.00    -0.298 OA
ENDROOT
BRANCH   1   9
ATOM      9  C   UNL     1      13.978 -22.906 -47.974  1.00  0.00     0.010 C 
ATOM     10  C   UNL     1      14.667 -21.769 -48.722  1.00  0.00     0.005 C 
ENDBRANCH   1   9
BRANCH   6  11
ATOM     11  C   UNL     1      13.150 -25.672 -44.162  1.00  0.00     0.112 C 
BRANCH  11  12
ATOM     12  C   UNL     1      13.505 -25.608 -42.678  1.00  0.00     0.222 C 
ATOM     13  O   UNL     1      12.738 -25.114 -41.845  1.00  0.00    -0.275 OA
ATOM     14  N   UNL     1      14.764 -26.072 -42.265  1.00  0.00    -0.331 N 
ATOM     15  C   UNL     1      15.079 -25.860 -40.852  1.00  0.00     0.181 C 
ATOM     16  C   UNL     1      15.954 -26.071 -43.140  1.00  0.00     0.181 C 
ATOM     17  C   UNL     1      15.613 -24.429 -40.640  1.00  0.00     0.282 C 
ATOM     18  C   UNL     1      17.026 -25.061 -42.651  1.00  0.00     0.282 C 
ATOM     19  N   UNL     1      16.375 -23.968 -41.857  1.00  0.00    -0.343 N 
ATOM     20  H   UNL     1      15.668 -23.561 -42.517  1.00  0.00     0.346 HD
ATOM     21  H   UNL     1      17.006 -23.186 -41.655  1.00  0.00     0.346 HD
ENDBRANCH  11  12
ENDBRANCH   6  11
TORSDOF 3
ENDMDL
MODEL 8
REMARK VINA RESULT:    -5.726      3.904      7.765
REMARK INTER + INTRA:          -7.048
REMARK INTER:                  -6.484
REMARK INTRA:                  -0.564
REMARK UNBOUND:                -0.317
REMARK SMILES CC[C@@]1(C)[N-]C(=O)N(CC(=O)N2CC[NH2+]CC2)C1=O
REMARK SMILES IDX 3 1 4 2 5 3 6 4 7 5 8 6 18 7 19 8 2 9 1 10 9 11 10 12 11 13
REMARK SMILES IDX 12 14 13 15 17 16 14 17 16 18 15 19
REMARK H PARENT 15 20 15 21
ROOT
ATOM      1  C   UNL     1      14.882 -24.867 -41.154  1.00  0.00     0.033 C 
ATOM      2  C   UNL     1      13.494 -24.269 -40.921  1.00  0.00     0.019 C 
ATOM      3  N   UNL     1      15.914 -23.821 -40.987  1.00  0.00    -0.417 NA
ATOM      4  C   UNL     1      16.435 -23.510 -42.169  1.00  0.00     0.162 C 
ATOM      5  O   UNL     1      17.389 -22.765 -42.361  1.00  0.00    -0.298 OA
ATOM      6  N   UNL     1      15.829 -24.203 -43.167  1.00  0.00    -0.372 N 
ATOM      7  C   UNL     1      15.073 -25.188 -42.623  1.00  0.00     0.155 C 
ATOM      8  O   UNL     1      14.610 -26.167 -43.205  1.00  0.00    -0.298 OA
ENDROOT
BRANCH   1   9
ATOM      9  C   UNL     1      15.212 -26.070 -40.251  1.00  0.00     0.010 C 
ATOM     10  C   UNL     1      16.389 -25.871 -39.303  1.00  0.00     0.005 C 
ENDBRANCH   1   9
BRANCH   6  11
ATOM     11  C   UNL     1      16.399 -24.217 -44.498  1.00  0.00     0.112 C 
BRANCH  11  12
ATOM     12  C   UNL     1      15.697 -23.230 -45.429  1.00  0.00     0.222 C 
ATOM     13  O   UNL     1      15.782 -22.009 -45.267  1.00  0.00    -0.275 OA
ATOM     14  N   UNL     1      14.888 -23.735 -46.460  1.00  0.00    -0.331 N 
ATOM     15  C   UNL     1      14.151 -22.730 -47.227  1.00  0.00     0.181 C 
ATOM     16  C   UNL     1      14.201 -25.039 -46.384  1.00  0.00     0.181 C 
ATOM     17  C   UNL     1      12.852 -22.350 -46.487  1.00  0.00     0.282 C 
ATOM     18  C   UNL     1      12.660 -24.874 -46.306  1.00  0.00     0.282 C 
ATOM     19  N   UNL     1      12.317 -23.535 -45.723  1.00  0.00    -0.343 N 
ATOM     20  H   UNL     1      12.800 -23.533 -44.791  1.00  0.00     0.346 HD
ATOM     21  H   UNL     1      11.325 -23.439 -45.490  1.00  0.00     0.346 HD
ENDBRANCH  11  12
ENDBRANCH   6  11
TORSDOF 3
ENDMDL
MODEL 9
REMARK VINA RESULT:    -5.547     24.012     25.511
REMARK INTER + INTRA:          -6.836
REMARK INTER:                  -6.280
REMARK INTRA:                  -0.556
REMARK UNBOUND:                -0.317
REMARK SMILES CC[C@@]1(C)[N-]C(=O)N(CC(=O)N2CC[NH2+]CC2)C1=O
REMARK SMILES IDX 3 1 4 2 5 3 6 4 7 5 8 6 18 7 19 8 2 9 1 10 9 11 10 12 11 13
REMARK SMILES IDX 12 14 13 15 17 16 14 17 16 18 15 19
REMARK H PARENT 15 20 15 21
ROOT
ATOM      1  C   UNL     1       3.830  -4.622 -32.371  1.00  0.00     0.033 C 
ATOM      2  C   UNL     1       3.474  -4.373 -30.905  1.00  0.00     0.019 C 
ATOM      3  N   UNL     1       3.353  -3.496 -33.202  1.00  0.00    -0.417 NA
ATOM      4  C   UNL     1       2.320  -3.889 -33.940  1.00  0.00     0.162 C 
ATOM      5  O   UNL     1       1.770  -3.230 -34.815  1.00  0.00    -0.298 OA
ATOM      6  N   UNL     1       1.988  -5.178 -33.670  1.00  0.00    -0.372 N 
ATOM      7  C   UNL     1       2.977  -5.741 -32.933  1.00  0.00     0.155 C 
ATOM      8  O   UNL     1       3.157  -6.942 -32.739  1.00  0.00    -0.298 OA
ENDROOT
BRANCH   1   9
ATOM      9  C   UNL     1       5.331  -4.855 -32.625  1.00  0.00     0.010 C 
ATOM     10  C   UNL     1       6.275  -3.976 -31.813  1.00  0.00     0.005 C 
ENDBRANCH   1   9
BRANCH   6  11
ATOM     11  C   UNL     1       1.067  -5.891 -34.529  1.00  0.00     0.112 C 
BRANCH  11  12
ATOM     12  C   UNL     1      -0.222  -6.264 -33.799  1.00  0.00     0.222 C 
ATOM     13  O   UNL     1      -0.840  -5.446 -33.111  1.00  0.00    -0.275 OA
ATOM     14  N   UNL     1      -0.677  -7.590 -33.870  1.00  0.00    -0.331 N 
ATOM     15  C   UNL     1      -1.845  -7.897 -33.043  1.00  0.00     0.181 C 
ATOM     16  C   UNL     1       0.221  -8.744 -34.075  1.00  0.00     0.181 C 
ATOM     17  C   UNL     1      -1.402  -8.200 -31.598  1.00  0.00     0.282 C 
ATOM     18  C   UNL     1       0.286  -9.651 -32.817  1.00  0.00     0.282 C 
ATOM     19  N   UNL     1      -0.042  -8.851 -31.591  1.00  0.00    -0.343 N 
ATOM     20  H   UNL     1       0.663  -8.073 -31.600  1.00  0.00     0.346 HD
ATOM     21  H   UNL     1       0.152  -9.352 -30.719  1.00  0.00     0.346 HD
ENDBRANCH  11  12
ENDBRANCH   6  11
TORSDOF 3
ENDMDL
