MODEL 1
REMARK VINA RESULT:    -7.354      0.000      0.000
REMARK INTER + INTRA:         -11.681
REMARK INTER:                 -10.793
REMARK INTRA:                  -0.888
REMARK UNBOUND:                -0.888
REMARK SMILES CCCS(=O)(=O)N[C@H]1CC[N@H+](CCC(=O)NN2C(=O)[N-]C3(CCCCC3)C2=O)CC1
REMARK SMILES IDX 8 1 30 2 29 3 11 4 10 5 9 6 7 8 4 10 5 11 6 12 3 13 2 14
REMARK SMILES IDX 1 15 12 16 13 17 14 18 15 19 16 20 17 22 18 23 27 24 19 25
REMARK SMILES IDX 20 26 21 27 28 28 22 29 26 30 23 31 25 32 24 33
REMARK H PARENT 11 7 7 9 16 21
ROOT
ATOM      1  C   UNL     1      16.836 -23.575 -42.472  1.00  0.00     0.080 C 
ATOM      2  C   UNL     1      17.749 -23.819 -43.665  1.00  0.00     0.081 C 
ATOM      3  C   UNL     1      17.041 -24.527 -44.814  1.00  0.00     0.263 C 
ATOM      4  N   UNL     1      15.591 -24.133 -44.932  1.00  0.00    -0.334 N 
ATOM      5  C   UNL     1      15.287 -22.774 -44.361  1.00  0.00     0.263 C 
ATOM      6  C   UNL     1      15.665 -22.685 -42.884  1.00  0.00     0.081 C 
ATOM      7  H   UNL     1      15.083 -24.788 -44.286  1.00  0.00     0.348 HD
ENDROOT
BRANCH   1   8
ATOM      8  N   UNL     1      16.367 -24.868 -41.956  1.00  0.00    -0.212 NA
ATOM      9  H   UNL     1      15.742 -25.456 -42.540  1.00  0.00     0.141 HD
BRANCH   8  10
ATOM     10  S   UNL     1      16.168 -25.107 -40.312  1.00  0.00     0.211 S 
ATOM     11  O   UNL     1      16.878 -26.320 -39.974  1.00  0.00    -0.212 OA
ATOM     12  O   UNL     1      16.495 -23.853 -39.665  1.00  0.00    -0.212 OA
BRANCH  10  13
ATOM     13  C   UNL     1      14.408 -25.390 -40.126  1.00  0.00     0.153 C 
BRANCH  13  14
ATOM     14  C   UNL     1      13.648 -24.169 -39.635  1.00  0.00     0.014 C 
ATOM     15  C   UNL     1      13.491 -24.179 -38.124  1.00  0.00     0.005 C 
ENDBRANCH  13  14
ENDBRANCH  10  13
ENDBRANCH   8  10
ENDBRANCH   1   8
BRANCH   4  16
ATOM     16  C   UNL     1      15.021 -24.339 -46.332  1.00  0.00     0.272 C 
BRANCH  16  17
ATOM     17  C   UNL     1      13.494 -24.365 -46.367  1.00  0.00     0.161 C 
BRANCH  17  18
ATOM     18  C   UNL     1      12.958 -23.077 -46.941  1.00  0.00     0.229 C 
ATOM     19  O   UNL     1      12.252 -22.327 -46.271  1.00  0.00    -0.275 OA
ATOM     20  N   UNL     1      13.276 -22.889 -48.276  1.00  0.00    -0.330 N 
ATOM     21  H   UNL     1      13.967 -23.515 -48.677  1.00  0.00     0.168 HD
BRANCH  20  22
ATOM     22  N   UNL     1      12.144 -22.899 -49.103  1.00  0.00    -0.301 N 
ATOM     23  C   UNL     1      11.716 -21.761 -49.707  1.00  0.00     0.177 C 
ATOM     24  C   UNL     1      11.561 -24.021 -49.616  1.00  0.00     0.170 C 
ATOM     25  O   UNL     1      12.222 -20.656 -49.525  1.00  0.00    -0.297 OA
ATOM     26  N   UNL     1      10.761 -22.019 -50.584  1.00  0.00    -0.415 NA
ATOM     27  C   UNL     1      10.531 -23.498 -50.623  1.00  0.00     0.038 C 
ATOM     28  O   UNL     1      11.795 -25.189 -49.349  1.00  0.00    -0.297 OA
ATOM     29  C   UNL     1       9.100 -23.812 -50.141  1.00  0.00     0.014 C 
ATOM     30  C   UNL     1      10.840 -24.053 -52.027  1.00  0.00     0.014 C 
ATOM     31  C   UNL     1       8.550 -25.076 -50.794  1.00  0.00     0.001 C 
ATOM     32  C   UNL     1       9.594 -24.076 -52.907  1.00  0.00     0.001 C 
ATOM     33  C   UNL     1       8.490 -24.955 -52.317  1.00  0.00     0.000 C 
ENDBRANCH  20  22
ENDBRANCH  17  18
ENDBRANCH  16  17
ENDBRANCH   4  16
TORSDOF 8
ENDMDL
MODEL 2
REMARK VINA RESULT:    -7.214      2.107      3.112
REMARK INTER + INTRA:         -11.476
REMARK INTER:                 -10.827
REMARK INTRA:                  -0.649
REMARK UNBOUND:                -0.888
REMARK SMILES CCCS(=O)(=O)N[C@H]1CC[N@H+](CCC(=O)NN2C(=O)[N-]C3(CCCCC3)C2=O)CC1
REMARK SMILES IDX 8 1 30 2 29 3 11 4 10 5 9 6 7 8 4 10 5 11 6 12 3 13 2 14
REMARK SMILES IDX 1 15 12 16 13 17 14 18 15 19 16 20 17 22 18 23 27 24 19 25
REMARK SMILES IDX 20 26 21 27 28 28 22 29 26 30 23 31 25 32 24 33
REMARK H PARENT 11 7 7 9 16 21
ROOT
ATOM      1  C   UNL     1      15.860 -23.928 -45.234  1.00  0.00     0.080 C 
ATOM      2  C   UNL     1      14.567 -24.445 -45.848  1.00  0.00     0.081 C 
ATOM      3  C   UNL     1      13.600 -23.326 -46.217  1.00  0.00     0.263 C 
ATOM      4  N   UNL     1      14.307 -22.077 -46.676  1.00  0.00    -0.334 N 
ATOM      5  C   UNL     1      15.677 -22.333 -47.243  1.00  0.00     0.263 C 
ATOM      6  C   UNL     1      16.587 -23.026 -46.230  1.00  0.00     0.081 C 
ATOM      7  H   UNL     1      14.505 -21.542 -45.793  1.00  0.00     0.348 HD
ENDROOT
BRANCH   1   8
ATOM      8  N   UNL     1      15.545 -23.206 -43.994  1.00  0.00    -0.212 NA
ATOM      9  H   UNL     1      15.443 -22.173 -44.014  1.00  0.00     0.141 HD
BRANCH   8  10
ATOM     10  S   UNL     1      16.047 -23.800 -42.513  1.00  0.00     0.211 S 
ATOM     11  O   UNL     1      16.735 -25.045 -42.770  1.00  0.00    -0.212 OA
ATOM     12  O   UNL     1      16.717 -22.712 -41.831  1.00  0.00    -0.212 OA
BRANCH  10  13
ATOM     13  C   UNL     1      14.518 -24.148 -41.645  1.00  0.00     0.153 C 
BRANCH  13  14
ATOM     14  C   UNL     1      14.722 -24.514 -40.184  1.00  0.00     0.014 C 
ATOM     15  C   UNL     1      13.493 -24.190 -39.351  1.00  0.00     0.005 C 
ENDBRANCH  13  14
ENDBRANCH  10  13
ENDBRANCH   8  10
ENDBRANCH   1   8
BRANCH   4  16
ATOM     16  C   UNL     1      13.444 -21.186 -47.565  1.00  0.00     0.272 C 
BRANCH  16  17
ATOM     17  C   UNL     1      11.998 -21.662 -47.678  1.00  0.00     0.161 C 
BRANCH  17  18
ATOM     18  C   UNL     1      11.648 -21.949 -49.117  1.00  0.00     0.229 C 
ATOM     19  O   UNL     1      11.504 -21.039 -49.930  1.00  0.00    -0.275 OA
ATOM     20  N   UNL     1      11.439 -23.292 -49.381  1.00  0.00    -0.330 N 
ATOM     21  H   UNL     1      11.710 -23.951 -48.658  1.00  0.00     0.168 HD
BRANCH  20  22
ATOM     22  N   UNL     1      10.114 -23.567 -49.746  1.00  0.00    -0.301 N 
ATOM     23  C   UNL     1       9.158 -23.755 -48.799  1.00  0.00     0.177 C 
ATOM     24  C   UNL     1       9.591 -23.385 -50.993  1.00  0.00     0.170 C 
ATOM     25  O   UNL     1       9.384 -23.773 -47.591  1.00  0.00    -0.297 OA
ATOM     26  N   UNL     1       7.954 -23.811 -49.342  1.00  0.00    -0.415 NA
ATOM     27  C   UNL     1       8.083 -23.597 -50.819  1.00  0.00     0.038 C 
ATOM     28  O   UNL     1      10.176 -23.111 -52.029  1.00  0.00    -0.297 OA
ATOM     29  C   UNL     1       7.629 -24.867 -51.566  1.00  0.00     0.014 C 
ATOM     30  C   UNL     1       7.321 -22.329 -51.247  1.00  0.00     0.014 C 
ATOM     31  C   UNL     1       7.050 -24.537 -52.939  1.00  0.00     0.001 C 
ATOM     32  C   UNL     1       5.887 -22.649 -51.659  1.00  0.00     0.001 C 
ATOM     33  C   UNL     1       5.832 -23.618 -52.840  1.00  0.00     0.000 C 
ENDBRANCH  20  22
ENDBRANCH  17  18
ENDBRANCH  16  17
ENDBRANCH   4  16
TORSDOF 8
ENDMDL
MODEL 3
REMARK VINA RESULT:    -7.134      2.031      3.032
REMARK INTER + INTRA:         -11.358
REMARK INTER:                 -10.239
REMARK INTRA:                  -1.119
REMARK UNBOUND:                -0.888
REMARK SMILES CCCS(=O)(=O)N[C@H]1CC[N@H+](CCC(=O)NN2C(=O)[N-]C3(CCCCC3)C2=O)CC1
REMARK SMILES IDX 8 1 30 2 29 3 11 4 10 5 9 6 7 8 4 10 5 11 6 12 3 13 2 14
REMARK SMILES IDX 1 15 12 16 13 17 14 18 15 19 16 20 17 22 18 23 27 24 19 25
REMARK SMILES IDX 20 26 21 27 28 28 22 29 26 30 23 31 25 32 24 33
REMARK H PARENT 11 7 7 9 16 21
ROOT
ATOM      1  C   UNL     1      15.970 -23.993 -45.216  1.00  0.00     0.080 C 
ATOM      2  C   UNL     1      14.548 -24.382 -45.593  1.00  0.00     0.081 C 
ATOM      3  C   UNL     1      13.663 -23.175 -45.882  1.00  0.00     0.263 C 
ATOM      4  N   UNL     1      14.421 -22.040 -46.520  1.00  0.00    -0.334 N 
ATOM      5  C   UNL     1      15.649 -22.481 -47.271  1.00  0.00     0.263 C 
ATOM      6  C   UNL     1      16.625 -23.230 -46.365  1.00  0.00     0.081 C 
ATOM      7  H   UNL     1      14.813 -21.493 -45.712  1.00  0.00     0.348 HD
ENDROOT
BRANCH   1   8
ATOM      8  N   UNL     1      15.935 -23.184 -43.990  1.00  0.00    -0.212 NA
ATOM      9  H   UNL     1      15.931 -22.148 -44.060  1.00  0.00     0.141 HD
BRANCH   8  10
ATOM     10  S   UNL     1      16.613 -23.757 -42.572  1.00  0.00     0.211 S 
ATOM     11  O   UNL     1      17.766 -24.545 -42.946  1.00  0.00    -0.212 OA
ATOM     12  O   UNL     1      16.749 -22.621 -41.685  1.00  0.00    -0.212 OA
BRANCH  10  13
ATOM     13  C   UNL     1      15.357 -24.846 -41.900  1.00  0.00     0.153 C 
BRANCH  13  14
ATOM     14  C   UNL     1      13.983 -24.201 -41.814  1.00  0.00     0.014 C 
ATOM     15  C   UNL     1      13.403 -24.312 -40.413  1.00  0.00     0.005 C 
ENDBRANCH  13  14
ENDBRANCH  10  13
ENDBRANCH   8  10
ENDBRANCH   1   8
BRANCH   4  16
ATOM     16  C   UNL     1      13.532 -21.095 -47.323  1.00  0.00     0.272 C 
BRANCH  16  17
ATOM     17  C   UNL     1      12.131 -21.648 -47.575  1.00  0.00     0.161 C 
BRANCH  17  18
ATOM     18  C   UNL     1      11.879 -21.789 -49.055  1.00  0.00     0.229 C 
ATOM     19  O   UNL     1      11.685 -20.805 -49.764  1.00  0.00    -0.275 OA
ATOM     20  N   UNL     1      11.814 -23.104 -49.486  1.00  0.00    -0.330 N 
ATOM     21  H   UNL     1      12.115 -23.818 -48.830  1.00  0.00     0.168 HD
BRANCH  20  22
ATOM     22  N   UNL     1      10.541 -23.452 -49.956  1.00  0.00    -0.301 N 
ATOM     23  C   UNL     1      10.295 -23.547 -51.289  1.00  0.00     0.177 C 
ATOM     24  C   UNL     1       9.550 -24.003 -49.197  1.00  0.00     0.170 C 
ATOM     25  O   UNL     1      11.119 -23.271 -52.158  1.00  0.00    -0.297 OA
ATOM     26  N   UNL     1       9.102 -24.067 -51.516  1.00  0.00    -0.415 NA
ATOM     27  C   UNL     1       8.468 -24.409 -50.203  1.00  0.00     0.038 C 
ATOM     28  O   UNL     1       9.514 -24.150 -47.985  1.00  0.00    -0.297 OA
ATOM     29  C   UNL     1       7.200 -23.555 -50.003  1.00  0.00     0.014 C 
ATOM     30  C   UNL     1       8.206 -25.924 -50.111  1.00  0.00     0.014 C 
ATOM     31  C   UNL     1       6.160 -24.279 -49.154  1.00  0.00     0.001 C 
ATOM     32  C   UNL     1       6.810 -26.283 -50.608  1.00  0.00     0.001 C 
ATOM     33  C   UNL     1       5.715 -25.595 -49.792  1.00  0.00     0.000 C 
ENDBRANCH  20  22
ENDBRANCH  17  18
ENDBRANCH  16  17
ENDBRANCH   4  16
TORSDOF 8
ENDMDL
MODEL 4
REMARK VINA RESULT:    -6.995      3.526      9.736
REMARK INTER + INTRA:         -11.155
REMARK INTER:                 -10.220
REMARK INTRA:                  -0.935
REMARK UNBOUND:                -0.888
REMARK SMILES CCCS(=O)(=O)N[C@H]1CC[N@H+](CCC(=O)NN2C(=O)[N-]C3(CCCCC3)C2=O)CC1
REMARK SMILES IDX 8 1 30 2 29 3 11 4 10 5 9 6 7 8 4 10 5 11 6 12 3 13 2 14
REMARK SMILES IDX 1 15 12 16 13 17 14 18 15 19 16 20 17 22 18 23 27 24 19 25
REMARK SMILES IDX 20 26 21 27 28 28 22 29 26 30 23 31 25 32 24 33
REMARK H PARENT 11 7 7 9 16 21
ROOT
ATOM      1  C   UNL     1      10.410 -23.198 -50.891  1.00  0.00     0.080 C 
ATOM      2  C   UNL     1      11.378 -22.127 -50.410  1.00  0.00     0.081 C 
ATOM      3  C   UNL     1      11.581 -22.150 -48.900  1.00  0.00     0.263 C 
ATOM      4  N   UNL     1      11.516 -23.542 -48.328  1.00  0.00    -0.334 N 
ATOM      5  C   UNL     1      11.866 -24.619 -49.319  1.00  0.00     0.263 C 
ATOM      6  C   UNL     1      10.947 -24.584 -50.539  1.00  0.00     0.081 C 
ATOM      7  H   UNL     1      10.495 -23.707 -48.139  1.00  0.00     0.348 HD
ENDROOT
BRANCH   1   8
ATOM      8  N   UNL     1       9.095 -22.964 -50.278  1.00  0.00    -0.212 NA
ATOM      9  H   UNL     1       8.964 -23.142 -49.263  1.00  0.00     0.141 HD
BRANCH   8  10
ATOM     10  S   UNL     1       7.694 -23.139 -51.176  1.00  0.00     0.211 S 
ATOM     11  O   UNL     1       6.868 -21.987 -50.895  1.00  0.00    -0.212 OA
ATOM     12  O   UNL     1       8.102 -23.445 -52.531  1.00  0.00    -0.212 OA
BRANCH  10  13
ATOM     13  C   UNL     1       6.916 -24.597 -50.482  1.00  0.00     0.153 C 
BRANCH  13  14
ATOM     14  C   UNL     1       6.226 -24.339 -49.152  1.00  0.00     0.014 C 
ATOM     15  C   UNL     1       4.716 -24.276 -49.311  1.00  0.00     0.005 C 
ENDBRANCH  13  14
ENDBRANCH  10  13
ENDBRANCH   8  10
ENDBRANCH   1   8
BRANCH   4  16
ATOM     16  C   UNL     1      12.254 -23.685 -46.999  1.00  0.00     0.272 C 
BRANCH  16  17
ATOM     17  C   UNL     1      11.574 -24.648 -46.029  1.00  0.00     0.161 C 
BRANCH  17  18
ATOM     18  C   UNL     1      11.930 -24.301 -44.605  1.00  0.00     0.229 C 
ATOM     19  O   UNL     1      11.380 -23.371 -44.021  1.00  0.00    -0.275 OA
ATOM     20  N   UNL     1      12.960 -25.068 -44.087  1.00  0.00    -0.330 N 
ATOM     21  H   UNL     1      13.242 -25.882 -44.623  1.00  0.00     0.168 HD
BRANCH  20  22
ATOM     22  N   UNL     1      14.106 -24.310 -43.809  1.00  0.00    -0.301 N 
ATOM     23  C   UNL     1      14.407 -23.949 -42.535  1.00  0.00     0.177 C 
ATOM     24  C   UNL     1      15.148 -24.122 -44.670  1.00  0.00     0.170 C 
ATOM     25  O   UNL     1      13.686 -24.183 -41.568  1.00  0.00    -0.297 OA
ATOM     26  N   UNL     1      15.612 -23.410 -42.465  1.00  0.00    -0.415 NA
ATOM     27  C   UNL     1      16.230 -23.438 -43.829  1.00  0.00     0.038 C 
ATOM     28  O   UNL     1      15.221 -24.425 -45.851  1.00  0.00    -0.297 OA
ATOM     29  C   UNL     1      16.464 -21.996 -44.322  1.00  0.00     0.014 C 
ATOM     30  C   UNL     1      17.510 -24.297 -43.821  1.00  0.00     0.014 C 
ATOM     31  C   UNL     1      17.660 -21.908 -45.264  1.00  0.00     0.001 C 
ATOM     32  C   UNL     1      18.749 -23.453 -43.536  1.00  0.00     0.001 C 
ATOM     33  C   UNL     1      18.955 -22.363 -44.589  1.00  0.00     0.000 C 
ENDBRANCH  20  22
ENDBRANCH  17  18
ENDBRANCH  16  17
ENDBRANCH   4  16
TORSDOF 8
ENDMDL
MODEL 5
REMARK VINA RESULT:    -6.911      1.702      2.064
REMARK INTER + INTRA:         -11.032
REMARK INTER:                 -10.013
REMARK INTRA:                  -1.019
REMARK UNBOUND:                -0.888
REMARK SMILES CCCS(=O)(=O)N[C@H]1CC[N@H+](CCC(=O)NN2C(=O)[N-]C3(CCCCC3)C2=O)CC1
REMARK SMILES IDX 8 1 30 2 29 3 11 4 10 5 9 6 7 8 4 10 5 11 6 12 3 13 2 14
REMARK SMILES IDX 1 15 12 16 13 17 14 18 15 19 16 20 17 22 18 23 27 24 19 25
REMARK SMILES IDX 20 26 21 27 28 28 22 29 26 30 23 31 25 32 24 33
REMARK H PARENT 11 7 7 9 16 21
ROOT
ATOM      1  C   UNL     1      14.236 -25.869 -42.357  1.00  0.00     0.080 C 
ATOM      2  C   UNL     1      12.864 -25.223 -42.229  1.00  0.00     0.081 C 
ATOM      3  C   UNL     1      12.718 -23.972 -43.086  1.00  0.00     0.263 C 
ATOM      4  N   UNL     1      13.486 -24.063 -44.379  1.00  0.00    -0.334 N 
ATOM      5  C   UNL     1      13.720 -25.475 -44.845  1.00  0.00     0.263 C 
ATOM      6  C   UNL     1      14.480 -26.294 -43.803  1.00  0.00     0.081 C 
ATOM      7  H   UNL     1      14.451 -23.722 -44.141  1.00  0.00     0.348 HD
ENDROOT
BRANCH   1   8
ATOM      8  N   UNL     1      15.257 -24.915 -41.901  1.00  0.00    -0.212 NA
ATOM      9  H   UNL     1      15.852 -24.430 -42.601  1.00  0.00     0.141 HD
BRANCH   8  10
ATOM     10  S   UNL     1      15.993 -25.103 -40.411  1.00  0.00     0.211 S 
ATOM     11  O   UNL     1      16.987 -26.142 -40.561  1.00  0.00    -0.212 OA
ATOM     12  O   UNL     1      16.368 -23.779 -39.960  1.00  0.00    -0.212 OA
BRANCH  10  13
ATOM     13  C   UNL     1      14.678 -25.704 -39.351  1.00  0.00     0.153 C 
BRANCH  13  14
ATOM     14  C   UNL     1      14.251 -24.701 -38.292  1.00  0.00     0.014 C 
ATOM     15  C   UNL     1      13.025 -23.916 -38.729  1.00  0.00     0.005 C 
ENDBRANCH  13  14
ENDBRANCH  10  13
ENDBRANCH   8  10
ENDBRANCH   1   8
BRANCH   4  16
ATOM     16  C   UNL     1      12.938 -23.151 -45.473  1.00  0.00     0.272 C 
BRANCH  16  17
ATOM     17  C   UNL     1      14.027 -22.422 -46.257  1.00  0.00     0.161 C 
BRANCH  17  18
ATOM     18  C   UNL     1      13.416 -21.576 -47.346  1.00  0.00     0.229 C 
ATOM     19  O   UNL     1      12.814 -20.538 -47.082  1.00  0.00    -0.275 OA
ATOM     20  N   UNL     1      13.539 -22.125 -48.611  1.00  0.00    -0.330 N 
ATOM     21  H   UNL     1      14.164 -22.918 -48.710  1.00  0.00     0.168 HD
BRANCH  20  22
ATOM     22  N   UNL     1      12.301 -22.473 -49.167  1.00  0.00    -0.301 N 
ATOM     23  C   UNL     1      11.678 -21.647 -50.048  1.00  0.00     0.177 C 
ATOM     24  C   UNL     1      11.755 -23.724 -49.142  1.00  0.00     0.170 C 
ATOM     25  O   UNL     1      12.098 -20.535 -50.359  1.00  0.00    -0.297 OA
ATOM     26  N   UNL     1      10.630 -22.238 -50.594  1.00  0.00    -0.415 NA
ATOM     27  C   UNL     1      10.539 -23.638 -50.069  1.00  0.00     0.038 C 
ATOM     28  O   UNL     1      12.138 -24.707 -48.526  1.00  0.00    -0.297 OA
ATOM     29  C   UNL     1       9.235 -23.803 -49.262  1.00  0.00     0.014 C 
ATOM     30  C   UNL     1      10.681 -24.654 -51.218  1.00  0.00     0.014 C 
ATOM     31  C   UNL     1       8.714 -25.236 -49.320  1.00  0.00     0.001 C 
ATOM     32  C   UNL     1       9.323 -25.037 -51.799  1.00  0.00     0.001 C 
ATOM     33  C   UNL     1       8.412 -25.678 -50.752  1.00  0.00     0.000 C 
ENDBRANCH  20  22
ENDBRANCH  17  18
ENDBRANCH  16  17
ENDBRANCH   4  16
TORSDOF 8
ENDMDL
MODEL 6
REMARK VINA RESULT:    -6.892      1.758      2.323
REMARK INTER + INTRA:         -11.003
REMARK INTER:                  -9.976
REMARK INTRA:                  -1.027
REMARK UNBOUND:                -0.888
REMARK SMILES CCCS(=O)(=O)N[C@H]1CC[N@H+](CCC(=O)NN2C(=O)[N-]C3(CCCCC3)C2=O)CC1
REMARK SMILES IDX 8 1 30 2 29 3 11 4 10 5 9 6 7 8 4 10 5 11 6 12 3 13 2 14
REMARK SMILES IDX 1 15 12 16 13 17 14 18 15 19 16 20 17 22 18 23 27 24 19 25
REMARK SMILES IDX 20 26 21 27 28 28 22 29 26 30 23 31 25 32 24 33
REMARK H PARENT 11 7 7 9 16 21
ROOT
ATOM      1  C   UNL     1      16.124 -23.855 -43.126  1.00  0.00     0.080 C 
ATOM      2  C   UNL     1      17.034 -24.480 -44.173  1.00  0.00     0.081 C 
ATOM      3  C   UNL     1      16.470 -24.376 -45.585  1.00  0.00     0.263 C 
ATOM      4  N   UNL     1      15.686 -23.107 -45.802  1.00  0.00    -0.334 N 
ATOM      5  C   UNL     1      16.091 -21.982 -44.888  1.00  0.00     0.263 C 
ATOM      6  C   UNL     1      15.936 -22.368 -43.417  1.00  0.00     0.081 C 
ATOM      7  H   UNL     1      14.710 -23.338 -45.487  1.00  0.00     0.348 HD
ENDROOT
BRANCH   1   8
ATOM      8  N   UNL     1      14.837 -24.565 -43.127  1.00  0.00    -0.212 NA
ATOM      9  H   UNL     1      14.167 -24.409 -43.906  1.00  0.00     0.141 HD
BRANCH   8  10
ATOM     10  S   UNL     1      14.102 -24.999 -41.688  1.00  0.00     0.211 S 
ATOM     11  O   UNL     1      12.824 -24.327 -41.649  1.00  0.00    -0.212 OA
ATOM     12  O   UNL     1      14.183 -26.442 -41.596  1.00  0.00    -0.212 OA
BRANCH  10  13
ATOM     13  C   UNL     1      15.168 -24.297 -40.429  1.00  0.00     0.153 C 
BRANCH  13  14
ATOM     14  C   UNL     1      14.909 -24.856 -39.039  1.00  0.00     0.014 C 
ATOM     15  C   UNL     1      13.769 -24.126 -38.349  1.00  0.00     0.005 C 
ENDBRANCH  13  14
ENDBRANCH  10  13
ENDBRANCH   8  10
ENDBRANCH   1   8
BRANCH   4  16
ATOM     16  C   UNL     1      15.605 -22.691 -47.268  1.00  0.00     0.272 C 
BRANCH  16  17
ATOM     17  C   UNL     1      14.287 -22.012 -47.633  1.00  0.00     0.161 C 
BRANCH  17  18
ATOM     18  C   UNL     1      13.120 -22.901 -47.280  1.00  0.00     0.229 C 
ATOM     19  O   UNL     1      13.294 -24.006 -46.774  1.00  0.00    -0.275 OA
ATOM     20  N   UNL     1      11.892 -22.380 -47.652  1.00  0.00    -0.330 N 
ATOM     21  H   UNL     1      11.874 -21.409 -47.945  1.00  0.00     0.168 HD
BRANCH  20  22
ATOM     22  N   UNL     1      11.262 -23.147 -48.642  1.00  0.00    -0.301 N 
ATOM     23  C   UNL     1      10.343 -24.090 -48.309  1.00  0.00     0.177 C 
ATOM     24  C   UNL     1      11.257 -22.853 -49.974  1.00  0.00     0.170 C 
ATOM     25  O   UNL     1      10.057 -24.389 -47.152  1.00  0.00    -0.297 OA
ATOM     26  N   UNL     1       9.735 -24.562 -49.383  1.00  0.00    -0.415 NA
ATOM     27  C   UNL     1      10.257 -23.839 -50.587  1.00  0.00     0.038 C 
ATOM     28  O   UNL     1      11.897 -21.998 -50.566  1.00  0.00    -0.297 OA
ATOM     29  C   UNL     1      10.982 -24.835 -51.513  1.00  0.00     0.014 C 
ATOM     30  C   UNL     1       9.120 -23.069 -51.286  1.00  0.00     0.014 C 
ATOM     31  C   UNL     1      10.896 -24.411 -52.976  1.00  0.00     0.001 C 
ATOM     32  C   UNL     1       8.458 -23.911 -52.373  1.00  0.00     0.001 C 
ATOM     33  C   UNL     1       9.449 -24.323 -53.462  1.00  0.00     0.000 C 
ENDBRANCH  20  22
ENDBRANCH  17  18
ENDBRANCH  16  17
ENDBRANCH   4  16
TORSDOF 8
ENDMDL
MODEL 7
REMARK VINA RESULT:    -6.879      4.021      9.930
REMARK INTER + INTRA:         -10.984
REMARK INTER:                 -10.626
REMARK INTRA:                  -0.358
REMARK UNBOUND:                -0.888
REMARK SMILES CCCS(=O)(=O)N[C@H]1CC[N@H+](CCC(=O)NN2C(=O)[N-]C3(CCCCC3)C2=O)CC1
REMARK SMILES IDX 8 1 30 2 29 3 11 4 10 5 9 6 7 8 4 10 5 11 6 12 3 13 2 14
REMARK SMILES IDX 1 15 12 16 13 17 14 18 15 19 16 20 17 22 18 23 27 24 19 25
REMARK SMILES IDX 20 26 21 27 28 28 22 29 26 30 23 31 25 32 24 33
REMARK H PARENT 11 7 7 9 16 21
ROOT
ATOM      1  C   UNL     1       7.972 -24.355 -49.768  1.00  0.00     0.080 C 
ATOM      2  C   UNL     1       9.127 -24.265 -50.756  1.00  0.00     0.081 C 
ATOM      3  C   UNL     1      10.025 -23.060 -50.507  1.00  0.00     0.263 C 
ATOM      4  N   UNL     1      10.143 -22.719 -49.044  1.00  0.00    -0.334 N 
ATOM      5  C   UNL     1       9.898 -23.889 -48.129  1.00  0.00     0.263 C 
ATOM      6  C   UNL     1       8.512 -24.493 -48.346  1.00  0.00     0.081 C 
ATOM      7  H   UNL     1       9.329 -22.083 -48.851  1.00  0.00     0.348 HD
ENDROOT
BRANCH   1   8
ATOM      8  N   UNL     1       7.132 -23.157 -49.905  1.00  0.00    -0.212 NA
ATOM      9  H   UNL     1       6.860 -22.623 -49.057  1.00  0.00     0.141 HD
BRANCH   8  10
ATOM     10  S   UNL     1       6.034 -23.027 -51.160  1.00  0.00     0.211 S 
ATOM     11  O   UNL     1       6.499 -21.959 -52.017  1.00  0.00    -0.212 OA
ATOM     12  O   UNL     1       5.837 -24.363 -51.683  1.00  0.00    -0.212 OA
BRANCH  10  13
ATOM     13  C   UNL     1       4.517 -22.510 -50.357  1.00  0.00     0.153 C 
BRANCH  13  14
ATOM     14  C   UNL     1       3.998 -23.517 -49.344  1.00  0.00     0.014 C 
ATOM     15  C   UNL     1       3.358 -22.826 -48.150  1.00  0.00     0.005 C 
ENDBRANCH  13  14
ENDBRANCH  10  13
ENDBRANCH   8  10
ENDBRANCH   1   8
BRANCH   4  16
ATOM     16  C   UNL     1      11.415 -21.946 -48.704  1.00  0.00     0.272 C 
BRANCH  16  17
ATOM     17  C   UNL     1      12.692 -22.755 -48.920  1.00  0.00     0.161 C 
BRANCH  17  18
ATOM     18  C   UNL     1      13.803 -22.230 -48.045  1.00  0.00     0.229 C 
ATOM     19  O   UNL     1      14.981 -22.379 -48.356  1.00  0.00    -0.275 OA
ATOM     20  N   UNL     1      13.358 -21.657 -46.866  1.00  0.00    -0.330 N 
ATOM     21  H   UNL     1      12.361 -21.482 -46.786  1.00  0.00     0.168 HD
BRANCH  20  22
ATOM     22  N   UNL     1      13.766 -22.375 -45.733  1.00  0.00    -0.301 N 
ATOM     23  C   UNL     1      12.909 -23.218 -45.100  1.00  0.00     0.177 C 
ATOM     24  C   UNL     1      15.061 -22.546 -45.340  1.00  0.00     0.170 C 
ATOM     25  O   UNL     1      11.729 -23.357 -45.412  1.00  0.00    -0.297 OA
ATOM     26  N   UNL     1      13.537 -23.934 -44.183  1.00  0.00    -0.415 NA
ATOM     27  C   UNL     1      14.993 -23.580 -44.211  1.00  0.00     0.038 C 
ATOM     28  O   UNL     1      16.065 -22.007 -45.778  1.00  0.00    -0.297 OA
ATOM     29  C   UNL     1      15.394 -22.938 -42.868  1.00  0.00     0.014 C 
ATOM     30  C   UNL     1      15.839 -24.815 -44.577  1.00  0.00     0.014 C 
ATOM     31  C   UNL     1      16.857 -23.209 -42.529  1.00  0.00     0.001 C 
ATOM     32  C   UNL     1      16.290 -25.573 -43.333  1.00  0.00     0.001 C 
ATOM     33  C   UNL     1      17.149 -24.706 -42.412  1.00  0.00     0.000 C 
ENDBRANCH  20  22
ENDBRANCH  17  18
ENDBRANCH  16  17
ENDBRANCH   4  16
TORSDOF 8
ENDMDL
MODEL 8
REMARK VINA RESULT:    -6.848      3.099      9.964
REMARK INTER + INTRA:         -10.938
REMARK INTER:                 -10.249
REMARK INTRA:                  -0.689
REMARK UNBOUND:                -0.888
REMARK SMILES CCCS(=O)(=O)N[C@H]1CC[N@H+](CCC(=O)NN2C(=O)[N-]C3(CCCCC3)C2=O)CC1
REMARK SMILES IDX 8 1 30 2 29 3 11 4 10 5 9 6 7 8 4 10 5 11 6 12 3 13 2 14
REMARK SMILES IDX 1 15 12 16 13 17 14 18 15 19 16 20 17 22 18 23 27 24 19 25
REMARK SMILES IDX 20 26 21 27 28 28 22 29 26 30 23 31 25 32 24 33
REMARK H PARENT 11 7 7 9 16 21
ROOT
ATOM      1  C   UNL     1      10.857 -23.303 -49.857  1.00  0.00     0.080 C 
ATOM      2  C   UNL     1      11.525 -21.939 -49.770  1.00  0.00     0.081 C 
ATOM      3  C   UNL     1      11.893 -21.552 -48.342  1.00  0.00     0.263 C 
ATOM      4  N   UNL     1      12.293 -22.739 -47.505  1.00  0.00    -0.334 N 
ATOM      5  C   UNL     1      12.825 -23.894 -48.311  1.00  0.00     0.263 C 
ATOM      6  C   UNL     1      11.803 -24.383 -49.337  1.00  0.00     0.081 C 
ATOM      7  H   UNL     1      11.390 -23.108 -47.115  1.00  0.00     0.348 HD
ENDROOT
BRANCH   1   8
ATOM      8  N   UNL     1       9.607 -23.273 -49.085  1.00  0.00    -0.212 NA
ATOM      9  H   UNL     1       9.646 -23.215 -48.049  1.00  0.00     0.141 HD
BRANCH   8  10
ATOM     10  S   UNL     1       8.232 -24.031 -49.662  1.00  0.00     0.211 S 
ATOM     11  O   UNL     1       8.615 -25.376 -50.029  1.00  0.00    -0.212 OA
ATOM     12  O   UNL     1       7.186 -23.800 -48.687  1.00  0.00    -0.212 OA
BRANCH  10  13
ATOM     13  C   UNL     1       7.823 -23.116 -51.148  1.00  0.00     0.153 C 
BRANCH  13  14
ATOM     14  C   UNL     1       7.742 -23.988 -52.391  1.00  0.00     0.014 C 
ATOM     15  C   UNL     1       9.088 -24.087 -53.090  1.00  0.00     0.005 C 
ENDBRANCH  13  14
ENDBRANCH  10  13
ENDBRANCH   8  10
ENDBRANCH   1   8
BRANCH   4  16
ATOM     16  C   UNL     1      13.184 -22.371 -46.322  1.00  0.00     0.272 C 
BRANCH  16  17
ATOM     17  C   UNL     1      14.449 -23.220 -46.228  1.00  0.00     0.161 C 
BRANCH  17  18
ATOM     18  C   UNL     1      14.250 -24.357 -45.256  1.00  0.00     0.229 C 
ATOM     19  O   UNL     1      13.132 -24.809 -45.027  1.00  0.00    -0.275 OA
ATOM     20  N   UNL     1      15.415 -24.755 -44.621  1.00  0.00    -0.330 N 
ATOM     21  H   UNL     1      16.287 -24.390 -44.989  1.00  0.00     0.168 HD
BRANCH  20  22
ATOM     22  N   UNL     1      15.385 -24.508 -43.242  1.00  0.00    -0.301 N 
ATOM     23  C   UNL     1      15.715 -23.286 -42.748  1.00  0.00     0.177 C 
ATOM     24  C   UNL     1      14.771 -25.302 -42.318  1.00  0.00     0.170 C 
ATOM     25  O   UNL     1      16.123 -22.356 -43.439  1.00  0.00    -0.297 OA
ATOM     26  N   UNL     1      15.442 -23.205 -41.458  1.00  0.00    -0.415 NA
ATOM     27  C   UNL     1      14.818 -24.494 -41.017  1.00  0.00     0.038 C 
ATOM     28  O   UNL     1      14.283 -26.410 -42.473  1.00  0.00    -0.297 OA
ATOM     29  C   UNL     1      15.733 -25.185 -39.986  1.00  0.00     0.014 C 
ATOM     30  C   UNL     1      13.388 -24.248 -40.498  1.00  0.00     0.014 C 
ATOM     31  C   UNL     1      14.933 -26.030 -38.999  1.00  0.00     0.001 C 
ATOM     32  C   UNL     1      13.372 -24.001 -38.993  1.00  0.00     0.001 C 
ATOM     33  C   UNL     1      13.928 -25.191 -38.210  1.00  0.00     0.000 C 
ENDBRANCH  20  22
ENDBRANCH  17  18
ENDBRANCH  16  17
ENDBRANCH   4  16
TORSDOF 8
ENDMDL
MODEL 9
REMARK VINA RESULT:    -6.738      4.580     10.349
REMARK INTER + INTRA:         -10.778
REMARK INTER:                  -9.918
REMARK INTRA:                  -0.860
REMARK UNBOUND:                -0.888
REMARK SMILES CCCS(=O)(=O)N[C@H]1CC[N@H+](CCC(=O)NN2C(=O)[N-]C3(CCCCC3)C2=O)CC1
REMARK SMILES IDX 8 1 30 2 29 3 11 4 10 5 9 6 7 8 4 10 5 11 6 12 3 13 2 14
REMARK SMILES IDX 1 15 12 16 13 17 14 18 15 19 16 20 17 22 18 23 27 24 19 25
REMARK SMILES IDX 20 26 21 27 28 28 22 29 26 30 23 31 25 32 24 33
REMARK H PARENT 11 7 7 9 16 21
ROOT
ATOM      1  C   UNL     1       5.562 -24.363 -50.612  1.00  0.00     0.080 C 
ATOM      2  C   UNL     1       6.583 -23.965 -51.669  1.00  0.00     0.081 C 
ATOM      3  C   UNL     1       7.876 -23.427 -51.068  1.00  0.00     0.263 C 
ATOM      4  N   UNL     1       8.232 -24.097 -49.766  1.00  0.00    -0.334 N 
ATOM      5  C   UNL     1       7.656 -25.480 -49.622  1.00  0.00     0.263 C 
ATOM      6  C   UNL     1       6.132 -25.470 -49.727  1.00  0.00     0.081 C 
ATOM      7  H   UNL     1       7.724 -23.544 -49.032  1.00  0.00     0.348 HD
ENDROOT
BRANCH   1   8
ATOM      8  N   UNL     1       5.207 -23.177 -49.820  1.00  0.00    -0.212 NA
ATOM      9  H   UNL     1       5.922 -22.738 -49.208  1.00  0.00     0.141 HD
BRANCH   8  10
ATOM     10  S   UNL     1       3.637 -22.947 -49.290  1.00  0.00     0.211 S 
ATOM     11  O   UNL     1       2.945 -24.204 -49.465  1.00  0.00    -0.212 OA
ATOM     12  O   UNL     1       3.724 -22.326 -47.985  1.00  0.00    -0.212 OA
BRANCH  10  13
ATOM     13  C   UNL     1       2.964 -21.746 -50.438  1.00  0.00     0.153 C 
BRANCH  13  14
ATOM     14  C   UNL     1       3.352 -22.010 -51.884  1.00  0.00     0.014 C 
ATOM     15  C   UNL     1       2.132 -22.063 -52.788  1.00  0.00     0.005 C 
ENDBRANCH  13  14
ENDBRANCH  10  13
ENDBRANCH   8  10
ENDBRANCH   1   8
BRANCH   4  16
ATOM     16  C   UNL     1       9.721 -24.029 -49.439  1.00  0.00     0.272 C 
BRANCH  16  17
ATOM     17  C   UNL     1      10.558 -23.403 -50.553  1.00  0.00     0.161 C 
BRANCH  17  18
ATOM     18  C   UNL     1      11.277 -22.177 -50.046  1.00  0.00     0.229 C 
ATOM     19  O   UNL     1      12.025 -21.532 -50.776  1.00  0.00    -0.275 OA
ATOM     20  N   UNL     1      11.066 -21.925 -48.701  1.00  0.00    -0.330 N 
ATOM     21  H   UNL     1      10.332 -22.456 -48.243  1.00  0.00     0.168 HD
BRANCH  20  22
ATOM     22  N   UNL     1      12.237 -22.055 -47.941  1.00  0.00    -0.301 N 
ATOM     23  C   UNL     1      12.945 -20.959 -47.563  1.00  0.00     0.177 C 
ATOM     24  C   UNL     1      12.614 -23.183 -47.271  1.00  0.00     0.170 C 
ATOM     25  O   UNL     1      12.668 -19.812 -47.909  1.00  0.00    -0.297 OA
ATOM     26  N   UNL     1      13.896 -21.280 -46.703  1.00  0.00    -0.415 NA
ATOM     27  C   UNL     1      13.813 -22.749 -46.422  1.00  0.00     0.038 C 
ATOM     28  O   UNL     1      12.119 -24.297 -47.322  1.00  0.00    -0.297 OA
ATOM     29  C   UNL     1      15.100 -23.442 -46.912  1.00  0.00     0.014 C 
ATOM     30  C   UNL     1      13.516 -22.993 -44.930  1.00  0.00     0.014 C 
ATOM     31  C   UNL     1      15.427 -24.678 -46.079  1.00  0.00     0.001 C 
ATOM     32  C   UNL     1      14.800 -23.152 -44.121  1.00  0.00     0.001 C 
ATOM     33  C   UNL     1      15.640 -24.334 -44.605  1.00  0.00     0.000 C 
ENDBRANCH  20  22
ENDBRANCH  17  18
ENDBRANCH  16  17
ENDBRANCH   4  16
TORSDOF 8
ENDMDL
