REMARK SMILES O=C(c1cc([N+](=O)[O-])ccc1Cl)N1N=C2/C(=C/c3ccc(F)cc3)CCC[C@@H]2[C@@H]1c1ccc(F)cc1
REMARK SMILES IDX 1 1 2 2 3 3 4 4 11 5 5 6 10 7 9 8 12 9 6 10 7 11 8 12 13 13
REMARK SMILES IDX 14 14 29 15 15 16 28 17 16 18 27 19 17 20 25 21 26 22 30 23
REMARK SMILES IDX 31 24 36 25 32 26 35 27 33 28 34 29 18 30 19 31 24 32 20 33
REMARK SMILES IDX 23 34 21 35 22 36
REMARK H PARENT
ROOT
ATOM      1  O   UNL     1      -2.875  -2.927  -0.912  1.00  0.00    -0.267 OA
ATOM      2  C   UNL     1      -1.983  -2.572  -0.146  1.00  0.00     0.276 C 
ENDROOT
BRANCH   2   3
ATOM      3  C   UNL     1      -1.471  -3.593   0.786  1.00  0.00     0.067 A 
ATOM      4  C   UNL     1      -1.875  -3.527   2.127  1.00  0.00     0.101 A 
ATOM      5  C   UNL     1      -0.657  -4.641   0.338  1.00  0.00     0.054 A 
ATOM      6  C   UNL     1      -1.416  -4.497   3.025  1.00  0.00     0.270 A 
ATOM      7  C   UNL     1      -0.210  -5.606   1.247  1.00  0.00     0.028 A 
ATOM      8  C   UNL     1      -0.583  -5.537   2.593  1.00  0.00     0.087 A 
ATOM      9  Cl  UNL     1      -0.156  -4.794  -1.306  1.00  0.00    -0.083 Cl
BRANCH   6  10
ATOM     10  N   UNL     1      -1.800  -4.413   4.438  1.00  0.00     0.062 N 
ATOM     11  O   UNL     1      -2.275  -3.339   4.834  1.00  0.00    -0.258 OA
ATOM     12  O   UNL     1      -1.607  -5.409   5.148  1.00  0.00    -0.258 OA
ENDBRANCH   6  10
ENDBRANCH   2   3
BRANCH   2  13
ATOM     13  N   UNL     1      -1.447  -1.292  -0.056  1.00  0.00    -0.221 N 
ATOM     14  N   UNL     1      -1.901  -0.321  -0.922  1.00  0.00    -0.173 NA
ATOM     15  C   UNL     1      -0.396  -0.781   0.847  1.00  0.00     0.150 C 
ATOM     16  C   UNL     1      -1.352   0.796  -0.571  1.00  0.00     0.070 C 
ATOM     17  C   UNL     1      -0.509   0.739   0.678  1.00  0.00     0.070 C 
ATOM     18  C   UNL     1      -1.483   2.112  -1.254  1.00  0.00    -0.024 C 
ATOM     19  C   UNL     1       0.744   1.581   0.472  1.00  0.00     0.013 C 
ATOM     20  C   UNL     1      -1.974   2.124  -2.505  1.00  0.00     0.013 C 
ATOM     21  C   UNL     1      -0.992   3.277  -0.440  1.00  0.00     0.037 C 
ATOM     22  C   UNL     1       0.399   3.049   0.175  1.00  0.00     0.006 C 
BRANCH  15  23
ATOM     23  C   UNL     1       0.971  -1.380   0.571  1.00  0.00    -0.022 A 
ATOM     24  C   UNL     1       1.817  -1.699   1.649  1.00  0.00     0.009 A 
ATOM     25  C   UNL     1       1.428  -1.614  -0.738  1.00  0.00     0.009 A 
ATOM     26  C   UNL     1       3.078  -2.252   1.421  1.00  0.00     0.039 A 
ATOM     27  C   UNL     1       2.690  -2.168  -0.962  1.00  0.00     0.039 A 
ATOM     28  C   UNL     1       3.502  -2.483   0.119  1.00  0.00     0.123 A 
ATOM     29  F   UNL     1       4.712  -3.015  -0.096  1.00  0.00    -0.207 F 
ENDBRANCH  15  23
BRANCH  20  30
ATOM     30  C   UNL     1      -2.148   3.336  -3.305  1.00  0.00    -0.025 A 
ATOM     31  C   UNL     1      -3.222   4.202  -3.061  1.00  0.00     0.011 A 
ATOM     32  C   UNL     1      -1.233   3.633  -4.324  1.00  0.00     0.011 A 
ATOM     33  C   UNL     1      -3.375   5.359  -3.826  1.00  0.00     0.040 A 
ATOM     34  C   UNL     1      -1.389   4.791  -5.087  1.00  0.00     0.040 A 
ATOM     35  C   UNL     1      -2.457   5.643  -4.831  1.00  0.00     0.123 A 
ATOM     36  F   UNL     1      -2.604   6.755  -5.563  1.00  0.00    -0.207 F 
ENDBRANCH  20  30
ENDBRANCH   2  13
TORSDOF 5
