REMARK SMILES N#C/C(=C\Nc1ccccc1C(N)=O)c1nc(-c2cccc([N+](=O)[O-])c2)cs1
REMARK SMILES IDX 1 1 2 2 3 3 4 4 15 5 16 6 28 7 17 8 27 9 18 10 19 11 26 12
REMARK SMILES IDX 20 13 22 14 21 15 23 16 24 17 25 18 5 19 6 21 7 22 11 23
REMARK SMILES IDX 8 24 10 25 9 26 12 27 13 28 14 29
REMARK H PARENT 5 20 13 30 13 31
ROOT
ATOM      1  N   UNL     1       0.495   0.647  -3.074  1.00  0.00    -0.192 NA
ATOM      2  C   UNL     1       0.628   0.616  -1.920  1.00  0.00     0.104 C 
ATOM      3  C   UNL     1       0.791   0.617  -0.503  1.00  0.00     0.104 C 
ATOM      4  C   UNL     1       1.926   0.190   0.088  1.00  0.00     0.105 C 
ENDROOT
BRANCH   3   5
ATOM      5  C   UNL     1      -0.331   0.991   0.300  1.00  0.00     0.136 A 
ATOM      6  N   UNL     1      -1.563   0.532   0.173  1.00  0.00    -0.235 NA
ATOM      7  S   UNL     1      -0.169   2.198   1.540  1.00  0.00    -0.121 S 
ATOM      8  C   UNL     1      -2.428   1.127   1.078  1.00  0.00     0.082 A 
ATOM      9  C   UNL     1      -1.834   2.051   1.912  1.00  0.00     0.096 A 
BRANCH   8  10
ATOM     10  C   UNL     1      -3.840   0.752   1.115  1.00  0.00     0.008 A 
ATOM     11  C   UNL     1      -4.818   1.587   1.680  1.00  0.00     0.011 A 
ATOM     12  C   UNL     1      -4.238  -0.472   0.555  1.00  0.00     0.096 A 
ATOM     13  C   UNL     1      -6.165   1.207   1.696  1.00  0.00     0.008 A 
ATOM     14  C   UNL     1      -5.588  -0.849   0.576  1.00  0.00     0.270 A 
ATOM     15  C   UNL     1      -6.555  -0.013   1.146  1.00  0.00     0.085 A 
BRANCH  14  16
ATOM     16  N   UNL     1      -5.993  -2.135  -0.003  1.00  0.00     0.062 N 
ATOM     17  O   UNL     1      -5.101  -2.917  -0.359  1.00  0.00    -0.258 OA
ATOM     18  O   UNL     1      -7.208  -2.367  -0.094  1.00  0.00    -0.258 OA
ENDBRANCH  14  16
ENDBRANCH   8  10
ENDBRANCH   3   5
BRANCH   4  19
ATOM     19  N   UNL     1       3.125  -0.250  -0.423  1.00  0.00    -0.360 N 
ATOM     20  H   UNL     1       3.645  -0.914   0.170  1.00  0.00     0.166 HD
BRANCH  19  21
ATOM     21  C   UNL     1       3.978   0.343  -1.387  1.00  0.00     0.051 A 
ATOM     22  C   UNL     1       3.751   1.628  -1.903  1.00  0.00     0.027 A 
ATOM     23  C   UNL     1       5.063  -0.396  -1.919  1.00  0.00     0.063 A 
ATOM     24  C   UNL     1       4.570   2.166  -2.900  1.00  0.00     0.002 A 
ATOM     25  C   UNL     1       5.891   0.154  -2.913  1.00  0.00     0.016 A 
ATOM     26  C   UNL     1       5.638   1.433  -3.405  1.00  0.00     0.001 A 
BRANCH  23  27
ATOM     27  C   UNL     1       5.364  -1.755  -1.389  1.00  0.00     0.250 C 
ATOM     28  N   UNL     1       5.895  -2.665  -2.262  1.00  0.00    -0.366 N 
ATOM     29  O   UNL     1       5.119  -2.058  -0.227  1.00  0.00    -0.269 OA
ATOM     30  H   UNL     1       5.817  -2.536  -3.262  1.00  0.00     0.159 HD
ATOM     31  H   UNL     1       5.951  -3.618  -1.925  1.00  0.00     0.159 HD
ENDBRANCH  23  27
ENDBRANCH  19  21
ENDBRANCH   4  19
TORSDOF 6
