MODEL 1
REMARK VINA RESULT:    -8.712      0.000      0.000
REMARK INTER + INTRA:         -11.552
REMARK INTER:                 -11.259
REMARK INTRA:                  -0.293
REMARK UNBOUND:                -0.293
REMARK SMILES CC(=O)Nc1cccc(NCC(=O)Nc2cccc3nsnc23)c1C
REMARK SMILES IDX 10 1 9 3 5 4 6 5 24 6 7 7 8 8 25 9 4 10 2 11 3 12 1 13 11 15
REMARK SMILES IDX 12 16 13 17 14 18 15 20 16 21 23 22 17 23 22 24 19 25 18 26
REMARK SMILES IDX 21 27 20 28
REMARK H PARENT 10 2 4 14 14 19
ROOT
ATOM      1  N   UNL     1      14.779 -18.875 -53.757  1.00  0.00    -0.376 N 
ATOM      2  H   UNL     1      14.518 -19.746 -54.219  1.00  0.00     0.161 HD
ENDROOT
BRANCH   1   3
ATOM      3  C   UNL     1      16.174 -18.690 -53.854  1.00  0.00     0.039 A 
ATOM      4  C   UNL     1      18.124 -17.178 -53.889  1.00  0.00     0.046 A 
ATOM      5  C   UNL     1      18.964 -18.290 -53.960  1.00  0.00     0.026 A 
ATOM      6  C   UNL     1      16.718 -17.375 -53.786  1.00  0.00    -0.004 A 
ATOM      7  C   UNL     1      18.440 -19.578 -53.941  1.00  0.00     0.004 A 
ATOM      8  C   UNL     1      17.064 -19.774 -53.885  1.00  0.00     0.026 A 
ATOM      9  C   UNL     1      15.799 -16.183 -53.624  1.00  0.00     0.049 C 
BRANCH   4  10
ATOM     10  N   UNL     1      18.639 -15.856 -53.929  1.00  0.00    -0.326 N 
ATOM     11  C   UNL     1      18.857 -14.990 -52.871  1.00  0.00     0.221 C 
ATOM     12  O   UNL     1      18.633 -15.190 -51.684  1.00  0.00    -0.275 OA
ATOM     13  C   UNL     1      19.447 -13.680 -53.335  1.00  0.00     0.114 C 
ATOM     14  H   UNL     1      18.897 -15.501 -54.839  1.00  0.00     0.169 HD
ENDBRANCH   4  10
ENDBRANCH   1   3
BRANCH   1  15
ATOM     15  C   UNL     1      14.093 -18.787 -52.445  1.00  0.00     0.213 C 
BRANCH  15  16
ATOM     16  C   UNL     1      13.729 -20.166 -51.872  1.00  0.00     0.243 C 
ATOM     17  O   UNL     1      13.382 -21.078 -52.614  1.00  0.00    -0.273 OA
ATOM     18  N   UNL     1      13.873 -20.211 -50.498  1.00  0.00    -0.323 N 
ATOM     19  H   UNL     1      14.447 -19.447 -50.143  1.00  0.00     0.170 HD
BRANCH  18  20
ATOM     20  C   UNL     1      13.578 -21.281 -49.637  1.00  0.00     0.070 A 
ATOM     21  C   UNL     1      14.570 -21.648 -48.696  1.00  0.00     0.028 A 
ATOM     22  C   UNL     1      12.360 -22.025 -49.566  1.00  0.00     0.128 A 
ATOM     23  C   UNL     1      14.432 -22.713 -47.775  1.00  0.00     0.005 A 
ATOM     24  N   UNL     1      11.219 -21.822 -50.245  1.00  0.00    -0.171 NA
ATOM     25  C   UNL     1      12.226 -23.168 -48.577  1.00  0.00     0.106 A 
ATOM     26  C   UNL     1      13.279 -23.506 -47.694  1.00  0.00     0.032 A 
ATOM     27  S   UNL     1      10.150 -22.996 -49.787  1.00  0.00     0.069 S 
ATOM     28  N   UNL     1      11.036 -23.788 -48.629  1.00  0.00    -0.173 NA
ENDBRANCH  18  20
ENDBRANCH  15  16
ENDBRANCH   1  15
TORSDOF 5
ENDMDL
MODEL 2
REMARK VINA RESULT:    -8.333      5.118      8.476
REMARK INTER + INTRA:         -11.062
REMARK INTER:                 -10.531
REMARK INTRA:                  -0.531
REMARK UNBOUND:                -0.293
REMARK SMILES CC(=O)Nc1cccc(NCC(=O)Nc2cccc3nsnc23)c1C
REMARK SMILES IDX 10 1 9 3 5 4 6 5 24 6 7 7 8 8 25 9 4 10 2 11 3 12 1 13 11 15
REMARK SMILES IDX 12 16 13 17 14 18 15 20 16 21 23 22 17 23 22 24 19 25 18 26
REMARK SMILES IDX 21 27 20 28
REMARK H PARENT 10 2 4 14 14 19
ROOT
ATOM      1  N   UNL     1      12.702 -25.108 -47.042  1.00  0.00    -0.376 N 
ATOM      2  H   UNL     1      13.198 -25.972 -46.823  1.00  0.00     0.161 HD
ENDROOT
BRANCH   1   3
ATOM      3  C   UNL     1      13.634 -24.086 -47.319  1.00  0.00     0.039 A 
ATOM      4  C   UNL     1      14.288 -22.097 -48.626  1.00  0.00     0.046 A 
ATOM      5  C   UNL     1      15.435 -21.980 -47.841  1.00  0.00     0.026 A 
ATOM      6  C   UNL     1      13.351 -23.129 -48.336  1.00  0.00    -0.004 A 
ATOM      7  C   UNL     1      15.672 -22.862 -46.793  1.00  0.00     0.004 A 
ATOM      8  C   UNL     1      14.780 -23.898 -46.533  1.00  0.00     0.026 A 
ATOM      9  C   UNL     1      12.061 -23.220 -49.122  1.00  0.00     0.049 C 
BRANCH   4  10
ATOM     10  N   UNL     1      14.039 -21.221 -49.714  1.00  0.00    -0.326 N 
ATOM     11  C   UNL     1      13.473 -19.958 -49.684  1.00  0.00     0.221 C 
ATOM     12  O   UNL     1      13.056 -19.350 -48.706  1.00  0.00    -0.275 OA
ATOM     13  C   UNL     1      13.413 -19.340 -51.059  1.00  0.00     0.114 C 
ATOM     14  H   UNL     1      14.326 -21.544 -50.627  1.00  0.00     0.169 HD
ENDBRANCH   4  10
ENDBRANCH   1   3
BRANCH   1  15
ATOM     15  C   UNL     1      11.618 -24.896 -46.051  1.00  0.00     0.213 C 
BRANCH  15  16
ATOM     16  C   UNL     1      12.120 -24.246 -44.753  1.00  0.00     0.243 C 
ATOM     17  O   UNL     1      11.913 -23.059 -44.527  1.00  0.00    -0.273 OA
ATOM     18  N   UNL     1      12.766 -25.154 -43.934  1.00  0.00    -0.323 N 
ATOM     19  H   UNL     1      12.557 -26.119 -44.185  1.00  0.00     0.170 HD
BRANCH  18  20
ATOM     20  C   UNL     1      13.399 -24.905 -42.704  1.00  0.00     0.070 A 
ATOM     21  C   UNL     1      12.694 -25.263 -41.530  1.00  0.00     0.028 A 
ATOM     22  C   UNL     1      14.706 -24.369 -42.497  1.00  0.00     0.128 A 
ATOM     23  C   UNL     1      13.187 -25.060 -40.219  1.00  0.00     0.005 A 
ATOM     24  N   UNL     1      15.635 -24.057 -43.416  1.00  0.00    -0.171 NA
ATOM     25  C   UNL     1      15.222 -24.152 -41.086  1.00  0.00     0.106 A 
ATOM     26  C   UNL     1      14.443 -24.494 -39.956  1.00  0.00     0.032 A 
ATOM     27  S   UNL     1      16.947 -23.452 -42.614  1.00  0.00     0.069 S 
ATOM     28  N   UNL     1      16.458 -23.630 -41.039  1.00  0.00    -0.173 NA
ENDBRANCH  18  20
ENDBRANCH  15  16
ENDBRANCH   1  15
TORSDOF 5
ENDMDL
MODEL 3
REMARK VINA RESULT:    -7.909      4.967      8.492
REMARK INTER + INTRA:         -10.514
REMARK INTER:                  -9.797
REMARK INTRA:                  -0.717
REMARK UNBOUND:                -0.293
REMARK SMILES CC(=O)Nc1cccc(NCC(=O)Nc2cccc3nsnc23)c1C
REMARK SMILES IDX 10 1 9 3 5 4 6 5 24 6 7 7 8 8 25 9 4 10 2 11 3 12 1 13 11 15
REMARK SMILES IDX 12 16 13 17 14 18 15 20 16 21 23 22 17 23 22 24 19 25 18 26
REMARK SMILES IDX 21 27 20 28
REMARK H PARENT 10 2 4 14 14 19
ROOT
ATOM      1  N   UNL     1      12.486 -24.813 -47.306  1.00  0.00    -0.376 N 
ATOM      2  H   UNL     1      13.398 -24.467 -47.005  1.00  0.00     0.161 HD
ENDROOT
BRANCH   1   3
ATOM      3  C   UNL     1      12.033 -24.053 -48.403  1.00  0.00     0.039 A 
ATOM      4  C   UNL     1      12.208 -22.034 -49.813  1.00  0.00     0.046 A 
ATOM      5  C   UNL     1      11.208 -22.547 -50.641  1.00  0.00     0.026 A 
ATOM      6  C   UNL     1      12.662 -22.812 -48.710  1.00  0.00    -0.004 A 
ATOM      7  C   UNL     1      10.651 -23.796 -50.393  1.00  0.00     0.004 A 
ATOM      8  C   UNL     1      11.062 -24.540 -49.291  1.00  0.00     0.026 A 
ATOM      9  C   UNL     1      13.803 -22.309 -47.852  1.00  0.00     0.049 C 
BRANCH   4  10
ATOM     10  N   UNL     1      12.773 -20.752 -50.037  1.00  0.00    -0.326 N 
ATOM     11  C   UNL     1      13.320 -20.251 -51.206  1.00  0.00     0.221 C 
ATOM     12  O   UNL     1      13.440 -20.825 -52.281  1.00  0.00    -0.275 OA
ATOM     13  C   UNL     1      13.786 -18.825 -51.037  1.00  0.00     0.114 C 
ATOM     14  H   UNL     1      12.761 -20.112 -49.256  1.00  0.00     0.169 HD
ENDBRANCH   4  10
ENDBRANCH   1   3
BRANCH   1  15
ATOM     15  C   UNL     1      11.620 -25.022 -46.119  1.00  0.00     0.213 C 
BRANCH  15  16
ATOM     16  C   UNL     1      12.143 -24.299 -44.868  1.00  0.00     0.243 C 
ATOM     17  O   UNL     1      11.915 -23.107 -44.694  1.00  0.00    -0.273 OA
ATOM     18  N   UNL     1      12.833 -25.151 -44.027  1.00  0.00    -0.323 N 
ATOM     19  H   UNL     1      12.640 -26.132 -44.225  1.00  0.00     0.170 HD
BRANCH  18  20
ATOM     20  C   UNL     1      13.494 -24.829 -42.829  1.00  0.00     0.070 A 
ATOM     21  C   UNL     1      12.805 -25.089 -41.619  1.00  0.00     0.028 A 
ATOM     22  C   UNL     1      14.815 -24.306 -42.683  1.00  0.00     0.128 A 
ATOM     23  C   UNL     1      13.327 -24.804 -40.336  1.00  0.00     0.005 A 
ATOM     24  N   UNL     1      15.732 -24.079 -43.638  1.00  0.00    -0.171 NA
ATOM     25  C   UNL     1      15.362 -24.001 -41.300  1.00  0.00     0.106 A 
ATOM     26  C   UNL     1      14.598 -24.247 -40.136  1.00  0.00     0.032 A 
ATOM     27  S   UNL     1      17.071 -23.446 -42.905  1.00  0.00     0.069 S 
ATOM     28  N   UNL     1      16.608 -23.502 -41.313  1.00  0.00    -0.173 NA
ENDBRANCH  18  20
ENDBRANCH  15  16
ENDBRANCH   1  15
TORSDOF 5
ENDMDL
MODEL 4
REMARK VINA RESULT:    -7.856      5.809      8.970
REMARK INTER + INTRA:         -10.445
REMARK INTER:                  -9.779
REMARK INTRA:                  -0.666
REMARK UNBOUND:                -0.293
REMARK SMILES CC(=O)Nc1cccc(NCC(=O)Nc2cccc3nsnc23)c1C
REMARK SMILES IDX 10 1 9 3 5 4 6 5 24 6 7 7 8 8 25 9 4 10 2 11 3 12 1 13 11 15
REMARK SMILES IDX 12 16 13 17 14 18 15 20 16 21 23 22 17 23 22 24 19 25 18 26
REMARK SMILES IDX 21 27 20 28
REMARK H PARENT 10 2 4 14 14 19
ROOT
ATOM      1  N   UNL     1      14.020 -24.087 -46.818  1.00  0.00    -0.376 N 
ATOM      2  H   UNL     1      14.775 -23.481 -46.496  1.00  0.00     0.161 HD
ENDROOT
BRANCH   1   3
ATOM      3  C   UNL     1      13.144 -23.350 -47.642  1.00  0.00     0.039 A 
ATOM      4  C   UNL     1      12.766 -21.495 -49.226  1.00  0.00     0.046 A 
ATOM      5  C   UNL     1      11.440 -21.907 -49.365  1.00  0.00     0.026 A 
ATOM      6  C   UNL     1      13.643 -22.248 -48.395  1.00  0.00    -0.004 A 
ATOM      7  C   UNL     1      10.972 -23.033 -48.697  1.00  0.00     0.004 A 
ATOM      8  C   UNL     1      11.815 -23.747 -47.850  1.00  0.00     0.026 A 
ATOM      9  C   UNL     1      15.104 -21.865 -48.299  1.00  0.00     0.049 C 
BRANCH   4  10
ATOM     10  N   UNL     1      13.256 -20.336 -49.882  1.00  0.00    -0.326 N 
ATOM     11  C   UNL     1      13.442 -20.136 -51.239  1.00  0.00     0.221 C 
ATOM     12  O   UNL     1      13.233 -20.930 -52.147  1.00  0.00    -0.275 OA
ATOM     13  C   UNL     1      13.955 -18.746 -51.532  1.00  0.00     0.114 C 
ATOM     14  H   UNL     1      13.483 -19.548 -49.293  1.00  0.00     0.169 HD
ENDBRANCH   4  10
ENDBRANCH   1   3
BRANCH   1  15
ATOM     15  C   UNL     1      13.500 -24.878 -45.677  1.00  0.00     0.213 C 
BRANCH  15  16
ATOM     16  C   UNL     1      13.877 -24.273 -44.315  1.00  0.00     0.243 C 
ATOM     17  O   UNL     1      14.179 -23.089 -44.219  1.00  0.00    -0.273 OA
ATOM     18  N   UNL     1      13.798 -25.203 -43.295  1.00  0.00    -0.323 N 
ATOM     19  H   UNL     1      13.249 -26.021 -43.557  1.00  0.00     0.170 HD
BRANCH  18  20
ATOM     20  C   UNL     1      14.122 -25.022 -41.939  1.00  0.00     0.070 A 
ATOM     21  C   UNL     1      13.124 -24.466 -41.103  1.00  0.00     0.028 A 
ATOM     22  C   UNL     1      15.340 -25.381 -41.286  1.00  0.00     0.128 A 
ATOM     23  C   UNL     1      13.302 -24.206 -39.724  1.00  0.00     0.005 A 
ATOM     24  N   UNL     1      16.401 -26.028 -41.796  1.00  0.00    -0.171 NA
ATOM     25  C   UNL     1      15.521 -25.094 -39.806  1.00  0.00     0.106 A 
ATOM     26  C   UNL     1      14.493 -24.494 -39.042  1.00  0.00     0.032 A 
ATOM     27  S   UNL     1      17.535 -26.150 -40.600  1.00  0.00     0.069 S 
ATOM     28  N   UNL     1      16.717 -25.470 -39.327  1.00  0.00    -0.173 NA
ENDBRANCH  18  20
ENDBRANCH  15  16
ENDBRANCH   1  15
TORSDOF 5
ENDMDL
MODEL 5
REMARK VINA RESULT:    -7.758      5.623      9.349
REMARK INTER + INTRA:         -10.319
REMARK INTER:                  -9.147
REMARK INTRA:                  -1.172
REMARK UNBOUND:                -0.293
REMARK SMILES CC(=O)Nc1cccc(NCC(=O)Nc2cccc3nsnc23)c1C
REMARK SMILES IDX 10 1 9 3 5 4 6 5 24 6 7 7 8 8 25 9 4 10 2 11 3 12 1 13 11 15
REMARK SMILES IDX 12 16 13 17 14 18 15 20 16 21 23 22 17 23 22 24 19 25 18 26
REMARK SMILES IDX 21 27 20 28
REMARK H PARENT 10 2 4 14 14 19
ROOT
ATOM      1  N   UNL     1      13.727 -26.174 -44.397  1.00  0.00    -0.376 N 
ATOM      2  H   UNL     1      13.708 -27.141 -44.071  1.00  0.00     0.161 HD
ENDROOT
BRANCH   1   3
ATOM      3  C   UNL     1      14.475 -25.388 -43.496  1.00  0.00     0.039 A 
ATOM      4  C   UNL     1      16.486 -24.042 -43.008  1.00  0.00     0.046 A 
ATOM      5  C   UNL     1      15.958 -23.741 -41.751  1.00  0.00     0.026 A 
ATOM      6  C   UNL     1      15.720 -24.832 -43.911  1.00  0.00    -0.004 A 
ATOM      7  C   UNL     1      14.705 -24.213 -41.375  1.00  0.00     0.004 A 
ATOM      8  C   UNL     1      13.973 -25.022 -42.239  1.00  0.00     0.026 A 
ATOM      9  C   UNL     1      16.239 -25.097 -45.308  1.00  0.00     0.049 C 
BRANCH   4  10
ATOM     10  N   UNL     1      17.771 -23.588 -43.401  1.00  0.00    -0.326 N 
ATOM     11  C   UNL     1      18.097 -22.436 -44.096  1.00  0.00     0.221 C 
ATOM     12  O   UNL     1      17.332 -21.582 -44.527  1.00  0.00    -0.275 OA
ATOM     13  C   UNL     1      19.588 -22.303 -44.289  1.00  0.00     0.114 C 
ATOM     14  H   UNL     1      18.555 -24.163 -43.126  1.00  0.00     0.169 HD
ENDBRANCH   4  10
ENDBRANCH   1   3
BRANCH   1  15
ATOM     15  C   UNL     1      12.361 -25.765 -44.806  1.00  0.00     0.213 C 
BRANCH  15  16
ATOM     16  C   UNL     1      12.340 -24.408 -45.528  1.00  0.00     0.243 C 
ATOM     17  O   UNL     1      11.766 -23.445 -45.032  1.00  0.00    -0.273 OA
ATOM     18  N   UNL     1      13.044 -24.443 -46.718  1.00  0.00    -0.323 N 
ATOM     19  H   UNL     1      13.672 -25.243 -46.773  1.00  0.00     0.170 HD
BRANCH  18  20
ATOM     20  C   UNL     1      13.190 -23.412 -47.662  1.00  0.00     0.070 A 
ATOM     21  C   UNL     1      14.398 -22.675 -47.634  1.00  0.00     0.028 A 
ATOM     22  C   UNL     1      12.269 -23.044 -48.690  1.00  0.00     0.128 A 
ATOM     23  C   UNL     1      14.687 -21.598 -48.504  1.00  0.00     0.005 A 
ATOM     24  N   UNL     1      11.112 -23.639 -49.025  1.00  0.00    -0.171 NA
ATOM     25  C   UNL     1      12.589 -21.884 -49.615  1.00  0.00     0.106 A 
ATOM     26  C   UNL     1      13.801 -21.164 -49.501  1.00  0.00     0.032 A 
ATOM     27  S   UNL     1      10.449 -22.775 -50.268  1.00  0.00     0.069 S 
ATOM     28  N   UNL     1      11.631 -21.640 -50.524  1.00  0.00    -0.173 NA
ENDBRANCH  18  20
ENDBRANCH  15  16
ENDBRANCH   1  15
TORSDOF 5
ENDMDL
MODEL 6
REMARK VINA RESULT:    -7.638      1.947      2.282
REMARK INTER + INTRA:         -10.165
REMARK INTER:                  -9.827
REMARK INTRA:                  -0.337
REMARK UNBOUND:                -0.293
REMARK SMILES CC(=O)Nc1cccc(NCC(=O)Nc2cccc3nsnc23)c1C
REMARK SMILES IDX 10 1 9 3 5 4 6 5 24 6 7 7 8 8 25 9 4 10 2 11 3 12 1 13 11 15
REMARK SMILES IDX 12 16 13 17 14 18 15 20 16 21 23 22 17 23 22 24 19 25 18 26
REMARK SMILES IDX 21 27 20 28
REMARK H PARENT 10 2 4 14 14 19
ROOT
ATOM      1  N   UNL     1      14.260 -19.213 -53.211  1.00  0.00    -0.376 N 
ATOM      2  H   UNL     1      13.874 -20.072 -53.604  1.00  0.00     0.161 HD
ENDROOT
BRANCH   1   3
ATOM      3  C   UNL     1      15.632 -19.125 -53.529  1.00  0.00     0.039 A 
ATOM      4  C   UNL     1      17.629 -17.746 -53.977  1.00  0.00     0.046 A 
ATOM      5  C   UNL     1      18.390 -18.912 -54.080  1.00  0.00     0.026 A 
ATOM      6  C   UNL     1      16.247 -17.846 -53.650  1.00  0.00    -0.004 A 
ATOM      7  C   UNL     1      17.809 -20.159 -53.878  1.00  0.00     0.004 A 
ATOM      8  C   UNL     1      16.449 -20.263 -53.602  1.00  0.00     0.026 A 
ATOM      9  C   UNL     1      15.426 -16.589 -53.451  1.00  0.00     0.049 C 
BRANCH   4  10
ATOM     10  N   UNL     1      18.198 -16.466 -54.201  1.00  0.00    -0.326 N 
ATOM     11  C   UNL     1      19.207 -15.841 -53.487  1.00  0.00     0.221 C 
ATOM     12  O   UNL     1      19.800 -16.266 -52.504  1.00  0.00    -0.275 OA
ATOM     13  C   UNL     1      19.548 -14.490 -54.070  1.00  0.00     0.114 C 
ATOM     14  H   UNL     1      17.841 -15.946 -54.990  1.00  0.00     0.169 HD
ENDBRANCH   4  10
ENDBRANCH   1   3
BRANCH   1  15
ATOM     15  C   UNL     1      13.796 -19.059 -51.810  1.00  0.00     0.213 C 
BRANCH  15  16
ATOM     16  C   UNL     1      13.368 -20.392 -51.177  1.00  0.00     0.243 C 
ATOM     17  O   UNL     1      12.851 -21.271 -51.859  1.00  0.00    -0.273 OA
ATOM     18  N   UNL     1      13.663 -20.444 -49.827  1.00  0.00    -0.323 N 
ATOM     19  H   UNL     1      14.345 -19.739 -49.553  1.00  0.00     0.170 HD
BRANCH  18  20
ATOM     20  C   UNL     1      13.367 -21.476 -48.921  1.00  0.00     0.070 A 
ATOM     21  C   UNL     1      12.051 -21.997 -48.940  1.00  0.00     0.028 A 
ATOM     22  C   UNL     1      14.261 -22.101 -47.999  1.00  0.00     0.128 A 
ATOM     23  C   UNL     1      11.593 -23.022 -48.079  1.00  0.00     0.005 A 
ATOM     24  N   UNL     1      15.581 -21.897 -47.849  1.00  0.00    -0.171 NA
ATOM     25  C   UNL     1      13.758 -23.197 -47.078  1.00  0.00     0.106 A 
ATOM     26  C   UNL     1      12.415 -23.638 -47.124  1.00  0.00     0.032 A 
ATOM     27  S   UNL     1      16.100 -22.871 -46.620  1.00  0.00     0.069 S 
ATOM     28  N   UNL     1      14.701 -23.685 -46.256  1.00  0.00    -0.173 NA
ENDBRANCH  18  20
ENDBRANCH  15  16
ENDBRANCH   1  15
TORSDOF 5
ENDMDL
MODEL 7
REMARK VINA RESULT:    -7.339      6.264      8.397
REMARK INTER + INTRA:          -9.778
REMARK INTER:                  -9.167
REMARK INTRA:                  -0.611
REMARK UNBOUND:                -0.293
REMARK SMILES CC(=O)Nc1cccc(NCC(=O)Nc2cccc3nsnc23)c1C
REMARK SMILES IDX 10 1 9 3 5 4 6 5 24 6 7 7 8 8 25 9 4 10 2 11 3 12 1 13 11 15
REMARK SMILES IDX 12 16 13 17 14 18 15 20 16 21 23 22 17 23 22 24 19 25 18 26
REMARK SMILES IDX 21 27 20 28
REMARK H PARENT 10 2 4 14 14 19
ROOT
ATOM      1  N   UNL     1      11.936 -21.897 -48.115  1.00  0.00    -0.376 N 
ATOM      2  H   UNL     1      11.476 -21.132 -47.621  1.00  0.00     0.161 HD
ENDROOT
BRANCH   1   3
ATOM      3  C   UNL     1      13.208 -22.124 -47.550  1.00  0.00     0.039 A 
ATOM      4  C   UNL     1      14.594 -23.022 -45.715  1.00  0.00     0.046 A 
ATOM      5  C   UNL     1      15.739 -22.672 -46.431  1.00  0.00     0.026 A 
ATOM      6  C   UNL     1      13.314 -22.792 -46.296  1.00  0.00    -0.004 A 
ATOM      7  C   UNL     1      15.639 -22.097 -47.693  1.00  0.00     0.004 A 
ATOM      8  C   UNL     1      14.390 -21.831 -48.246  1.00  0.00     0.026 A 
ATOM      9  C   UNL     1      12.065 -23.242 -45.570  1.00  0.00     0.049 C 
BRANCH   4  10
ATOM     10  N   UNL     1      14.674 -23.589 -44.417  1.00  0.00    -0.326 N 
ATOM     11  C   UNL     1      15.333 -23.092 -43.305  1.00  0.00     0.221 C 
ATOM     12  O   UNL     1      15.995 -22.064 -43.226  1.00  0.00    -0.275 OA
ATOM     13  C   UNL     1      15.149 -23.985 -42.102  1.00  0.00     0.114 C 
ATOM     14  H   UNL     1      14.176 -24.456 -44.273  1.00  0.00     0.169 HD
ENDBRANCH   4  10
ENDBRANCH   1   3
BRANCH   1  15
ATOM     15  C   UNL     1      11.780 -21.705 -49.578  1.00  0.00     0.213 C 
BRANCH  15  16
ATOM     16  C   UNL     1      10.674 -22.587 -50.177  1.00  0.00     0.243 C 
ATOM     17  O   UNL     1      10.682 -22.877 -51.368  1.00  0.00    -0.273 OA
ATOM     18  N   UNL     1       9.758 -22.990 -49.223  1.00  0.00    -0.323 N 
ATOM     19  H   UNL     1      10.113 -22.880 -48.274  1.00  0.00     0.170 HD
BRANCH  18  20
ATOM     20  C   UNL     1       8.593 -23.751 -49.416  1.00  0.00     0.070 A 
ATOM     21  C   UNL     1       8.478 -24.958 -48.685  1.00  0.00     0.028 A 
ATOM     22  C   UNL     1       7.472 -23.424 -50.240  1.00  0.00     0.128 A 
ATOM     23  C   UNL     1       7.378 -25.841 -48.783  1.00  0.00     0.005 A 
ATOM     24  N   UNL     1       7.255 -22.301 -50.944  1.00  0.00    -0.171 NA
ATOM     25  C   UNL     1       6.299 -24.382 -50.340  1.00  0.00     0.106 A 
ATOM     26  C   UNL     1       6.273 -25.593 -49.611  1.00  0.00     0.032 A 
ATOM     27  S   UNL     1       5.813 -22.476 -51.731  1.00  0.00     0.069 S 
ATOM     28  N   UNL     1       5.325 -23.955 -51.159  1.00  0.00    -0.173 NA
ENDBRANCH  18  20
ENDBRANCH  15  16
ENDBRANCH   1  15
TORSDOF 5
ENDMDL
MODEL 8
REMARK VINA RESULT:    -7.302      6.459      8.873
REMARK INTER + INTRA:          -9.730
REMARK INTER:                  -9.127
REMARK INTRA:                  -0.603
REMARK UNBOUND:                -0.293
REMARK SMILES CC(=O)Nc1cccc(NCC(=O)Nc2cccc3nsnc23)c1C
REMARK SMILES IDX 10 1 9 3 5 4 6 5 24 6 7 7 8 8 25 9 4 10 2 11 3 12 1 13 11 15
REMARK SMILES IDX 12 16 13 17 14 18 15 20 16 21 23 22 17 23 22 24 19 25 18 26
REMARK SMILES IDX 21 27 20 28
REMARK H PARENT 10 2 4 14 14 19
ROOT
ATOM      1  N   UNL     1      12.459 -22.779 -47.522  1.00  0.00    -0.376 N 
ATOM      2  H   UNL     1      11.726 -23.255 -46.997  1.00  0.00     0.161 HD
ENDROOT
BRANCH   1   3
ATOM      3  C   UNL     1      13.630 -22.709 -46.739  1.00  0.00     0.039 A 
ATOM      4  C   UNL     1      14.759 -23.013 -44.565  1.00  0.00     0.046 A 
ATOM      5  C   UNL     1      15.970 -22.663 -45.164  1.00  0.00     0.026 A 
ATOM      6  C   UNL     1      13.584 -23.085 -45.366  1.00  0.00    -0.004 A 
ATOM      7  C   UNL     1      16.033 -22.377 -46.524  1.00  0.00     0.004 A 
ATOM      8  C   UNL     1      14.879 -22.405 -47.300  1.00  0.00     0.026 A 
ATOM      9  C   UNL     1      12.279 -23.545 -44.750  1.00  0.00     0.049 C 
BRANCH   4  10
ATOM     10  N   UNL     1      14.670 -23.286 -43.175  1.00  0.00    -0.326 N 
ATOM     11  C   UNL     1      15.034 -24.441 -42.505  1.00  0.00     0.221 C 
ATOM     12  O   UNL     1      15.494 -25.470 -42.985  1.00  0.00    -0.275 OA
ATOM     13  C   UNL     1      14.808 -24.318 -41.018  1.00  0.00     0.114 C 
ATOM     14  H   UNL     1      14.314 -22.541 -42.593  1.00  0.00     0.169 HD
ENDBRANCH   4  10
ENDBRANCH   1   3
BRANCH   1  15
ATOM     15  C   UNL     1      11.900 -21.561 -48.159  1.00  0.00     0.213 C 
BRANCH  15  16
ATOM     16  C   UNL     1      11.510 -21.786 -49.628  1.00  0.00     0.243 C 
ATOM     17  O   UNL     1      12.028 -21.124 -50.520  1.00  0.00    -0.273 OA
ATOM     18  N   UNL     1      10.575 -22.795 -49.768  1.00  0.00    -0.323 N 
ATOM     19  H   UNL     1      10.520 -23.390 -48.942  1.00  0.00     0.170 HD
BRANCH  18  20
ATOM     20  C   UNL     1       9.952 -23.233 -50.949  1.00  0.00     0.070 A 
ATOM     21  C   UNL     1      10.766 -23.878 -51.911  1.00  0.00     0.028 A 
ATOM     22  C   UNL     1       8.565 -23.144 -51.279  1.00  0.00     0.128 A 
ATOM     23  C   UNL     1      10.293 -24.357 -53.155  1.00  0.00     0.005 A 
ATOM     24  N   UNL     1       7.553 -22.697 -50.517  1.00  0.00    -0.171 NA
ATOM     25  C   UNL     1       8.069 -23.659 -52.619  1.00  0.00     0.106 A 
ATOM     26  C   UNL     1       8.951 -24.254 -53.551  1.00  0.00     0.032 A 
ATOM     27  S   UNL     1       6.170 -22.797 -51.414  1.00  0.00     0.069 S 
ATOM     28  N   UNL     1       6.749 -23.499 -52.801  1.00  0.00    -0.173 NA
ENDBRANCH  18  20
ENDBRANCH  15  16
ENDBRANCH   1  15
TORSDOF 5
ENDMDL
MODEL 9
REMARK VINA RESULT:    -7.153      4.664      7.909
REMARK INTER + INTRA:          -9.538
REMARK INTER:                  -8.895
REMARK INTRA:                  -0.643
REMARK UNBOUND:                -0.293
REMARK SMILES CC(=O)Nc1cccc(NCC(=O)Nc2cccc3nsnc23)c1C
REMARK SMILES IDX 10 1 9 3 5 4 6 5 24 6 7 7 8 8 25 9 4 10 2 11 3 12 1 13 11 15
REMARK SMILES IDX 12 16 13 17 14 18 15 20 16 21 23 22 17 23 22 24 19 25 18 26
REMARK SMILES IDX 21 27 20 28
REMARK H PARENT 10 2 4 14 14 19
ROOT
ATOM      1  N   UNL     1      11.299 -23.827 -46.840  1.00  0.00    -0.376 N 
ATOM      2  H   UNL     1      10.347 -23.741 -46.483  1.00  0.00     0.161 HD
ENDROOT
BRANCH   1   3
ATOM      3  C   UNL     1      11.329 -23.445 -48.198  1.00  0.00     0.039 A 
ATOM      4  C   UNL     1      12.035 -21.853 -49.947  1.00  0.00     0.046 A 
ATOM      5  C   UNL     1      11.481 -22.695 -50.912  1.00  0.00     0.026 A 
ATOM      6  C   UNL     1      12.004 -22.250 -48.580  1.00  0.00    -0.004 A 
ATOM      7  C   UNL     1      10.896 -23.903 -50.550  1.00  0.00     0.004 A 
ATOM      8  C   UNL     1      10.825 -24.274 -49.210  1.00  0.00     0.026 A 
ATOM      9  C   UNL     1      12.674 -21.391 -47.530  1.00  0.00     0.049 C 
BRANCH   4  10
ATOM     10  N   UNL     1      12.617 -20.606 -50.294  1.00  0.00    -0.326 N 
ATOM     11  C   UNL     1      13.260 -20.261 -51.471  1.00  0.00     0.221 C 
ATOM     12  O   UNL     1      13.470 -20.973 -52.445  1.00  0.00    -0.275 OA
ATOM     13  C   UNL     1      13.710 -18.820 -51.457  1.00  0.00     0.114 C 
ATOM     14  H   UNL     1      12.540 -19.868 -49.610  1.00  0.00     0.169 HD
ENDBRANCH   4  10
ENDBRANCH   1   3
BRANCH   1  15
ATOM     15  C   UNL     1      11.874 -25.123 -46.405  1.00  0.00     0.213 C 
BRANCH  15  16
ATOM     16  C   UNL     1      13.374 -25.028 -46.082  1.00  0.00     0.243 C 
ATOM     17  O   UNL     1      14.119 -25.978 -46.289  1.00  0.00    -0.273 OA
ATOM     18  N   UNL     1      13.719 -23.784 -45.586  1.00  0.00    -0.323 N 
ATOM     19  H   UNL     1      13.010 -23.079 -45.781  1.00  0.00     0.170 HD
BRANCH  18  20
ATOM     20  C   UNL     1      14.979 -23.358 -45.134  1.00  0.00     0.070 A 
ATOM     21  C   UNL     1      15.830 -22.735 -46.079  1.00  0.00     0.028 A 
ATOM     22  C   UNL     1      15.494 -23.439 -43.803  1.00  0.00     0.128 A 
ATOM     23  C   UNL     1      17.133 -22.270 -45.784  1.00  0.00     0.005 A 
ATOM     24  N   UNL     1      14.870 -23.864 -42.692  1.00  0.00    -0.171 NA
ATOM     25  C   UNL     1      16.895 -22.939 -43.500  1.00  0.00     0.106 A 
ATOM     26  C   UNL     1      17.706 -22.366 -44.508  1.00  0.00     0.032 A 
ATOM     27  S   UNL     1      15.949 -23.765 -41.445  1.00  0.00     0.069 S 
ATOM     28  N   UNL     1      17.254 -23.088 -42.215  1.00  0.00    -0.173 NA
ENDBRANCH  18  20
ENDBRANCH  15  16
ENDBRANCH   1  15
TORSDOF 5
ENDMDL
