MODEL 1
REMARK VINA RESULT:    -7.382      0.000      0.000
REMARK INTER + INTRA:          -9.476
REMARK INTER:                  -8.892
REMARK INTRA:                  -0.584
REMARK UNBOUND:                -0.584
REMARK SMILES COc1ccc(-c2nc(C)c3c(N)c(C(N)=O)sc3n2)cc1
REMARK SMILES IDX 7 1 8 2 9 3 10 4 11 5 12 6 14 7 18 8 19 9 20 10 6 11 3 12
REMARK SMILES IDX 4 13 22 14 5 15 21 16 2 17 1 18 13 19 15 22 16 23 17 24
REMARK H PARENT 13 20 13 21 16 25 16 26
ROOT
ATOM      1  C   UNL     1      12.819 -23.118 -45.880  1.00  0.00     0.161 A 
ATOM      2  N   UNL     1      11.663 -23.599 -46.377  1.00  0.00    -0.233 NA
ATOM      3  C   UNL     1      11.282 -23.287 -47.646  1.00  0.00     0.052 A 
ATOM      4  C   UNL     1       9.988 -23.880 -48.113  1.00  0.00     0.067 C 
ATOM      5  C   UNL     1      12.110 -22.446 -48.413  1.00  0.00     0.056 A 
ATOM      6  C   UNL     1      12.045 -21.902 -49.745  1.00  0.00     0.067 A 
ATOM      7  C   UNL     1      13.143 -21.120 -50.071  1.00  0.00     0.117 A 
ATOM      8  S   UNL     1      14.246 -21.038 -48.764  1.00  0.00    -0.108 S 
ATOM      9  C   UNL     1      13.272 -22.029 -47.785  1.00  0.00     0.130 A 
ATOM     10  N   UNL     1      13.673 -22.327 -46.540  1.00  0.00    -0.217 NA
ENDROOT
BRANCH   1  11
ATOM     11  C   UNL     1      13.174 -23.498 -44.494  1.00  0.00     0.019 A 
ATOM     12  C   UNL     1      13.847 -24.232 -41.826  1.00  0.00     0.118 A 
ATOM     13  C   UNL     1      14.777 -23.592 -42.645  1.00  0.00     0.047 A 
ATOM     14  C   UNL     1      12.581 -24.508 -42.333  1.00  0.00     0.047 A 
ATOM     15  C   UNL     1      14.446 -23.231 -43.957  1.00  0.00     0.016 A 
ATOM     16  C   UNL     1      12.252 -24.146 -43.648  1.00  0.00     0.016 A 
BRANCH  12  17
ATOM     17  O   UNL     1      14.297 -24.529 -40.570  1.00  0.00    -0.497 OA
ATOM     18  C   UNL     1      13.395 -24.301 -39.495  1.00  0.00     0.278 C 
ENDBRANCH  12  17
ENDBRANCH   1  11
BRANCH   6  19
ATOM     19  N   UNL     1      11.031 -22.124 -50.617  1.00  0.00    -0.397 N 
ATOM     20  H   UNL     1      10.638 -23.043 -50.788  1.00  0.00     0.156 HD
ATOM     21  H   UNL     1      10.353 -21.374 -50.793  1.00  0.00     0.156 HD
ENDBRANCH   6  19
BRANCH   7  22
ATOM     22  C   UNL     1      13.394 -20.413 -51.319  1.00  0.00     0.260 C 
ATOM     23  N   UNL     1      13.869 -19.133 -51.230  1.00  0.00    -0.365 N 
ATOM     24  O   UNL     1      13.202 -20.895 -52.436  1.00  0.00    -0.269 OA
ATOM     25  H   UNL     1      14.060 -18.637 -52.088  1.00  0.00     0.159 HD
ATOM     26  H   UNL     1      14.059 -18.692 -50.342  1.00  0.00     0.159 HD
ENDBRANCH   7  22
TORSDOF 4
ENDMDL
MODEL 2
REMARK VINA RESULT:    -7.043      1.844      3.033
REMARK INTER + INTRA:          -9.068
REMARK INTER:                  -8.510
REMARK INTRA:                  -0.558
REMARK UNBOUND:                -0.584
REMARK SMILES COc1ccc(-c2nc(C)c3c(N)c(C(N)=O)sc3n2)cc1
REMARK SMILES IDX 7 1 8 2 9 3 10 4 11 5 12 6 14 7 18 8 19 9 20 10 6 11 3 12
REMARK SMILES IDX 4 13 22 14 5 15 21 16 2 17 1 18 13 19 15 22 16 23 17 24
REMARK H PARENT 13 20 13 21 16 25 16 26
ROOT
ATOM      1  C   UNL     1      12.820 -23.206 -45.922  1.00  0.00     0.161 A 
ATOM      2  N   UNL     1      13.682 -22.475 -46.655  1.00  0.00    -0.233 NA
ATOM      3  C   UNL     1      13.374 -22.138 -47.936  1.00  0.00     0.052 A 
ATOM      4  C   UNL     1      14.390 -21.312 -48.665  1.00  0.00     0.067 C 
ATOM      5  C   UNL     1      12.152 -22.579 -48.477  1.00  0.00     0.056 A 
ATOM      6  C   UNL     1      11.499 -22.438 -49.753  1.00  0.00     0.067 A 
ATOM      7  C   UNL     1      10.256 -23.050 -49.802  1.00  0.00     0.117 A 
ATOM      8  S   UNL     1       9.883 -23.800 -48.309  1.00  0.00    -0.108 S 
ATOM      9  C   UNL     1      11.356 -23.315 -47.614  1.00  0.00     0.130 A 
ATOM     10  N   UNL     1      11.634 -23.656 -46.347  1.00  0.00    -0.217 NA
ENDROOT
BRANCH   1  11
ATOM     11  C   UNL     1      13.217 -23.537 -44.534  1.00  0.00     0.019 A 
ATOM     12  C   UNL     1      13.989 -24.169 -41.867  1.00  0.00     0.118 A 
ATOM     13  C   UNL     1      12.721 -24.506 -42.340  1.00  0.00     0.047 A 
ATOM     14  C   UNL     1      14.875 -23.517 -42.720  1.00  0.00     0.047 A 
ATOM     15  C   UNL     1      12.341 -24.195 -43.652  1.00  0.00     0.016 A 
ATOM     16  C   UNL     1      14.491 -23.207 -44.033  1.00  0.00     0.016 A 
BRANCH  12  17
ATOM     17  O   UNL     1      14.232 -24.529 -40.571  1.00  0.00    -0.497 OA
ATOM     18  C   UNL     1      13.259 -24.148 -39.607  1.00  0.00     0.278 C 
ENDBRANCH  12  17
ENDBRANCH   1  11
BRANCH   6  19
ATOM     19  N   UNL     1      12.019 -21.771 -50.813  1.00  0.00    -0.397 N 
ATOM     20  H   UNL     1      12.760 -21.085 -50.725  1.00  0.00     0.156 HD
ATOM     21  H   UNL     1      12.014 -22.221 -51.735  1.00  0.00     0.156 HD
ENDBRANCH   6  19
BRANCH   7  22
ATOM     22  C   UNL     1       9.337 -23.112 -50.931  1.00  0.00     0.260 C 
ATOM     23  N   UNL     1       8.097 -22.560 -50.760  1.00  0.00    -0.365 N 
ATOM     24  O   UNL     1       9.609 -23.629 -52.015  1.00  0.00    -0.269 OA
ATOM     25  H   UNL     1       7.455 -22.584 -51.539  1.00  0.00     0.159 HD
ATOM     26  H   UNL     1       7.824 -22.110 -49.898  1.00  0.00     0.159 HD
ENDBRANCH   7  22
TORSDOF 4
ENDMDL
MODEL 3
REMARK VINA RESULT:    -7.010      2.646      8.269
REMARK INTER + INTRA:          -9.027
REMARK INTER:                  -8.438
REMARK INTRA:                  -0.589
REMARK UNBOUND:                -0.584
REMARK SMILES COc1ccc(-c2nc(C)c3c(N)c(C(N)=O)sc3n2)cc1
REMARK SMILES IDX 7 1 8 2 9 3 10 4 11 5 12 6 14 7 18 8 19 9 20 10 6 11 3 12
REMARK SMILES IDX 4 13 22 14 5 15 21 16 2 17 1 18 13 19 15 22 16 23 17 24
REMARK H PARENT 13 20 13 21 16 25 16 26
ROOT
ATOM      1  C   UNL     1      14.147 -22.495 -46.141  1.00  0.00     0.161 A 
ATOM      2  N   UNL     1      15.441 -22.325 -45.809  1.00  0.00    -0.233 NA
ATOM      3  C   UNL     1      15.896 -22.742 -44.596  1.00  0.00     0.052 A 
ATOM      4  C   UNL     1      17.352 -22.521 -44.323  1.00  0.00     0.067 C 
ATOM      5  C   UNL     1      14.987 -23.337 -43.701  1.00  0.00     0.056 A 
ATOM      6  C   UNL     1      15.083 -23.879 -42.370  1.00  0.00     0.067 A 
ATOM      7  C   UNL     1      13.883 -24.388 -41.898  1.00  0.00     0.117 A 
ATOM      8  S   UNL     1      12.641 -24.205 -43.062  1.00  0.00    -0.108 S 
ATOM      9  C   UNL     1      13.689 -23.458 -44.171  1.00  0.00     0.130 A 
ATOM     10  N   UNL     1      13.218 -23.061 -45.363  1.00  0.00    -0.217 NA
ENDROOT
BRANCH   1  11
ATOM     11  C   UNL     1      13.720 -22.020 -47.477  1.00  0.00     0.019 A 
ATOM     12  C   UNL     1      12.890 -21.108 -50.044  1.00  0.00     0.118 A 
ATOM     13  C   UNL     1      14.244 -21.217 -49.731  1.00  0.00     0.047 A 
ATOM     14  C   UNL     1      11.946 -21.453 -49.081  1.00  0.00     0.047 A 
ATOM     15  C   UNL     1      14.652 -21.666 -48.468  1.00  0.00     0.016 A 
ATOM     16  C   UNL     1      12.358 -21.902 -47.817  1.00  0.00     0.016 A 
BRANCH  12  17
ATOM     17  O   UNL     1      12.627 -20.658 -51.308  1.00  0.00    -0.497 OA
ATOM     18  C   UNL     1      13.716 -20.092 -52.026  1.00  0.00     0.278 C 
ENDBRANCH  12  17
ENDBRANCH   1  11
BRANCH   6  19
ATOM     19  N   UNL     1      16.221 -23.908 -41.634  1.00  0.00    -0.397 N 
ATOM     20  H   UNL     1      17.119 -23.602 -41.990  1.00  0.00     0.156 HD
ATOM     21  H   UNL     1      16.157 -23.816 -40.614  1.00  0.00     0.156 HD
ENDBRANCH   6  19
BRANCH   7  22
ATOM     22  C   UNL     1      13.622 -24.995 -40.601  1.00  0.00     0.260 C 
ATOM     23  N   UNL     1      13.002 -26.215 -40.593  1.00  0.00    -0.365 N 
ATOM     24  O   UNL     1      13.919 -24.478 -39.524  1.00  0.00    -0.269 OA
ATOM     25  H   UNL     1      12.827 -26.653 -39.700  1.00  0.00     0.159 HD
ATOM     26  H   UNL     1      12.749 -26.694 -41.445  1.00  0.00     0.159 HD
ENDBRANCH   7  22
TORSDOF 4
ENDMDL
MODEL 4
REMARK VINA RESULT:    -7.001      1.335      1.906
REMARK INTER + INTRA:          -9.018
REMARK INTER:                  -8.459
REMARK INTRA:                  -0.558
REMARK UNBOUND:                -0.584
REMARK SMILES COc1ccc(-c2nc(C)c3c(N)c(C(N)=O)sc3n2)cc1
REMARK SMILES IDX 7 1 8 2 9 3 10 4 11 5 12 6 14 7 18 8 19 9 20 10 6 11 3 12
REMARK SMILES IDX 4 13 22 14 5 15 21 16 2 17 1 18 13 19 15 22 16 23 17 24
REMARK H PARENT 13 20 13 21 16 25 16 26
ROOT
ATOM      1  C   UNL     1      13.061 -23.772 -44.512  1.00  0.00     0.161 A 
ATOM      2  N   UNL     1      12.025 -24.518 -44.944  1.00  0.00    -0.233 NA
ATOM      3  C   UNL     1      11.528 -24.337 -46.197  1.00  0.00     0.052 A 
ATOM      4  C   UNL     1      10.385 -25.222 -46.591  1.00  0.00     0.067 C 
ATOM      5  C   UNL     1      12.106 -23.351 -47.018  1.00  0.00     0.056 A 
ATOM      6  C   UNL     1      11.861 -22.873 -48.355  1.00  0.00     0.067 A 
ATOM      7  C   UNL     1      12.734 -21.870 -48.747  1.00  0.00     0.117 A 
ATOM      8  S   UNL     1      13.845 -21.503 -47.497  1.00  0.00    -0.108 S 
ATOM      9  C   UNL     1      13.168 -22.662 -46.455  1.00  0.00     0.130 A 
ATOM     10  N   UNL     1      13.680 -22.826 -45.226  1.00  0.00    -0.217 NA
ENDROOT
BRANCH   1  11
ATOM     11  C   UNL     1      13.553 -24.023 -43.138  1.00  0.00     0.019 A 
ATOM     12  C   UNL     1      14.509 -24.503 -40.499  1.00  0.00     0.118 A 
ATOM     13  C   UNL     1      13.170 -24.719 -40.822  1.00  0.00     0.047 A 
ATOM     14  C   UNL     1      15.375 -24.047 -41.489  1.00  0.00     0.047 A 
ATOM     15  C   UNL     1      12.700 -24.483 -42.120  1.00  0.00     0.016 A 
ATOM     16  C   UNL     1      14.901 -23.812 -42.788  1.00  0.00     0.016 A 
BRANCH  12  17
ATOM     17  O   UNL     1      14.836 -24.771 -39.200  1.00  0.00    -0.497 OA
ATOM     18  C   UNL     1      13.913 -24.349 -38.205  1.00  0.00     0.278 C 
ENDBRANCH  12  17
ENDBRANCH   1  11
BRANCH   6  19
ATOM     19  N   UNL     1      10.887 -23.345 -49.172  1.00  0.00    -0.397 N 
ATOM     20  H   UNL     1      11.067 -23.987 -49.935  1.00  0.00     0.156 HD
ATOM     21  H   UNL     1       9.932 -23.433 -48.809  1.00  0.00     0.156 HD
ENDBRANCH   6  19
BRANCH   7  22
ATOM     22  C   UNL     1      12.762 -21.160 -50.018  1.00  0.00     0.260 C 
ATOM     23  N   UNL     1      13.656 -20.132 -50.141  1.00  0.00    -0.365 N 
ATOM     24  O   UNL     1      12.034 -21.427 -50.974  1.00  0.00    -0.269 OA
ATOM     25  H   UNL     1      13.695 -19.640 -51.022  1.00  0.00     0.159 HD
ATOM     26  H   UNL     1      14.288 -19.878 -49.396  1.00  0.00     0.159 HD
ENDBRANCH   7  22
TORSDOF 4
ENDMDL
MODEL 5
REMARK VINA RESULT:    -6.980      1.745      2.910
REMARK INTER + INTRA:          -8.992
REMARK INTER:                  -8.434
REMARK INTRA:                  -0.558
REMARK UNBOUND:                -0.584
REMARK SMILES COc1ccc(-c2nc(C)c3c(N)c(C(N)=O)sc3n2)cc1
REMARK SMILES IDX 7 1 8 2 9 3 10 4 11 5 12 6 14 7 18 8 19 9 20 10 6 11 3 12
REMARK SMILES IDX 4 13 22 14 5 15 21 16 2 17 1 18 13 19 15 22 16 23 17 24
REMARK H PARENT 13 20 13 21 16 25 16 26
ROOT
ATOM      1  C   UNL     1      13.969 -23.480 -44.464  1.00  0.00     0.161 A 
ATOM      2  N   UNL     1      15.197 -23.150 -44.910  1.00  0.00    -0.233 NA
ATOM      3  C   UNL     1      15.355 -22.640 -46.162  1.00  0.00     0.052 A 
ATOM      4  C   UNL     1      16.756 -22.292 -46.562  1.00  0.00     0.067 C 
ATOM      5  C   UNL     1      14.218 -22.479 -46.975  1.00  0.00     0.056 A 
ATOM      6  C   UNL     1      13.990 -21.997 -48.313  1.00  0.00     0.067 A 
ATOM      7  C   UNL     1      12.652 -22.010 -48.679  1.00  0.00     0.117 A 
ATOM      8  S   UNL     1      11.676 -22.612 -47.407  1.00  0.00    -0.108 S 
ATOM      9  C   UNL     1      13.017 -22.850 -46.392  1.00  0.00     0.130 A 
ATOM     10  N   UNL     1      12.835 -23.349 -45.160  1.00  0.00    -0.217 NA
ENDROOT
BRANCH   1  11
ATOM     11  C   UNL     1      13.869 -24.028 -43.092  1.00  0.00     0.019 A 
ATOM     12  C   UNL     1      13.667 -25.086 -40.456  1.00  0.00     0.118 A 
ATOM     13  C   UNL     1      14.807 -24.392 -40.860  1.00  0.00     0.047 A 
ATOM     14  C   UNL     1      12.625 -25.254 -41.363  1.00  0.00     0.047 A 
ATOM     15  C   UNL     1      14.907 -23.872 -42.157  1.00  0.00     0.016 A 
ATOM     16  C   UNL     1      12.728 -24.732 -42.662  1.00  0.00     0.016 A 
BRANCH  12  17
ATOM     17  O   UNL     1      13.698 -25.540 -39.168  1.00  0.00    -0.497 OA
ATOM     18  C   UNL     1      13.720 -24.557 -38.141  1.00  0.00     0.278 C 
ENDBRANCH  12  17
ENDBRANCH   1  11
BRANCH   6  19
ATOM     19  N   UNL     1      14.963 -21.560 -49.149  1.00  0.00    -0.397 N 
ATOM     20  H   UNL     1      15.653 -20.867 -48.881  1.00  0.00     0.156 HD
ATOM     21  H   UNL     1      15.311 -22.189 -49.881  1.00  0.00     0.156 HD
ENDBRANCH   6  19
BRANCH   7  22
ATOM     22  C   UNL     1      12.073 -21.605 -49.952  1.00  0.00     0.260 C 
ATOM     23  N   UNL     1      10.732 -21.817 -50.126  1.00  0.00    -0.365 N 
ATOM     24  O   UNL     1      12.713 -21.093 -50.870  1.00  0.00    -0.269 OA
ATOM     25  H   UNL     1      10.315 -21.528 -50.998  1.00  0.00     0.159 HD
ATOM     26  H   UNL     1      10.154 -22.219 -49.402  1.00  0.00     0.159 HD
ENDBRANCH   7  22
TORSDOF 4
ENDMDL
MODEL 6
REMARK VINA RESULT:    -6.942      2.675      8.231
REMARK INTER + INTRA:          -8.946
REMARK INTER:                  -8.549
REMARK INTRA:                  -0.397
REMARK UNBOUND:                -0.584
REMARK SMILES COc1ccc(-c2nc(C)c3c(N)c(C(N)=O)sc3n2)cc1
REMARK SMILES IDX 7 1 8 2 9 3 10 4 11 5 12 6 14 7 18 8 19 9 20 10 6 11 3 12
REMARK SMILES IDX 4 13 22 14 5 15 21 16 2 17 1 18 13 19 15 22 16 23 17 24
REMARK H PARENT 13 20 13 21 16 25 16 26
ROOT
ATOM      1  C   UNL     1      13.003 -20.914 -50.398  1.00  0.00     0.161 A 
ATOM      2  N   UNL     1      11.930 -21.602 -50.836  1.00  0.00    -0.233 NA
ATOM      3  C   UNL     1      11.299 -22.480 -50.010  1.00  0.00     0.052 A 
ATOM      4  C   UNL     1      10.109 -23.187 -50.583  1.00  0.00     0.067 C 
ATOM      5  C   UNL     1      11.796 -22.660 -48.706  1.00  0.00     0.056 A 
ATOM      6  C   UNL     1      11.418 -23.477 -47.582  1.00  0.00     0.067 A 
ATOM      7  C   UNL     1      12.224 -23.286 -46.470  1.00  0.00     0.117 A 
ATOM      8  S   UNL     1      13.441 -22.124 -46.790  1.00  0.00    -0.108 S 
ATOM      9  C   UNL     1      12.898 -21.886 -48.382  1.00  0.00     0.130 A 
ATOM     10  N   UNL     1      13.535 -21.010 -49.174  1.00  0.00    -0.217 NA
ENDROOT
BRANCH   1  11
ATOM     11  C   UNL     1      13.642 -19.974 -51.347  1.00  0.00     0.019 A 
ATOM     12  C   UNL     1      14.872 -18.173 -53.178  1.00  0.00     0.118 A 
ATOM     13  C   UNL     1      14.512 -17.752 -51.898  1.00  0.00     0.047 A 
ATOM     14  C   UNL     1      14.620 -19.490 -53.549  1.00  0.00     0.047 A 
ATOM     15  C   UNL     1      13.907 -18.638 -50.997  1.00  0.00     0.016 A 
ATOM     16  C   UNL     1      14.014 -20.375 -52.644  1.00  0.00     0.016 A 
BRANCH  12  17
ATOM     17  O   UNL     1      15.453 -17.211 -53.956  1.00  0.00    -0.497 OA
ATOM     18  C   UNL     1      16.393 -16.354 -53.321  1.00  0.00     0.278 C 
ENDBRANCH  12  17
ENDBRANCH   1  11
BRANCH   6  19
ATOM     19  N   UNL     1      10.378 -24.347 -47.580  1.00  0.00    -0.397 N 
ATOM     20  H   UNL     1       9.566 -24.240 -48.176  1.00  0.00     0.156 HD
ATOM     21  H   UNL     1      10.549 -25.328 -47.330  1.00  0.00     0.156 HD
ENDBRANCH   6  19
BRANCH   7  22
ATOM     22  C   UNL     1      12.133 -23.951 -45.178  1.00  0.00     0.260 C 
ATOM     23  N   UNL     1      12.784 -25.147 -45.041  1.00  0.00    -0.365 N 
ATOM     24  O   UNL     1      11.507 -23.506 -44.216  1.00  0.00    -0.269 OA
ATOM     25  H   UNL     1      12.740 -25.612 -44.146  1.00  0.00     0.159 HD
ATOM     26  H   UNL     1      13.325 -25.553 -45.791  1.00  0.00     0.159 HD
ENDBRANCH   7  22
TORSDOF 4
ENDMDL
MODEL 7
REMARK VINA RESULT:    -6.939      3.639      8.810
REMARK INTER + INTRA:          -8.943
REMARK INTER:                  -8.394
REMARK INTRA:                  -0.549
REMARK UNBOUND:                -0.584
REMARK SMILES COc1ccc(-c2nc(C)c3c(N)c(C(N)=O)sc3n2)cc1
REMARK SMILES IDX 7 1 8 2 9 3 10 4 11 5 12 6 14 7 18 8 19 9 20 10 6 11 3 12
REMARK SMILES IDX 4 13 22 14 5 15 21 16 2 17 1 18 13 19 15 22 16 23 17 24
REMARK H PARENT 13 20 13 21 16 25 16 26
ROOT
ATOM      1  C   UNL     1      14.785 -23.413 -44.453  1.00  0.00     0.161 A 
ATOM      2  N   UNL     1      16.077 -23.774 -44.322  1.00  0.00    -0.233 NA
ATOM      3  C   UNL     1      16.531 -24.269 -43.139  1.00  0.00     0.052 A 
ATOM      4  C   UNL     1      17.978 -24.654 -43.095  1.00  0.00     0.067 C 
ATOM      5  C   UNL     1      15.632 -24.380 -42.062  1.00  0.00     0.056 A 
ATOM      6  C   UNL     1      15.735 -24.834 -40.699  1.00  0.00     0.067 A 
ATOM      7  C   UNL     1      14.534 -24.773 -40.009  1.00  0.00     0.117 A 
ATOM      8  S   UNL     1      13.285 -24.162 -41.008  1.00  0.00    -0.108 S 
ATOM      9  C   UNL     1      14.333 -23.982 -42.334  1.00  0.00     0.130 A 
ATOM     10  N   UNL     1      13.859 -23.497 -43.491  1.00  0.00    -0.217 NA
ENDROOT
BRANCH   1  11
ATOM     11  C   UNL     1      14.357 -22.884 -45.768  1.00  0.00     0.019 A 
ATOM     12  C   UNL     1      13.542 -21.864 -48.298  1.00  0.00     0.118 A 
ATOM     13  C   UNL     1      12.601 -22.156 -47.312  1.00  0.00     0.047 A 
ATOM     14  C   UNL     1      14.890 -22.078 -48.028  1.00  0.00     0.047 A 
ATOM     15  C   UNL     1      13.002 -22.658 -46.067  1.00  0.00     0.016 A 
ATOM     16  C   UNL     1      15.288 -22.581 -46.780  1.00  0.00     0.016 A 
BRANCH  12  17
ATOM     17  O   UNL     1      13.019 -21.382 -49.465  1.00  0.00    -0.497 OA
ATOM     18  C   UNL     1      13.425 -20.078 -49.860  1.00  0.00     0.278 C 
ENDBRANCH  12  17
ENDBRANCH   1  11
BRANCH   6  19
ATOM     19  N   UNL     1      16.876 -25.288 -40.125  1.00  0.00    -0.397 N 
ATOM     20  H   UNL     1      17.507 -24.692 -39.600  1.00  0.00     0.156 HD
ATOM     21  H   UNL     1      16.926 -26.267 -39.822  1.00  0.00     0.156 HD
ENDBRANCH   6  19
BRANCH   7  22
ATOM     22  C   UNL     1      14.283 -25.139 -38.622  1.00  0.00     0.260 C 
ATOM     23  N   UNL     1      13.822 -24.157 -37.788  1.00  0.00    -0.365 N 
ATOM     24  O   UNL     1      14.463 -26.267 -38.163  1.00  0.00    -0.269 OA
ATOM     25  H   UNL     1      13.631 -24.401 -36.827  1.00  0.00     0.159 HD
ATOM     26  H   UNL     1      13.641 -23.218 -38.113  1.00  0.00     0.159 HD
ENDBRANCH   7  22
TORSDOF 4
ENDMDL
MODEL 8
REMARK VINA RESULT:    -6.606      2.718      7.282
REMARK INTER + INTRA:          -8.541
REMARK INTER:                  -7.968
REMARK INTRA:                  -0.572
REMARK UNBOUND:                -0.584
REMARK SMILES COc1ccc(-c2nc(C)c3c(N)c(C(N)=O)sc3n2)cc1
REMARK SMILES IDX 7 1 8 2 9 3 10 4 11 5 12 6 14 7 18 8 19 9 20 10 6 11 3 12
REMARK SMILES IDX 4 13 22 14 5 15 21 16 2 17 1 18 13 19 15 22 16 23 17 24
REMARK H PARENT 13 20 13 21 16 25 16 26
ROOT
ATOM      1  C   UNL     1      12.376 -23.264 -47.090  1.00  0.00     0.161 A 
ATOM      2  N   UNL     1      11.850 -23.530 -45.879  1.00  0.00    -0.233 NA
ATOM      3  C   UNL     1      12.649 -23.555 -44.778  1.00  0.00     0.052 A 
ATOM      4  C   UNL     1      11.970 -23.846 -43.474  1.00  0.00     0.067 C 
ATOM      5  C   UNL     1      14.026 -23.314 -44.935  1.00  0.00     0.056 A 
ATOM      6  C   UNL     1      15.156 -23.266 -44.042  1.00  0.00     0.067 A 
ATOM      7  C   UNL     1      16.347 -22.961 -44.682  1.00  0.00     0.117 A 
ATOM      8  S   UNL     1      16.100 -22.739 -46.361  1.00  0.00    -0.108 S 
ATOM      9  C   UNL     1      14.434 -23.047 -46.232  1.00  0.00     0.130 A 
ATOM     10  N   UNL     1      13.667 -23.010 -47.332  1.00  0.00    -0.217 NA
ENDROOT
BRANCH   1  11
ATOM     11  C   UNL     1      11.451 -23.250 -48.246  1.00  0.00     0.019 A 
ATOM     12  C   UNL     1       9.676 -23.219 -50.473  1.00  0.00     0.118 A 
ATOM     13  C   UNL     1       9.268 -23.737 -49.244  1.00  0.00     0.047 A 
ATOM     14  C   UNL     1      10.967 -22.715 -50.595  1.00  0.00     0.047 A 
ATOM     15  C   UNL     1      10.141 -23.753 -48.149  1.00  0.00     0.016 A 
ATOM     16  C   UNL     1      11.839 -22.732 -49.496  1.00  0.00     0.016 A 
BRANCH  12  17
ATOM     17  O   UNL     1       8.729 -23.264 -51.457  1.00  0.00    -0.497 OA
ATOM     18  C   UNL     1       7.495 -22.611 -51.191  1.00  0.00     0.278 C 
ENDBRANCH  12  17
ENDBRANCH   1  11
BRANCH   6  19
ATOM     19  N   UNL     1      15.087 -23.485 -42.706  1.00  0.00    -0.397 N 
ATOM     20  H   UNL     1      15.531 -24.275 -42.251  1.00  0.00     0.156 HD
ATOM     21  H   UNL     1      14.982 -22.684 -42.075  1.00  0.00     0.156 HD
ENDBRANCH   6  19
BRANCH   7  22
ATOM     22  C   UNL     1      17.672 -22.843 -44.089  1.00  0.00     0.260 C 
ATOM     23  N   UNL     1      18.744 -22.878 -44.939  1.00  0.00    -0.365 N 
ATOM     24  O   UNL     1      17.879 -22.720 -42.882  1.00  0.00    -0.269 OA
ATOM     25  H   UNL     1      19.667 -22.784 -44.542  1.00  0.00     0.159 HD
ATOM     26  H   UNL     1      18.634 -22.962 -45.939  1.00  0.00     0.159 HD
ENDBRANCH   7  22
TORSDOF 4
ENDMDL
MODEL 9
REMARK VINA RESULT:    -6.526      2.915      4.326
REMARK INTER + INTRA:          -8.445
REMARK INTER:                  -7.868
REMARK INTRA:                  -0.577
REMARK UNBOUND:                -0.584
REMARK SMILES COc1ccc(-c2nc(C)c3c(N)c(C(N)=O)sc3n2)cc1
REMARK SMILES IDX 7 1 8 2 9 3 10 4 11 5 12 6 14 7 18 8 19 9 20 10 6 11 3 12
REMARK SMILES IDX 4 13 22 14 5 15 21 16 2 17 1 18 13 19 15 22 16 23 17 24
REMARK H PARENT 13 20 13 21 16 25 16 26
ROOT
ATOM      1  C   UNL     1      13.182 -22.752 -46.925  1.00  0.00     0.161 A 
ATOM      2  N   UNL     1      13.269 -21.892 -47.958  1.00  0.00    -0.233 NA
ATOM      3  C   UNL     1      12.294 -21.864 -48.907  1.00  0.00     0.052 A 
ATOM      4  C   UNL     1      12.472 -20.864 -50.008  1.00  0.00     0.067 C 
ATOM      5  C   UNL     1      11.212 -22.756 -48.793  1.00  0.00     0.056 A 
ATOM      6  C   UNL     1      10.032 -23.024 -49.574  1.00  0.00     0.067 A 
ATOM      7  C   UNL     1       9.227 -24.012 -49.029  1.00  0.00     0.117 A 
ATOM      8  S   UNL     1       9.901 -24.619 -47.577  1.00  0.00    -0.108 S 
ATOM      9  C   UNL     1      11.242 -23.581 -47.679  1.00  0.00     0.130 A 
ATOM     10  N   UNL     1      12.186 -23.624 -46.728  1.00  0.00    -0.217 NA
ENDROOT
BRANCH   1  11
ATOM     11  C   UNL     1      14.276 -22.729 -45.927  1.00  0.00     0.019 A 
ATOM     12  C   UNL     1      16.373 -22.686 -44.001  1.00  0.00     0.118 A 
ATOM     13  C   UNL     1      16.613 -22.317 -45.324  1.00  0.00     0.047 A 
ATOM     14  C   UNL     1      15.089 -23.078 -43.634  1.00  0.00     0.047 A 
ATOM     15  C   UNL     1      15.581 -22.338 -46.271  1.00  0.00     0.016 A 
ATOM     16  C   UNL     1      14.058 -23.098 -44.585  1.00  0.00     0.016 A 
BRANCH  12  17
ATOM     17  O   UNL     1      17.464 -22.622 -43.180  1.00  0.00    -0.497 OA
ATOM     18  C   UNL     1      18.538 -23.506 -43.470  1.00  0.00     0.278 C 
ENDBRANCH  12  17
ENDBRANCH   1  11
BRANCH   6  19
ATOM     19  N   UNL     1       9.713 -22.384 -50.726  1.00  0.00    -0.397 N 
ATOM     20  H   UNL     1       9.558 -22.867 -51.603  1.00  0.00     0.156 HD
ATOM     21  H   UNL     1       9.200 -21.497 -50.677  1.00  0.00     0.156 HD
ENDBRANCH   6  19
BRANCH   7  22
ATOM     22  C   UNL     1       7.976 -24.535 -49.560  1.00  0.00     0.260 C 
ATOM     23  N   UNL     1       7.753 -25.879 -49.429  1.00  0.00    -0.365 N 
ATOM     24  O   UNL     1       7.121 -23.847 -50.117  1.00  0.00    -0.269 OA
ATOM     25  H   UNL     1       6.884 -26.253 -49.781  1.00  0.00     0.159 HD
ATOM     26  H   UNL     1       8.412 -26.490 -48.968  1.00  0.00     0.159 HD
ENDBRANCH   7  22
TORSDOF 4
ENDMDL
