MODEL 1
REMARK VINA RESULT:    -7.633      0.000      0.000
REMARK INTER + INTRA:         -11.229
REMARK INTER:                 -10.310
REMARK INTRA:                  -0.919
REMARK UNBOUND:                -0.919
REMARK SMILES O=C1[N-]C2(CCCCC2)C(=O)N1CCC/N=C/c1cccc(O)c1O
REMARK SMILES IDX 16 1 17 2 15 3 14 4 13 5 12 6 1 7 2 8 3 9 4 10 10 11 5 12
REMARK SMILES IDX 9 13 11 14 6 15 8 16 7 17 18 18 19 19 24 20 20 21 22 22
REMARK SMILES IDX 21 23 25 24 23 26
REMARK H PARENT 25 25 23 27
ROOT
ATOM      1  N   UNL     1      15.768 -22.041 -46.076  1.00  0.00    -0.292 NA
ATOM      2  C   UNL     1      14.711 -22.742 -45.808  1.00  0.00     0.117 C 
ENDROOT
BRANCH   1   3
ATOM      3  C   UNL     1      16.691 -21.954 -44.930  1.00  0.00     0.142 C 
BRANCH   3   4
ATOM      4  C   UNL     1      17.833 -22.956 -45.091  1.00  0.00     0.023 C 
BRANCH   4   5
ATOM      5  C   UNL     1      18.269 -23.633 -43.786  1.00  0.00     0.014 C 
BRANCH   5   6
ATOM      6  N   UNL     1      17.180 -24.271 -43.074  1.00  0.00    -0.381 N 
ATOM      7  O   UNL     1      17.191 -26.271 -44.175  1.00  0.00    -0.298 OA
ATOM      8  C   UNL     1      16.735 -25.533 -43.307  1.00  0.00     0.162 C 
ATOM      9  N   UNL     1      15.749 -25.853 -42.474  1.00  0.00    -0.416 NA
ATOM     10  C   UNL     1      15.505 -24.727 -41.541  1.00  0.00     0.036 C 
ATOM     11  C   UNL     1      16.575 -23.739 -41.978  1.00  0.00     0.155 C 
ATOM     12  C   UNL     1      15.743 -25.179 -40.088  1.00  0.00     0.014 C 
ATOM     13  C   UNL     1      14.108 -24.117 -41.774  1.00  0.00     0.014 C 
ATOM     14  O   UNL     1      16.827 -22.667 -41.441  1.00  0.00    -0.298 OA
ATOM     15  C   UNL     1      14.915 -24.362 -39.099  1.00  0.00     0.001 C 
ATOM     16  C   UNL     1      13.068 -24.722 -40.836  1.00  0.00     0.001 C 
ATOM     17  C   UNL     1      13.415 -24.486 -39.365  1.00  0.00     0.000 C 
ENDBRANCH   5   6
ENDBRANCH   4   5
ENDBRANCH   3   4
ENDBRANCH   1   3
BRANCH   2  18
ATOM     18  C   UNL     1      13.680 -22.983 -46.832  1.00  0.00     0.038 A 
ATOM     19  C   UNL     1      13.484 -24.291 -47.288  1.00  0.00     0.014 A 
ATOM     20  C   UNL     1      12.905 -21.944 -47.351  1.00  0.00     0.166 A 
ATOM     21  C   UNL     1      12.503 -24.555 -48.251  1.00  0.00     0.005 A 
ATOM     22  C   UNL     1      11.929 -22.221 -48.305  1.00  0.00     0.158 A 
ATOM     23  C   UNL     1      11.717 -23.517 -48.758  1.00  0.00     0.050 A 
BRANCH  20  24
ATOM     24  O   UNL     1      13.053 -20.633 -46.967  1.00  0.00    -0.504 OA
ATOM     25  H   UNL     1      12.871 -20.102 -47.782  1.00  0.00     0.293 HD
ENDBRANCH  20  24
BRANCH  22  26
ATOM     26  O   UNL     1      11.167 -21.203 -48.807  1.00  0.00    -0.504 OA
ATOM     27  H   UNL     1      11.128 -21.397 -49.767  1.00  0.00     0.293 HD
ENDBRANCH  22  26
ENDBRANCH   2  18
TORSDOF 7
ENDMDL
MODEL 2
REMARK VINA RESULT:    -7.400      3.293      5.454
REMARK INTER + INTRA:         -10.915
REMARK INTER:                  -9.443
REMARK INTRA:                  -1.472
REMARK UNBOUND:                -0.919
REMARK SMILES O=C1[N-]C2(CCCCC2)C(=O)N1CCC/N=C/c1cccc(O)c1O
REMARK SMILES IDX 16 1 17 2 15 3 14 4 13 5 12 6 1 7 2 8 3 9 4 10 10 11 5 12
REMARK SMILES IDX 9 13 11 14 6 15 8 16 7 17 18 18 19 19 24 20 20 21 22 22
REMARK SMILES IDX 21 23 25 24 23 26
REMARK H PARENT 25 25 23 27
ROOT
ATOM      1  N   UNL     1      11.556 -24.378 -48.770  1.00  0.00    -0.292 NA
ATOM      2  C   UNL     1      11.194 -23.192 -48.391  1.00  0.00     0.117 C 
ENDROOT
BRANCH   1   3
ATOM      3  C   UNL     1      10.640 -25.427 -48.289  1.00  0.00     0.142 C 
BRANCH   3   4
ATOM      4  C   UNL     1      10.291 -25.193 -46.821  1.00  0.00     0.023 C 
BRANCH   4   5
ATOM      5  C   UNL     1      11.299 -25.786 -45.829  1.00  0.00     0.014 C 
BRANCH   5   6
ATOM      6  N   UNL     1      12.437 -24.925 -45.577  1.00  0.00    -0.381 N 
ATOM      7  O   UNL     1      11.413 -23.422 -44.196  1.00  0.00    -0.298 OA
ATOM      8  C   UNL     1      12.416 -23.826 -44.777  1.00  0.00     0.162 C 
ATOM      9  N   UNL     1      13.617 -23.260 -44.712  1.00  0.00    -0.416 NA
ATOM     10  C   UNL     1      14.583 -24.055 -45.507  1.00  0.00     0.036 C 
ATOM     11  C   UNL     1      13.704 -25.201 -45.986  1.00  0.00     0.155 C 
ATOM     12  C   UNL     1      15.714 -24.578 -44.601  1.00  0.00     0.014 C 
ATOM     13  C   UNL     1      15.089 -23.248 -46.719  1.00  0.00     0.014 C 
ATOM     14  O   UNL     1      14.080 -26.177 -46.624  1.00  0.00    -0.298 OA
ATOM     15  C   UNL     1      17.006 -24.799 -45.382  1.00  0.00     0.001 C 
ATOM     16  C   UNL     1      16.400 -22.532 -46.408  1.00  0.00     0.001 C 
ATOM     17  C   UNL     1      17.513 -23.510 -46.030  1.00  0.00     0.000 C 
ENDBRANCH   5   6
ENDBRANCH   4   5
ENDBRANCH   3   4
ENDBRANCH   1   3
BRANCH   2  18
ATOM     18  C   UNL     1      11.956 -21.998 -48.800  1.00  0.00     0.038 A 
ATOM     19  C   UNL     1      12.504 -21.182 -47.805  1.00  0.00     0.014 A 
ATOM     20  C   UNL     1      12.137 -21.670 -50.145  1.00  0.00     0.166 A 
ATOM     21  C   UNL     1      13.243 -20.049 -48.161  1.00  0.00     0.005 A 
ATOM     22  C   UNL     1      12.879 -20.542 -50.486  1.00  0.00     0.158 A 
ATOM     23  C   UNL     1      13.438 -19.729 -49.507  1.00  0.00     0.050 A 
BRANCH  20  24
ATOM     24  O   UNL     1      11.613 -22.411 -51.176  1.00  0.00    -0.504 OA
ATOM     25  H   UNL     1      11.626 -21.810 -51.961  1.00  0.00     0.293 HD
ENDBRANCH  20  24
BRANCH  22  26
ATOM     26  O   UNL     1      13.062 -20.226 -51.804  1.00  0.00    -0.504 OA
ATOM     27  H   UNL     1      12.180 -19.907 -52.087  1.00  0.00     0.293 HD
ENDBRANCH  22  26
ENDBRANCH   2  18
TORSDOF 7
ENDMDL
MODEL 3
REMARK VINA RESULT:    -7.331      1.923      7.692
REMARK INTER + INTRA:         -10.821
REMARK INTER:                  -9.920
REMARK INTRA:                  -0.901
REMARK UNBOUND:                -0.919
REMARK SMILES O=C1[N-]C2(CCCCC2)C(=O)N1CCC/N=C/c1cccc(O)c1O
REMARK SMILES IDX 16 1 17 2 15 3 14 4 13 5 12 6 1 7 2 8 3 9 4 10 10 11 5 12
REMARK SMILES IDX 9 13 11 14 6 15 8 16 7 17 18 18 19 19 24 20 20 21 22 22
REMARK SMILES IDX 21 23 25 24 23 26
REMARK H PARENT 25 25 23 27
ROOT
ATOM      1  N   UNL     1      15.875 -24.028 -44.058  1.00  0.00    -0.292 NA
ATOM      2  C   UNL     1      14.880 -24.594 -43.448  1.00  0.00     0.117 C 
ENDROOT
BRANCH   1   3
ATOM      3  C   UNL     1      15.828 -24.229 -45.518  1.00  0.00     0.142 C 
BRANCH   3   4
ATOM      4  C   UNL     1      15.994 -22.895 -46.242  1.00  0.00     0.023 C 
BRANCH   4   5
ATOM      5  C   UNL     1      14.763 -21.983 -46.176  1.00  0.00     0.014 C 
BRANCH   5   6
ATOM      6  N   UNL     1      13.586 -22.554 -46.799  1.00  0.00    -0.381 N 
ATOM      7  O   UNL     1      12.312 -22.812 -44.922  1.00  0.00    -0.298 OA
ATOM      8  C   UNL     1      12.453 -22.910 -46.137  1.00  0.00     0.162 C 
ATOM      9  N   UNL     1      11.533 -23.372 -46.978  1.00  0.00    -0.416 NA
ATOM     10  C   UNL     1      12.051 -23.298 -48.366  1.00  0.00     0.036 C 
ATOM     11  C   UNL     1      13.413 -22.659 -48.144  1.00  0.00     0.155 C 
ATOM     12  C   UNL     1      11.152 -22.382 -49.219  1.00  0.00     0.014 C 
ATOM     13  C   UNL     1      12.229 -24.709 -48.959  1.00  0.00     0.014 C 
ATOM     14  O   UNL     1      14.198 -22.316 -49.020  1.00  0.00    -0.298 OA
ATOM     15  C   UNL     1      11.198 -22.763 -50.696  1.00  0.00     0.001 C 
ATOM     16  C   UNL     1      11.005 -25.140 -49.761  1.00  0.00     0.001 C 
ATOM     17  C   UNL     1      10.726 -24.198 -50.934  1.00  0.00     0.000 C 
ENDBRANCH   5   6
ENDBRANCH   4   5
ENDBRANCH   3   4
ENDBRANCH   1   3
BRANCH   2  18
ATOM     18  C   UNL     1      14.720 -24.479 -41.988  1.00  0.00     0.038 A 
ATOM     19  C   UNL     1      13.426 -24.439 -41.459  1.00  0.00     0.014 A 
ATOM     20  C   UNL     1      15.821 -24.408 -41.133  1.00  0.00     0.166 A 
ATOM     21  C   UNL     1      13.240 -24.344 -40.075  1.00  0.00     0.005 A 
ATOM     22  C   UNL     1      15.624 -24.319 -39.758  1.00  0.00     0.158 A 
ATOM     23  C   UNL     1      14.343 -24.289 -39.219  1.00  0.00     0.050 A 
BRANCH  20  24
ATOM     24  O   UNL     1      17.121 -24.422 -41.580  1.00  0.00    -0.504 OA
ATOM     25  H   UNL     1      17.577 -25.106 -41.031  1.00  0.00     0.293 HD
ENDBRANCH  20  24
BRANCH  22  26
ATOM     26  O   UNL     1      16.704 -24.257 -38.922  1.00  0.00    -0.504 OA
ATOM     27  H   UNL     1      16.655 -25.098 -38.422  1.00  0.00     0.293 HD
ENDBRANCH  22  26
ENDBRANCH   2  18
TORSDOF 7
ENDMDL
MODEL 4
REMARK VINA RESULT:    -7.231      2.250      7.472
REMARK INTER + INTRA:         -10.686
REMARK INTER:                  -9.438
REMARK INTRA:                  -1.248
REMARK UNBOUND:                -0.919
REMARK SMILES O=C1[N-]C2(CCCCC2)C(=O)N1CCC/N=C/c1cccc(O)c1O
REMARK SMILES IDX 16 1 17 2 15 3 14 4 13 5 12 6 1 7 2 8 3 9 4 10 10 11 5 12
REMARK SMILES IDX 9 13 11 14 6 15 8 16 7 17 18 18 19 19 24 20 20 21 22 22
REMARK SMILES IDX 21 23 25 24 23 26
REMARK H PARENT 25 25 23 27
ROOT
ATOM      1  N   UNL     1      12.990 -25.589 -43.239  1.00  0.00    -0.292 NA
ATOM      2  C   UNL     1      13.054 -24.522 -42.505  1.00  0.00     0.117 C 
ENDROOT
BRANCH   1   3
ATOM      3  C   UNL     1      12.299 -25.351 -44.519  1.00  0.00     0.142 C 
BRANCH   3   4
ATOM      4  C   UNL     1      12.865 -26.263 -45.604  1.00  0.00     0.023 C 
BRANCH   4   5
ATOM      5  C   UNL     1      14.228 -25.822 -46.152  1.00  0.00     0.014 C 
BRANCH   5   6
ATOM      6  N   UNL     1      14.315 -24.399 -46.411  1.00  0.00    -0.381 N 
ATOM      7  O   UNL     1      15.807 -23.855 -44.771  1.00  0.00    -0.298 OA
ATOM      8  C   UNL     1      15.099 -23.531 -45.719  1.00  0.00     0.162 C 
ATOM      9  N   UNL     1      14.994 -22.299 -46.208  1.00  0.00    -0.416 NA
ATOM     10  C   UNL     1      14.082 -22.307 -47.377  1.00  0.00     0.036 C 
ATOM     11  C   UNL     1      13.739 -23.785 -47.480  1.00  0.00     0.155 C 
ATOM     12  C   UNL     1      14.830 -21.833 -48.638  1.00  0.00     0.014 C 
ATOM     13  C   UNL     1      12.805 -21.497 -47.080  1.00  0.00     0.014 C 
ATOM     14  O   UNL     1      13.065 -24.308 -48.359  1.00  0.00    -0.298 OA
ATOM     15  C   UNL     1      13.883 -21.199 -49.652  1.00  0.00     0.001 C 
ATOM     16  C   UNL     1      12.927 -20.057 -47.569  1.00  0.00     0.001 C 
ATOM     17  C   UNL     1      13.159 -19.980 -49.079  1.00  0.00     0.000 C 
ENDBRANCH   5   6
ENDBRANCH   4   5
ENDBRANCH   3   4
ENDBRANCH   1   3
BRANCH   2  18
ATOM     18  C   UNL     1      13.740 -24.536 -41.201  1.00  0.00     0.038 A 
ATOM     19  C   UNL     1      12.996 -24.254 -40.051  1.00  0.00     0.014 A 
ATOM     20  C   UNL     1      15.102 -24.821 -41.093  1.00  0.00     0.166 A 
ATOM     21  C   UNL     1      13.615 -24.273 -38.796  1.00  0.00     0.005 A 
ATOM     22  C   UNL     1      15.706 -24.842 -39.839  1.00  0.00     0.158 A 
ATOM     23  C   UNL     1      14.976 -24.574 -38.688  1.00  0.00     0.050 A 
BRANCH  20  24
ATOM     24  O   UNL     1      15.902 -25.088 -42.178  1.00  0.00    -0.504 OA
ATOM     25  H   UNL     1      15.370 -25.695 -42.749  1.00  0.00     0.293 HD
ENDBRANCH  20  24
BRANCH  22  26
ATOM     26  O   UNL     1      17.039 -25.128 -39.734  1.00  0.00    -0.504 OA
ATOM     27  H   UNL     1      17.061 -26.106 -39.693  1.00  0.00     0.293 HD
ENDBRANCH  22  26
ENDBRANCH   2  18
TORSDOF 7
ENDMDL
MODEL 5
REMARK VINA RESULT:    -6.991      6.358     11.398
REMARK INTER + INTRA:         -10.362
REMARK INTER:                  -9.331
REMARK INTRA:                  -1.031
REMARK UNBOUND:                -0.919
REMARK SMILES O=C1[N-]C2(CCCCC2)C(=O)N1CCC/N=C/c1cccc(O)c1O
REMARK SMILES IDX 16 1 17 2 15 3 14 4 13 5 12 6 1 7 2 8 3 9 4 10 10 11 5 12
REMARK SMILES IDX 9 13 11 14 6 15 8 16 7 17 18 18 19 19 24 20 20 21 22 22
REMARK SMILES IDX 21 23 25 24 23 26
REMARK H PARENT 25 25 23 27
ROOT
ATOM      1  N   UNL     1       9.875 -23.462 -48.286  1.00  0.00    -0.292 NA
ATOM      2  C   UNL     1      11.110 -23.827 -48.439  1.00  0.00     0.117 C 
ENDROOT
BRANCH   1   3
ATOM      3  C   UNL     1       8.997 -24.589 -47.923  1.00  0.00     0.142 C 
BRANCH   3   4
ATOM      4  C   UNL     1       7.632 -24.433 -48.589  1.00  0.00     0.023 C 
BRANCH   4   5
ATOM      5  C   UNL     1       7.633 -24.692 -50.101  1.00  0.00     0.014 C 
BRANCH   5   6
ATOM      6  N   UNL     1       6.747 -23.813 -50.838  1.00  0.00    -0.381 N 
ATOM      7  O   UNL     1       8.232 -22.134 -51.272  1.00  0.00    -0.298 OA
ATOM      8  C   UNL     1       7.110 -22.620 -51.376  1.00  0.00     0.162 C 
ATOM      9  N   UNL     1       6.092 -22.059 -52.023  1.00  0.00    -0.416 NA
ATOM     10  C   UNL     1       4.916 -22.960 -51.971  1.00  0.00     0.036 C 
ATOM     11  C   UNL     1       5.485 -24.151 -51.216  1.00  0.00     0.155 C 
ATOM     12  C   UNL     1       4.495 -23.368 -53.396  1.00  0.00     0.014 C 
ATOM     13  C   UNL     1       3.776 -22.323 -51.152  1.00  0.00     0.014 C 
ATOM     14  O   UNL     1       4.902 -25.206 -50.992  1.00  0.00    -0.298 OA
ATOM     15  C   UNL     1       3.007 -23.699 -53.472  1.00  0.00     0.001 C 
ATOM     16  C   UNL     1       2.787 -21.582 -52.048  1.00  0.00     0.001 C 
ATOM     17  C   UNL     1       2.133 -22.511 -53.072  1.00  0.00     0.000 C 
ENDBRANCH   5   6
ENDBRANCH   4   5
ENDBRANCH   3   4
ENDBRANCH   1   3
BRANCH   2  18
ATOM     18  C   UNL     1      12.157 -22.843 -48.766  1.00  0.00     0.038 A 
ATOM     19  C   UNL     1      13.412 -22.977 -48.162  1.00  0.00     0.014 A 
ATOM     20  C   UNL     1      11.924 -21.793 -49.656  1.00  0.00     0.166 A 
ATOM     21  C   UNL     1      14.432 -22.067 -48.462  1.00  0.00     0.005 A 
ATOM     22  C   UNL     1      12.948 -20.897 -49.950  1.00  0.00     0.158 A 
ATOM     23  C   UNL     1      14.202 -21.025 -49.365  1.00  0.00     0.050 A 
BRANCH  20  24
ATOM     24  O   UNL     1      10.714 -21.586 -50.272  1.00  0.00    -0.504 OA
ATOM     25  H   UNL     1      10.760 -20.666 -50.633  1.00  0.00     0.293 HD
ENDBRANCH  20  24
BRANCH  22  26
ATOM     26  O   UNL     1      12.720 -19.873 -50.828  1.00  0.00    -0.504 OA
ATOM     27  H   UNL     1      13.594 -19.730 -51.245  1.00  0.00     0.293 HD
ENDBRANCH  22  26
ENDBRANCH   2  18
TORSDOF 7
ENDMDL
MODEL 6
REMARK VINA RESULT:    -6.985      1.757      7.219
REMARK INTER + INTRA:         -10.354
REMARK INTER:                  -9.415
REMARK INTRA:                  -0.939
REMARK UNBOUND:                -0.919
REMARK SMILES O=C1[N-]C2(CCCCC2)C(=O)N1CCC/N=C/c1cccc(O)c1O
REMARK SMILES IDX 16 1 17 2 15 3 14 4 13 5 12 6 1 7 2 8 3 9 4 10 10 11 5 12
REMARK SMILES IDX 9 13 11 14 6 15 8 16 7 17 18 18 19 19 24 20 20 21 22 22
REMARK SMILES IDX 21 23 25 24 23 26
REMARK H PARENT 25 25 23 27
ROOT
ATOM      1  N   UNL     1      16.736 -23.494 -42.602  1.00  0.00    -0.292 NA
ATOM      2  C   UNL     1      16.196 -24.654 -42.393  1.00  0.00     0.117 C 
ENDROOT
BRANCH   1   3
ATOM      3  C   UNL     1      17.694 -23.513 -43.723  1.00  0.00     0.142 C 
BRANCH   3   4
ATOM      4  C   UNL     1      16.949 -23.546 -45.056  1.00  0.00     0.023 C 
BRANCH   4   5
ATOM      5  C   UNL     1      16.180 -22.260 -45.381  1.00  0.00     0.014 C 
BRANCH   5   6
ATOM      6  N   UNL     1      14.869 -22.500 -45.953  1.00  0.00    -0.381 N 
ATOM      7  O   UNL     1      13.751 -22.987 -44.023  1.00  0.00    -0.298 OA
ATOM      8  C   UNL     1      13.760 -22.828 -45.240  1.00  0.00     0.162 C 
ATOM      9  N   UNL     1      12.701 -22.950 -46.034  1.00  0.00    -0.416 NA
ATOM     10  C   UNL     1      13.091 -22.639 -47.430  1.00  0.00     0.036 C 
ATOM     11  C   UNL     1      14.556 -22.271 -47.257  1.00  0.00     0.155 C 
ATOM     12  C   UNL     1      12.285 -21.434 -47.952  1.00  0.00     0.014 C 
ATOM     13  C   UNL     1      12.972 -23.890 -48.323  1.00  0.00     0.014 C 
ATOM     14  O   UNL     1      15.303 -21.856 -48.135  1.00  0.00    -0.298 OA
ATOM     15  C   UNL     1      12.127 -21.474 -49.469  1.00  0.00     0.001 C 
ATOM     16  C   UNL     1      11.623 -23.947 -49.033  1.00  0.00     0.001 C 
ATOM     17  C   UNL     1      11.399 -22.734 -49.938  1.00  0.00     0.000 C 
ENDBRANCH   5   6
ENDBRANCH   4   5
ENDBRANCH   3   4
ENDBRANCH   1   3
BRANCH   2  18
ATOM     18  C   UNL     1      15.181 -24.841 -41.342  1.00  0.00     0.038 A 
ATOM     19  C   UNL     1      14.037 -25.587 -41.642  1.00  0.00     0.014 A 
ATOM     20  C   UNL     1      15.337 -24.293 -40.067  1.00  0.00     0.166 A 
ATOM     21  C   UNL     1      13.060 -25.794 -40.661  1.00  0.00     0.005 A 
ATOM     22  C   UNL     1      14.361 -24.510 -39.098  1.00  0.00     0.158 A 
ATOM     23  C   UNL     1      13.224 -25.258 -39.381  1.00  0.00     0.050 A 
BRANCH  20  24
ATOM     24  O   UNL     1      16.423 -23.534 -39.704  1.00  0.00    -0.504 OA
ATOM     25  H   UNL     1      16.918 -23.370 -40.544  1.00  0.00     0.293 HD
ENDBRANCH  20  24
BRANCH  22  26
ATOM     26  O   UNL     1      14.519 -23.979 -37.848  1.00  0.00    -0.504 OA
ATOM     27  H   UNL     1      13.753 -23.374 -37.758  1.00  0.00     0.293 HD
ENDBRANCH  22  26
ENDBRANCH   2  18
TORSDOF 7
ENDMDL
MODEL 7
REMARK VINA RESULT:    -6.966      1.913      2.267
REMARK INTER + INTRA:         -10.328
REMARK INTER:                  -9.036
REMARK INTRA:                  -1.293
REMARK UNBOUND:                -0.919
REMARK SMILES O=C1[N-]C2(CCCCC2)C(=O)N1CCC/N=C/c1cccc(O)c1O
REMARK SMILES IDX 16 1 17 2 15 3 14 4 13 5 12 6 1 7 2 8 3 9 4 10 10 11 5 12
REMARK SMILES IDX 9 13 11 14 6 15 8 16 7 17 18 18 19 19 24 20 20 21 22 22
REMARK SMILES IDX 21 23 25 24 23 26
REMARK H PARENT 25 25 23 27
ROOT
ATOM      1  N   UNL     1      14.260 -22.792 -46.491  1.00  0.00    -0.292 NA
ATOM      2  C   UNL     1      13.723 -23.225 -47.588  1.00  0.00     0.117 C 
ENDROOT
BRANCH   1   3
ATOM      3  C   UNL     1      15.660 -22.371 -46.677  1.00  0.00     0.142 C 
BRANCH   3   4
ATOM      4  C   UNL     1      16.304 -22.060 -45.328  1.00  0.00     0.023 C 
BRANCH   4   5
ATOM      5  C   UNL     1      17.062 -23.238 -44.702  1.00  0.00     0.014 C 
BRANCH   5   6
ATOM      6  N   UNL     1      16.290 -23.961 -43.711  1.00  0.00    -0.381 N 
ATOM      7  O   UNL     1      15.566 -25.671 -45.038  1.00  0.00    -0.298 OA
ATOM      8  C   UNL     1      15.618 -25.118 -43.944  1.00  0.00     0.162 C 
ATOM      9  N   UNL     1      15.033 -25.562 -42.835  1.00  0.00    -0.416 NA
ATOM     10  C   UNL     1      15.356 -24.655 -41.708  1.00  0.00     0.036 C 
ATOM     11  C   UNL     1      16.274 -23.650 -42.387  1.00  0.00     0.155 C 
ATOM     12  C   UNL     1      16.111 -25.424 -40.607  1.00  0.00     0.014 C 
ATOM     13  C   UNL     1      14.089 -23.940 -41.200  1.00  0.00     0.014 C 
ATOM     14  O   UNL     1      16.872 -22.734 -41.834  1.00  0.00    -0.298 OA
ATOM     15  C   UNL     1      15.891 -24.801 -39.231  1.00  0.00     0.001 C 
ATOM     16  C   UNL     1      13.459 -24.682 -40.025  1.00  0.00     0.001 C 
ATOM     17  C   UNL     1      14.414 -24.789 -38.835  1.00  0.00     0.000 C 
ENDBRANCH   5   6
ENDBRANCH   4   5
ENDBRANCH   3   4
ENDBRANCH   1   3
BRANCH   2  18
ATOM     18  C   UNL     1      12.315 -23.658 -47.626  1.00  0.00     0.038 A 
ATOM     19  C   UNL     1      11.462 -23.077 -48.570  1.00  0.00     0.014 A 
ATOM     20  C   UNL     1      11.822 -24.625 -46.747  1.00  0.00     0.166 A 
ATOM     21  C   UNL     1      10.122 -23.477 -48.640  1.00  0.00     0.005 A 
ATOM     22  C   UNL     1      10.489 -25.018 -46.830  1.00  0.00     0.158 A 
ATOM     23  C   UNL     1       9.634 -24.456 -47.770  1.00  0.00     0.050 A 
BRANCH  20  24
ATOM     24  O   UNL     1      12.594 -25.225 -45.782  1.00  0.00    -0.504 OA
ATOM     25  H   UNL     1      12.030 -25.237 -44.969  1.00  0.00     0.293 HD
ENDBRANCH  20  24
BRANCH  22  26
ATOM     26  O   UNL     1      10.010 -25.970 -45.974  1.00  0.00    -0.504 OA
ATOM     27  H   UNL     1       9.450 -25.459 -45.353  1.00  0.00     0.293 HD
ENDBRANCH  22  26
ENDBRANCH   2  18
TORSDOF 7
ENDMDL
MODEL 8
REMARK VINA RESULT:    -6.930      3.614      5.653
REMARK INTER + INTRA:         -10.280
REMARK INTER:                  -9.675
REMARK INTRA:                  -0.605
REMARK UNBOUND:                -0.919
REMARK SMILES O=C1[N-]C2(CCCCC2)C(=O)N1CCC/N=C/c1cccc(O)c1O
REMARK SMILES IDX 16 1 17 2 15 3 14 4 13 5 12 6 1 7 2 8 3 9 4 10 10 11 5 12
REMARK SMILES IDX 9 13 11 14 6 15 8 16 7 17 18 18 19 19 24 20 20 21 22 22
REMARK SMILES IDX 21 23 25 24 23 26
REMARK H PARENT 25 25 23 27
ROOT
ATOM      1  N   UNL     1       9.983 -23.616 -48.235  1.00  0.00    -0.292 NA
ATOM      2  C   UNL     1       9.291 -24.479 -48.911  1.00  0.00     0.117 C 
ENDROOT
BRANCH   1   3
ATOM      3  C   UNL     1      11.274 -24.163 -47.779  1.00  0.00     0.142 C 
BRANCH   3   4
ATOM      4  C   UNL     1      12.388 -23.143 -47.999  1.00  0.00     0.023 C 
BRANCH   4   5
ATOM      5  C   UNL     1      12.581 -22.158 -46.839  1.00  0.00     0.014 C 
BRANCH   5   6
ATOM      6  N   UNL     1      13.326 -22.712 -45.727  1.00  0.00    -0.381 N 
ATOM      7  O   UNL     1      11.561 -23.450 -44.480  1.00  0.00    -0.298 OA
ATOM      8  C   UNL     1      12.770 -23.324 -44.648  1.00  0.00     0.162 C 
ATOM      9  N   UNL     1      13.707 -23.760 -43.811  1.00  0.00    -0.416 NA
ATOM     10  C   UNL     1      15.047 -23.465 -44.372  1.00  0.00     0.036 C 
ATOM     11  C   UNL     1      14.681 -22.828 -45.703  1.00  0.00     0.155 C 
ATOM     12  C   UNL     1      15.831 -24.774 -44.592  1.00  0.00     0.014 C 
ATOM     13  C   UNL     1      15.794 -22.442 -43.494  1.00  0.00     0.014 C 
ATOM     14  O   UNL     1      15.469 -22.482 -46.576  1.00  0.00    -0.298 OA
ATOM     15  C   UNL     1      17.339 -24.548 -44.516  1.00  0.00     0.001 C 
ATOM     16  C   UNL     1      16.704 -23.130 -42.480  1.00  0.00     0.001 C 
ATOM     17  C   UNL     1      17.769 -23.994 -43.158  1.00  0.00     0.000 C 
ENDBRANCH   5   6
ENDBRANCH   4   5
ENDBRANCH   3   4
ENDBRANCH   1   3
BRANCH   2  18
ATOM     18  C   UNL     1       7.984 -24.119 -49.490  1.00  0.00     0.038 A 
ATOM     19  C   UNL     1       6.837 -24.743 -48.991  1.00  0.00     0.014 A 
ATOM     20  C   UNL     1       7.872 -23.179 -50.516  1.00  0.00     0.166 A 
ATOM     21  C   UNL     1       5.580 -24.413 -49.510  1.00  0.00     0.005 A 
ATOM     22  C   UNL     1       6.615 -22.855 -51.021  1.00  0.00     0.158 A 
ATOM     23  C   UNL     1       5.467 -23.460 -50.526  1.00  0.00     0.050 A 
BRANCH  20  24
ATOM     24  O   UNL     1       8.954 -22.539 -51.070  1.00  0.00    -0.504 OA
ATOM     25  H   UNL     1       9.680 -23.210 -51.070  1.00  0.00     0.293 HD
ENDBRANCH  20  24
BRANCH  22  26
ATOM     26  O   UNL     1       6.507 -21.928 -52.021  1.00  0.00    -0.504 OA
ATOM     27  H   UNL     1       6.572 -22.465 -52.838  1.00  0.00     0.293 HD
ENDBRANCH  22  26
ENDBRANCH   2  18
TORSDOF 7
ENDMDL
MODEL 9
REMARK VINA RESULT:    -6.903      2.234      7.951
REMARK INTER + INTRA:         -10.244
REMARK INTER:                  -9.565
REMARK INTRA:                  -0.678
REMARK UNBOUND:                -0.919
REMARK SMILES O=C1[N-]C2(CCCCC2)C(=O)N1CCC/N=C/c1cccc(O)c1O
REMARK SMILES IDX 16 1 17 2 15 3 14 4 13 5 12 6 1 7 2 8 3 9 4 10 10 11 5 12
REMARK SMILES IDX 9 13 11 14 6 15 8 16 7 17 18 18 19 19 24 20 20 21 22 22
REMARK SMILES IDX 21 23 25 24 23 26
REMARK H PARENT 25 25 23 27
ROOT
ATOM      1  N   UNL     1      15.876 -22.626 -44.396  1.00  0.00    -0.292 NA
ATOM      2  C   UNL     1      15.103 -23.603 -44.038  1.00  0.00     0.117 C 
ENDROOT
BRANCH   1   3
ATOM      3  C   UNL     1      15.966 -22.487 -45.860  1.00  0.00     0.142 C 
BRANCH   3   4
ATOM      4  C   UNL     1      14.609 -22.096 -46.441  1.00  0.00     0.023 C 
BRANCH   4   5
ATOM      5  C   UNL     1      14.568 -22.044 -47.973  1.00  0.00     0.014 C 
BRANCH   5   6
ATOM      6  N   UNL     1      13.241 -22.242 -48.523  1.00  0.00    -0.381 N 
ATOM      7  O   UNL     1      12.875 -20.118 -49.275  1.00  0.00    -0.298 OA
ATOM      8  C   UNL     1      12.506 -21.280 -49.140  1.00  0.00     0.162 C 
ATOM      9  N   UNL     1      11.346 -21.769 -49.569  1.00  0.00    -0.416 NA
ATOM     10  C   UNL     1      11.276 -23.218 -49.263  1.00  0.00     0.036 C 
ATOM     11  C   UNL     1      12.637 -23.456 -48.627  1.00  0.00     0.155 C 
ATOM     12  C   UNL     1      11.134 -24.030 -50.565  1.00  0.00     0.014 C 
ATOM     13  C   UNL     1      10.164 -23.506 -48.235  1.00  0.00     0.014 C 
ATOM     14  O   UNL     1      13.086 -24.540 -48.274  1.00  0.00    -0.298 OA
ATOM     15  C   UNL     1      10.417 -25.356 -50.328  1.00  0.00     0.001 C 
ATOM     16  C   UNL     1       8.856 -23.896 -48.917  1.00  0.00     0.001 C 
ATOM     17  C   UNL     1       9.007 -25.155 -49.771  1.00  0.00     0.000 C 
ENDBRANCH   5   6
ENDBRANCH   4   5
ENDBRANCH   3   4
ENDBRANCH   1   3
BRANCH   2  18
ATOM     18  C   UNL     1      14.846 -23.887 -42.615  1.00  0.00     0.038 A 
ATOM     19  C   UNL     1      13.575 -24.335 -42.241  1.00  0.00     0.014 A 
ATOM     20  C   UNL     1      15.835 -23.718 -41.644  1.00  0.00     0.166 A 
ATOM     21  C   UNL     1      13.304 -24.626 -40.900  1.00  0.00     0.005 A 
ATOM     22  C   UNL     1      15.554 -24.015 -40.313  1.00  0.00     0.158 A 
ATOM     23  C   UNL     1      14.299 -24.472 -39.931  1.00  0.00     0.050 A 
BRANCH  20  24
ATOM     24  O   UNL     1      17.100 -23.263 -41.932  1.00  0.00    -0.504 OA
ATOM     25  H   UNL     1      17.712 -23.933 -41.538  1.00  0.00     0.293 HD
ENDBRANCH  20  24
BRANCH  22  26
ATOM     26  O   UNL     1      16.527 -23.856 -39.365  1.00  0.00    -0.504 OA
ATOM     27  H   UNL     1      17.349 -24.101 -39.837  1.00  0.00     0.293 HD
ENDBRANCH  22  26
ENDBRANCH   2  18
TORSDOF 7
ENDMDL
