MODEL 1
REMARK VINA RESULT:    -7.754      0.000      0.000
REMARK INTER + INTRA:         -11.460
REMARK INTER:                 -10.474
REMARK INTRA:                  -0.986
REMARK UNBOUND:                -0.986
REMARK SMILES CCOc1ccc(Cc2c([O-])nc(N)n(Cc3cccc4ccccc34)c2=O)cc1
REMARK SMILES IDX 4 1 5 2 6 3 7 4 29 5 30 6 3 7 2 8 1 9 8 10 9 11 10 12 27 13
REMARK SMILES IDX 12 14 15 15 28 16 13 17 14 18 11 19 16 22 17 23 18 24 26 25
REMARK SMILES IDX 19 26 25 27 21 28 20 29 24 30 22 31 23 32
REMARK H PARENT 14 20 14 21
ROOT
ATOM      1  C   UNL     1       6.809 -25.159 -49.510  1.00  0.00     0.119 A 
ATOM      2  C   UNL     1       7.353 -24.364 -50.517  1.00  0.00     0.047 A 
ATOM      3  C   UNL     1       8.739 -24.196 -50.610  1.00  0.00     0.008 A 
ATOM      4  C   UNL     1       9.601 -24.827 -49.705  1.00  0.00    -0.043 A 
ATOM      5  C   UNL     1       9.051 -25.623 -48.694  1.00  0.00     0.008 A 
ATOM      6  C   UNL     1       7.666 -25.789 -48.605  1.00  0.00     0.047 A 
ENDROOT
BRANCH   1   7
ATOM      7  O   UNL     1       5.479 -25.412 -49.305  1.00  0.00    -0.494 OA
BRANCH   7   8
ATOM      8  C   UNL     1       4.527 -24.487 -49.827  1.00  0.00     0.226 C 
ATOM      9  C   UNL     1       4.060 -23.527 -48.746  1.00  0.00     0.049 C 
ENDBRANCH   7   8
ENDBRANCH   1   7
BRANCH   4  10
ATOM     10  C   UNL     1      11.101 -24.627 -49.821  1.00  0.00     0.077 C 
BRANCH  10  11
ATOM     11  C   UNL     1      11.606 -23.412 -49.089  1.00  0.00     0.033 C 
ATOM     12  C   UNL     1      11.702 -22.179 -49.632  1.00  0.00     0.000 C 
ATOM     13  C   UNL     1      12.072 -23.624 -47.696  1.00  0.00     0.258 C 
ATOM     14  N   UNL     1      12.168 -21.121 -48.895  1.00  0.00    -0.231 NA
ATOM     15  N   UNL     1      12.469 -22.493 -47.009  1.00  0.00    -0.274 N 
ATOM     16  O   UNL     1      12.105 -24.755 -47.203  1.00  0.00    -0.269 OA
ATOM     17  C   UNL     1      12.504 -21.286 -47.658  1.00  0.00     0.202 C 
ATOM     18  N   UNL     1      12.899 -20.151 -47.005  1.00  0.00    -0.369 N 
ATOM     19  O   UNL     1      11.389 -21.803 -50.792  1.00  0.00    -0.858 OA
ATOM     20  H   UNL     1      12.798 -19.409 -47.696  1.00  0.00     0.159 HD
ATOM     21  H   UNL     1      12.289 -19.945 -46.227  1.00  0.00     0.159 HD
BRANCH  15  22
ATOM     22  C   UNL     1      12.944 -22.657 -45.642  1.00  0.00     0.165 C 
BRANCH  22  23
ATOM     23  C   UNL     1      14.440 -22.909 -45.463  1.00  0.00    -0.020 A 
ATOM     24  C   UNL     1      15.339 -22.699 -46.525  1.00  0.00     0.006 A 
ATOM     25  C   UNL     1      14.945 -23.358 -44.204  1.00  0.00    -0.013 A 
ATOM     26  C   UNL     1      16.703 -22.918 -46.366  1.00  0.00     0.001 A 
ATOM     27  C   UNL     1      14.131 -23.608 -43.072  1.00  0.00     0.009 A 
ATOM     28  C   UNL     1      16.341 -23.576 -44.059  1.00  0.00    -0.018 A 
ATOM     29  C   UNL     1      17.200 -23.352 -45.142  1.00  0.00     0.009 A 
ATOM     30  C   UNL     1      14.667 -24.046 -41.858  1.00  0.00     0.001 A 
ATOM     31  C   UNL     1      16.864 -24.015 -42.831  1.00  0.00     0.009 A 
ATOM     32  C   UNL     1      16.034 -24.249 -41.737  1.00  0.00     0.001 A 
ENDBRANCH  22  23
ENDBRANCH  15  22
ENDBRANCH  10  11
ENDBRANCH   4  10
TORSDOF 6
ENDMDL
MODEL 2
REMARK VINA RESULT:    -7.531      3.436      6.543
REMARK INTER + INTRA:         -11.158
REMARK INTER:                 -10.312
REMARK INTRA:                  -0.846
REMARK UNBOUND:                -0.986
REMARK SMILES CCOc1ccc(Cc2c([O-])nc(N)n(Cc3cccc4ccccc34)c2=O)cc1
REMARK SMILES IDX 4 1 5 2 6 3 7 4 29 5 30 6 3 7 2 8 1 9 8 10 9 11 10 12 27 13
REMARK SMILES IDX 12 14 15 15 28 16 13 17 14 18 11 19 16 22 17 23 18 24 26 25
REMARK SMILES IDX 19 26 25 27 21 28 20 29 24 30 22 31 23 32
REMARK H PARENT 14 20 14 21
ROOT
ATOM      1  C   UNL     1      14.752 -18.879 -53.003  1.00  0.00     0.119 A 
ATOM      2  C   UNL     1      14.243 -20.151 -52.743  1.00  0.00     0.047 A 
ATOM      3  C   UNL     1      13.692 -20.445 -51.491  1.00  0.00     0.008 A 
ATOM      4  C   UNL     1      13.633 -19.473 -50.485  1.00  0.00    -0.043 A 
ATOM      5  C   UNL     1      14.147 -18.199 -50.750  1.00  0.00     0.008 A 
ATOM      6  C   UNL     1      14.696 -17.907 -52.001  1.00  0.00     0.047 A 
ENDROOT
BRANCH   1   7
ATOM      7  O   UNL     1      15.314 -18.456 -54.178  1.00  0.00    -0.494 OA
BRANCH   7   8
ATOM      8  C   UNL     1      16.677 -18.039 -54.164  1.00  0.00     0.226 C 
ATOM      9  C   UNL     1      17.606 -19.238 -54.066  1.00  0.00     0.049 C 
ENDBRANCH   7   8
ENDBRANCH   1   7
BRANCH   4  10
ATOM     10  C   UNL     1      13.035 -19.815 -49.133  1.00  0.00     0.077 C 
BRANCH  10  11
ATOM     11  C   UNL     1      12.709 -21.276 -48.971  1.00  0.00     0.033 C 
ATOM     12  C   UNL     1      11.627 -21.881 -49.507  1.00  0.00     0.000 C 
ATOM     13  C   UNL     1      13.627 -22.069 -48.115  1.00  0.00     0.258 C 
ATOM     14  N   UNL     1      11.403 -23.220 -49.316  1.00  0.00    -0.231 NA
ATOM     15  N   UNL     1      13.360 -23.421 -48.027  1.00  0.00    -0.274 N 
ATOM     16  O   UNL     1      14.563 -21.528 -47.518  1.00  0.00    -0.269 OA
ATOM     17  C   UNL     1      12.241 -23.930 -48.635  1.00  0.00     0.202 C 
ATOM     18  N   UNL     1      11.948 -25.264 -48.558  1.00  0.00    -0.369 N 
ATOM     19  O   UNL     1      10.724 -21.384 -50.230  1.00  0.00    -0.858 OA
ATOM     20  H   UNL     1      11.102 -25.373 -49.115  1.00  0.00     0.159 HD
ATOM     21  H   UNL     1      12.678 -25.823 -48.976  1.00  0.00     0.159 HD
BRANCH  15  22
ATOM     22  C   UNL     1      14.230 -24.235 -47.189  1.00  0.00     0.165 C 
BRANCH  22  23
ATOM     23  C   UNL     1      14.051 -24.096 -45.679  1.00  0.00    -0.020 A 
ATOM     24  C   UNL     1      12.794 -24.301 -45.080  1.00  0.00     0.006 A 
ATOM     25  C   UNL     1      15.168 -23.760 -44.853  1.00  0.00    -0.013 A 
ATOM     26  C   UNL     1      12.626 -24.185 -43.704  1.00  0.00     0.001 A 
ATOM     27  C   UNL     1      16.473 -23.526 -45.349  1.00  0.00     0.009 A 
ATOM     28  C   UNL     1      14.979 -23.647 -43.450  1.00  0.00    -0.018 A 
ATOM     29  C   UNL     1      13.710 -23.861 -42.895  1.00  0.00     0.009 A 
ATOM     30  C   UNL     1      17.539 -23.202 -44.505  1.00  0.00     0.001 A 
ATOM     31  C   UNL     1      16.060 -23.321 -42.615  1.00  0.00     0.009 A 
ATOM     32  C   UNL     1      17.332 -23.099 -43.137  1.00  0.00     0.001 A 
ENDBRANCH  22  23
ENDBRANCH  15  22
ENDBRANCH  10  11
ENDBRANCH   4  10
TORSDOF 6
ENDMDL
MODEL 3
REMARK VINA RESULT:    -7.464      3.726      5.756
REMARK INTER + INTRA:         -11.068
REMARK INTER:                 -10.729
REMARK INTRA:                  -0.339
REMARK UNBOUND:                -0.986
REMARK SMILES CCOc1ccc(Cc2c([O-])nc(N)n(Cc3cccc4ccccc34)c2=O)cc1
REMARK SMILES IDX 4 1 5 2 6 3 7 4 29 5 30 6 3 7 2 8 1 9 8 10 9 11 10 12 27 13
REMARK SMILES IDX 12 14 15 15 28 16 13 17 14 18 11 19 16 22 17 23 18 24 26 25
REMARK SMILES IDX 19 26 25 27 21 28 20 29 24 30 22 31 23 32
REMARK H PARENT 14 20 14 21
ROOT
ATOM      1  C   UNL     1      12.497 -20.903 -49.853  1.00  0.00     0.119 A 
ATOM      2  C   UNL     1      11.737 -22.071 -49.826  1.00  0.00     0.047 A 
ATOM      3  C   UNL     1      11.684 -22.850 -48.665  1.00  0.00     0.008 A 
ATOM      4  C   UNL     1      12.382 -22.469 -47.512  1.00  0.00    -0.043 A 
ATOM      5  C   UNL     1      13.145 -21.297 -47.544  1.00  0.00     0.008 A 
ATOM      6  C   UNL     1      13.195 -20.520 -48.705  1.00  0.00     0.047 A 
ENDROOT
BRANCH   1   7
ATOM      7  O   UNL     1      12.633 -20.049 -50.915  1.00  0.00    -0.494 OA
BRANCH   7   8
ATOM      8  C   UNL     1      13.759 -20.215 -51.775  1.00  0.00     0.226 C 
ATOM      9  C   UNL     1      14.090 -18.914 -52.486  1.00  0.00     0.049 C 
ENDBRANCH   7   8
ENDBRANCH   1   7
BRANCH   4  10
ATOM     10  C   UNL     1      12.315 -23.330 -46.265  1.00  0.00     0.077 C 
BRANCH  10  11
ATOM     11  C   UNL     1      13.565 -24.134 -46.020  1.00  0.00     0.033 C 
ATOM     12  C   UNL     1      13.876 -25.278 -46.666  1.00  0.00     0.000 C 
ATOM     13  C   UNL     1      14.471 -23.640 -44.953  1.00  0.00     0.258 C 
ATOM     14  N   UNL     1      15.038 -25.950 -46.388  1.00  0.00    -0.231 NA
ATOM     15  N   UNL     1      15.647 -24.344 -44.781  1.00  0.00    -0.274 N 
ATOM     16  O   UNL     1      14.167 -22.662 -44.264  1.00  0.00    -0.269 OA
ATOM     17  C   UNL     1      15.868 -25.482 -45.513  1.00  0.00     0.202 C 
ATOM     18  N   UNL     1      17.020 -26.203 -45.359  1.00  0.00    -0.369 N 
ATOM     19  O   UNL     1      13.233 -25.871 -47.572  1.00  0.00    -0.858 OA
ATOM     20  H   UNL     1      16.940 -26.961 -46.035  1.00  0.00     0.159 HD
ATOM     21  H   UNL     1      17.831 -25.650 -45.596  1.00  0.00     0.159 HD
BRANCH  15  22
ATOM     22  C   UNL     1      16.562 -23.900 -43.738  1.00  0.00     0.165 C 
BRANCH  22  23
ATOM     23  C   UNL     1      16.687 -24.800 -42.510  1.00  0.00    -0.020 A 
ATOM     24  C   UNL     1      17.848 -25.564 -42.292  1.00  0.00     0.006 A 
ATOM     25  C   UNL     1      15.620 -24.870 -41.561  1.00  0.00    -0.013 A 
ATOM     26  C   UNL     1      17.972 -26.379 -41.171  1.00  0.00     0.001 A 
ATOM     27  C   UNL     1      14.407 -24.150 -41.685  1.00  0.00     0.009 A 
ATOM     28  C   UNL     1      15.764 -25.705 -40.422  1.00  0.00    -0.018 A 
ATOM     29  C   UNL     1      16.939 -26.448 -40.243  1.00  0.00     0.009 A 
ATOM     30  C   UNL     1      13.389 -24.246 -40.732  1.00  0.00     0.001 A 
ATOM     31  C   UNL     1      14.733 -25.791 -39.473  1.00  0.00     0.009 A 
ATOM     32  C   UNL     1      13.552 -25.067 -39.625  1.00  0.00     0.001 A 
ENDBRANCH  22  23
ENDBRANCH  15  22
ENDBRANCH  10  11
ENDBRANCH   4  10
TORSDOF 6
ENDMDL
MODEL 4
REMARK VINA RESULT:    -7.393      1.320      1.680
REMARK INTER + INTRA:         -10.972
REMARK INTER:                  -9.826
REMARK INTRA:                  -1.146
REMARK UNBOUND:                -0.986
REMARK SMILES CCOc1ccc(Cc2c([O-])nc(N)n(Cc3cccc4ccccc34)c2=O)cc1
REMARK SMILES IDX 4 1 5 2 6 3 7 4 29 5 30 6 3 7 2 8 1 9 8 10 9 11 10 12 27 13
REMARK SMILES IDX 12 14 15 15 28 16 13 17 14 18 11 19 16 22 17 23 18 24 26 25
REMARK SMILES IDX 19 26 25 27 21 28 20 29 24 30 22 31 23 32
REMARK H PARENT 14 20 14 21
ROOT
ATOM      1  C   UNL     1       5.832 -24.558 -50.291  1.00  0.00     0.119 A 
ATOM      2  C   UNL     1       6.597 -24.824 -51.426  1.00  0.00     0.047 A 
ATOM      3  C   UNL     1       7.981 -24.994 -51.317  1.00  0.00     0.008 A 
ATOM      4  C   UNL     1       8.621 -24.908 -50.074  1.00  0.00    -0.043 A 
ATOM      5  C   UNL     1       7.850 -24.638 -48.938  1.00  0.00     0.008 A 
ATOM      6  C   UNL     1       6.467 -24.470 -49.050  1.00  0.00     0.047 A 
ENDROOT
BRANCH   1   7
ATOM      7  O   UNL     1       4.476 -24.375 -50.252  1.00  0.00    -0.494 OA
BRANCH   7   8
ATOM      8  C   UNL     1       3.941 -23.492 -49.268  1.00  0.00     0.226 C 
ATOM      9  C   UNL     1       2.630 -24.029 -48.719  1.00  0.00     0.049 C 
ENDBRANCH   7   8
ENDBRANCH   1   7
BRANCH   4  10
ATOM     10  C   UNL     1      10.124 -25.091 -49.980  1.00  0.00     0.077 C 
BRANCH  10  11
ATOM     11  C   UNL     1      10.883 -23.794 -49.877  1.00  0.00     0.033 C 
ATOM     12  C   UNL     1      11.230 -23.026 -50.933  1.00  0.00     0.000 C 
ATOM     13  C   UNL     1      11.313 -23.384 -48.516  1.00  0.00     0.258 C 
ATOM     14  N   UNL     1      11.918 -21.854 -50.754  1.00  0.00    -0.231 NA
ATOM     15  N   UNL     1      11.948 -22.161 -48.423  1.00  0.00    -0.274 N 
ATOM     16  O   UNL     1      11.113 -24.114 -47.541  1.00  0.00    -0.269 OA
ATOM     17  C   UNL     1      12.228 -21.455 -49.564  1.00  0.00     0.202 C 
ATOM     18  N   UNL     1      12.862 -20.245 -49.502  1.00  0.00    -0.369 N 
ATOM     19  O   UNL     1      10.987 -23.212 -52.154  1.00  0.00    -0.858 OA
ATOM     20  H   UNL     1      12.910 -19.931 -50.471  1.00  0.00     0.159 HD
ATOM     21  H   UNL     1      12.319 -19.574 -48.977  1.00  0.00     0.159 HD
BRANCH  15  22
ATOM     22  C   UNL     1      12.397 -21.725 -47.108  1.00  0.00     0.165 C 
BRANCH  22  23
ATOM     23  C   UNL     1      13.708 -22.319 -46.600  1.00  0.00    -0.020 A 
ATOM     24  C   UNL     1      14.914 -22.104 -47.292  1.00  0.00     0.006 A 
ATOM     25  C   UNL     1      13.724 -23.101 -45.403  1.00  0.00    -0.013 A 
ATOM     26  C   UNL     1      16.113 -22.635 -46.830  1.00  0.00     0.001 A 
ATOM     27  C   UNL     1      12.571 -23.386 -44.632  1.00  0.00     0.009 A 
ATOM     28  C   UNL     1      14.958 -23.635 -44.945  1.00  0.00    -0.018 A 
ATOM     29  C   UNL     1      16.135 -23.394 -45.665  1.00  0.00     0.009 A 
ATOM     30  C   UNL     1      12.632 -24.155 -43.467  1.00  0.00     0.001 A 
ATOM     31  C   UNL     1      15.002 -24.405 -43.771  1.00  0.00     0.009 A 
ATOM     32  C   UNL     1      13.848 -24.664 -43.036  1.00  0.00     0.001 A 
ENDBRANCH  22  23
ENDBRANCH  15  22
ENDBRANCH  10  11
ENDBRANCH   4  10
TORSDOF 6
ENDMDL
MODEL 5
REMARK VINA RESULT:    -7.207      3.208      5.681
REMARK INTER + INTRA:         -10.721
REMARK INTER:                  -9.575
REMARK INTRA:                  -1.146
REMARK UNBOUND:                -0.986
REMARK SMILES CCOc1ccc(Cc2c([O-])nc(N)n(Cc3cccc4ccccc34)c2=O)cc1
REMARK SMILES IDX 4 1 5 2 6 3 7 4 29 5 30 6 3 7 2 8 1 9 8 10 9 11 10 12 27 13
REMARK SMILES IDX 12 14 15 15 28 16 13 17 14 18 11 19 16 22 17 23 18 24 26 25
REMARK SMILES IDX 19 26 25 27 21 28 20 29 24 30 22 31 23 32
REMARK H PARENT 14 20 14 21
ROOT
ATOM      1  C   UNL     1      14.357 -19.590 -52.234  1.00  0.00     0.119 A 
ATOM      2  C   UNL     1      14.089 -19.112 -50.953  1.00  0.00     0.047 A 
ATOM      3  C   UNL     1      13.112 -19.727 -50.162  1.00  0.00     0.008 A 
ATOM      4  C   UNL     1      12.397 -20.834 -50.635  1.00  0.00    -0.043 A 
ATOM      5  C   UNL     1      12.667 -21.309 -51.923  1.00  0.00     0.008 A 
ATOM      6  C   UNL     1      13.643 -20.693 -52.710  1.00  0.00     0.047 A 
ENDROOT
BRANCH   1   7
ATOM      7  O   UNL     1      15.282 -19.088 -53.109  1.00  0.00    -0.494 OA
BRANCH   7   8
ATOM      8  C   UNL     1      15.746 -17.754 -52.912  1.00  0.00     0.226 C 
ATOM      9  C   UNL     1      14.880 -16.765 -53.673  1.00  0.00     0.049 C 
ENDBRANCH   7   8
ENDBRANCH   1   7
BRANCH   4  10
ATOM     10  C   UNL     1      11.339 -21.484 -49.763  1.00  0.00     0.077 C 
BRANCH  10  11
ATOM     11  C   UNL     1      11.862 -22.623 -48.929  1.00  0.00     0.033 C 
ATOM     12  C   UNL     1      11.980 -23.897 -49.364  1.00  0.00     0.000 C 
ATOM     13  C   UNL     1      12.214 -22.307 -47.522  1.00  0.00     0.258 C 
ATOM     14  N   UNL     1      12.471 -24.878 -48.542  1.00  0.00    -0.231 NA
ATOM     15  N   UNL     1      12.756 -23.342 -46.784  1.00  0.00    -0.274 N 
ATOM     16  O   UNL     1      12.015 -21.182 -47.055  1.00  0.00    -0.269 OA
ATOM     17  C   UNL     1      12.850 -24.592 -47.340  1.00  0.00     0.202 C 
ATOM     18  N   UNL     1      13.377 -25.636 -46.631  1.00  0.00    -0.369 N 
ATOM     19  O   UNL     1      11.711 -24.369 -50.500  1.00  0.00    -0.858 OA
ATOM     20  H   UNL     1      13.360 -26.422 -47.281  1.00  0.00     0.159 HD
ATOM     21  H   UNL     1      14.337 -25.457 -46.374  1.00  0.00     0.159 HD
BRANCH  15  22
ATOM     22  C   UNL     1      13.106 -23.079 -45.396  1.00  0.00     0.165 C 
BRANCH  22  23
ATOM     23  C   UNL     1      14.592 -22.908 -45.085  1.00  0.00    -0.020 A 
ATOM     24  C   UNL     1      15.476 -22.393 -46.051  1.00  0.00     0.006 A 
ATOM     25  C   UNL     1      15.101 -23.269 -43.799  1.00  0.00    -0.013 A 
ATOM     26  C   UNL     1      16.829 -22.227 -45.772  1.00  0.00     0.001 A 
ATOM     27  C   UNL     1      14.304 -23.802 -42.757  1.00  0.00     0.009 A 
ATOM     28  C   UNL     1      16.484 -23.092 -43.531  1.00  0.00    -0.018 A 
ATOM     29  C   UNL     1      17.329 -22.573 -44.521  1.00  0.00     0.009 A 
ATOM     30  C   UNL     1      14.843 -24.140 -41.512  1.00  0.00     0.001 A 
ATOM     31  C   UNL     1      17.010 -23.435 -42.274  1.00  0.00     0.009 A 
ATOM     32  C   UNL     1      16.197 -23.956 -41.271  1.00  0.00     0.001 A 
ENDBRANCH  22  23
ENDBRANCH  15  22
ENDBRANCH  10  11
ENDBRANCH   4  10
TORSDOF 6
ENDMDL
MODEL 6
REMARK VINA RESULT:    -7.162      2.333      8.230
REMARK INTER + INTRA:         -10.661
REMARK INTER:                  -9.962
REMARK INTRA:                  -0.699
REMARK UNBOUND:                -0.986
REMARK SMILES CCOc1ccc(Cc2c([O-])nc(N)n(Cc3cccc4ccccc34)c2=O)cc1
REMARK SMILES IDX 4 1 5 2 6 3 7 4 29 5 30 6 3 7 2 8 1 9 8 10 9 11 10 12 27 13
REMARK SMILES IDX 12 14 15 15 28 16 13 17 14 18 11 19 16 22 17 23 18 24 26 25
REMARK SMILES IDX 19 26 25 27 21 28 20 29 24 30 22 31 23 32
REMARK H PARENT 14 20 14 21
ROOT
ATOM      1  C   UNL     1      13.219 -24.206 -42.783  1.00  0.00     0.119 A 
ATOM      2  C   UNL     1      12.284 -23.840 -43.749  1.00  0.00     0.047 A 
ATOM      3  C   UNL     1      12.703 -23.244 -44.944  1.00  0.00     0.008 A 
ATOM      4  C   UNL     1      14.062 -23.014 -45.194  1.00  0.00    -0.043 A 
ATOM      5  C   UNL     1      14.996 -23.380 -44.219  1.00  0.00     0.008 A 
ATOM      6  C   UNL     1      14.575 -23.976 -43.028  1.00  0.00     0.047 A 
ENDROOT
BRANCH   1   7
ATOM      7  O   UNL     1      12.949 -24.797 -41.577  1.00  0.00    -0.494 OA
BRANCH   7   8
ATOM      8  C   UNL     1      13.939 -24.724 -40.553  1.00  0.00     0.226 C 
ATOM      9  C   UNL     1      13.355 -24.133 -39.281  1.00  0.00     0.049 C 
ENDBRANCH   7   8
ENDBRANCH   1   7
BRANCH   4  10
ATOM     10  C   UNL     1      14.494 -22.362 -46.494  1.00  0.00     0.077 C 
BRANCH  10  11
ATOM     11  C   UNL     1      13.382 -22.230 -47.501  1.00  0.00     0.033 C 
ATOM     12  C   UNL     1      12.723 -21.081 -47.764  1.00  0.00     0.000 C 
ATOM     13  C   UNL     1      12.968 -23.474 -48.198  1.00  0.00     0.258 C 
ATOM     14  N   UNL     1      11.723 -21.043 -48.702  1.00  0.00    -0.231 NA
ATOM     15  N   UNL     1      11.995 -23.332 -49.168  1.00  0.00    -0.274 N 
ATOM     16  O   UNL     1      13.470 -24.562 -47.904  1.00  0.00    -0.269 OA
ATOM     17  C   UNL     1      11.411 -22.107 -49.366  1.00  0.00     0.202 C 
ATOM     18  N   UNL     1      10.441 -21.938 -50.314  1.00  0.00    -0.369 N 
ATOM     19  O   UNL     1      12.902 -19.938 -47.266  1.00  0.00    -0.858 OA
ATOM     20  H   UNL     1      10.212 -20.946 -50.274  1.00  0.00     0.159 HD
ATOM     21  H   UNL     1      10.793 -22.146 -51.238  1.00  0.00     0.159 HD
BRANCH  15  22
ATOM     22  C   UNL     1      11.552 -24.528 -49.869  1.00  0.00     0.165 C 
BRANCH  22  23
ATOM     23  C   UNL     1      10.243 -25.155 -49.393  1.00  0.00    -0.020 A 
ATOM     24  C   UNL     1      10.082 -25.558 -48.054  1.00  0.00     0.006 A 
ATOM     25  C   UNL     1       9.160 -25.336 -50.308  1.00  0.00    -0.013 A 
ATOM     26  C   UNL     1       8.890 -26.122 -47.611  1.00  0.00     0.001 A 
ATOM     27  C   UNL     1       9.215 -24.973 -51.676  1.00  0.00     0.009 A 
ATOM     28  C   UNL     1       7.950 -25.912 -49.838  1.00  0.00    -0.018 A 
ATOM     29  C   UNL     1       7.832 -26.296 -48.496  1.00  0.00     0.009 A 
ATOM     30  C   UNL     1       8.131 -25.166 -52.536  1.00  0.00     0.001 A 
ATOM     31  C   UNL     1       6.869 -26.098 -50.716  1.00  0.00     0.009 A 
ATOM     32  C   UNL     1       6.957 -25.728 -52.056  1.00  0.00     0.001 A 
ENDBRANCH  22  23
ENDBRANCH  15  22
ENDBRANCH  10  11
ENDBRANCH   4  10
TORSDOF 6
ENDMDL
MODEL 7
REMARK VINA RESULT:    -7.156      2.200      8.192
REMARK INTER + INTRA:         -10.652
REMARK INTER:                  -9.462
REMARK INTRA:                  -1.189
REMARK UNBOUND:                -0.986
REMARK SMILES CCOc1ccc(Cc2c([O-])nc(N)n(Cc3cccc4ccccc34)c2=O)cc1
REMARK SMILES IDX 4 1 5 2 6 3 7 4 29 5 30 6 3 7 2 8 1 9 8 10 9 11 10 12 27 13
REMARK SMILES IDX 12 14 15 15 28 16 13 17 14 18 11 19 16 22 17 23 18 24 26 25
REMARK SMILES IDX 19 26 25 27 21 28 20 29 24 30 22 31 23 32
REMARK H PARENT 14 20 14 21
ROOT
ATOM      1  C   UNL     1      14.709 -24.444 -41.806  1.00  0.00     0.119 A 
ATOM      2  C   UNL     1      15.859 -24.301 -42.580  1.00  0.00     0.047 A 
ATOM      3  C   UNL     1      15.802 -24.487 -43.966  1.00  0.00     0.008 A 
ATOM      4  C   UNL     1      14.595 -24.810 -44.598  1.00  0.00    -0.043 A 
ATOM      5  C   UNL     1      13.444 -24.955 -43.817  1.00  0.00     0.008 A 
ATOM      6  C   UNL     1      13.503 -24.768 -42.434  1.00  0.00     0.047 A 
ENDROOT
BRANCH   1   7
ATOM      7  O   UNL     1      14.621 -24.288 -40.448  1.00  0.00    -0.494 OA
BRANCH   7   8
ATOM      8  C   UNL     1      13.406 -24.663 -39.802  1.00  0.00     0.226 C 
ATOM      9  C   UNL     1      13.180 -23.828 -38.553  1.00  0.00     0.049 C 
ENDBRANCH   7   8
ENDBRANCH   1   7
BRANCH   4  10
ATOM     10  C   UNL     1      14.557 -25.013 -46.102  1.00  0.00     0.077 C 
BRANCH  10  11
ATOM     11  C   UNL     1      14.242 -23.757 -46.871  1.00  0.00     0.033 C 
ATOM     12  C   UNL     1      15.139 -22.788 -47.152  1.00  0.00     0.000 C 
ATOM     13  C   UNL     1      12.830 -23.574 -47.291  1.00  0.00     0.258 C 
ATOM     14  N   UNL     1      14.773 -21.675 -47.864  1.00  0.00    -0.231 NA
ATOM     15  N   UNL     1      12.563 -22.455 -48.055  1.00  0.00    -0.274 N 
ATOM     16  O   UNL     1      11.959 -24.383 -46.958  1.00  0.00    -0.269 OA
ATOM     17  C   UNL     1      13.562 -21.548 -48.297  1.00  0.00     0.202 C 
ATOM     18  N   UNL     1      13.325 -20.427 -49.044  1.00  0.00    -0.369 N 
ATOM     19  O   UNL     1      16.364 -22.741 -46.863  1.00  0.00    -0.858 OA
ATOM     20  H   UNL     1      14.228 -19.957 -49.096  1.00  0.00     0.159 HD
ATOM     21  H   UNL     1      13.038 -20.666 -49.982  1.00  0.00     0.159 HD
BRANCH  15  22
ATOM     22  C   UNL     1      11.188 -22.230 -48.480  1.00  0.00     0.165 C 
BRANCH  22  23
ATOM     23  C   UNL     1      10.734 -22.961 -49.741  1.00  0.00    -0.020 A 
ATOM     24  C   UNL     1      11.482 -22.879 -50.931  1.00  0.00     0.006 A 
ATOM     25  C   UNL     1       9.539 -23.745 -49.725  1.00  0.00    -0.013 A 
ATOM     26  C   UNL     1      11.079 -23.549 -52.081  1.00  0.00     0.001 A 
ATOM     27  C   UNL     1       8.709 -23.892 -48.587  1.00  0.00     0.009 A 
ATOM     28  C   UNL     1       9.143 -24.424 -50.908  1.00  0.00    -0.018 A 
ATOM     29  C   UNL     1       9.919 -24.316 -52.069  1.00  0.00     0.009 A 
ATOM     30  C   UNL     1       7.549 -24.671 -48.614  1.00  0.00     0.001 A 
ATOM     31  C   UNL     1       7.975 -25.203 -50.918  1.00  0.00     0.009 A 
ATOM     32  C   UNL     1       7.182 -25.327 -49.780  1.00  0.00     0.001 A 
ENDBRANCH  22  23
ENDBRANCH  15  22
ENDBRANCH  10  11
ENDBRANCH   4  10
TORSDOF 6
ENDMDL
MODEL 8
REMARK VINA RESULT:    -7.033      3.572      5.543
REMARK INTER + INTRA:         -10.486
REMARK INTER:                  -9.901
REMARK INTRA:                  -0.585
REMARK UNBOUND:                -0.986
REMARK SMILES CCOc1ccc(Cc2c([O-])nc(N)n(Cc3cccc4ccccc34)c2=O)cc1
REMARK SMILES IDX 4 1 5 2 6 3 7 4 29 5 30 6 3 7 2 8 1 9 8 10 9 11 10 12 27 13
REMARK SMILES IDX 12 14 15 15 28 16 13 17 14 18 11 19 16 22 17 23 18 24 26 25
REMARK SMILES IDX 19 26 25 27 21 28 20 29 24 30 22 31 23 32
REMARK H PARENT 14 20 14 21
ROOT
ATOM      1  C   UNL     1      13.678 -20.539 -50.082  1.00  0.00     0.119 A 
ATOM      2  C   UNL     1      14.029 -20.991 -48.811  1.00  0.00     0.047 A 
ATOM      3  C   UNL     1      13.290 -22.008 -48.197  1.00  0.00     0.008 A 
ATOM      4  C   UNL     1      12.197 -22.594 -48.846  1.00  0.00    -0.043 A 
ATOM      5  C   UNL     1      11.847 -22.136 -50.121  1.00  0.00     0.008 A 
ATOM      6  C   UNL     1      12.587 -21.121 -50.732  1.00  0.00     0.047 A 
ENDROOT
BRANCH   1   7
ATOM      7  O   UNL     1      14.313 -19.559 -50.798  1.00  0.00    -0.494 OA
BRANCH   7   8
ATOM      8  C   UNL     1      13.653 -19.024 -51.943  1.00  0.00     0.226 C 
ATOM      9  C   UNL     1      14.506 -17.957 -52.607  1.00  0.00     0.049 C 
ENDBRANCH   7   8
ENDBRANCH   1   7
BRANCH   4  10
ATOM     10  C   UNL     1      11.406 -23.692 -48.160  1.00  0.00     0.077 C 
BRANCH  10  11
ATOM     11  C   UNL     1      12.207 -24.469 -47.148  1.00  0.00     0.033 C 
ATOM     12  C   UNL     1      12.926 -25.577 -47.431  1.00  0.00     0.000 C 
ATOM     13  C   UNL     1      12.140 -23.993 -45.743  1.00  0.00     0.258 C 
ATOM     14  N   UNL     1      13.633 -26.225 -46.451  1.00  0.00    -0.231 NA
ATOM     15  N   UNL     1      12.930 -24.669 -44.834  1.00  0.00    -0.274 N 
ATOM     16  O   UNL     1      11.406 -23.053 -45.427  1.00  0.00    -0.269 OA
ATOM     17  C   UNL     1      13.639 -25.770 -45.242  1.00  0.00     0.202 C 
ATOM     18  N   UNL     1      14.424 -26.462 -44.362  1.00  0.00    -0.369 N 
ATOM     19  O   UNL     1      13.085 -26.150 -48.541  1.00  0.00    -0.858 OA
ATOM     20  H   UNL     1      14.855 -27.195 -44.925  1.00  0.00     0.159 HD
ATOM     21  H   UNL     1      15.157 -25.878 -43.987  1.00  0.00     0.159 HD
BRANCH  15  22
ATOM     22  C   UNL     1      12.887 -24.242 -43.443  1.00  0.00     0.165 C 
BRANCH  22  23
ATOM     23  C   UNL     1      14.219 -23.855 -42.805  1.00  0.00    -0.020 A 
ATOM     24  C   UNL     1      15.174 -23.113 -43.523  1.00  0.00     0.006 A 
ATOM     25  C   UNL     1      14.508 -24.241 -41.459  1.00  0.00    -0.013 A 
ATOM     26  C   UNL     1      16.386 -22.749 -42.945  1.00  0.00     0.001 A 
ATOM     27  C   UNL     1      13.624 -24.993 -40.648  1.00  0.00     0.009 A 
ATOM     28  C   UNL     1      15.749 -23.860 -40.884  1.00  0.00    -0.018 A 
ATOM     29  C   UNL     1      16.671 -23.119 -41.636  1.00  0.00     0.009 A 
ATOM     30  C   UNL     1      13.946 -25.348 -39.335  1.00  0.00     0.001 A 
ATOM     31  C   UNL     1      16.058 -24.224 -39.563  1.00  0.00     0.009 A 
ATOM     32  C   UNL     1      15.163 -24.963 -38.792  1.00  0.00     0.001 A 
ENDBRANCH  22  23
ENDBRANCH  15  22
ENDBRANCH  10  11
ENDBRANCH   4  10
TORSDOF 6
ENDMDL
MODEL 9
REMARK VINA RESULT:    -6.936      1.379      2.363
REMARK INTER + INTRA:         -10.355
REMARK INTER:                  -9.453
REMARK INTRA:                  -0.902
REMARK UNBOUND:                -0.986
REMARK SMILES CCOc1ccc(Cc2c([O-])nc(N)n(Cc3cccc4ccccc34)c2=O)cc1
REMARK SMILES IDX 4 1 5 2 6 3 7 4 29 5 30 6 3 7 2 8 1 9 8 10 9 11 10 12 27 13
REMARK SMILES IDX 12 14 15 15 28 16 13 17 14 18 11 19 16 22 17 23 18 24 26 25
REMARK SMILES IDX 19 26 25 27 21 28 20 29 24 30 22 31 23 32
REMARK H PARENT 14 20 14 21
ROOT
ATOM      1  C   UNL     1       5.577 -24.655 -49.770  1.00  0.00     0.119 A 
ATOM      2  C   UNL     1       6.033 -24.918 -51.061  1.00  0.00     0.047 A 
ATOM      3  C   UNL     1       7.404 -25.042 -51.312  1.00  0.00     0.008 A 
ATOM      4  C   UNL     1       8.338 -24.914 -50.276  1.00  0.00    -0.043 A 
ATOM      5  C   UNL     1       7.876 -24.648 -48.983  1.00  0.00     0.008 A 
ATOM      6  C   UNL     1       6.506 -24.526 -48.735  1.00  0.00     0.047 A 
ENDROOT
BRANCH   1   7
ATOM      7  O   UNL     1       4.271 -24.515 -49.385  1.00  0.00    -0.494 OA
BRANCH   7   8
ATOM      8  C   UNL     1       3.864 -23.272 -48.816  1.00  0.00     0.226 C 
ATOM      9  C   UNL     1       3.710 -22.212 -49.894  1.00  0.00     0.049 C 
ENDBRANCH   7   8
ENDBRANCH   1   7
BRANCH   4  10
ATOM     10  C   UNL     1       9.820 -25.047 -50.571  1.00  0.00     0.077 C 
BRANCH  10  11
ATOM     11  C   UNL     1      10.636 -23.871 -50.102  1.00  0.00     0.033 C 
ATOM     12  C   UNL     1      10.370 -22.584 -50.413  1.00  0.00     0.000 C 
ATOM     13  C   UNL     1      11.839 -24.182 -49.289  1.00  0.00     0.258 C 
ATOM     14  N   UNL     1      11.160 -21.569 -49.941  1.00  0.00    -0.231 NA
ATOM     15  N   UNL     1      12.543 -23.096 -48.806  1.00  0.00    -0.274 N 
ATOM     16  O   UNL     1      12.178 -25.349 -49.078  1.00  0.00    -0.269 OA
ATOM     17  C   UNL     1      12.164 -21.829 -49.170  1.00  0.00     0.202 C 
ATOM     18  N   UNL     1      12.846 -20.735 -48.713  1.00  0.00    -0.369 N 
ATOM     19  O   UNL     1       9.425 -22.121 -51.105  1.00  0.00    -0.858 OA
ATOM     20  H   UNL     1      12.342 -19.938 -49.100  1.00  0.00     0.159 HD
ATOM     21  H   UNL     1      12.809 -20.676 -47.705  1.00  0.00     0.159 HD
BRANCH  15  22
ATOM     22  C   UNL     1      13.736 -23.354 -48.012  1.00  0.00     0.165 C 
BRANCH  22  23
ATOM     23  C   UNL     1      13.557 -23.373 -46.496  1.00  0.00    -0.020 A 
ATOM     24  C   UNL     1      12.340 -23.776 -45.918  1.00  0.00     0.006 A 
ATOM     25  C   UNL     1      14.636 -22.982 -45.643  1.00  0.00    -0.013 A 
ATOM     26  C   UNL     1      12.174 -23.804 -44.537  1.00  0.00     0.001 A 
ATOM     27  C   UNL     1      15.900 -22.552 -46.116  1.00  0.00     0.009 A 
ATOM     28  C   UNL     1      14.449 -23.017 -44.235  1.00  0.00    -0.018 A 
ATOM     29  C   UNL     1      13.221 -23.428 -43.702  1.00  0.00     0.009 A 
ATOM     30  C   UNL     1      16.928 -22.180 -45.246  1.00  0.00     0.001 A 
ATOM     31  C   UNL     1      15.493 -22.641 -43.374  1.00  0.00     0.009 A 
ATOM     32  C   UNL     1      16.725 -22.225 -43.875  1.00  0.00     0.001 A 
ENDBRANCH  22  23
ENDBRANCH  15  22
ENDBRANCH  10  11
ENDBRANCH   4  10
TORSDOF 6
ENDMDL
