MODEL 1
REMARK VINA RESULT:    -8.184      0.000      0.000
REMARK INTER + INTRA:          -9.054
REMARK INTER:                  -8.662
REMARK INTRA:                  -0.392
REMARK UNBOUND:                -0.392
REMARK SMILES C[C@H]1CCc2[nH]c3c(C(=O)NC4=NCCS4)cccc3c2C1
REMARK SMILES IDX 1 1 2 2 3 3 4 4 5 5 6 6 7 7 8 8 17 9 18 10 19 11 20 12 21 13
REMARK SMILES IDX 22 14 9 16 10 17 11 18 12 19 13 20 16 21 14 22 15 23
REMARK H PARENT 6 15 11 24
ROOT
ATOM      1  C   UNL     1      13.493 -20.459 -51.026  1.00  0.00     0.008 C 
ATOM      2  C   UNL     1      13.407 -20.698 -49.520  1.00  0.00    -0.009 C 
ATOM      3  C   UNL     1      12.043 -21.325 -49.140  1.00  0.00     0.010 C 
ATOM      4  C   UNL     1      11.882 -21.496 -47.617  1.00  0.00     0.054 C 
ATOM      5  C   UNL     1      13.140 -22.036 -47.040  1.00  0.00     0.019 A 
ATOM      6  N   UNL     1      13.269 -22.549 -45.782  1.00  0.00    -0.358 N 
ATOM      7  C   UNL     1      14.577 -22.938 -45.566  1.00  0.00     0.059 A 
ATOM      8  C   UNL     1      15.167 -23.529 -44.434  1.00  0.00     0.064 A 
ATOM      9  C   UNL     1      16.552 -23.771 -44.486  1.00  0.00     0.016 A 
ATOM     10  C   UNL     1      17.292 -23.473 -45.631  1.00  0.00     0.002 A 
ATOM     11  C   UNL     1      16.675 -22.915 -46.756  1.00  0.00     0.010 A 
ATOM     12  C   UNL     1      15.297 -22.633 -46.725  1.00  0.00     0.004 A 
ATOM     13  C   UNL     1      14.376 -22.068 -47.651  1.00  0.00    -0.019 A 
ATOM     14  C   UNL     1      14.590 -21.582 -49.046  1.00  0.00     0.041 C 
ATOM     15  H   UNL     1      12.544 -22.622 -45.075  1.00  0.00     0.166 HD
ENDROOT
BRANCH   8  16
ATOM     16  C   UNL     1      14.322 -23.850 -43.247  1.00  0.00     0.259 C 
ATOM     17  O   UNL     1      13.110 -23.962 -43.399  1.00  0.00    -0.269 OA
ATOM     18  N   UNL     1      15.013 -24.090 -42.074  1.00  0.00    -0.301 N 
ATOM     19  C   UNL     1      14.481 -24.248 -40.831  1.00  0.00     0.163 C 
ATOM     20  N   UNL     1      13.246 -24.186 -40.488  1.00  0.00    -0.261 NA
ATOM     21  S   UNL     1      15.673 -24.579 -39.613  1.00  0.00    -0.087 SA
ATOM     22  C   UNL     1      13.144 -24.354 -39.024  1.00  0.00     0.156 C 
ATOM     23  C   UNL     1      14.354 -25.115 -38.503  1.00  0.00     0.102 C 
ATOM     24  H   UNL     1      16.018 -24.165 -42.104  1.00  0.00     0.172 HD
ENDBRANCH   8  16
TORSDOF 1
ENDMDL
MODEL 2
REMARK VINA RESULT:    -8.134      3.126      7.163
REMARK INTER + INTRA:          -9.001
REMARK INTER:                  -8.705
REMARK INTRA:                  -0.296
REMARK UNBOUND:                -0.392
REMARK SMILES C[C@H]1CCc2[nH]c3c(C(=O)NC4=NCCS4)cccc3c2C1
REMARK SMILES IDX 1 1 2 2 3 3 4 4 5 5 6 6 7 7 8 8 17 9 18 10 19 11 20 12 21 13
REMARK SMILES IDX 22 14 9 16 10 17 11 18 12 19 13 20 16 21 14 22 15 23
REMARK H PARENT 6 15 11 24
ROOT
ATOM      1  C   UNL     1      16.071 -24.975 -38.986  1.00  0.00     0.008 C 
ATOM      2  C   UNL     1      15.328 -24.965 -40.320  1.00  0.00    -0.009 C 
ATOM      3  C   UNL     1      13.844 -24.567 -40.120  1.00  0.00     0.010 C 
ATOM      4  C   UNL     1      13.039 -24.636 -41.432  1.00  0.00     0.054 C 
ATOM      5  C   UNL     1      13.831 -24.036 -42.536  1.00  0.00     0.019 A 
ATOM      6  N   UNL     1      13.335 -23.695 -43.761  1.00  0.00    -0.358 N 
ATOM      7  C   UNL     1      14.349 -23.186 -44.551  1.00  0.00     0.059 A 
ATOM      8  C   UNL     1      14.304 -22.695 -45.868  1.00  0.00     0.064 A 
ATOM      9  C   UNL     1      15.522 -22.282 -46.439  1.00  0.00     0.016 A 
ATOM     10  C   UNL     1      16.710 -22.322 -45.708  1.00  0.00     0.002 A 
ATOM     11  C   UNL     1      16.722 -22.784 -44.387  1.00  0.00     0.010 A 
ATOM     12  C   UNL     1      15.525 -23.233 -43.798  1.00  0.00     0.004 A 
ATOM     13  C   UNL     1      15.184 -23.768 -42.524  1.00  0.00    -0.019 A 
ATOM     14  C   UNL     1      16.037 -24.020 -41.326  1.00  0.00     0.041 C 
ATOM     15  H   UNL     1      12.381 -23.811 -44.088  1.00  0.00     0.166 HD
ENDROOT
BRANCH   8  16
ATOM     16  C   UNL     1      13.001 -22.651 -46.594  1.00  0.00     0.259 C 
ATOM     17  O   UNL     1      12.307 -21.644 -46.500  1.00  0.00    -0.269 OA
ATOM     18  N   UNL     1      12.736 -23.741 -47.401  1.00  0.00    -0.301 N 
ATOM     19  C   UNL     1      11.565 -24.017 -48.039  1.00  0.00     0.163 C 
ATOM     20  N   UNL     1      10.472 -23.346 -48.009  1.00  0.00    -0.261 NA
ATOM     21  S   UNL     1      11.634 -25.462 -49.001  1.00  0.00    -0.087 SA
ATOM     22  C   UNL     1       9.447 -24.058 -48.798  1.00  0.00     0.156 C 
ATOM     23  C   UNL     1      10.117 -24.950 -49.833  1.00  0.00     0.102 C 
ATOM     24  H   UNL     1      13.461 -24.423 -47.559  1.00  0.00     0.172 HD
ENDBRANCH   8  16
TORSDOF 1
ENDMDL
MODEL 3
REMARK VINA RESULT:    -7.826      4.865      8.910
REMARK INTER + INTRA:          -8.675
REMARK INTER:                  -8.295
REMARK INTRA:                  -0.380
REMARK UNBOUND:                -0.392
REMARK SMILES C[C@H]1CCc2[nH]c3c(C(=O)NC4=NCCS4)cccc3c2C1
REMARK SMILES IDX 1 1 2 2 3 3 4 4 5 5 6 6 7 7 8 8 17 9 18 10 19 11 20 12 21 13
REMARK SMILES IDX 22 14 9 16 10 17 11 18 12 19 13 20 16 21 14 22 15 23
REMARK H PARENT 6 15 11 24
ROOT
ATOM      1  C   UNL     1      15.503 -25.908 -44.440  1.00  0.00     0.008 C 
ATOM      2  C   UNL     1      15.211 -24.594 -45.160  1.00  0.00    -0.009 C 
ATOM      3  C   UNL     1      16.524 -23.927 -45.641  1.00  0.00     0.010 C 
ATOM      4  C   UNL     1      16.277 -22.552 -46.292  1.00  0.00     0.054 C 
ATOM      5  C   UNL     1      15.102 -22.632 -47.198  1.00  0.00     0.019 A 
ATOM      6  N   UNL     1      14.760 -21.689 -48.123  1.00  0.00    -0.358 N 
ATOM      7  C   UNL     1      13.603 -22.071 -48.775  1.00  0.00     0.059 A 
ATOM      8  C   UNL     1      12.896 -21.428 -49.807  1.00  0.00     0.064 A 
ATOM      9  C   UNL     1      11.707 -22.038 -50.246  1.00  0.00     0.016 A 
ATOM     10  C   UNL     1      11.278 -23.250 -49.703  1.00  0.00     0.002 A 
ATOM     11  C   UNL     1      12.017 -23.887 -48.701  1.00  0.00     0.010 A 
ATOM     12  C   UNL     1      13.196 -23.287 -48.219  1.00  0.00     0.004 A 
ATOM     13  C   UNL     1      14.154 -23.634 -47.226  1.00  0.00    -0.019 A 
ATOM     14  C   UNL     1      14.230 -24.830 -46.338  1.00  0.00     0.041 C 
ATOM     15  H   UNL     1      15.241 -20.815 -48.310  1.00  0.00     0.166 HD
ENDROOT
BRANCH   8  16
ATOM     16  C   UNL     1      13.415 -20.146 -50.367  1.00  0.00     0.259 C 
ATOM     17  O   UNL     1      13.279 -19.118 -49.712  1.00  0.00    -0.269 OA
ATOM     18  N   UNL     1      14.103 -20.256 -51.561  1.00  0.00    -0.301 N 
ATOM     19  C   UNL     1      14.536 -19.235 -52.350  1.00  0.00     0.163 C 
ATOM     20  N   UNL     1      14.381 -17.974 -52.165  1.00  0.00    -0.261 NA
ATOM     21  S   UNL     1      15.405 -19.774 -53.754  1.00  0.00    -0.087 SA
ATOM     22  C   UNL     1      14.959 -17.244 -53.312  1.00  0.00     0.156 C 
ATOM     23  C   UNL     1      16.026 -18.095 -53.984  1.00  0.00     0.102 C 
ATOM     24  H   UNL     1      14.327 -21.172 -51.916  1.00  0.00     0.172 HD
ENDBRANCH   8  16
TORSDOF 1
ENDMDL
MODEL 4
REMARK VINA RESULT:    -7.689      3.887      7.676
REMARK INTER + INTRA:          -8.530
REMARK INTER:                  -8.120
REMARK INTRA:                  -0.411
REMARK UNBOUND:                -0.392
REMARK SMILES C[C@H]1CCc2[nH]c3c(C(=O)NC4=NCCS4)cccc3c2C1
REMARK SMILES IDX 1 1 2 2 3 3 4 4 5 5 6 6 7 7 8 8 17 9 18 10 19 11 20 12 21 13
REMARK SMILES IDX 22 14 9 16 10 17 11 18 12 19 13 20 16 21 14 22 15 23
REMARK H PARENT 6 15 11 24
ROOT
ATOM      1  C   UNL     1      15.905 -23.922 -40.684  1.00  0.00     0.008 C 
ATOM      2  C   UNL     1      15.055 -24.250 -41.909  1.00  0.00    -0.009 C 
ATOM      3  C   UNL     1      13.546 -24.161 -41.570  1.00  0.00     0.010 C 
ATOM      4  C   UNL     1      12.655 -24.575 -42.756  1.00  0.00     0.054 C 
ATOM      5  C   UNL     1      13.176 -23.970 -44.009  1.00  0.00     0.019 A 
ATOM      6  N   UNL     1      12.500 -23.910 -45.192  1.00  0.00    -0.358 N 
ATOM      7  C   UNL     1      13.287 -23.303 -46.152  1.00  0.00     0.059 A 
ATOM      8  C   UNL     1      13.003 -23.012 -47.498  1.00  0.00     0.064 A 
ATOM      9  C   UNL     1      14.032 -22.424 -48.257  1.00  0.00     0.016 A 
ATOM     10  C   UNL     1      15.262 -22.109 -47.679  1.00  0.00     0.002 A 
ATOM     11  C   UNL     1      15.508 -22.379 -46.328  1.00  0.00     0.010 A 
ATOM     12  C   UNL     1      14.510 -22.994 -45.550  1.00  0.00     0.004 A 
ATOM     13  C   UNL     1      14.426 -23.416 -44.194  1.00  0.00    -0.019 A 
ATOM     14  C   UNL     1      15.426 -23.316 -43.091  1.00  0.00     0.041 C 
ATOM     15  H   UNL     1      11.571 -24.273 -45.383  1.00  0.00     0.166 HD
ENDROOT
BRANCH   8  16
ATOM     16  C   UNL     1      11.661 -23.348 -48.057  1.00  0.00     0.259 C 
ATOM     17  O   UNL     1      10.711 -23.451 -47.288  1.00  0.00    -0.269 OA
ATOM     18  N   UNL     1      11.595 -23.421 -49.436  1.00  0.00    -0.301 N 
ATOM     19  C   UNL     1      10.541 -23.857 -50.179  1.00  0.00     0.163 C 
ATOM     20  N   UNL     1       9.413 -24.307 -49.763  1.00  0.00    -0.261 NA
ATOM     21  S   UNL     1      10.821 -23.757 -51.890  1.00  0.00    -0.087 SA
ATOM     22  C   UNL     1       8.603 -24.725 -50.924  1.00  0.00     0.156 C 
ATOM     23  C   UNL     1       9.051 -23.973 -52.168  1.00  0.00     0.102 C 
ATOM     24  H   UNL     1      12.389 -23.126 -49.982  1.00  0.00     0.172 HD
ENDBRANCH   8  16
TORSDOF 1
ENDMDL
MODEL 5
REMARK VINA RESULT:    -7.687      4.482      7.702
REMARK INTER + INTRA:          -8.528
REMARK INTER:                  -8.184
REMARK INTRA:                  -0.344
REMARK UNBOUND:                -0.392
REMARK SMILES C[C@H]1CCc2[nH]c3c(C(=O)NC4=NCCS4)cccc3c2C1
REMARK SMILES IDX 1 1 2 2 3 3 4 4 5 5 6 6 7 7 8 8 17 9 18 10 19 11 20 12 21 13
REMARK SMILES IDX 22 14 9 16 10 17 11 18 12 19 13 20 16 21 14 22 15 23
REMARK H PARENT 6 15 11 24
ROOT
ATOM      1  C   UNL     1      17.961 -22.890 -44.897  1.00  0.00     0.008 C 
ATOM      2  C   UNL     1      16.660 -23.384 -45.525  1.00  0.00    -0.009 C 
ATOM      3  C   UNL     1      15.624 -23.744 -44.430  1.00  0.00     0.010 C 
ATOM      4  C   UNL     1      14.330 -24.334 -45.022  1.00  0.00     0.054 C 
ATOM      5  C   UNL     1      13.918 -23.543 -46.211  1.00  0.00     0.019 A 
ATOM      6  N   UNL     1      12.698 -23.618 -46.819  1.00  0.00    -0.358 N 
ATOM      7  C   UNL     1      12.663 -22.765 -47.905  1.00  0.00     0.059 A 
ATOM      8  C   UNL     1      11.619 -22.499 -48.809  1.00  0.00     0.064 A 
ATOM      9  C   UNL     1      11.894 -21.606 -49.861  1.00  0.00     0.016 A 
ATOM     10  C   UNL     1      13.139 -20.984 -49.970  1.00  0.00     0.002 A 
ATOM     11  C   UNL     1      14.151 -21.240 -49.038  1.00  0.00     0.010 A 
ATOM     12  C   UNL     1      13.917 -22.152 -47.992  1.00  0.00     0.004 A 
ATOM     13  C   UNL     1      14.699 -22.649 -46.912  1.00  0.00    -0.019 A 
ATOM     14  C   UNL     1      16.099 -22.325 -46.510  1.00  0.00     0.041 C 
ATOM     15  H   UNL     1      11.923 -24.219 -46.559  1.00  0.00     0.166 HD
ENDROOT
BRANCH   8  16
ATOM     16  C   UNL     1      10.300 -23.173 -48.629  1.00  0.00     0.259 C 
ATOM     17  O   UNL     1      10.073 -23.751 -47.571  1.00  0.00    -0.269 OA
ATOM     18  N   UNL     1       9.399 -22.998 -49.663  1.00  0.00    -0.301 N 
ATOM     19  C   UNL     1       8.201 -23.627 -49.815  1.00  0.00     0.163 C 
ATOM     20  N   UNL     1       7.674 -24.517 -49.055  1.00  0.00    -0.261 NA
ATOM     21  S   UNL     1       7.329 -23.107 -51.225  1.00  0.00    -0.087 SA
ATOM     22  C   UNL     1       6.398 -24.963 -49.649  1.00  0.00     0.156 C 
ATOM     23  C   UNL     1       5.840 -23.876 -50.556  1.00  0.00     0.102 C 
ATOM     24  H   UNL     1       9.616 -22.343 -50.397  1.00  0.00     0.172 HD
ENDBRANCH   8  16
TORSDOF 1
ENDMDL
MODEL 6
REMARK VINA RESULT:    -7.289      3.032      4.879
REMARK INTER + INTRA:          -8.107
REMARK INTER:                  -7.675
REMARK INTRA:                  -0.432
REMARK UNBOUND:                -0.392
REMARK SMILES C[C@H]1CCc2[nH]c3c(C(=O)NC4=NCCS4)cccc3c2C1
REMARK SMILES IDX 1 1 2 2 3 3 4 4 5 5 6 6 7 7 8 8 17 9 18 10 19 11 20 12 21 13
REMARK SMILES IDX 22 14 9 16 10 17 11 18 12 19 13 20 16 21 14 22 15 23
REMARK H PARENT 6 15 11 24
ROOT
ATOM      1  C   UNL     1       7.418 -24.094 -51.820  1.00  0.00     0.008 C 
ATOM      2  C   UNL     1       8.161 -23.743 -50.533  1.00  0.00    -0.009 C 
ATOM      3  C   UNL     1       8.340 -24.997 -49.642  1.00  0.00     0.010 C 
ATOM      4  C   UNL     1       9.004 -24.665 -48.292  1.00  0.00     0.054 C 
ATOM      5  C   UNL     1      10.141 -23.734 -48.510  1.00  0.00     0.019 A 
ATOM      6  N   UNL     1      11.101 -23.439 -47.587  1.00  0.00    -0.358 N 
ATOM      7  C   UNL     1      11.992 -22.522 -48.113  1.00  0.00     0.059 A 
ATOM      8  C   UNL     1      13.139 -21.947 -47.538  1.00  0.00     0.064 A 
ATOM      9  C   UNL     1      13.831 -20.993 -48.306  1.00  0.00     0.016 A 
ATOM     10  C   UNL     1      13.414 -20.669 -49.597  1.00  0.00     0.002 A 
ATOM     11  C   UNL     1      12.288 -21.280 -50.160  1.00  0.00     0.010 A 
ATOM     12  C   UNL     1      11.556 -22.216 -49.406  1.00  0.00     0.004 A 
ATOM     13  C   UNL     1      10.388 -22.992 -49.647  1.00  0.00    -0.019 A 
ATOM     14  C   UNL     1       9.525 -23.081 -50.861  1.00  0.00     0.041 C 
ATOM     15  H   UNL     1      11.167 -23.795 -46.639  1.00  0.00     0.166 HD
ENDROOT
BRANCH   8  16
ATOM     16  C   UNL     1      13.553 -22.350 -46.162  1.00  0.00     0.259 C 
ATOM     17  O   UNL     1      12.688 -22.682 -45.359  1.00  0.00    -0.269 OA
ATOM     18  N   UNL     1      14.918 -22.403 -45.946  1.00  0.00    -0.301 N 
ATOM     19  C   UNL     1      15.547 -22.588 -44.753  1.00  0.00     0.163 C 
ATOM     20  N   UNL     1      15.016 -22.728 -43.593  1.00  0.00    -0.261 NA
ATOM     21  S   UNL     1      17.278 -22.641 -44.892  1.00  0.00    -0.087 SA
ATOM     22  C   UNL     1      16.087 -22.834 -42.582  1.00  0.00     0.156 C 
ATOM     23  C   UNL     1      17.365 -23.343 -43.232  1.00  0.00     0.102 C 
ATOM     24  H   UNL     1      15.543 -22.301 -46.729  1.00  0.00     0.172 HD
ENDBRANCH   8  16
TORSDOF 1
ENDMDL
MODEL 7
REMARK VINA RESULT:    -7.112      6.032      8.723
REMARK INTER + INTRA:          -7.919
REMARK INTER:                  -7.623
REMARK INTRA:                  -0.296
REMARK UNBOUND:                -0.392
REMARK SMILES C[C@H]1CCc2[nH]c3c(C(=O)NC4=NCCS4)cccc3c2C1
REMARK SMILES IDX 1 1 2 2 3 3 4 4 5 5 6 6 7 7 8 8 17 9 18 10 19 11 20 12 21 13
REMARK SMILES IDX 22 14 9 16 10 17 11 18 12 19 13 20 16 21 14 22 15 23
REMARK H PARENT 6 15 11 24
ROOT
ATOM      1  C   UNL     1       7.151 -26.000 -49.478  1.00  0.00     0.008 C 
ATOM      2  C   UNL     1       8.219 -25.038 -49.993  1.00  0.00    -0.009 C 
ATOM      3  C   UNL     1       7.596 -23.666 -50.351  1.00  0.00     0.010 C 
ATOM      4  C   UNL     1       8.627 -22.697 -50.961  1.00  0.00     0.054 C 
ATOM      5  C   UNL     1       9.895 -22.765 -50.189  1.00  0.00     0.019 A 
ATOM      6  N   UNL     1      10.919 -21.869 -50.284  1.00  0.00    -0.358 N 
ATOM      7  C   UNL     1      11.950 -22.245 -49.444  1.00  0.00     0.059 A 
ATOM      8  C   UNL     1      13.187 -21.622 -49.199  1.00  0.00     0.064 A 
ATOM      9  C   UNL     1      14.068 -22.272 -48.316  1.00  0.00     0.016 A 
ATOM     10  C   UNL     1      13.705 -23.460 -47.682  1.00  0.00     0.002 A 
ATOM     11  C   UNL     1      12.454 -24.043 -47.917  1.00  0.00     0.010 A 
ATOM     12  C   UNL     1      11.562 -23.434 -48.819  1.00  0.00     0.004 A 
ATOM     13  C   UNL     1      10.259 -23.749 -49.294  1.00  0.00    -0.019 A 
ATOM     14  C   UNL     1       9.359 -24.889 -48.951  1.00  0.00     0.041 C 
ATOM     15  H   UNL     1      10.965 -21.056 -50.890  1.00  0.00     0.166 HD
ENDROOT
BRANCH   8  16
ATOM     16  C   UNL     1      13.512 -20.337 -49.886  1.00  0.00     0.259 C 
ATOM     17  O   UNL     1      13.282 -19.283 -49.304  1.00  0.00    -0.269 OA
ATOM     18  N   UNL     1      14.147 -20.463 -51.108  1.00  0.00    -0.301 N 
ATOM     19  C   UNL     1      14.408 -19.465 -51.997  1.00  0.00     0.163 C 
ATOM     20  N   UNL     1      14.105 -18.222 -51.900  1.00  0.00    -0.261 NA
ATOM     21  S   UNL     1      15.265 -20.011 -53.406  1.00  0.00    -0.087 SA
ATOM     22  C   UNL     1      14.528 -17.526 -53.132  1.00  0.00     0.156 C 
ATOM     23  C   UNL     1      15.658 -18.294 -53.800  1.00  0.00     0.102 C 
ATOM     24  H   UNL     1      14.466 -21.372 -51.404  1.00  0.00     0.172 HD
ENDBRANCH   8  16
TORSDOF 1
ENDMDL
MODEL 8
REMARK VINA RESULT:    -6.932      2.478      3.223
REMARK INTER + INTRA:          -7.729
REMARK INTER:                  -7.290
REMARK INTRA:                  -0.439
REMARK UNBOUND:                -0.392
REMARK SMILES C[C@H]1CCc2[nH]c3c(C(=O)NC4=NCCS4)cccc3c2C1
REMARK SMILES IDX 1 1 2 2 3 3 4 4 5 5 6 6 7 7 8 8 17 9 18 10 19 11 20 12 21 13
REMARK SMILES IDX 22 14 9 16 10 17 11 18 12 19 13 20 16 21 14 22 15 23
REMARK H PARENT 6 15 11 24
ROOT
ATOM      1  C   UNL     1       9.467 -23.779 -52.375  1.00  0.00     0.008 C 
ATOM      2  C   UNL     1       9.668 -23.577 -50.875  1.00  0.00    -0.009 C 
ATOM      3  C   UNL     1       9.122 -24.789 -50.080  1.00  0.00     0.010 C 
ATOM      4  C   UNL     1       9.222 -24.582 -48.556  1.00  0.00     0.054 C 
ATOM      5  C   UNL     1      10.547 -23.999 -48.217  1.00  0.00     0.019 A 
ATOM      6  N   UNL     1      11.073 -23.927 -46.960  1.00  0.00    -0.358 N 
ATOM      7  C   UNL     1      12.308 -23.308 -47.004  1.00  0.00     0.059 A 
ATOM      8  C   UNL     1      13.216 -23.033 -45.966  1.00  0.00     0.064 A 
ATOM      9  C   UNL     1      14.389 -22.336 -46.309  1.00  0.00     0.016 A 
ATOM     10  C   UNL     1      14.651 -21.975 -47.631  1.00  0.00     0.002 A 
ATOM     11  C   UNL     1      13.746 -22.290 -48.652  1.00  0.00     0.010 A 
ATOM     12  C   UNL     1      12.549 -22.959 -48.336  1.00  0.00     0.004 A 
ATOM     13  C   UNL     1      11.431 -23.406 -49.094  1.00  0.00    -0.019 A 
ATOM     14  C   UNL     1      11.164 -23.319 -50.559  1.00  0.00     0.041 C 
ATOM     15  H   UNL     1      10.640 -24.242 -46.098  1.00  0.00     0.166 HD
ENDROOT
BRANCH   8  16
ATOM     16  C   UNL     1      12.895 -23.465 -44.575  1.00  0.00     0.259 C 
ATOM     17  O   UNL     1      11.724 -23.461 -44.211  1.00  0.00    -0.269 OA
ATOM     18  N   UNL     1      13.968 -23.932 -43.837  1.00  0.00    -0.301 N 
ATOM     19  C   UNL     1      13.974 -24.236 -42.510  1.00  0.00     0.163 C 
ATOM     20  N   UNL     1      13.007 -24.134 -41.672  1.00  0.00    -0.261 NA
ATOM     21  S   UNL     1      15.505 -24.838 -41.952  1.00  0.00    -0.087 SA
ATOM     22  C   UNL     1      13.491 -24.513 -40.330  1.00  0.00     0.156 C 
ATOM     23  C   UNL     1      14.696 -25.434 -40.453  1.00  0.00     0.102 C 
ATOM     24  H   UNL     1      14.853 -24.077 -44.296  1.00  0.00     0.172 HD
ENDBRANCH   8  16
TORSDOF 1
ENDMDL
MODEL 9
REMARK VINA RESULT:    -6.618      2.296      2.744
REMARK INTER + INTRA:          -7.396
REMARK INTER:                  -6.941
REMARK INTRA:                  -0.455
REMARK UNBOUND:                -0.392
REMARK SMILES C[C@H]1CCc2[nH]c3c(C(=O)NC4=NCCS4)cccc3c2C1
REMARK SMILES IDX 1 1 2 2 3 3 4 4 5 5 6 6 7 7 8 8 17 9 18 10 19 11 20 12 21 13
REMARK SMILES IDX 22 14 9 16 10 17 11 18 12 19 13 20 16 21 14 22 15 23
REMARK H PARENT 6 15 11 24
ROOT
ATOM      1  C   UNL     1      13.406 -20.257 -51.387  1.00  0.00     0.008 C 
ATOM      2  C   UNL     1      13.580 -20.779 -49.963  1.00  0.00    -0.009 C 
ATOM      3  C   UNL     1      13.065 -19.745 -48.931  1.00  0.00     0.010 C 
ATOM      4  C   UNL     1      13.308 -20.197 -47.479  1.00  0.00     0.054 C 
ATOM      5  C   UNL     1      12.955 -21.633 -47.337  1.00  0.00     0.019 A 
ATOM      6  N   UNL     1      12.800 -22.289 -46.151  1.00  0.00    -0.358 N 
ATOM      7  C   UNL     1      12.496 -23.617 -46.386  1.00  0.00     0.059 A 
ATOM      8  C   UNL     1      12.236 -24.657 -45.475  1.00  0.00     0.064 A 
ATOM      9  C   UNL     1      12.001 -25.935 -46.013  1.00  0.00     0.016 A 
ATOM     10  C   UNL     1      11.988 -26.144 -47.393  1.00  0.00     0.002 A 
ATOM     11  C   UNL     1      12.217 -25.085 -48.279  1.00  0.00     0.010 A 
ATOM     12  C   UNL     1      12.485 -23.800 -47.771  1.00  0.00     0.004 A 
ATOM     13  C   UNL     1      12.772 -22.538 -48.362  1.00  0.00    -0.019 A 
ATOM     14  C   UNL     1      12.866 -22.147 -49.798  1.00  0.00     0.041 C 
ATOM     15  H   UNL     1      12.912 -21.902 -45.219  1.00  0.00     0.166 HD
ENDROOT
BRANCH   8  16
ATOM     16  C   UNL     1      12.238 -24.371 -44.011  1.00  0.00     0.259 C 
ATOM     17  O   UNL     1      11.542 -23.453 -43.588  1.00  0.00    -0.269 OA
ATOM     18  N   UNL     1      12.970 -25.251 -43.236  1.00  0.00    -0.301 N 
ATOM     19  C   UNL     1      13.259 -25.125 -41.912  1.00  0.00     0.163 C 
ATOM     20  N   UNL     1      12.936 -24.167 -41.120  1.00  0.00    -0.261 NA
ATOM     21  S   UNL     1      14.169 -26.462 -41.279  1.00  0.00    -0.087 SA
ATOM     22  C   UNL     1      13.522 -24.424 -39.789  1.00  0.00     0.156 C 
ATOM     23  C   UNL     1      13.764 -25.915 -39.608  1.00  0.00     0.102 C 
ATOM     24  H   UNL     1      13.344 -26.085 -43.661  1.00  0.00     0.172 HD
ENDBRANCH   8  16
TORSDOF 1
ENDMDL
