REMARK SMILES CC[NH+]1CCN(Cc2nc(N)nc(Nc3ccccc3OC)n2)CC1
REMARK SMILES IDX 8 1 9 2 10 3 12 4 13 5 23 6 7 7 6 8 3 9 4 10 25 11 5 12
REMARK SMILES IDX 24 13 2 15 1 16 11 17 14 20 15 22 16 23 20 24 17 25 19 26
REMARK SMILES IDX 18 27 21 28 22 29
REMARK H PARENT 3 14 11 18 11 19 14 21
ROOT
ATOM      1  C   UNL     1       1.439   1.247   1.510  1.00  0.00     0.150 A 
ATOM      2  N   UNL     1       2.536   0.527   1.751  1.00  0.00    -0.197 NA
ATOM      3  C   UNL     1       3.224   0.183   0.675  1.00  0.00     0.225 A 
ATOM      4  N   UNL     1       2.846   0.408  -0.568  1.00  0.00    -0.177 NA
ATOM      5  C   UNL     1       1.708   1.077  -0.730  1.00  0.00     0.232 A 
ATOM      6  N   UNL     1       0.965   1.491   0.292  1.00  0.00    -0.196 NA
ENDROOT
BRANCH   1   7
ATOM      7  C   UNL     1       0.571   1.644   2.694  1.00  0.00     0.162 C 
BRANCH   7   8
ATOM      8  N   UNL     1      -0.142   0.549   3.391  1.00  0.00    -0.285 NA
ATOM      9  N   UNL     1       0.807  -1.928   2.355  1.00  0.00    -0.333 N 
ATOM     10  C   UNL     1       0.778  -1.789   3.863  1.00  0.00     0.278 C 
ATOM     11  C   UNL     1      -0.474  -1.391   1.729  1.00  0.00     0.278 C 
ATOM     12  C   UNL     1       0.712  -0.292   4.243  1.00  0.00     0.146 C 
ATOM     13  C   UNL     1      -1.066  -0.212   2.542  1.00  0.00     0.146 C 
ATOM     14  H   UNL     1       1.566  -1.298   2.050  1.00  0.00     0.348 HD
BRANCH   9  15
ATOM     15  C   UNL     1       1.176  -3.317   1.910  1.00  0.00     0.258 C 
ATOM     16  C   UNL     1       1.426  -3.369   0.415  1.00  0.00     0.071 C 
ENDBRANCH   9  15
ENDBRANCH   7   8
ENDBRANCH   1   7
BRANCH   3  17
ATOM     17  N   UNL     1       4.368  -0.562   0.875  1.00  0.00    -0.368 N 
ATOM     18  H   UNL     1       4.840  -0.266   1.722  1.00  0.00     0.159 HD
ATOM     19  H   UNL     1       4.946  -0.516   0.041  1.00  0.00     0.159 HD
ENDBRANCH   3  17
BRANCH   5  20
ATOM     20  N   UNL     1       1.300   1.259  -2.041  1.00  0.00    -0.321 N 
ATOM     21  H   UNL     1       1.965   0.876  -2.704  1.00  0.00     0.170 HD
BRANCH  20  22
ATOM     22  C   UNL     1       0.211   1.895  -2.664  1.00  0.00     0.083 A 
ATOM     23  C   UNL     1      -0.780   2.597  -1.968  1.00  0.00     0.030 A 
ATOM     24  C   UNL     1       0.105   1.798  -4.074  1.00  0.00     0.142 A 
ATOM     25  C   UNL     1      -1.847   3.192  -2.646  1.00  0.00     0.002 A 
ATOM     26  C   UNL     1      -0.967   2.393  -4.746  1.00  0.00     0.048 A 
ATOM     27  C   UNL     1      -1.940   3.089  -4.030  1.00  0.00     0.004 A 
BRANCH  24  28
ATOM     28  O   UNL     1       1.117   1.086  -4.682  1.00  0.00    -0.495 OA
ATOM     29  C   UNL     1       1.108   1.041  -6.105  1.00  0.00     0.278 C 
ENDBRANCH  24  28
ENDBRANCH  20  22
ENDBRANCH   5  20
TORSDOF 7
