MODEL 1
REMARK VINA RESULT:    -7.991      0.000      0.000
REMARK INTER + INTRA:         -10.160
REMARK INTER:                  -9.860
REMARK INTRA:                  -0.300
REMARK UNBOUND:                -0.300
REMARK SMILES CC1(C)CC(NC(=O)CCN2C(=O)c3ccccc3S2(=O)=O)CC(C)(C)[NH2+]1
REMARK SMILES IDX 6 1 7 2 8 3 5 5 2 6 4 7 27 8 24 9 23 10 1 11 3 12 25 15
REMARK SMILES IDX 26 16 9 17 10 18 11 19 12 20 20 21 13 22 14 23 19 24 21 25
REMARK SMILES IDX 22 26 15 27 18 28 16 29 17 30
REMARK H PARENT 6 4 27 13 27 14
ROOT
ATOM      1  N   UNL     1      15.161 -23.924 -46.809  1.00  0.00    -0.353 N 
ATOM      2  C   UNL     1      16.131 -23.302 -46.054  1.00  0.00     0.222 C 
ATOM      3  O   UNL     1      16.031 -22.133 -45.692  1.00  0.00    -0.275 OA
ATOM      4  H   UNL     1      15.243 -24.933 -46.959  1.00  0.00     0.163 HD
ENDROOT
BRANCH   1   5
ATOM      5  C   UNL     1      13.931 -23.237 -47.152  1.00  0.00     0.094 C 
ATOM      6  C   UNL     1      11.764 -23.389 -48.437  1.00  0.00     0.093 C 
ATOM      7  C   UNL     1      13.176 -23.964 -48.262  1.00  0.00     0.093 C 
ATOM      8  N   UNL     1      11.764 -21.894 -48.153  1.00  0.00    -0.337 N 
ATOM      9  C   UNL     1      13.048 -21.106 -48.312  1.00  0.00     0.093 C 
ATOM     10  C   UNL     1      14.196 -21.778 -47.532  1.00  0.00     0.093 C 
ATOM     11  C   UNL     1      11.233 -23.627 -49.856  1.00  0.00     0.079 C 
ATOM     12  C   UNL     1      10.783 -24.026 -47.436  1.00  0.00     0.079 C 
ATOM     13  H   UNL     1      11.446 -21.761 -47.180  1.00  0.00     0.347 HD
ATOM     14  H   UNL     1      11.022 -21.449 -48.713  1.00  0.00     0.347 HD
ATOM     15  C   UNL     1      13.374 -20.960 -49.803  1.00  0.00     0.079 C 
ATOM     16  C   UNL     1      12.767 -19.706 -47.738  1.00  0.00     0.079 C 
ENDBRANCH   1   5
BRANCH   2  17
ATOM     17  C   UNL     1      17.324 -24.162 -45.712  1.00  0.00     0.123 C 
BRANCH  17  18
ATOM     18  C   UNL     1      16.967 -25.249 -44.709  1.00  0.00     0.149 C 
BRANCH  18  19
ATOM     19  N   UNL     1      16.223 -24.775 -43.525  1.00  0.00    -0.231 N 
ATOM     20  C   UNL     1      14.854 -25.061 -43.282  1.00  0.00     0.269 C 
ATOM     21  S   UNL     1      17.049 -24.289 -42.138  1.00  0.00     0.267 S 
ATOM     22  O   UNL     1      14.062 -25.467 -44.110  1.00  0.00    -0.268 OA
ATOM     23  C   UNL     1      14.537 -24.784 -41.870  1.00  0.00     0.061 A 
ATOM     24  C   UNL     1      15.635 -24.363 -41.135  1.00  0.00     0.100 A 
ATOM     25  O   UNL     1      17.974 -25.320 -41.746  1.00  0.00    -0.201 OA
ATOM     26  O   UNL     1      17.423 -22.901 -42.318  1.00  0.00    -0.201 OA
ATOM     27  C   UNL     1      13.296 -24.920 -41.266  1.00  0.00     0.015 A 
ATOM     28  C   UNL     1      15.562 -24.057 -39.788  1.00  0.00     0.023 A 
ATOM     29  C   UNL     1      13.192 -24.616 -39.904  1.00  0.00     0.001 A 
ATOM     30  C   UNL     1      14.316 -24.189 -39.172  1.00  0.00     0.001 A 
ENDBRANCH  18  19
ENDBRANCH  17  18
ENDBRANCH   2  17
TORSDOF 4
ENDMDL
MODEL 2
REMARK VINA RESULT:    -7.987      3.047      8.193
REMARK INTER + INTRA:         -10.154
REMARK INTER:                  -9.365
REMARK INTRA:                  -0.789
REMARK UNBOUND:                -0.300
REMARK SMILES CC1(C)CC(NC(=O)CCN2C(=O)c3ccccc3S2(=O)=O)CC(C)(C)[NH2+]1
REMARK SMILES IDX 6 1 7 2 8 3 5 5 2 6 4 7 27 8 24 9 23 10 1 11 3 12 25 15
REMARK SMILES IDX 26 16 9 17 10 18 11 19 12 20 20 21 13 22 14 23 19 24 21 25
REMARK SMILES IDX 22 26 15 27 18 28 16 29 17 30
REMARK H PARENT 6 4 27 13 27 14
ROOT
ATOM      1  N   UNL     1      12.767 -25.440 -43.769  1.00  0.00    -0.353 N 
ATOM      2  C   UNL     1      11.929 -24.650 -44.527  1.00  0.00     0.222 C 
ATOM      3  O   UNL     1      11.761 -23.457 -44.290  1.00  0.00    -0.275 OA
ATOM      4  H   UNL     1      12.964 -26.388 -44.103  1.00  0.00     0.163 HD
ENDROOT
BRANCH   1   5
ATOM      5  C   UNL     1      13.552 -24.872 -42.692  1.00  0.00     0.094 C 
ATOM      6  C   UNL     1      15.863 -24.672 -41.697  1.00  0.00     0.093 C 
ATOM      7  C   UNL     1      14.961 -25.458 -42.658  1.00  0.00     0.093 C 
ATOM      8  N   UNL     1      15.053 -24.159 -40.515  1.00  0.00    -0.337 N 
ATOM      9  C   UNL     1      13.778 -24.874 -40.120  1.00  0.00     0.093 C 
ATOM     10  C   UNL     1      12.852 -25.046 -41.342  1.00  0.00     0.093 C 
ATOM     11  C   UNL     1      17.015 -25.539 -41.174  1.00  0.00     0.079 C 
ATOM     12  C   UNL     1      16.459 -23.434 -42.390  1.00  0.00     0.079 C 
ATOM     13  H   UNL     1      14.802 -23.178 -40.711  1.00  0.00     0.347 HD
ATOM     14  H   UNL     1      15.671 -24.091 -39.693  1.00  0.00     0.347 HD
ATOM     15  C   UNL     1      14.128 -26.218 -39.470  1.00  0.00     0.079 C 
ATOM     16  C   UNL     1      13.098 -23.988 -39.062  1.00  0.00     0.079 C 
ENDBRANCH   1   5
BRANCH   2  17
ATOM     17  C   UNL     1      11.231 -25.363 -45.661  1.00  0.00     0.123 C 
BRANCH  17  18
ATOM     18  C   UNL     1      12.085 -25.392 -46.919  1.00  0.00     0.149 C 
BRANCH  18  19
ATOM     19  N   UNL     1      12.248 -24.084 -47.584  1.00  0.00    -0.231 N 
ATOM     20  C   UNL     1      13.443 -23.318 -47.545  1.00  0.00     0.269 C 
ATOM     21  S   UNL     1      11.219 -23.630 -48.839  1.00  0.00     0.267 S 
ATOM     22  O   UNL     1      14.357 -23.480 -46.759  1.00  0.00    -0.268 OA
ATOM     23  C   UNL     1      13.404 -22.290 -48.600  1.00  0.00     0.061 A 
ATOM     24  C   UNL     1      12.257 -22.348 -49.378  1.00  0.00     0.100 A 
ATOM     25  O   UNL     1      11.186 -24.674 -49.831  1.00  0.00    -0.201 OA
ATOM     26  O   UNL     1      10.032 -23.052 -48.243  1.00  0.00    -0.201 OA
ATOM     27  C   UNL     1      14.380 -21.339 -48.855  1.00  0.00     0.015 A 
ATOM     28  C   UNL     1      12.020 -21.481 -50.429  1.00  0.00     0.023 A 
ATOM     29  C   UNL     1      14.167 -20.448 -49.913  1.00  0.00     0.001 A 
ATOM     30  C   UNL     1      12.997 -20.519 -50.692  1.00  0.00     0.001 A 
ENDBRANCH  18  19
ENDBRANCH  17  18
ENDBRANCH   2  17
TORSDOF 4
ENDMDL
MODEL 3
REMARK VINA RESULT:    -7.752      1.424      3.066
REMARK INTER + INTRA:          -9.864
REMARK INTER:                  -8.906
REMARK INTRA:                  -0.958
REMARK UNBOUND:                -0.300
REMARK SMILES CC1(C)CC(NC(=O)CCN2C(=O)c3ccccc3S2(=O)=O)CC(C)(C)[NH2+]1
REMARK SMILES IDX 6 1 7 2 8 3 5 5 2 6 4 7 27 8 24 9 23 10 1 11 3 12 25 15
REMARK SMILES IDX 26 16 9 17 10 18 11 19 12 20 20 21 13 22 14 23 19 24 21 25
REMARK SMILES IDX 22 26 15 27 18 28 16 29 17 30
REMARK H PARENT 6 4 27 13 27 14
ROOT
ATOM      1  N   UNL     1      15.161 -24.341 -45.805  1.00  0.00    -0.353 N 
ATOM      2  C   UNL     1      16.493 -24.027 -45.638  1.00  0.00     0.222 C 
ATOM      3  O   UNL     1      17.140 -23.435 -46.497  1.00  0.00    -0.275 OA
ATOM      4  H   UNL     1      14.650 -24.712 -44.999  1.00  0.00     0.163 HD
ENDROOT
BRANCH   1   5
ATOM      5  C   UNL     1      14.440 -23.915 -46.988  1.00  0.00     0.094 C 
ATOM      6  C   UNL     1      13.382 -21.954 -48.174  1.00  0.00     0.093 C 
ATOM      7  C   UNL     1      13.909 -22.492 -46.836  1.00  0.00     0.093 C 
ATOM      8  N   UNL     1      12.768 -23.081 -48.990  1.00  0.00    -0.337 N 
ATOM      9  C   UNL     1      12.242 -24.312 -48.283  1.00  0.00     0.093 C 
ATOM     10  C   UNL     1      13.311 -24.889 -47.332  1.00  0.00     0.093 C 
ATOM     11  C   UNL     1      12.329 -20.859 -47.962  1.00  0.00     0.079 C 
ATOM     12  C   UNL     1      14.527 -21.371 -49.021  1.00  0.00     0.079 C 
ATOM     13  H   UNL     1      13.480 -23.401 -49.665  1.00  0.00     0.347 HD
ATOM     14  H   UNL     1      12.025 -22.692 -49.589  1.00  0.00     0.347 HD
ATOM     15  C   UNL     1      10.945 -23.960 -47.544  1.00  0.00     0.079 C 
ATOM     16  C   UNL     1      11.908 -25.333 -49.385  1.00  0.00     0.079 C 
ENDBRANCH   1   5
BRANCH   2  17
ATOM     17  C   UNL     1      17.094 -24.471 -44.325  1.00  0.00     0.123 C 
BRANCH  17  18
ATOM     18  C   UNL     1      16.458 -25.757 -43.820  1.00  0.00     0.149 C 
BRANCH  18  19
ATOM     19  N   UNL     1      15.728 -25.624 -42.544  1.00  0.00    -0.231 N 
ATOM     20  C   UNL     1      16.357 -25.417 -41.289  1.00  0.00     0.269 C 
ATOM     21  S   UNL     1      14.093 -25.210 -42.536  1.00  0.00     0.267 S 
ATOM     22  O   UNL     1      17.534 -25.603 -41.052  1.00  0.00    -0.268 OA
ATOM     23  C   UNL     1      15.360 -24.948 -40.310  1.00  0.00     0.061 A 
ATOM     24  C   UNL     1      14.093 -24.789 -40.853  1.00  0.00     0.100 A 
ATOM     25  O   UNL     1      13.896 -24.025 -43.331  1.00  0.00    -0.201 OA
ATOM     26  O   UNL     1      13.333 -26.431 -42.713  1.00  0.00    -0.201 OA
ATOM     27  C   UNL     1      15.593 -24.664 -38.973  1.00  0.00     0.015 A 
ATOM     28  C   UNL     1      13.011 -24.350 -40.112  1.00  0.00     0.023 A 
ATOM     29  C   UNL     1      14.516 -24.218 -38.199  1.00  0.00     0.001 A 
ATOM     30  C   UNL     1      13.236 -24.063 -38.765  1.00  0.00     0.001 A 
ENDBRANCH  18  19
ENDBRANCH  17  18
ENDBRANCH   2  17
TORSDOF 4
ENDMDL
MODEL 4
REMARK VINA RESULT:    -7.670      3.220      7.811
REMARK INTER + INTRA:          -9.764
REMARK INTER:                  -8.829
REMARK INTRA:                  -0.935
REMARK UNBOUND:                -0.300
REMARK SMILES CC1(C)CC(NC(=O)CCN2C(=O)c3ccccc3S2(=O)=O)CC(C)(C)[NH2+]1
REMARK SMILES IDX 6 1 7 2 8 3 5 5 2 6 4 7 27 8 24 9 23 10 1 11 3 12 25 15
REMARK SMILES IDX 26 16 9 17 10 18 11 19 12 20 20 21 13 22 14 23 19 24 21 25
REMARK SMILES IDX 22 26 15 27 18 28 16 29 17 30
REMARK H PARENT 6 4 27 13 27 14
ROOT
ATOM      1  N   UNL     1      14.365 -22.083 -46.049  1.00  0.00    -0.353 N 
ATOM      2  C   UNL     1      14.442 -21.687 -47.367  1.00  0.00     0.222 C 
ATOM      3  O   UNL     1      15.334 -22.075 -48.116  1.00  0.00    -0.275 OA
ATOM      4  H   UNL     1      13.524 -21.832 -45.521  1.00  0.00     0.163 HD
ENDROOT
BRANCH   1   5
ATOM      5  C   UNL     1      15.303 -23.045 -45.505  1.00  0.00     0.094 C 
ATOM      6  C   UNL     1      15.546 -25.295 -44.386  1.00  0.00     0.093 C 
ATOM      7  C   UNL     1      14.585 -24.149 -44.731  1.00  0.00     0.093 C 
ATOM      8  N   UNL     1      16.944 -24.752 -44.130  1.00  0.00    -0.337 N 
ATOM      9  C   UNL     1      17.115 -23.315 -43.686  1.00  0.00     0.093 C 
ATOM     10  C   UNL     1      16.359 -22.361 -44.635  1.00  0.00     0.093 C 
ATOM     11  C   UNL     1      15.075 -26.069 -43.149  1.00  0.00     0.079 C 
ATOM     12  C   UNL     1      15.668 -26.282 -45.561  1.00  0.00     0.079 C 
ATOM     13  H   UNL     1      17.488 -24.868 -44.998  1.00  0.00     0.347 HD
ATOM     14  H   UNL     1      17.424 -25.372 -43.460  1.00  0.00     0.347 HD
ATOM     15  C   UNL     1      16.645 -23.171 -42.233  1.00  0.00     0.079 C 
ATOM     16  C   UNL     1      18.625 -23.025 -43.737  1.00  0.00     0.079 C 
ENDBRANCH   1   5
BRANCH   2  17
ATOM     17  C   UNL     1      13.356 -20.738 -47.813  1.00  0.00     0.123 C 
BRANCH  17  18
ATOM     18  C   UNL     1      11.971 -21.267 -47.475  1.00  0.00     0.149 C 
BRANCH  18  19
ATOM     19  N   UNL     1      11.433 -22.247 -48.439  1.00  0.00    -0.231 N 
ATOM     20  C   UNL     1      11.387 -22.035 -49.842  1.00  0.00     0.269 C 
ATOM     21  S   UNL     1      11.294 -23.873 -48.015  1.00  0.00     0.267 S 
ATOM     22  O   UNL     1      11.505 -20.960 -50.397  1.00  0.00    -0.268 OA
ATOM     23  C   UNL     1      11.166 -23.322 -50.527  1.00  0.00     0.061 A 
ATOM     24  C   UNL     1      11.101 -24.400 -49.658  1.00  0.00     0.100 A 
ATOM     25  O   UNL     1      12.556 -24.342 -47.503  1.00  0.00    -0.201 OA
ATOM     26  O   UNL     1      10.034 -24.036 -47.320  1.00  0.00    -0.201 OA
ATOM     27  C   UNL     1      11.039 -23.512 -51.895  1.00  0.00     0.015 A 
ATOM     28  C   UNL     1      10.907 -25.700 -50.089  1.00  0.00     0.023 A 
ATOM     29  C   UNL     1      10.842 -24.817 -52.360  1.00  0.00     0.001 A 
ATOM     30  C   UNL     1      10.777 -25.901 -51.465  1.00  0.00     0.001 A 
ENDBRANCH  18  19
ENDBRANCH  17  18
ENDBRANCH   2  17
TORSDOF 4
ENDMDL
MODEL 5
REMARK VINA RESULT:    -7.607      3.830      6.658
REMARK INTER + INTRA:          -9.686
REMARK INTER:                  -9.243
REMARK INTRA:                  -0.443
REMARK UNBOUND:                -0.300
REMARK SMILES CC1(C)CC(NC(=O)CCN2C(=O)c3ccccc3S2(=O)=O)CC(C)(C)[NH2+]1
REMARK SMILES IDX 6 1 7 2 8 3 5 5 2 6 4 7 27 8 24 9 23 10 1 11 3 12 25 15
REMARK SMILES IDX 26 16 9 17 10 18 11 19 12 20 20 21 13 22 14 23 19 24 21 25
REMARK SMILES IDX 22 26 15 27 18 28 16 29 17 30
REMARK H PARENT 6 4 27 13 27 14
ROOT
ATOM      1  N   UNL     1       9.922 -22.733 -49.828  1.00  0.00    -0.353 N 
ATOM      2  C   UNL     1      11.076 -22.452 -50.528  1.00  0.00     0.222 C 
ATOM      3  O   UNL     1      11.290 -22.907 -51.648  1.00  0.00    -0.275 OA
ATOM      4  H   UNL     1       9.748 -22.215 -48.963  1.00  0.00     0.163 HD
ENDROOT
BRANCH   1   5
ATOM      5  C   UNL     1       8.867 -23.528 -50.424  1.00  0.00     0.094 C 
ATOM      6  C   UNL     1       6.888 -23.501 -51.992  1.00  0.00     0.093 C 
ATOM      7  C   UNL     1       7.848 -22.650 -51.148  1.00  0.00     0.093 C 
ATOM      8  N   UNL     1       6.631 -24.837 -51.312  1.00  0.00    -0.337 N 
ATOM      9  C   UNL     1       6.804 -24.955 -49.812  1.00  0.00     0.093 C 
ATOM     10  C   UNL     1       8.184 -24.416 -49.382  1.00  0.00     0.093 C 
ATOM     11  C   UNL     1       5.550 -22.785 -52.211  1.00  0.00     0.079 C 
ATOM     12  C   UNL     1       7.502 -23.820 -53.368  1.00  0.00     0.079 C 
ATOM     13  H   UNL     1       7.258 -25.533 -51.744  1.00  0.00     0.347 HD
ATOM     14  H   UNL     1       5.689 -25.166 -51.571  1.00  0.00     0.347 HD
ATOM     15  C   UNL     1       5.656 -24.222 -49.108  1.00  0.00     0.079 C 
ATOM     16  C   UNL     1       6.695 -26.454 -49.482  1.00  0.00     0.079 C 
ENDBRANCH   1   5
BRANCH   2  17
ATOM     17  C   UNL     1      12.055 -21.553 -49.812  1.00  0.00     0.123 C 
BRANCH  17  18
ATOM     18  C   UNL     1      11.966 -21.712 -48.301  1.00  0.00     0.149 C 
BRANCH  18  19
ATOM     19  N   UNL     1      13.021 -22.558 -47.708  1.00  0.00    -0.231 N 
ATOM     20  C   UNL     1      14.410 -22.302 -47.840  1.00  0.00     0.269 C 
ATOM     21  S   UNL     1      12.662 -23.594 -46.426  1.00  0.00     0.267 S 
ATOM     22  O   UNL     1      14.915 -21.560 -48.660  1.00  0.00    -0.268 OA
ATOM     23  C   UNL     1      15.153 -23.082 -46.834  1.00  0.00     0.061 A 
ATOM     24  C   UNL     1      14.329 -23.823 -45.999  1.00  0.00     0.100 A 
ATOM     25  O   UNL     1      11.995 -22.854 -45.386  1.00  0.00    -0.201 OA
ATOM     26  O   UNL     1      12.150 -24.825 -46.991  1.00  0.00    -0.201 OA
ATOM     27  C   UNL     1      16.530 -23.112 -46.670  1.00  0.00     0.015 A 
ATOM     28  C   UNL     1      14.817 -24.620 -44.979  1.00  0.00     0.023 A 
ATOM     29  C   UNL     1      17.052 -23.910 -45.647  1.00  0.00     0.001 A 
ATOM     30  C   UNL     1      16.202 -24.657 -44.809  1.00  0.00     0.001 A 
ENDBRANCH  18  19
ENDBRANCH  17  18
ENDBRANCH   2  17
TORSDOF 4
ENDMDL
MODEL 6
REMARK VINA RESULT:    -7.577      2.706      4.620
REMARK INTER + INTRA:          -9.649
REMARK INTER:                  -8.910
REMARK INTRA:                  -0.739
REMARK UNBOUND:                -0.300
REMARK SMILES CC1(C)CC(NC(=O)CCN2C(=O)c3ccccc3S2(=O)=O)CC(C)(C)[NH2+]1
REMARK SMILES IDX 6 1 7 2 8 3 5 5 2 6 4 7 27 8 24 9 23 10 1 11 3 12 25 15
REMARK SMILES IDX 26 16 9 17 10 18 11 19 12 20 20 21 13 22 14 23 19 24 21 25
REMARK SMILES IDX 22 26 15 27 18 28 16 29 17 30
REMARK H PARENT 6 4 27 13 27 14
ROOT
ATOM      1  N   UNL     1      11.721 -23.278 -49.070  1.00  0.00    -0.353 N 
ATOM      2  C   UNL     1      12.698 -23.968 -48.384  1.00  0.00     0.222 C 
ATOM      3  O   UNL     1      12.677 -25.190 -48.266  1.00  0.00    -0.275 OA
ATOM      4  H   UNL     1      11.872 -22.281 -49.245  1.00  0.00     0.163 HD
ENDROOT
BRANCH   1   5
ATOM      5  C   UNL     1      10.653 -23.982 -49.750  1.00  0.00     0.094 C 
ATOM      6  C   UNL     1       9.795 -24.779 -51.987  1.00  0.00     0.093 C 
ATOM      7  C   UNL     1      10.759 -23.827 -51.266  1.00  0.00     0.093 C 
ATOM      8  N   UNL     1       8.525 -24.963 -51.168  1.00  0.00    -0.337 N 
ATOM      9  C   UNL     1       8.110 -23.888 -50.186  1.00  0.00     0.093 C 
ATOM     10  C   UNL     1       9.280 -23.531 -49.246  1.00  0.00     0.093 C 
ATOM     11  C   UNL     1       9.421 -24.252 -53.377  1.00  0.00     0.079 C 
ATOM     12  C   UNL     1      10.420 -26.177 -52.147  1.00  0.00     0.079 C 
ATOM     13  H   UNL     1       8.623 -25.840 -50.634  1.00  0.00     0.347 HD
ATOM     14  H   UNL     1       7.741 -25.157 -51.809  1.00  0.00     0.347 HD
ATOM     15  C   UNL     1       7.598 -22.665 -50.956  1.00  0.00     0.079 C 
ATOM     16  C   UNL     1       6.940 -24.473 -49.376  1.00  0.00     0.079 C 
ENDBRANCH   1   5
BRANCH   2  17
ATOM     17  C   UNL     1      13.787 -23.109 -47.787  1.00  0.00     0.123 C 
BRANCH  17  18
ATOM     18  C   UNL     1      13.347 -22.467 -46.480  1.00  0.00     0.149 C 
BRANCH  18  19
ATOM     19  N   UNL     1      13.745 -23.207 -45.266  1.00  0.00    -0.231 N 
ATOM     20  C   UNL     1      14.916 -22.925 -44.514  1.00  0.00     0.269 C 
ATOM     21  S   UNL     1      12.607 -24.099 -44.400  1.00  0.00     0.267 S 
ATOM     22  O   UNL     1      15.861 -22.266 -44.903  1.00  0.00    -0.268 OA
ATOM     23  C   UNL     1      14.815 -23.562 -43.188  1.00  0.00     0.061 A 
ATOM     24  C   UNL     1      13.613 -24.227 -42.992  1.00  0.00     0.100 A 
ATOM     25  O   UNL     1      11.469 -23.267 -44.106  1.00  0.00    -0.201 OA
ATOM     26  O   UNL     1      12.508 -25.403 -45.024  1.00  0.00    -0.201 OA
ATOM     27  C   UNL     1      15.774 -23.530 -42.187  1.00  0.00     0.015 A 
ATOM     28  C   UNL     1      13.306 -24.886 -41.815  1.00  0.00     0.023 A 
ATOM     29  C   UNL     1      15.490 -24.189 -40.987  1.00  0.00     0.001 A 
ATOM     30  C   UNL     1      14.267 -24.861 -40.803  1.00  0.00     0.001 A 
ENDBRANCH  18  19
ENDBRANCH  17  18
ENDBRANCH   2  17
TORSDOF 4
ENDMDL
MODEL 7
REMARK VINA RESULT:    -7.549      2.178      7.586
REMARK INTER + INTRA:          -9.615
REMARK INTER:                  -9.178
REMARK INTRA:                  -0.436
REMARK UNBOUND:                -0.300
REMARK SMILES CC1(C)CC(NC(=O)CCN2C(=O)c3ccccc3S2(=O)=O)CC(C)(C)[NH2+]1
REMARK SMILES IDX 6 1 7 2 8 3 5 5 2 6 4 7 27 8 24 9 23 10 1 11 3 12 25 15
REMARK SMILES IDX 26 16 9 17 10 18 11 19 12 20 20 21 13 22 14 23 19 24 21 25
REMARK SMILES IDX 22 26 15 27 18 28 16 29 17 30
REMARK H PARENT 6 4 27 13 27 14
ROOT
ATOM      1  N   UNL     1      15.343 -24.105 -44.000  1.00  0.00    -0.353 N 
ATOM      2  C   UNL     1      15.958 -24.693 -45.084  1.00  0.00     0.222 C 
ATOM      3  O   UNL     1      16.407 -25.835 -45.042  1.00  0.00    -0.275 OA
ATOM      4  H   UNL     1      14.873 -23.206 -44.144  1.00  0.00     0.163 HD
ENDROOT
BRANCH   1   5
ATOM      5  C   UNL     1      15.134 -24.845 -42.772  1.00  0.00     0.094 C 
ATOM      6  C   UNL     1      13.619 -25.158 -40.776  1.00  0.00     0.093 C 
ATOM      7  C   UNL     1      14.014 -24.231 -41.934  1.00  0.00     0.093 C 
ATOM      8  N   UNL     1      14.837 -25.914 -40.268  1.00  0.00    -0.337 N 
ATOM      9  C   UNL     1      16.218 -25.331 -40.480  1.00  0.00     0.093 C 
ATOM     10  C   UNL     1      16.427 -24.956 -41.962  1.00  0.00     0.093 C 
ATOM     11  C   UNL     1      12.999 -24.371 -39.615  1.00  0.00     0.079 C 
ATOM     12  C   UNL     1      12.606 -26.219 -41.243  1.00  0.00     0.079 C 
ATOM     13  H   UNL     1      14.832 -26.847 -40.709  1.00  0.00     0.347 HD
ATOM     14  H   UNL     1      14.707 -26.120 -39.266  1.00  0.00     0.347 HD
ATOM     15  C   UNL     1      16.410 -24.126 -39.550  1.00  0.00     0.079 C 
ATOM     16  C   UNL     1      17.217 -26.426 -40.065  1.00  0.00     0.079 C 
ENDBRANCH   1   5
BRANCH   2  17
ATOM     17  C   UNL     1      16.042 -23.828 -46.319  1.00  0.00     0.123 C 
BRANCH  17  18
ATOM     18  C   UNL     1      15.261 -22.533 -46.155  1.00  0.00     0.149 C 
BRANCH  18  19
ATOM     19  N   UNL     1      13.979 -22.490 -46.885  1.00  0.00    -0.231 N 
ATOM     20  C   UNL     1      13.844 -22.035 -48.223  1.00  0.00     0.269 C 
ATOM     21  S   UNL     1      12.676 -23.432 -46.377  1.00  0.00     0.267 S 
ATOM     22  O   UNL     1      14.666 -21.376 -48.829  1.00  0.00    -0.268 OA
ATOM     23  C   UNL     1      12.547 -22.478 -48.765  1.00  0.00     0.061 A 
ATOM     24  C   UNL     1      11.815 -23.247 -47.873  1.00  0.00     0.100 A 
ATOM     25  O   UNL     1      13.102 -24.799 -46.230  1.00  0.00    -0.201 OA
ATOM     26  O   UNL     1      11.981 -22.692 -45.343  1.00  0.00    -0.201 OA
ATOM     27  C   UNL     1      12.050 -22.205 -50.031  1.00  0.00     0.015 A 
ATOM     28  C   UNL     1      10.573 -23.773 -48.180  1.00  0.00     0.023 A 
ATOM     29  C   UNL     1      10.795 -22.724 -50.369  1.00  0.00     0.001 A 
ATOM     30  C   UNL     1      10.064 -23.501 -49.451  1.00  0.00     0.001 A 
ENDBRANCH  18  19
ENDBRANCH  17  18
ENDBRANCH   2  17
TORSDOF 4
ENDMDL
MODEL 8
REMARK VINA RESULT:    -7.379      5.578      9.574
REMARK INTER + INTRA:          -9.404
REMARK INTER:                  -8.544
REMARK INTRA:                  -0.860
REMARK UNBOUND:                -0.300
REMARK SMILES CC1(C)CC(NC(=O)CCN2C(=O)c3ccccc3S2(=O)=O)CC(C)(C)[NH2+]1
REMARK SMILES IDX 6 1 7 2 8 3 5 5 2 6 4 7 27 8 24 9 23 10 1 11 3 12 25 15
REMARK SMILES IDX 26 16 9 17 10 18 11 19 12 20 20 21 13 22 14 23 19 24 21 25
REMARK SMILES IDX 22 26 15 27 18 28 16 29 17 30
REMARK H PARENT 6 4 27 13 27 14
ROOT
ATOM      1  N   UNL     1      11.023 -23.953 -49.464  1.00  0.00    -0.353 N 
ATOM      2  C   UNL     1      10.665 -23.211 -50.569  1.00  0.00     0.222 C 
ATOM      3  O   UNL     1      10.748 -21.986 -50.591  1.00  0.00    -0.275 OA
ATOM      4  H   UNL     1      11.058 -24.972 -49.561  1.00  0.00     0.163 HD
ENDROOT
BRANCH   1   5
ATOM      5  C   UNL     1      11.590 -23.315 -48.292  1.00  0.00     0.094 C 
ATOM      6  C   UNL     1      13.495 -21.908 -47.418  1.00  0.00     0.093 C 
ATOM      7  C   UNL     1      13.004 -22.806 -48.562  1.00  0.00     0.093 C 
ATOM      8  N   UNL     1      12.930 -22.391 -46.090  1.00  0.00    -0.337 N 
ATOM      9  C   UNL     1      12.515 -23.839 -45.940  1.00  0.00     0.093 C 
ATOM     10  C   UNL     1      11.565 -24.253 -47.083  1.00  0.00     0.093 C 
ATOM     11  C   UNL     1      15.026 -21.894 -47.335  1.00  0.00     0.079 C 
ATOM     12  C   UNL     1      13.002 -20.461 -47.604  1.00  0.00     0.079 C 
ATOM     13  H   UNL     1      12.101 -21.815 -45.876  1.00  0.00     0.347 HD
ATOM     14  H   UNL     1      13.594 -22.149 -45.339  1.00  0.00     0.347 HD
ATOM     15  C   UNL     1      13.766 -24.724 -45.883  1.00  0.00     0.079 C 
ATOM     16  C   UNL     1      11.790 -23.941 -44.586  1.00  0.00     0.079 C 
ENDBRANCH   1   5
BRANCH   2  17
ATOM     17  C   UNL     1      10.158 -24.015 -51.742  1.00  0.00     0.123 C 
BRANCH  17  18
ATOM     18  C   UNL     1       9.017 -24.939 -51.342  1.00  0.00     0.149 C 
BRANCH  18  19
ATOM     19  N   UNL     1       7.808 -24.249 -50.851  1.00  0.00    -0.231 N 
ATOM     20  C   UNL     1       6.880 -23.582 -51.692  1.00  0.00     0.269 C 
ATOM     21  S   UNL     1       7.173 -24.616 -49.333  1.00  0.00     0.267 S 
ATOM     22  O   UNL     1       7.085 -23.249 -52.843  1.00  0.00    -0.268 OA
ATOM     23  C   UNL     1       5.625 -23.349 -50.954  1.00  0.00     0.061 A 
ATOM     24  C   UNL     1       5.646 -23.862 -49.666  1.00  0.00     0.100 A 
ATOM     25  O   UNL     1       6.994 -26.041 -49.222  1.00  0.00    -0.201 OA
ATOM     26  O   UNL     1       7.887 -23.819 -48.357  1.00  0.00    -0.201 OA
ATOM     27  C   UNL     1       4.497 -22.703 -51.436  1.00  0.00     0.015 A 
ATOM     28  C   UNL     1       4.571 -23.761 -48.802  1.00  0.00     0.023 A 
ATOM     29  C   UNL     1       3.394 -22.586 -50.584  1.00  0.00     0.001 A 
ATOM     30  C   UNL     1       3.431 -23.110 -49.278  1.00  0.00     0.001 A 
ENDBRANCH  18  19
ENDBRANCH  17  18
ENDBRANCH   2  17
TORSDOF 4
ENDMDL
MODEL 9
REMARK VINA RESULT:    -7.245      3.136      7.479
REMARK INTER + INTRA:          -9.240
REMARK INTER:                  -8.569
REMARK INTRA:                  -0.670
REMARK UNBOUND:                -0.300
REMARK SMILES CC1(C)CC(NC(=O)CCN2C(=O)c3ccccc3S2(=O)=O)CC(C)(C)[NH2+]1
REMARK SMILES IDX 6 1 7 2 8 3 5 5 2 6 4 7 27 8 24 9 23 10 1 11 3 12 25 15
REMARK SMILES IDX 26 16 9 17 10 18 11 19 12 20 20 21 13 22 14 23 19 24 21 25
REMARK SMILES IDX 22 26 15 27 18 28 16 29 17 30
REMARK H PARENT 6 4 27 13 27 14
ROOT
ATOM      1  N   UNL     1      13.325 -25.248 -45.410  1.00  0.00    -0.353 N 
ATOM      2  C   UNL     1      13.135 -25.979 -46.563  1.00  0.00     0.222 C 
ATOM      3  O   UNL     1      14.072 -26.452 -47.200  1.00  0.00    -0.275 OA
ATOM      4  H   UNL     1      12.499 -25.000 -44.857  1.00  0.00     0.163 HD
ENDROOT
BRANCH   1   5
ATOM      5  C   UNL     1      14.652 -25.065 -44.855  1.00  0.00     0.094 C 
ATOM      6  C   UNL     1      15.982 -24.741 -42.734  1.00  0.00     0.093 C 
ATOM      7  C   UNL     1      14.591 -24.675 -43.380  1.00  0.00     0.093 C 
ATOM      8  N   UNL     1      17.051 -24.352 -43.745  1.00  0.00    -0.337 N 
ATOM      9  C   UNL     1      16.680 -23.470 -44.918  1.00  0.00     0.093 C 
ATOM     10  C   UNL     1      15.455 -24.043 -45.661  1.00  0.00     0.093 C 
ATOM     11  C   UNL     1      16.081 -23.812 -41.519  1.00  0.00     0.079 C 
ATOM     12  C   UNL     1      16.310 -26.175 -42.280  1.00  0.00     0.079 C 
ATOM     13  H   UNL     1      17.446 -25.222 -44.133  1.00  0.00     0.347 HD
ATOM     14  H   UNL     1      17.846 -23.929 -43.242  1.00  0.00     0.347 HD
ATOM     15  C   UNL     1      16.435 -22.039 -44.423  1.00  0.00     0.079 C 
ATOM     16  C   UNL     1      17.905 -23.456 -45.850  1.00  0.00     0.079 C 
ENDBRANCH   1   5
BRANCH   2  17
ATOM     17  C   UNL     1      11.694 -26.148 -46.982  1.00  0.00     0.123 C 
BRANCH  17  18
ATOM     18  C   UNL     1      10.855 -24.931 -46.620  1.00  0.00     0.149 C 
BRANCH  18  19
ATOM     19  N   UNL     1      11.160 -23.717 -47.403  1.00  0.00    -0.231 N 
ATOM     20  C   UNL     1      11.969 -22.652 -46.930  1.00  0.00     0.269 C 
ATOM     21  S   UNL     1      10.991 -23.720 -49.080  1.00  0.00     0.267 S 
ATOM     22  O   UNL     1      12.272 -22.459 -45.769  1.00  0.00    -0.268 OA
ATOM     23  C   UNL     1      12.383 -21.807 -48.065  1.00  0.00     0.061 A 
ATOM     24  C   UNL     1      11.926 -22.273 -49.289  1.00  0.00     0.100 A 
ATOM     25  O   UNL     1      11.706 -24.841 -49.631  1.00  0.00    -0.201 OA
ATOM     26  O   UNL     1       9.604 -23.427 -49.379  1.00  0.00    -0.201 OA
ATOM     27  C   UNL     1      13.159 -20.659 -47.994  1.00  0.00     0.015 A 
ATOM     28  C   UNL     1      12.206 -21.637 -50.485  1.00  0.00     0.023 A 
ATOM     29  C   UNL     1      13.457 -19.994 -49.188  1.00  0.00     0.001 A 
ATOM     30  C   UNL     1      12.984 -20.479 -50.423  1.00  0.00     0.001 A 
ENDBRANCH  18  19
ENDBRANCH  17  18
ENDBRANCH   2  17
TORSDOF 4
ENDMDL
