MODEL 1
REMARK VINA RESULT:    -7.357      0.000      0.000
REMARK INTER + INTRA:          -9.276
REMARK INTER:                  -8.648
REMARK INTRA:                  -0.629
REMARK UNBOUND:                -0.629
REMARK SMILES Cc1cc(C)c(C2=Nn3c(nnc3-c3ccc(C(C)(C)C)cc3)SC2)c(C)c1
REMARK SMILES IDX 7 1 8 2 9 3 10 4 11 5 12 6 13 7 24 8 25 9 6 10 2 11 3 12
REMARK SMILES IDX 28 13 4 14 26 15 1 16 5 17 27 18 14 19 15 20 23 21 16 22
REMARK SMILES IDX 22 23 17 24 18 25 19 26 20 27 21 28
REMARK H PARENT
ROOT
ATOM      1  C   UNL     1       1.385  -5.572 -31.442  1.00  0.00     0.080 C 
ATOM      2  N   UNL     1       1.022  -4.667 -32.304  1.00  0.00    -0.167 NA
ATOM      3  N   UNL     1       1.595  -3.425 -32.177  1.00  0.00    -0.187 N 
ATOM      4  C   UNL     1       2.284  -2.905 -31.106  1.00  0.00     0.212 A 
ATOM      5  N   UNL     1       2.682  -1.684 -31.343  1.00  0.00    -0.121 NA
ATOM      6  N   UNL     1       2.248  -1.363 -32.606  1.00  0.00    -0.127 NA
ATOM      7  C   UNL     1       1.567  -2.388 -33.104  1.00  0.00     0.185 A 
ATOM      8  S   UNL     1       2.515  -3.814 -29.661  1.00  0.00    -0.078 SA
ATOM      9  C   UNL     1       2.492  -5.454 -30.409  1.00  0.00     0.137 C 
ENDROOT
BRANCH   1  10
ATOM     10  C   UNL     1       0.728  -6.899 -31.520  1.00  0.00     0.004 A 
ATOM     11  C   UNL     1      -0.534  -9.390 -31.694  1.00  0.00    -0.051 A 
ATOM     12  C   UNL     1       0.561  -9.093 -32.515  1.00  0.00     0.007 A 
ATOM     13  C   UNL     1      -0.996  -8.425 -30.791  1.00  0.00     0.007 A 
ATOM     14  C   UNL     1       1.218  -7.857 -32.429  1.00  0.00    -0.041 A 
ATOM     15  C   UNL     1      -0.375  -7.173 -30.688  1.00  0.00    -0.041 A 
ATOM     16  C   UNL     1      -1.236 -10.711 -31.817  1.00  0.00     0.044 C 
ATOM     17  C   UNL     1       2.404  -7.589 -33.314  1.00  0.00     0.045 C 
ATOM     18  C   UNL     1      -0.881  -6.176 -29.682  1.00  0.00     0.045 C 
ENDBRANCH   1  10
BRANCH   7  19
ATOM     19  C   UNL     1       0.947  -2.414 -34.436  1.00  0.00     0.021 A 
ATOM     20  C   UNL     1       1.191  -3.506 -35.277  1.00  0.00     0.012 A 
ATOM     21  C   UNL     1       0.135  -1.387 -34.926  1.00  0.00     0.012 A 
ATOM     22  C   UNL     1       0.625  -3.577 -36.556  1.00  0.00     0.005 A 
ATOM     23  C   UNL     1      -0.432  -1.458 -36.209  1.00  0.00     0.005 A 
ATOM     24  C   UNL     1      -0.203  -2.556 -37.052  1.00  0.00    -0.043 A 
BRANCH  24  25
ATOM     25  C   UNL     1      -0.808  -2.665 -38.462  1.00  0.00    -0.013 C 
ATOM     26  C   UNL     1      -1.795  -3.851 -38.512  1.00  0.00     0.016 C 
ATOM     27  C   UNL     1       0.240  -2.894 -39.575  1.00  0.00     0.016 C 
ATOM     28  C   UNL     1      -1.561  -1.362 -38.807  1.00  0.00     0.016 C 
ENDBRANCH  24  25
ENDBRANCH   7  19
TORSDOF 3
ENDMDL
MODEL 2
REMARK VINA RESULT:    -7.132      0.290      1.840
REMARK INTER + INTRA:          -9.012
REMARK INTER:                  -8.441
REMARK INTRA:                  -0.570
REMARK UNBOUND:                -0.629
REMARK SMILES Cc1cc(C)c(C2=Nn3c(nnc3-c3ccc(C(C)(C)C)cc3)SC2)c(C)c1
REMARK SMILES IDX 7 1 8 2 9 3 10 4 11 5 12 6 13 7 24 8 25 9 6 10 2 11 3 12
REMARK SMILES IDX 28 13 4 14 26 15 1 16 5 17 27 18 14 19 15 20 23 21 16 22
REMARK SMILES IDX 22 23 17 24 18 25 19 26 20 27 21 28
REMARK H PARENT
ROOT
ATOM      1  C   UNL     1       1.384  -5.685 -31.696  1.00  0.00     0.080 C 
ATOM      2  N   UNL     1       0.999  -4.752 -32.519  1.00  0.00    -0.167 NA
ATOM      3  N   UNL     1       1.610  -3.528 -32.397  1.00  0.00    -0.187 N 
ATOM      4  C   UNL     1       2.365  -3.048 -31.353  1.00  0.00     0.212 A 
ATOM      5  N   UNL     1       2.781  -1.832 -31.585  1.00  0.00    -0.121 NA
ATOM      6  N   UNL     1       2.291  -1.473 -32.817  1.00  0.00    -0.127 NA
ATOM      7  C   UNL     1       1.559  -2.471 -33.300  1.00  0.00     0.185 A 
ATOM      8  S   UNL     1       2.648  -3.994 -29.941  1.00  0.00    -0.078 SA
ATOM      9  C   UNL     1       2.546  -5.616 -30.720  1.00  0.00     0.137 C 
ENDROOT
BRANCH   1  10
ATOM     10  C   UNL     1       0.691  -6.994 -31.767  1.00  0.00     0.004 A 
ATOM     11  C   UNL     1      -0.591  -9.478 -31.879  1.00  0.00    -0.051 A 
ATOM     12  C   UNL     1      -0.947  -8.542 -30.900  1.00  0.00     0.007 A 
ATOM     13  C   UNL     1       0.419  -9.162 -32.797  1.00  0.00     0.007 A 
ATOM     14  C   UNL     1      -0.328  -7.285 -30.841  1.00  0.00    -0.041 A 
ATOM     15  C   UNL     1       1.070  -7.921 -32.757  1.00  0.00    -0.041 A 
ATOM     16  C   UNL     1      -1.250 -10.826 -31.913  1.00  0.00     0.044 C 
ATOM     17  C   UNL     1      -0.758  -6.302 -29.787  1.00  0.00     0.045 C 
ATOM     18  C   UNL     1       2.126  -7.607 -33.781  1.00  0.00     0.045 C 
ENDBRANCH   1  10
BRANCH   7  19
ATOM     19  C   UNL     1       0.871  -2.452 -34.598  1.00  0.00     0.021 A 
ATOM     20  C   UNL     1       0.974  -3.569 -35.437  1.00  0.00     0.012 A 
ATOM     21  C   UNL     1       0.128  -1.363 -35.059  1.00  0.00     0.012 A 
ATOM     22  C   UNL     1       0.339  -3.600 -36.684  1.00  0.00     0.005 A 
ATOM     23  C   UNL     1      -0.510  -1.393 -36.310  1.00  0.00     0.005 A 
ATOM     24  C   UNL     1      -0.422  -2.514 -37.149  1.00  0.00    -0.043 A 
BRANCH  24  25
ATOM     25  C   UNL     1      -1.107  -2.581 -38.525  1.00  0.00    -0.013 C 
ATOM     26  C   UNL     1      -2.002  -1.338 -38.719  1.00  0.00     0.016 C 
ATOM     27  C   UNL     1      -2.004  -3.825 -38.716  1.00  0.00     0.016 C 
ATOM     28  C   UNL     1      -0.037  -2.616 -39.637  1.00  0.00     0.016 C 
ENDBRANCH  24  25
ENDBRANCH   7  19
TORSDOF 3
ENDMDL
MODEL 3
REMARK VINA RESULT:    -6.370     25.431     26.612
REMARK INTER + INTRA:          -8.116
REMARK INTER:                  -9.939
REMARK INTRA:                   1.822
REMARK UNBOUND:                -0.629
REMARK SMILES Cc1cc(C)c(C2=Nn3c(nnc3-c3ccc(C(C)(C)C)cc3)SC2)c(C)c1
REMARK SMILES IDX 7 1 8 2 9 3 10 4 11 5 12 6 13 7 24 8 25 9 6 10 2 11 3 12
REMARK SMILES IDX 28 13 4 14 26 15 1 16 5 17 27 18 14 19 15 20 23 21 16 22
REMARK SMILES IDX 22 23 17 24 18 25 19 26 20 27 21 28
REMARK H PARENT
ROOT
ATOM      1  C   UNL     1      13.070 -22.873 -46.982  1.00  0.00     0.080 C 
ATOM      2  N   UNL     1      13.191 -22.357 -48.170  1.00  0.00    -0.167 NA
ATOM      3  N   UNL     1      12.109 -22.473 -49.009  1.00  0.00    -0.187 N 
ATOM      4  C   UNL     1      11.017 -23.299 -48.889  1.00  0.00     0.212 A 
ATOM      5  N   UNL     1      10.186 -23.140 -49.884  1.00  0.00    -0.121 NA
ATOM      6  N   UNL     1      10.731 -22.184 -50.706  1.00  0.00    -0.127 NA
ATOM      7  C   UNL     1      11.901 -21.800 -50.208  1.00  0.00     0.185 A 
ATOM      8  S   UNL     1      10.864 -24.399 -47.570  1.00  0.00    -0.078 SA
ATOM      9  C   UNL     1      11.808 -23.450 -46.363  1.00  0.00     0.137 C 
ENDROOT
BRANCH   1  10
ATOM     10  C   UNL     1      14.249 -22.817 -46.084  1.00  0.00     0.004 A 
ATOM     11  C   UNL     1      16.481 -22.746 -44.399  1.00  0.00    -0.051 A 
ATOM     12  C   UNL     1      16.598 -22.375 -45.745  1.00  0.00     0.007 A 
ATOM     13  C   UNL     1      15.237 -23.160 -43.907  1.00  0.00     0.007 A 
ATOM     14  C   UNL     1      15.486 -22.386 -46.599  1.00  0.00    -0.041 A 
ATOM     15  C   UNL     1      14.108 -23.200 -44.736  1.00  0.00    -0.041 A 
ATOM     16  C   UNL     1      17.688 -22.747 -43.506  1.00  0.00     0.044 C 
ATOM     17  C   UNL     1      15.653 -21.958 -48.031  1.00  0.00     0.045 C 
ATOM     18  C   UNL     1      12.783 -23.620 -44.161  1.00  0.00     0.045 C 
ENDBRANCH   1  10
BRANCH   7  19
ATOM     19  C   UNL     1      12.778 -20.790 -50.817  1.00  0.00     0.021 A 
ATOM     20  C   UNL     1      13.127 -20.919 -52.167  1.00  0.00     0.012 A 
ATOM     21  C   UNL     1      13.310 -19.708 -50.111  1.00  0.00     0.012 A 
ATOM     22  C   UNL     1      13.961 -19.985 -52.793  1.00  0.00     0.005 A 
ATOM     23  C   UNL     1      14.147 -18.770 -50.738  1.00  0.00     0.005 A 
ATOM     24  C   UNL     1      14.489 -18.886 -52.094  1.00  0.00    -0.043 A 
BRANCH  24  25
ATOM     25  C   UNL     1      15.403 -17.878 -52.812  1.00  0.00    -0.013 C 
ATOM     26  C   UNL     1      16.318 -18.625 -53.806  1.00  0.00     0.016 C 
ATOM     27  C   UNL     1      16.320 -17.077 -51.859  1.00  0.00     0.016 C 
ATOM     28  C   UNL     1      14.543 -16.854 -53.584  1.00  0.00     0.016 C 
ENDBRANCH  24  25
ENDBRANCH   7  19
TORSDOF 3
ENDMDL
MODEL 4
REMARK VINA RESULT:    -6.363     26.039     27.203
REMARK INTER + INTRA:          -8.108
REMARK INTER:                  -8.084
REMARK INTRA:                  -0.023
REMARK UNBOUND:                -0.629
REMARK SMILES Cc1cc(C)c(C2=Nn3c(nnc3-c3ccc(C(C)(C)C)cc3)SC2)c(C)c1
REMARK SMILES IDX 7 1 8 2 9 3 10 4 11 5 12 6 13 7 24 8 25 9 6 10 2 11 3 12
REMARK SMILES IDX 28 13 4 14 26 15 1 16 5 17 27 18 14 19 15 20 23 21 16 22
REMARK SMILES IDX 22 23 17 24 18 25 19 26 20 27 21 28
REMARK H PARENT
ROOT
ATOM      1  C   UNL     1      13.108 -23.625 -47.555  1.00  0.00     0.080 C 
ATOM      2  N   UNL     1      13.153 -22.952 -48.668  1.00  0.00    -0.167 NA
ATOM      3  N   UNL     1      11.991 -22.880 -49.397  1.00  0.00    -0.187 N 
ATOM      4  C   UNL     1      10.856 -23.648 -49.276  1.00  0.00     0.212 A 
ATOM      5  N   UNL     1       9.949 -23.297 -50.148  1.00  0.00    -0.121 NA
ATOM      6  N   UNL     1      10.483 -22.268 -50.884  1.00  0.00    -0.127 NA
ATOM      7  C   UNL     1      11.720 -22.030 -50.464  1.00  0.00     0.185 A 
ATOM      8  S   UNL     1      10.748 -24.914 -48.112  1.00  0.00    -0.078 SA
ATOM      9  C   UNL     1      11.871 -24.207 -46.892  1.00  0.00     0.137 C 
ENDROOT
BRANCH   1  10
ATOM     10  C   UNL     1      14.368 -23.770 -46.786  1.00  0.00     0.004 A 
ATOM     11  C   UNL     1      16.725 -24.041 -45.305  1.00  0.00    -0.051 A 
ATOM     12  C   UNL     1      15.988 -25.173 -45.674  1.00  0.00     0.007 A 
ATOM     13  C   UNL     1      16.267 -22.771 -45.678  1.00  0.00     0.007 A 
ATOM     14  C   UNL     1      14.814 -25.058 -46.433  1.00  0.00    -0.041 A 
ATOM     15  C   UNL     1      15.089 -22.617 -46.422  1.00  0.00    -0.041 A 
ATOM     16  C   UNL     1      17.968 -24.184 -44.475  1.00  0.00     0.044 C 
ATOM     17  C   UNL     1      14.066 -26.302 -46.826  1.00  0.00     0.045 C 
ATOM     18  C   UNL     1      14.648 -21.238 -46.831  1.00  0.00     0.045 C 
ENDBRANCH   1  10
BRANCH   7  19
ATOM     19  C   UNL     1      12.609 -20.999 -51.017  1.00  0.00     0.021 A 
ATOM     20  C   UNL     1      13.025 -21.105 -52.350  1.00  0.00     0.012 A 
ATOM     21  C   UNL     1      13.087 -19.917 -50.274  1.00  0.00     0.012 A 
ATOM     22  C   UNL     1      13.872 -20.150 -52.924  1.00  0.00     0.005 A 
ATOM     23  C   UNL     1      13.937 -18.958 -50.849  1.00  0.00     0.005 A 
ATOM     24  C   UNL     1      14.346 -19.051 -52.187  1.00  0.00    -0.043 A 
BRANCH  24  25
ATOM     25  C   UNL     1      15.277 -18.019 -52.848  1.00  0.00    -0.013 C 
ATOM     26  C   UNL     1      16.071 -17.265 -51.759  1.00  0.00     0.016 C 
ATOM     27  C   UNL     1      14.533 -16.957 -53.690  1.00  0.00     0.016 C 
ATOM     28  C   UNL     1      16.265 -18.739 -53.791  1.00  0.00     0.016 C 
ENDBRANCH  24  25
ENDBRANCH   7  19
TORSDOF 3
ENDMDL
MODEL 5
REMARK VINA RESULT:    -5.728     25.443     26.422
REMARK INTER + INTRA:          -7.362
REMARK INTER:                  -7.666
REMARK INTRA:                   0.304
REMARK UNBOUND:                -0.629
REMARK SMILES Cc1cc(C)c(C2=Nn3c(nnc3-c3ccc(C(C)(C)C)cc3)SC2)c(C)c1
REMARK SMILES IDX 7 1 8 2 9 3 10 4 11 5 12 6 13 7 24 8 25 9 6 10 2 11 3 12
REMARK SMILES IDX 28 13 4 14 26 15 1 16 5 17 27 18 14 19 15 20 23 21 16 22
REMARK SMILES IDX 22 23 17 24 18 25 19 26 20 27 21 28
REMARK H PARENT
ROOT
ATOM      1  C   UNL     1      13.419 -23.577 -46.750  1.00  0.00     0.080 C 
ATOM      2  N   UNL     1      12.333 -23.330 -47.424  1.00  0.00    -0.167 NA
ATOM      3  N   UNL     1      12.471 -22.579 -48.566  1.00  0.00    -0.187 N 
ATOM      4  C   UNL     1      13.539 -21.808 -48.961  1.00  0.00     0.212 A 
ATOM      5  N   UNL     1      13.310 -21.229 -50.109  1.00  0.00    -0.121 NA
ATOM      6  N   UNL     1      12.052 -21.614 -50.504  1.00  0.00    -0.127 NA
ATOM      7  C   UNL     1      11.526 -22.398 -49.570  1.00  0.00     0.185 A 
ATOM      8  S   UNL     1      14.947 -21.656 -47.979  1.00  0.00    -0.078 SA
ATOM      9  C   UNL     1      14.844 -23.264 -47.171  1.00  0.00     0.137 C 
ENDROOT
BRANCH   1  10
ATOM     10  C   UNL     1      13.283 -24.329 -45.479  1.00  0.00     0.004 A 
ATOM     11  C   UNL     1      12.995 -25.730 -43.075  1.00  0.00    -0.051 A 
ATOM     12  C   UNL     1      12.476 -26.254 -44.265  1.00  0.00     0.007 A 
ATOM     13  C   UNL     1      13.653 -24.494 -43.098  1.00  0.00     0.007 A 
ATOM     14  C   UNL     1      12.628 -25.575 -45.483  1.00  0.00    -0.041 A 
ATOM     15  C   UNL     1      13.808 -23.779 -44.293  1.00  0.00    -0.041 A 
ATOM     16  C   UNL     1      12.804 -26.462 -41.778  1.00  0.00     0.044 C 
ATOM     17  C   UNL     1      12.075 -26.186 -46.741  1.00  0.00     0.045 C 
ATOM     18  C   UNL     1      14.549 -22.470 -44.282  1.00  0.00     0.045 C 
ENDBRANCH   1  10
BRANCH   7  19
ATOM     19  C   UNL     1      10.188 -23.002 -49.642  1.00  0.00     0.021 A 
ATOM     20  C   UNL     1       9.490 -22.964 -50.855  1.00  0.00     0.012 A 
ATOM     21  C   UNL     1       9.555 -23.601 -48.549  1.00  0.00     0.012 A 
ATOM     22  C   UNL     1       8.212 -23.524 -50.975  1.00  0.00     0.005 A 
ATOM     23  C   UNL     1       8.274 -24.162 -48.669  1.00  0.00     0.005 A 
ATOM     24  C   UNL     1       7.574 -24.139 -49.885  1.00  0.00    -0.043 A 
BRANCH  24  25
ATOM     25  C   UNL     1       6.170 -24.744 -50.050  1.00  0.00    -0.013 C 
ATOM     26  C   UNL     1       5.671 -24.511 -51.493  1.00  0.00     0.016 C 
ATOM     27  C   UNL     1       5.113 -24.139 -49.098  1.00  0.00     0.016 C 
ATOM     28  C   UNL     1       6.221 -26.261 -49.770  1.00  0.00     0.016 C 
ENDBRANCH  24  25
ENDBRANCH   7  19
TORSDOF 3
ENDMDL
MODEL 6
REMARK VINA RESULT:    -5.709     25.123     27.204
REMARK INTER + INTRA:          -7.338
REMARK INTER:                  -6.495
REMARK INTRA:                  -0.844
REMARK UNBOUND:                -0.629
REMARK SMILES Cc1cc(C)c(C2=Nn3c(nnc3-c3ccc(C(C)(C)C)cc3)SC2)c(C)c1
REMARK SMILES IDX 7 1 8 2 9 3 10 4 11 5 12 6 13 7 24 8 25 9 6 10 2 11 3 12
REMARK SMILES IDX 28 13 4 14 26 15 1 16 5 17 27 18 14 19 15 20 23 21 16 22
REMARK SMILES IDX 22 23 17 24 18 25 19 26 20 27 21 28
REMARK H PARENT
ROOT
ATOM      1  C   UNL     1      10.509 -24.251 -50.575  1.00  0.00     0.080 C 
ATOM      2  N   UNL     1       9.271 -23.931 -50.822  1.00  0.00    -0.167 NA
ATOM      3  N   UNL     1       8.839 -24.080 -52.118  1.00  0.00    -0.187 N 
ATOM      4  C   UNL     1       9.591 -24.248 -53.257  1.00  0.00     0.212 A 
ATOM      5  N   UNL     1       8.834 -24.350 -54.316  1.00  0.00    -0.121 NA
ATOM      6  N   UNL     1       7.534 -24.245 -53.887  1.00  0.00    -0.127 NA
ATOM      7  C   UNL     1       7.526 -24.049 -52.573  1.00  0.00     0.185 A 
ATOM      8  S   UNL     1      11.313 -24.273 -53.200  1.00  0.00    -0.078 SA
ATOM      9  C   UNL     1      11.483 -24.923 -51.527  1.00  0.00     0.137 C 
ENDROOT
BRANCH   1  10
ATOM     10  C   UNL     1      11.013 -24.035 -49.197  1.00  0.00     0.004 A 
ATOM     11  C   UNL     1      11.998 -23.642 -46.609  1.00  0.00    -0.051 A 
ATOM     12  C   UNL     1      12.168 -22.655 -47.587  1.00  0.00     0.007 A 
ATOM     13  C   UNL     1      11.337 -24.831 -46.941  1.00  0.00     0.007 A 
ATOM     14  C   UNL     1      11.665 -22.826 -48.885  1.00  0.00    -0.041 A 
ATOM     15  C   UNL     1      10.835 -25.044 -48.232  1.00  0.00    -0.041 A 
ATOM     16  C   UNL     1      12.562 -23.448 -45.231  1.00  0.00     0.044 C 
ATOM     17  C   UNL     1      11.851 -21.730 -49.898  1.00  0.00     0.045 C 
ATOM     18  C   UNL     1      10.102 -26.321 -48.540  1.00  0.00     0.045 C 
ENDBRANCH   1  10
BRANCH   7  19
ATOM     19  C   UNL     1       6.313 -23.888 -51.759  1.00  0.00     0.021 A 
ATOM     20  C   UNL     1       5.797 -25.000 -51.083  1.00  0.00     0.012 A 
ATOM     21  C   UNL     1       5.625 -22.678 -51.636  1.00  0.00     0.012 A 
ATOM     22  C   UNL     1       4.644 -24.899 -50.295  1.00  0.00     0.005 A 
ATOM     23  C   UNL     1       4.468 -22.576 -50.846  1.00  0.00     0.005 A 
ATOM     24  C   UNL     1       3.953 -23.684 -50.156  1.00  0.00    -0.043 A 
BRANCH  24  25
ATOM     25  C   UNL     1       2.688 -23.607 -49.283  1.00  0.00    -0.013 C 
ATOM     26  C   UNL     1       2.954 -22.697 -48.063  1.00  0.00     0.016 C 
ATOM     27  C   UNL     1       2.222 -24.977 -48.739  1.00  0.00     0.016 C 
ATOM     28  C   UNL     1       1.522 -23.023 -50.108  1.00  0.00     0.016 C 
ENDBRANCH  24  25
ENDBRANCH   7  19
TORSDOF 3
ENDMDL
MODEL 7
REMARK VINA RESULT:    -5.695     25.604     26.553
REMARK INTER + INTRA:          -7.323
REMARK INTER:                  -7.760
REMARK INTRA:                   0.437
REMARK UNBOUND:                -0.629
REMARK SMILES Cc1cc(C)c(C2=Nn3c(nnc3-c3ccc(C(C)(C)C)cc3)SC2)c(C)c1
REMARK SMILES IDX 7 1 8 2 9 3 10 4 11 5 12 6 13 7 24 8 25 9 6 10 2 11 3 12
REMARK SMILES IDX 28 13 4 14 26 15 1 16 5 17 27 18 14 19 15 20 23 21 16 22
REMARK SMILES IDX 22 23 17 24 18 25 19 26 20 27 21 28
REMARK H PARENT
ROOT
ATOM      1  C   UNL     1      15.003 -23.989 -44.463  1.00  0.00     0.080 C 
ATOM      2  N   UNL     1      14.085 -23.799 -45.366  1.00  0.00    -0.167 NA
ATOM      3  N   UNL     1      14.470 -23.148 -46.513  1.00  0.00    -0.187 N 
ATOM      4  C   UNL     1      15.609 -22.411 -46.738  1.00  0.00     0.212 A 
ATOM      5  N   UNL     1      15.634 -21.931 -47.952  1.00  0.00    -0.121 NA
ATOM      6  N   UNL     1      14.479 -22.348 -48.567  1.00  0.00    -0.127 NA
ATOM      7  C   UNL     1      13.757 -23.052 -47.703  1.00  0.00     0.185 A 
ATOM      8  S   UNL     1      16.785 -22.177 -45.500  1.00  0.00    -0.078 SA
ATOM      9  C   UNL     1      16.490 -23.712 -44.602  1.00  0.00     0.137 C 
ENDROOT
BRANCH   1  10
ATOM     10  C   UNL     1      14.593 -24.632 -43.190  1.00  0.00     0.004 A 
ATOM     11  C   UNL     1      13.791 -25.821 -40.789  1.00  0.00    -0.051 A 
ATOM     12  C   UNL     1      13.323 -26.314 -42.013  1.00  0.00     0.007 A 
ATOM     13  C   UNL     1      14.659 -24.722 -40.778  1.00  0.00     0.007 A 
ATOM     14  C   UNL     1      13.729 -25.743 -43.227  1.00  0.00    -0.041 A 
ATOM     15  C   UNL     1      15.073 -24.115 -41.972  1.00  0.00    -0.041 A 
ATOM     16  C   UNL     1      13.328 -26.433 -39.499  1.00  0.00     0.044 C 
ATOM     17  C   UNL     1      13.219 -26.319 -44.519  1.00  0.00     0.045 C 
ATOM     18  C   UNL     1      16.031 -22.956 -41.919  1.00  0.00     0.045 C 
ENDBRANCH   1  10
BRANCH   7  19
ATOM     19  C   UNL     1      12.453 -23.661 -48.002  1.00  0.00     0.021 A 
ATOM     20  C   UNL     1      11.370 -22.828 -48.308  1.00  0.00     0.012 A 
ATOM     21  C   UNL     1      12.223 -25.038 -47.975  1.00  0.00     0.012 A 
ATOM     22  C   UNL     1      10.107 -23.358 -48.599  1.00  0.00     0.005 A 
ATOM     23  C   UNL     1      10.957 -25.571 -48.266  1.00  0.00     0.005 A 
ATOM     24  C   UNL     1       9.871 -24.743 -48.587  1.00  0.00    -0.043 A 
BRANCH  24  25
ATOM     25  C   UNL     1       8.471 -25.293 -48.911  1.00  0.00    -0.013 C 
ATOM     26  C   UNL     1       8.437 -25.799 -50.369  1.00  0.00     0.016 C 
ATOM     27  C   UNL     1       7.341 -24.249 -48.761  1.00  0.00     0.016 C 
ATOM     28  C   UNL     1       8.139 -26.462 -47.959  1.00  0.00     0.016 C 
ENDBRANCH  24  25
ENDBRANCH   7  19
TORSDOF 3
ENDMDL
MODEL 8
REMARK VINA RESULT:    -5.695     25.149     27.438
REMARK INTER + INTRA:          -7.323
REMARK INTER:                  -8.282
REMARK INTRA:                   0.960
REMARK UNBOUND:                -0.629
REMARK SMILES Cc1cc(C)c(C2=Nn3c(nnc3-c3ccc(C(C)(C)C)cc3)SC2)c(C)c1
REMARK SMILES IDX 7 1 8 2 9 3 10 4 11 5 12 6 13 7 24 8 25 9 6 10 2 11 3 12
REMARK SMILES IDX 28 13 4 14 26 15 1 16 5 17 27 18 14 19 15 20 23 21 16 22
REMARK SMILES IDX 22 23 17 24 18 25 19 26 20 27 21 28
REMARK H PARENT
ROOT
ATOM      1  C   UNL     1      11.913 -22.325 -49.497  1.00  0.00     0.080 C 
ATOM      2  N   UNL     1      12.347 -22.659 -48.316  1.00  0.00    -0.167 NA
ATOM      3  N   UNL     1      11.654 -23.645 -47.657  1.00  0.00    -0.187 N 
ATOM      4  C   UNL     1      10.401 -24.140 -47.931  1.00  0.00     0.212 A 
ATOM      5  N   UNL     1      10.062 -25.074 -47.083  1.00  0.00    -0.121 NA
ATOM      6  N   UNL     1      11.110 -25.214 -46.207  1.00  0.00    -0.127 NA
ATOM      7  C   UNL     1      12.058 -24.339 -46.521  1.00  0.00     0.185 A 
ATOM      8  S   UNL     1       9.455 -23.520 -49.231  1.00  0.00    -0.078 SA
ATOM      9  C   UNL     1      10.821 -23.016 -50.295  1.00  0.00     0.137 C 
ENDROOT
BRANCH   1  10
ATOM     10  C   UNL     1      12.607 -21.217 -50.198  1.00  0.00     0.004 A 
ATOM     11  C   UNL     1      13.883 -19.111 -51.524  1.00  0.00    -0.051 A 
ATOM     12  C   UNL     1      13.706 -19.069 -50.135  1.00  0.00     0.007 A 
ATOM     13  C   UNL     1      13.408 -20.215 -52.244  1.00  0.00     0.007 A 
ATOM     14  C   UNL     1      13.086 -20.124 -49.452  1.00  0.00    -0.041 A 
ATOM     15  C   UNL     1      12.768 -21.280 -51.595  1.00  0.00    -0.041 A 
ATOM     16  C   UNL     1      14.531 -17.962 -52.240  1.00  0.00     0.044 C 
ATOM     17  C   UNL     1      12.937 -20.046 -47.957  1.00  0.00     0.045 C 
ATOM     18  C   UNL     1      12.301 -22.462 -52.400  1.00  0.00     0.045 C 
ENDBRANCH   1  10
BRANCH   7  19
ATOM     19  C   UNL     1      13.333 -24.191 -45.805  1.00  0.00     0.021 A 
ATOM     20  C   UNL     1      13.414 -23.278 -44.747  1.00  0.00     0.012 A 
ATOM     21  C   UNL     1      14.489 -24.902 -46.137  1.00  0.00     0.012 A 
ATOM     22  C   UNL     1      14.605 -23.099 -44.033  1.00  0.00     0.005 A 
ATOM     23  C   UNL     1      15.684 -24.724 -45.421  1.00  0.00     0.005 A 
ATOM     24  C   UNL     1      15.768 -23.820 -44.352  1.00  0.00    -0.043 A 
BRANCH  24  25
ATOM     25  C   UNL     1      17.061 -23.599 -43.547  1.00  0.00    -0.013 C 
ATOM     26  C   UNL     1      17.974 -22.604 -44.297  1.00  0.00     0.016 C 
ATOM     27  C   UNL     1      17.882 -24.889 -43.317  1.00  0.00     0.016 C 
ATOM     28  C   UNL     1      16.717 -23.024 -42.157  1.00  0.00     0.016 C 
ENDBRANCH  24  25
ENDBRANCH   7  19
TORSDOF 3
ENDMDL
MODEL 9
REMARK VINA RESULT:    -5.664     24.635     26.652
REMARK INTER + INTRA:          -7.286
REMARK INTER:                  -9.127
REMARK INTRA:                   1.841
REMARK UNBOUND:                -0.629
REMARK SMILES Cc1cc(C)c(C2=Nn3c(nnc3-c3ccc(C(C)(C)C)cc3)SC2)c(C)c1
REMARK SMILES IDX 7 1 8 2 9 3 10 4 11 5 12 6 13 7 24 8 25 9 6 10 2 11 3 12
REMARK SMILES IDX 28 13 4 14 26 15 1 16 5 17 27 18 14 19 15 20 23 21 16 22
REMARK SMILES IDX 22 23 17 24 18 25 19 26 20 27 21 28
REMARK H PARENT
ROOT
ATOM      1  C   UNL     1      13.025 -23.277 -46.990  1.00  0.00     0.080 C 
ATOM      2  N   UNL     1      13.626 -23.596 -45.881  1.00  0.00    -0.167 NA
ATOM      3  N   UNL     1      14.848 -23.012 -45.648  1.00  0.00    -0.187 N 
ATOM      4  C   UNL     1      15.668 -22.358 -46.537  1.00  0.00     0.212 A 
ATOM      5  N   UNL     1      16.760 -21.937 -45.958  1.00  0.00    -0.121 NA
ATOM      6  N   UNL     1      16.682 -22.318 -44.641  1.00  0.00    -0.127 NA
ATOM      7  C   UNL     1      15.554 -22.993 -44.450  1.00  0.00     0.185 A 
ATOM      8  S   UNL     1      15.239 -22.193 -48.198  1.00  0.00    -0.078 SA
ATOM      9  C   UNL     1      13.450 -22.208 -47.982  1.00  0.00     0.137 C 
ENDROOT
BRANCH   1  10
ATOM     10  C   UNL     1      11.737 -23.947 -47.292  1.00  0.00     0.004 A 
ATOM     11  C   UNL     1       9.323 -25.229 -47.888  1.00  0.00    -0.051 A 
ATOM     12  C   UNL     1      10.222 -25.801 -46.979  1.00  0.00     0.007 A 
ATOM     13  C   UNL     1       9.647 -24.012 -48.501  1.00  0.00     0.007 A 
ATOM     14  C   UNL     1      11.428 -25.164 -46.654  1.00  0.00    -0.041 A 
ATOM     15  C   UNL     1      10.851 -23.355 -48.212  1.00  0.00    -0.041 A 
ATOM     16  C   UNL     1       8.047 -25.937 -48.239  1.00  0.00     0.044 C 
ATOM     17  C   UNL     1      12.353 -25.804 -45.657  1.00  0.00     0.045 C 
ATOM     18  C   UNL     1      11.148 -22.034 -48.867  1.00  0.00     0.045 C 
ENDBRANCH   1  10
BRANCH   7  19
ATOM     19  C   UNL     1      15.127 -23.563 -43.165  1.00  0.00     0.021 A 
ATOM     20  C   UNL     1      16.087 -23.796 -42.173  1.00  0.00     0.012 A 
ATOM     21  C   UNL     1      13.804 -23.912 -42.880  1.00  0.00     0.012 A 
ATOM     22  C   UNL     1      15.732 -24.338 -40.932  1.00  0.00     0.005 A 
ATOM     23  C   UNL     1      13.447 -24.456 -41.636  1.00  0.00     0.005 A 
ATOM     24  C   UNL     1      14.402 -24.679 -40.633  1.00  0.00    -0.043 A 
BRANCH  24  25
ATOM     25  C   UNL     1      14.045 -25.274 -39.259  1.00  0.00    -0.013 C 
ATOM     26  C   UNL     1      13.040 -26.432 -39.442  1.00  0.00     0.016 C 
ATOM     27  C   UNL     1      13.402 -24.258 -38.287  1.00  0.00     0.016 C 
ATOM     28  C   UNL     1      15.322 -25.812 -38.578  1.00  0.00     0.016 C 
ENDBRANCH  24  25
ENDBRANCH   7  19
TORSDOF 3
ENDMDL
