REMARK SMILES [NH3+][C@H]1CCCCCCCCCC[C@H]1N1CCOCC1
REMARK SMILES IDX 13 1 2 2 1 3 3 7 4 8 5 9 6 10 12 12 11 13 10 14 9 15 8 16
REMARK SMILES IDX 7 17 14 19 15 20 19 21 16 22 18 23 17 24
REMARK H PARENT 1 4 1 5 1 6
REMARK Flexibility Score:   35.900
ROOT
ATOM      1  C   UNL     1      -0.283  -0.344  -0.900  1.00  0.00     0.115 C 
ENDROOT
BRANCH   1   2
ATOM      2  C   UNL     1      -0.056   1.212  -1.090  1.00  0.00     0.198 C 
BRANCH   2   3
ATOM      3  N   UNL     1      -1.379   1.799  -1.491  1.00  0.00    -0.354 N 
ATOM      4  H   UNL     1      -1.301   2.674  -2.018  1.00  0.00     0.344 HD
ATOM      5  H   UNL     1      -2.017   1.924  -0.697  1.00  0.00     0.344 HD
ATOM      6  H   UNL     1      -1.820   1.079  -2.096  1.00  0.00     0.344 HD
ENDBRANCH   2   3
BRANCH   2   7
ATOM      7  C   UNL     1       0.488   2.006   0.087  1.00  0.00     0.066 C 
BRANCH   7   8
ATOM      8  C   UNL     1       1.265   3.273  -0.270  1.00  0.00     0.006 C 
BRANCH   8   9
ATOM      9  C   UNL     1       2.751   3.023  -0.581  1.00  0.00     0.000 C 
BRANCH   9  10
ATOM     10  C   UNL     1       3.637   2.661   0.633  1.00  0.00     0.000 CG0
ATOM     11  G   UNL     1       3.654   1.167   1.008  1.00  0.00     0.000 G0
ENDBRANCH   9  10
ENDBRANCH   8   9
ENDBRANCH   7   8
ENDBRANCH   2   7
ENDBRANCH   1   2
BRANCH   1  12
ATOM     12  C   UNL     1      -0.788  -0.777   0.517  1.00  0.00     0.025 C 
BRANCH  12  13
ATOM     13  C   UNL     1       0.141  -0.620   1.744  1.00  0.00     0.002 C 
BRANCH  13  14
ATOM     14  C   UNL     1       1.560  -1.180   1.565  1.00  0.00     0.000 C 
BRANCH  14  15
ATOM     15  C   UNL     1       2.594  -0.613   2.554  1.00  0.00     0.000 C 
BRANCH  15  16
ATOM     16  C   UNL     1       2.971   0.866   2.355  1.00  0.00     0.000 C 
BRANCH  16  17
ATOM     17  C   UNL     1       3.654   1.167   1.008  1.00  0.00     0.000 CG0
ATOM     18  G   UNL     1       3.637   2.661   0.633  1.00  0.00     0.000 G0
ENDBRANCH  16  17
ENDBRANCH  15  16
ENDBRANCH  14  15
ENDBRANCH  13  14
ENDBRANCH  12  13
ENDBRANCH   1  12
BRANCH   1  19
ATOM     19  N   UNL     1      -1.217  -0.739  -2.038  1.00  0.00    -0.290 NA
ATOM     20  C   UNL     1      -0.420  -0.991  -3.287  1.00  0.00     0.113 C 
ATOM     21  C   UNL     1      -1.997  -1.986  -1.785  1.00  0.00     0.113 C 
ATOM     22  C   UNL     1      -1.306  -1.418  -4.469  1.00  0.00     0.175 C 
ATOM     23  C   UNL     1      -2.850  -2.400  -2.998  1.00  0.00     0.175 C 
ATOM     24  O   UNL     1      -2.033  -2.603  -4.152  1.00  0.00    -0.379 OA
ENDBRANCH   1  19
TORSDOF 2
