REMARK SMILES CCN(CCC(=O)Nc1ccc(C(N)=O)cc1)C(=O)c1cc(C)c(C)c(S(=O)(=O)N(C)C)c1
REMARK SMILES IDX 3 1 2 2 1 3 4 4 5 5 6 6 7 7 8 8 9 10 10 11 17 12 11 13 16 14
REMARK SMILES IDX 12 15 13 16 14 17 15 18 18 21 19 22 20 23 21 24 33 25 22 26
REMARK SMILES IDX 26 27 24 28 23 29 25 30 27 31 28 32 29 33 30 34 31 35 32 36
REMARK H PARENT 8 9 14 19 14 20
ROOT
ATOM      1  N   UNL     1      -0.334   0.056   3.253  1.00  0.00    -0.338 N 
ENDROOT
BRANCH   1   2
ATOM      2  C   UNL     1      -1.746  -0.142   2.894  1.00  0.00     0.116 C 
ATOM      3  C   UNL     1      -2.009  -1.563   2.420  1.00  0.00     0.027 C 
ENDBRANCH   1   2
BRANCH   1   4
ATOM      4  C   UNL     1       0.050  -0.358   4.614  1.00  0.00     0.129 C 
BRANCH   4   5
ATOM      5  C   UNL     1       1.359  -1.125   4.796  1.00  0.00     0.122 C 
BRANCH   5   6
ATOM      6  C   UNL     1       1.437  -2.303   3.853  1.00  0.00     0.226 C 
ATOM      7  O   UNL     1       0.884  -3.363   4.126  1.00  0.00    -0.275 OA
ATOM      8  N   UNL     1       2.126  -1.994   2.696  1.00  0.00    -0.326 N 
ATOM      9  H   UNL     1       2.483  -1.039   2.643  1.00  0.00     0.169 HD
BRANCH   8  10
ATOM     10  C   UNL     1       2.169  -2.731   1.501  1.00  0.00     0.041 A 
ATOM     11  C   UNL     1       2.755  -2.097   0.397  1.00  0.00     0.027 A 
ATOM     12  C   UNL     1       1.611  -4.001   1.344  1.00  0.00     0.027 A 
ATOM     13  C   UNL     1       2.707  -2.687  -0.865  1.00  0.00     0.016 A 
ATOM     14  C   UNL     1       1.572  -4.603   0.083  1.00  0.00     0.016 A 
ATOM     15  C   UNL     1       2.082  -3.926  -1.026  1.00  0.00     0.039 A 
BRANCH  15  16
ATOM     16  C   UNL     1       1.903  -4.512  -2.373  1.00  0.00     0.248 C 
ATOM     17  N   UNL     1       1.556  -3.627  -3.359  1.00  0.00    -0.366 N 
ATOM     18  O   UNL     1       1.992  -5.713  -2.581  1.00  0.00    -0.270 OA
ATOM     19  H   UNL     1       1.214  -4.055  -4.209  1.00  0.00     0.159 HD
ATOM     20  H   UNL     1       1.100  -2.757  -3.079  1.00  0.00     0.159 HD
ENDBRANCH  15  16
ENDBRANCH   8  10
ENDBRANCH   5   6
ENDBRANCH   4   5
ENDBRANCH   1   4
BRANCH   1  21
ATOM     21  C   UNL     1       0.579   0.727   2.442  1.00  0.00     0.253 C 
ATOM     22  O   UNL     1       1.767   0.877   2.720  1.00  0.00    -0.269 OA
BRANCH  21  23
ATOM     23  C   UNL     1       0.122   1.299   1.160  1.00  0.00     0.041 A 
ATOM     24  C   UNL     1      -0.131   2.670   1.106  1.00  0.00     0.017 A 
ATOM     25  C   UNL     1       0.007   0.509   0.019  1.00  0.00     0.036 A 
ATOM     26  C   UNL     1      -0.546   3.272  -0.092  1.00  0.00    -0.046 A 
ATOM     27  C   UNL     1      -0.402   1.098  -1.188  1.00  0.00     0.086 A 
ATOM     28  C   UNL     1      -0.722   2.479  -1.256  1.00  0.00    -0.028 A 
ATOM     29  C   UNL     1      -0.808   4.757  -0.087  1.00  0.00     0.044 C 
ATOM     30  C   UNL     1      -1.176   3.137  -2.537  1.00  0.00     0.046 C 
BRANCH  27  31
ATOM     31  S   UNL     1      -0.474   0.039  -2.630  1.00  0.00     0.242 S 
ATOM     32  O   UNL     1      -1.848   0.014  -3.080  1.00  0.00    -0.207 OA
ATOM     33  O   UNL     1       0.230  -1.198  -2.346  1.00  0.00    -0.207 OA
BRANCH  31  34
ATOM     34  N   UNL     1       0.480   0.863  -3.786  1.00  0.00    -0.204 NA
ATOM     35  C   UNL     1       1.918   0.976  -3.453  1.00  0.00     0.124 C 
ATOM     36  C   UNL     1       0.278   0.370  -5.168  1.00  0.00     0.124 C 
ENDBRANCH  31  34
ENDBRANCH  27  31
ENDBRANCH  21  23
ENDBRANCH   1  21
TORSDOF 10
