REMARK SMILES COC(=O)c1c(C)[nH]c(C(=O)[C@@H](C)Nc2ccc3[nH]c(=O)[nH]c3c2)c1C
REMARK SMILES IDX 10 1 11 2 9 3 5 4 6 5 25 6 8 7 7 8 26 9 3 11 4 12 2 13 1 14
REMARK SMILES IDX 12 15 13 16 14 17 15 19 16 20 24 21 17 22 23 23 18 24 22 25
REMARK SMILES IDX 19 26 20 27 21 28
REMARK H PARENT 8 10 14 18 22 29 19 30
ROOT
ATOM      1  C   UNL     1       2.451   0.657  -0.556  1.00  0.00     0.201 C 
ATOM      2  O   UNL     1       3.595   1.067  -0.308  1.00  0.00    -0.290 OA
ENDROOT
BRANCH   1   3
ATOM      3  C   UNL     1       1.738  -0.097   0.480  1.00  0.00     0.088 A 
ATOM      4  C   UNL     1       0.403  -1.261   1.949  1.00  0.00     0.084 A 
ATOM      5  C   UNL     1       1.479  -0.730   2.646  1.00  0.00     0.027 A 
ATOM      6  C   UNL     1       0.604  -0.908   0.552  1.00  0.00    -0.008 A 
ATOM      7  N   UNL     1       2.269  -0.068   1.755  1.00  0.00    -0.355 N 
ATOM      8  C   UNL     1       1.828  -0.785   4.092  1.00  0.00     0.065 C 
ATOM      9  C   UNL     1      -0.286  -1.368  -0.554  1.00  0.00     0.048 C 
ATOM     10  H   UNL     1       3.126   0.425   1.978  1.00  0.00     0.166 HD
BRANCH   4  11
ATOM     11  C   UNL     1      -0.681  -2.028   2.581  1.00  0.00     0.339 C 
ATOM     12  O   UNL     1      -0.637  -2.435   3.738  1.00  0.00    -0.246 OA
BRANCH  11  13
ATOM     13  O   UNL     1      -1.753  -2.221   1.758  1.00  0.00    -0.465 OA
ATOM     14  C   UNL     1      -2.830  -2.938   2.360  1.00  0.00     0.282 C 
ENDBRANCH  11  13
ENDBRANCH   4  11
ENDBRANCH   1   3
BRANCH   1  15
ATOM     15  C   UNL     1       1.873   0.989  -1.942  1.00  0.00     0.149 C 
ATOM     16  C   UNL     1       2.323  -0.077  -2.940  1.00  0.00     0.040 C 
BRANCH  15  17
ATOM     17  N   UNL     1       0.414   1.171  -1.994  1.00  0.00    -0.375 N 
ATOM     18  H   UNL     1       0.008   0.891  -2.884  1.00  0.00     0.161 HD
BRANCH  17  19
ATOM     19  C   UNL     1      -0.208   2.321  -1.492  1.00  0.00     0.037 A 
ATOM     20  C   UNL     1       0.438   3.263  -0.650  1.00  0.00     0.028 A 
ATOM     21  C   UNL     1      -1.586   2.472  -1.741  1.00  0.00     0.054 A 
ATOM     22  C   UNL     1      -0.237   4.364  -0.099  1.00  0.00     0.030 A 
ATOM     23  C   UNL     1      -2.230   3.557  -1.193  1.00  0.00     0.068 A 
ATOM     24  C   UNL     1      -1.570   4.482  -0.394  1.00  0.00     0.066 A 
ATOM     25  N   UNL     1      -3.562   3.945  -1.287  1.00  0.00    -0.306 N 
ATOM     26  N   UNL     1      -2.492   5.444   0.003  1.00  0.00    -0.306 N 
ATOM     27  C   UNL     1      -3.742   5.121  -0.544  1.00  0.00     0.323 C 
ATOM     28  O   UNL     1      -4.780   5.740  -0.403  1.00  0.00    -0.248 OA
ATOM     29  H   UNL     1      -4.301   3.480  -1.787  1.00  0.00     0.171 HD
ATOM     30  H   UNL     1      -2.327   6.242   0.593  1.00  0.00     0.171 HD
ENDBRANCH  17  19
ENDBRANCH  15  17
ENDBRANCH   1  15
TORSDOF 6
