REMARK SMILES CCOc1ccc2nc(SCC(=O)NNC(=O)C[C@H]3CCS(=O)(=O)C3)[nH]c2c1
REMARK SMILES IDX 10 1 9 2 4 3 5 4 28 5 6 6 27 7 7 8 26 9 8 10 3 12 2 13 1 14
REMARK SMILES IDX 11 15 12 16 13 17 14 18 15 20 16 21 17 22 18 24 19 25 20 26
REMARK SMILES IDX 25 27 21 28 22 29 23 30 24 31
REMARK H PARENT 26 11 14 19 15 23
ROOT
ATOM      1  S   UNL     1      -0.496  -3.569   3.689  1.00  0.00    -0.078 SA
ENDROOT
BRANCH   1   2
ATOM      2  C   UNL     1      -0.873  -2.350   2.533  1.00  0.00     0.166 A 
ATOM      3  C   UNL     1      -1.488   0.158  -1.180  1.00  0.00     0.121 A 
ATOM      4  C   UNL     1      -1.694   1.124  -0.190  1.00  0.00     0.049 A 
ATOM      5  C   UNL     1      -1.228  -1.175  -0.834  1.00  0.00     0.074 A 
ATOM      6  C   UNL     1      -1.611   0.791   1.172  1.00  0.00     0.034 A 
ATOM      7  C   UNL     1      -1.141  -1.479   0.526  1.00  0.00     0.070 A 
ATOM      8  C   UNL     1      -1.313  -0.530   1.530  1.00  0.00     0.090 A 
ATOM      9  N   UNL     1      -0.885  -2.644   1.203  1.00  0.00    -0.333 N 
ATOM     10  N   UNL     1      -1.133  -1.088   2.775  1.00  0.00    -0.223 NA
ATOM     11  H   UNL     1      -0.702  -3.551   0.800  1.00  0.00     0.169 HD
BRANCH   3  12
ATOM     12  O   UNL     1      -1.525   0.388  -2.530  1.00  0.00    -0.494 OA
BRANCH  12  13
ATOM     13  C   UNL     1      -1.441   1.751  -2.950  1.00  0.00     0.226 C 
ATOM     14  C   UNL     1      -1.271   1.766  -4.458  1.00  0.00     0.049 C 
ENDBRANCH  12  13
ENDBRANCH   3  12
ENDBRANCH   1   2
BRANCH   1  15
ATOM     15  C   UNL     1      -0.160  -2.543   5.150  1.00  0.00     0.179 C 
BRANCH  15  16
ATOM     16  C   UNL     1       1.103  -1.728   4.944  1.00  0.00     0.248 C 
ATOM     17  O   UNL     1       2.236  -2.210   4.997  1.00  0.00    -0.272 OA
ATOM     18  N   UNL     1       0.885  -0.386   4.678  1.00  0.00    -0.267 N 
ATOM     19  H   UNL     1       0.010  -0.142   4.195  1.00  0.00     0.191 HD
BRANCH  18  20
ATOM     20  N   UNL     1       2.016   0.350   4.255  1.00  0.00    -0.268 N 
ATOM     21  C   UNL     1       1.800   1.410   3.397  1.00  0.00     0.238 C 
ATOM     22  O   UNL     1       0.698   1.917   3.212  1.00  0.00    -0.273 OA
ATOM     23  H   UNL     1       2.885  -0.184   4.237  1.00  0.00     0.191 HD
BRANCH  21  24
ATOM     24  C   UNL     1       3.065   1.896   2.716  1.00  0.00     0.106 C 
BRANCH  24  25
ATOM     25  C   UNL     1       2.772   2.884   1.583  1.00  0.00     0.014 C 
ATOM     26  C   UNL     1       4.057   3.472   0.982  1.00  0.00     0.021 C 
ATOM     27  C   UNL     1       2.033   2.231   0.405  1.00  0.00     0.141 C 
ATOM     28  C   UNL     1       3.622   4.266  -0.245  1.00  0.00     0.137 C 
ATOM     29  S   UNL     1       2.340   3.283  -1.005  1.00  0.00     0.150 S 
ATOM     30  O   UNL     1       1.182   4.122  -1.235  1.00  0.00    -0.229 OA
ATOM     31  O   UNL     1       2.934   2.484  -2.057  1.00  0.00    -0.229 OA
ENDBRANCH  24  25
ENDBRANCH  21  24
ENDBRANCH  18  20
ENDBRANCH  15  16
ENDBRANCH   1  15
TORSDOF 8
