REMARK SMILES Cc1cc(C)c2cc(C(=O)N(C)[C@H](C)C(C)C)[nH]c2c1C
REMARK SMILES IDX 11 1 12 2 9 3 10 4 8 5 2 6 3 7 20 8 4 9 19 10 6 11 18 12
REMARK SMILES IDX 7 13 1 14 21 15 5 16 13 18 14 19 15 20 16 21 17 22
REMARK H PARENT 18 17
ROOT
ATOM      1  N   UNL     1      -2.171   2.222   0.863  1.00  0.00    -0.337 N 
ATOM      2  C   UNL     1      -3.086   3.297   1.221  1.00  0.00     0.147 C 
ENDROOT
BRANCH   1   3
ATOM      3  C   UNL     1      -1.029   2.118   1.674  1.00  0.00     0.270 C 
ATOM      4  O   UNL     1      -0.949   2.741   2.734  1.00  0.00    -0.267 OA
BRANCH   3   5
ATOM      5  C   UNL     1       0.056   1.258   1.271  1.00  0.00     0.105 A 
ATOM      6  C   UNL     1       3.526  -1.810   1.201  1.00  0.00    -0.046 A 
ATOM      7  C   UNL     1       3.580  -1.386  -0.135  1.00  0.00     0.007 A 
ATOM      8  C   UNL     1       2.577  -1.256   2.093  1.00  0.00    -0.024 A 
ATOM      9  C   UNL     1       2.709  -0.409  -0.651  1.00  0.00    -0.041 A 
ATOM     10  C   UNL     1       1.712  -0.279   1.556  1.00  0.00     0.049 A 
ATOM     11  C   UNL     1       1.754   0.147   0.228  1.00  0.00     0.003 A 
ATOM     12  N   UNL     1       0.715   0.451   2.168  1.00  0.00    -0.350 N 
ATOM     13  C   UNL     1       0.740   1.139   0.080  1.00  0.00     0.042 A 
ATOM     14  C   UNL     1       4.503  -2.860   1.666  1.00  0.00     0.045 C 
ATOM     15  C   UNL     1       2.521  -1.696   3.530  1.00  0.00     0.047 C 
ATOM     16  C   UNL     1       2.848  -0.014  -2.096  1.00  0.00     0.045 C 
ATOM     17  H   UNL     1       0.479   0.402   3.149  1.00  0.00     0.167 HD
ENDBRANCH   3   5
ENDBRANCH   1   3
BRANCH   1  18
ATOM     18  C   UNL     1      -2.782   1.100   0.099  1.00  0.00     0.084 C 
ATOM     19  C   UNL     1      -2.774  -0.217   0.888  1.00  0.00     0.031 C 
BRANCH  18  20
ATOM     20  C   UNL     1      -2.280   0.948  -1.362  1.00  0.00     0.005 C 
ATOM     21  C   UNL     1      -3.169  -0.011  -2.168  1.00  0.00     0.009 C 
ATOM     22  C   UNL     1      -2.223   2.294  -2.093  1.00  0.00     0.009 C 
ENDBRANCH  18  20
ENDBRANCH   1  18
TORSDOF 4
