REMARK SMILES C[C@H](NC(=O)Cn1nnc(-c2ccc(C(N)=O)cc2)n1)c1ccc2ccccc2c1
REMARK SMILES IDX 7 1 8 2 9 3 10 4 20 5 6 6 4 7 3 8 5 9 2 11 1 12 21 13 22 14
REMARK SMILES IDX 30 15 23 16 29 17 24 18 28 19 25 20 27 21 26 22 11 23 12 24
REMARK SMILES IDX 19 25 13 26 18 27 14 28 15 29 16 30 17 31
REMARK H PARENT 3 10 16 32 16 33
ROOT
ATOM      1  N   UNL     1       0.033   1.840  -3.324  1.00  0.00    -0.154 N 
ATOM      2  N   UNL     1       1.287   2.214  -3.617  1.00  0.00    -0.046 NA
ATOM      3  N   UNL     1       2.041   1.195  -3.227  1.00  0.00    -0.108 NA
ATOM      4  C   UNL     1       1.193   0.236  -2.719  1.00  0.00     0.204 A 
ATOM      5  N   UNL     1      -0.100   0.596  -2.814  1.00  0.00    -0.131 NA
ENDROOT
BRANCH   1   6
ATOM      6  C   UNL     1      -1.099   2.726  -3.466  1.00  0.00     0.269 C 
BRANCH   6   7
ATOM      7  C   UNL     1      -1.668   3.102  -2.115  1.00  0.00     0.244 C 
ATOM      8  N   UNL     1      -2.007   2.037  -1.307  1.00  0.00    -0.348 N 
ATOM      9  O   UNL     1      -1.863   4.272  -1.794  1.00  0.00    -0.273 OA
ATOM     10  H   UNL     1      -1.648   1.121  -1.577  1.00  0.00     0.164 HD
BRANCH   8  11
ATOM     11  C   UNL     1      -2.375   2.194   0.091  1.00  0.00     0.109 C 
ATOM     12  C   UNL     1      -3.868   2.491   0.238  1.00  0.00     0.036 C 
BRANCH  11  13
ATOM     13  C   UNL     1      -1.914   0.952   0.837  1.00  0.00    -0.025 A 
ATOM     14  C   UNL     1      -0.690   0.977   1.520  1.00  0.00     0.006 A 
ATOM     15  C   UNL     1      -2.618  -0.262   0.768  1.00  0.00     0.014 A 
ATOM     16  C   UNL     1      -0.184  -0.177   2.122  1.00  0.00     0.009 A 
ATOM     17  C   UNL     1      -2.118  -1.434   1.364  1.00  0.00    -0.018 A 
ATOM     18  C   UNL     1      -0.882  -1.390   2.047  1.00  0.00    -0.018 A 
ATOM     19  C   UNL     1      -2.810  -2.653   1.278  1.00  0.00     0.009 A 
ATOM     20  C   UNL     1      -0.369  -2.565   2.618  1.00  0.00     0.009 A 
ATOM     21  C   UNL     1      -2.286  -3.814   1.850  1.00  0.00     0.001 A 
ATOM     22  C   UNL     1      -1.066  -3.770   2.517  1.00  0.00     0.001 A 
ENDBRANCH  11  13
ENDBRANCH   8  11
ENDBRANCH   6   7
ENDBRANCH   1   6
BRANCH   4  23
ATOM     23  C   UNL     1       1.662  -1.002  -2.108  1.00  0.00     0.023 A 
ATOM     24  C   UNL     1       3.027  -1.327  -2.115  1.00  0.00     0.013 A 
ATOM     25  C   UNL     1       0.766  -1.871  -1.469  1.00  0.00     0.013 A 
ATOM     26  C   UNL     1       3.487  -2.497  -1.496  1.00  0.00     0.014 A 
ATOM     27  C   UNL     1       1.223  -3.038  -0.847  1.00  0.00     0.014 A 
ATOM     28  C   UNL     1       2.583  -3.360  -0.864  1.00  0.00     0.039 A 
BRANCH  28  29
ATOM     29  C   UNL     1       3.024  -4.602  -0.175  1.00  0.00     0.248 C 
ATOM     30  N   UNL     1       4.202  -5.163  -0.585  1.00  0.00    -0.366 N 
ATOM     31  O   UNL     1       2.353  -5.127   0.704  1.00  0.00    -0.270 OA
ATOM     32  H   UNL     1       4.412  -6.073  -0.193  1.00  0.00     0.159 HD
ATOM     33  H   UNL     1       4.623  -4.935  -1.473  1.00  0.00     0.159 HD
ENDBRANCH  28  29
ENDBRANCH   4  23
TORSDOF 6
