REMARK SMILES Oc1ccc([C@H](c2cc3c(cc2O)OCO3)N2CCOCC2)cc1
REMARK SMILES IDX 6 1 5 2 2 3 3 4 24 5 4 6 23 7 1 8 7 10 8 11 12 12 9 13 11 14
REMARK SMILES IDX 10 15 16 16 14 17 15 18 13 19 17 21 18 22 22 23 19 24 21 25
REMARK SMILES IDX 20 26
REMARK H PARENT 1 9 13 20
ROOT
ATOM      1  C   UNL     1       0.013   0.492  -0.958  1.00  0.00     0.121 C 
ENDROOT
BRANCH   1   2
ATOM      2  C   UNL     1      -0.906   0.730  -2.166  1.00  0.00    -0.026 A 
ATOM      3  C   UNL     1      -2.611   1.104  -4.362  1.00  0.00     0.115 A 
ATOM      4  C   UNL     1      -1.975   2.197  -3.790  1.00  0.00     0.046 A 
ATOM      5  C   UNL     1      -2.416  -0.176  -3.856  1.00  0.00     0.046 A 
ATOM      6  C   UNL     1      -1.129   2.014  -2.695  1.00  0.00     0.009 A 
ATOM      7  C   UNL     1      -1.568  -0.361  -2.761  1.00  0.00     0.009 A 
BRANCH   3   8
ATOM      8  O   UNL     1      -3.429   1.330  -5.428  1.00  0.00    -0.508 OA
ATOM      9  H   UNL     1      -3.827   0.487  -5.699  1.00  0.00     0.293 HD
ENDBRANCH   3   8
ENDBRANCH   1   2
BRANCH   1  10
ATOM     10  C   UNL     1      -0.695   0.975   0.316  1.00  0.00     0.019 A 
ATOM     11  C   UNL     1      -1.543   0.075   0.994  1.00  0.00     0.060 A 
ATOM     12  C   UNL     1      -0.589   2.299   0.810  1.00  0.00     0.124 A 
ATOM     13  C   UNL     1      -2.225   0.523   2.108  1.00  0.00     0.166 A 
ATOM     14  C   UNL     1      -1.293   2.730   1.935  1.00  0.00     0.097 A 
ATOM     15  C   UNL     1      -2.104   1.814   2.564  1.00  0.00     0.169 A 
ATOM     16  O   UNL     1      -3.075  -0.219   2.867  1.00  0.00    -0.454 OA
ATOM     17  O   UNL     1      -2.861   2.046   3.670  1.00  0.00    -0.453 OA
ATOM     18  C   UNL     1      -3.483   0.757   3.849  1.00  0.00     0.468 C 
BRANCH  12  19
ATOM     19  O   UNL     1       0.230   3.225   0.220  1.00  0.00    -0.507 OA
ATOM     20  H   UNL     1       0.785   2.744  -0.431  1.00  0.00     0.293 HD
ENDBRANCH  12  19
ENDBRANCH   1  10
BRANCH   1  21
ATOM     21  N   UNL     1       1.389   1.075  -1.106  1.00  0.00    -0.288 NA
ATOM     22  C   UNL     1       2.051   0.695  -2.386  1.00  0.00     0.114 C 
ATOM     23  C   UNL     1       2.257   0.627   0.031  1.00  0.00     0.114 C 
ATOM     24  C   UNL     1       2.950  -0.546  -2.282  1.00  0.00     0.175 C 
ATOM     25  C   UNL     1       3.748   0.587  -0.335  1.00  0.00     0.175 C 
ATOM     26  O   UNL     1       4.027  -0.384  -1.351  1.00  0.00    -0.379 OA
ENDBRANCH   1  21
TORSDOF 5
