REMARK SMILES COCCNC(=O)NC(=O)CN1CCN(S(=O)(=O)c2ccc(C(C)=O)cc2)CC1
REMARK SMILES IDX 11 1 9 2 5 3 6 4 7 5 8 6 10 7 4 10 3 11 2 12 1 13 12 14
REMARK SMILES IDX 13 15 29 16 14 17 28 18 15 19 16 20 17 21 18 22 19 23 20 24
REMARK SMILES IDX 27 25 21 26 26 27 22 28 23 29 25 30 24 31
REMARK H PARENT 5 8 8 9
ROOT
ATOM      1  C   UNL     1      -0.084   2.565   0.091  1.00  0.00     0.185 C 
ENDROOT
BRANCH   1   2
ATOM      2  C   UNL     1      -0.702   3.439   1.194  1.00  0.00     0.242 C 
ATOM      3  N   UNL     1      -2.878   1.857   3.490  1.00  0.00    -0.335 N 
ATOM      4  C   UNL     1      -1.672   2.339   3.020  1.00  0.00     0.321 C 
ATOM      5  O   UNL     1      -0.614   2.220   3.621  1.00  0.00    -0.248 OA
ATOM      6  N   UNL     1      -1.824   2.888   1.773  1.00  0.00    -0.277 N 
ATOM      7  O   UNL     1      -0.299   4.562   1.489  1.00  0.00    -0.273 OA
ATOM      8  H   UNL     1      -3.656   2.456   3.248  1.00  0.00     0.165 HD
ATOM      9  H   UNL     1      -2.330   2.235   1.196  1.00  0.00     0.174 HD
BRANCH   3  10
ATOM     10  C   UNL     1      -2.925   1.269   4.821  1.00  0.00     0.146 C 
BRANCH  10  11
ATOM     11  C   UNL     1      -4.277   0.621   5.123  1.00  0.00     0.181 C 
BRANCH  11  12
ATOM     12  O   UNL     1      -4.281  -0.106   6.351  1.00  0.00    -0.383 OA
ATOM     13  C   UNL     1      -4.297   0.727   7.503  1.00  0.00     0.194 C 
ENDBRANCH  11  12
ENDBRANCH  10  11
ENDBRANCH   3  10
ENDBRANCH   1   2
BRANCH   1  14
ATOM     14  N   UNL     1       1.392   2.635   0.072  1.00  0.00    -0.292 NA
ATOM     15  C   UNL     1       1.941   1.864  -1.067  1.00  0.00     0.102 C 
ATOM     16  C   UNL     1       1.992   2.156   1.337  1.00  0.00     0.102 C 
ATOM     17  C   UNL     1       2.640   0.530  -0.714  1.00  0.00     0.118 C 
ATOM     18  C   UNL     1       1.818   0.645   1.616  1.00  0.00     0.118 C 
ATOM     19  N   UNL     1       1.874  -0.176   0.353  1.00  0.00    -0.195 NA
BRANCH  19  20
ATOM     20  S   UNL     1       2.328  -1.793   0.640  1.00  0.00     0.243 S 
ATOM     21  O   UNL     1       1.472  -2.321   1.680  1.00  0.00    -0.207 OA
ATOM     22  O   UNL     1       3.770  -1.828   0.755  1.00  0.00    -0.207 OA
BRANCH  20  23
ATOM     23  C   UNL     1       1.861  -2.601  -0.873  1.00  0.00     0.082 A 
ATOM     24  C   UNL     1       0.503  -2.780  -1.153  1.00  0.00     0.022 A 
ATOM     25  C   UNL     1       2.840  -3.075  -1.749  1.00  0.00     0.022 A 
ATOM     26  C   UNL     1       0.118  -3.428  -2.331  1.00  0.00     0.013 A 
ATOM     27  C   UNL     1       2.450  -3.716  -2.927  1.00  0.00     0.013 A 
ATOM     28  C   UNL     1       1.090  -3.898  -3.225  1.00  0.00     0.017 A 
BRANCH  28  29
ATOM     29  C   UNL     1       0.730  -4.591  -4.498  1.00  0.00     0.159 C 
ATOM     30  O   UNL     1       1.606  -4.846  -5.322  1.00  0.00    -0.295 OA
ATOM     31  C   UNL     1      -0.709  -4.956  -4.750  1.00  0.00     0.093 C 
ENDBRANCH  28  29
ENDBRANCH  20  23
ENDBRANCH  19  20
ENDBRANCH   1  14
TORSDOF 8
