REMARK SMILES COCCN(C(=O)COC(=O)c1cccc(C#N)c1)c1c(N)n(Cc2ccccc2)c(=O)[nH]c1=O
REMARK SMILES IDX 6 1 7 2 5 3 4 4 3 5 2 6 1 7 20 8 21 9 34 10 23 11 33 12
REMARK SMILES IDX 35 13 31 14 32 15 22 17 24 20 25 21 26 22 30 23 27 24 29 25
REMARK SMILES IDX 28 26 8 27 9 28 10 29 11 30 12 31 13 32 19 33 14 34 16 35
REMARK SMILES IDX 15 36 17 37 18 38
REMARK H PARENT 33 16 22 18 22 19
ROOT
ATOM      1  C   UNL     1       1.001  -1.298   0.997  1.00  0.00     0.265 C 
ATOM      2  O   UNL     1       1.620  -2.367   1.007  1.00  0.00    -0.271 OA
ENDROOT
BRANCH   1   3
ATOM      3  N   UNL     1       0.662  -0.623   2.180  1.00  0.00    -0.299 N 
BRANCH   3   4
ATOM      4  C   UNL     1       0.398  -1.477   3.352  1.00  0.00     0.154 C 
BRANCH   4   5
ATOM      5  C   UNL     1      -0.968  -2.188   3.299  1.00  0.00     0.181 C 
BRANCH   5   6
ATOM      6  O   UNL     1      -0.952  -3.241   2.331  1.00  0.00    -0.383 OA
ATOM      7  C   UNL     1      -2.187  -3.944   2.295  1.00  0.00     0.194 C 
ENDBRANCH   5   6
ENDBRANCH   4   5
ENDBRANCH   3   4
BRANCH   3   8
ATOM      8  C   UNL     1       0.584   0.778   2.293  1.00  0.00     0.151 C 
ATOM      9  C   UNL     1       1.423   1.630   1.639  1.00  0.00     0.137 C 
ATOM     10  C   UNL     1      -0.442   1.399   3.197  1.00  0.00     0.279 C 
ATOM     11  N   UNL     1       1.179   3.003   1.667  1.00  0.00    -0.274 N 
ATOM     12  N   UNL     1      -0.321   2.731   3.425  1.00  0.00    -0.272 N 
ATOM     13  O   UNL     1      -1.358   0.765   3.713  1.00  0.00    -0.267 OA
ATOM     14  C   UNL     1       0.262   3.577   2.536  1.00  0.00     0.330 C 
ATOM     15  O   UNL     1      -0.051   4.766   2.544  1.00  0.00    -0.248 OA
ATOM     16  H   UNL     1      -1.061   3.145   3.972  1.00  0.00     0.175 HD
BRANCH   9  17
ATOM     17  N   UNL     1       2.545   1.148   0.964  1.00  0.00    -0.383 N 
ATOM     18  H   UNL     1       2.852   0.243   1.329  1.00  0.00     0.158 HD
ATOM     19  H   UNL     1       3.326   1.796   1.027  1.00  0.00     0.158 HD
ENDBRANCH   9  17
BRANCH  11  20
ATOM     20  C   UNL     1       1.715   3.882   0.617  1.00  0.00     0.164 C 
BRANCH  20  21
ATOM     21  C   UNL     1       0.867   3.844  -0.638  1.00  0.00    -0.028 A 
ATOM     22  C   UNL     1      -0.211   4.727  -0.796  1.00  0.00     0.005 A 
ATOM     23  C   UNL     1       1.113   2.895  -1.641  1.00  0.00     0.005 A 
ATOM     24  C   UNL     1      -1.021   4.664  -1.932  1.00  0.00     0.000 A 
ATOM     25  C   UNL     1       0.298   2.827  -2.772  1.00  0.00     0.000 A 
ATOM     26  C   UNL     1      -0.767   3.713  -2.918  1.00  0.00     0.000 A 
ENDBRANCH  20  21
ENDBRANCH  11  20
ENDBRANCH   3   8
ENDBRANCH   1   3
BRANCH   1  27
ATOM     27  C   UNL     1       0.514  -0.693  -0.325  1.00  0.00     0.333 C 
BRANCH  27  28
ATOM     28  O   UNL     1      -0.234  -1.723  -0.985  1.00  0.00    -0.452 OA
BRANCH  28  29
ATOM     29  C   UNL     1      -0.260  -1.661  -2.332  1.00  0.00     0.338 C 
ATOM     30  O   UNL     1       0.242  -0.793  -3.027  1.00  0.00    -0.246 OA
BRANCH  29  31
ATOM     31  C   UNL     1      -1.022  -2.821  -2.872  1.00  0.00     0.061 A 
ATOM     32  C   UNL     1      -1.242  -2.885  -4.255  1.00  0.00     0.016 A 
ATOM     33  C   UNL     1      -1.521  -3.838  -2.044  1.00  0.00     0.035 A 
ATOM     34  C   UNL     1      -1.957  -3.950  -4.806  1.00  0.00     0.002 A 
ATOM     35  C   UNL     1      -2.243  -4.902  -2.596  1.00  0.00     0.053 A 
ATOM     36  C   UNL     1      -2.459  -4.955  -3.978  1.00  0.00     0.019 A 
ATOM     37  C   UNL     1      -2.767  -5.930  -1.745  1.00  0.00     0.099 C 
ATOM     38  N   UNL     1      -3.203  -6.755  -1.055  1.00  0.00    -0.192 NA
ENDBRANCH  29  31
ENDBRANCH  28  29
ENDBRANCH  27  28
ENDBRANCH   1  27
TORSDOF 12
