MODEL 1
REMARK VINA RESULT:    -7.709      0.000      0.000
REMARK INTER + INTRA:          -8.509
REMARK INTER:                  -8.160
REMARK INTRA:                  -0.348
REMARK UNBOUND:                -0.348
REMARK SMILES c1ccc2c(c1)/C(=N/NC1=NCCN1)c1nc3ccccc3nc1-2
REMARK SMILES IDX 9 1 10 2 11 3 12 4 13 5 14 6 8 9 1 10 2 11 6 12 3 13 5 14
REMARK SMILES IDX 4 15 7 16 24 17 15 18 23 19 16 20 22 21 17 22 21 23 18 24
REMARK SMILES IDX 20 25 19 26
REMARK H PARENT 9 7 14 8
ROOT
ATOM      1  N   UNL     1      12.799 -20.078 -50.351  1.00  0.00    -0.247 N 
ATOM      2  C   UNL     1      13.400 -19.337 -51.327  1.00  0.00     0.212 C 
ATOM      3  N   UNL     1      13.142 -19.311 -52.606  1.00  0.00    -0.250 NA
ATOM      4  C   UNL     1      14.098 -18.318 -53.155  1.00  0.00     0.167 C 
ATOM      5  C   UNL     1      15.128 -18.065 -52.054  1.00  0.00     0.139 C 
ATOM      6  N   UNL     1      14.432 -18.551 -50.881  1.00  0.00    -0.353 N 
ATOM      7  H   UNL     1      12.947 -19.731 -49.402  1.00  0.00     0.193 HD
ATOM      8  H   UNL     1      15.024 -19.019 -50.207  1.00  0.00     0.163 HD
ENDROOT
BRANCH   1   9
ATOM      9  N   UNL     1      11.787 -20.967 -50.567  1.00  0.00    -0.170 NA
ATOM     10  C   UNL     1       8.905 -24.347 -50.721  1.00  0.00     0.001 A 
ATOM     11  C   UNL     1       9.261 -25.400 -49.853  1.00  0.00     0.001 A 
ATOM     12  C   UNL     1       9.690 -23.196 -50.810  1.00  0.00     0.011 A 
ATOM     13  C   UNL     1      10.410 -25.323 -49.056  1.00  0.00     0.011 A 
ATOM     14  C   UNL     1      10.819 -23.143 -50.016  1.00  0.00     0.014 A 
ATOM     15  C   UNL     1      11.188 -24.184 -49.145  1.00  0.00     0.012 A 
ATOM     16  C   UNL     1      11.833 -22.071 -49.893  1.00  0.00     0.119 C 
ATOM     17  C   UNL     1      12.402 -23.803 -48.473  1.00  0.00     0.100 A 
ATOM     18  C   UNL     1      12.809 -22.550 -48.898  1.00  0.00     0.118 A 
ATOM     19  N   UNL     1      13.077 -24.513 -47.557  1.00  0.00    -0.244 NA
ATOM     20  N   UNL     1      13.899 -21.892 -48.464  1.00  0.00    -0.242 NA
ATOM     21  C   UNL     1      14.187 -23.894 -47.086  1.00  0.00     0.089 A 
ATOM     22  C   UNL     1      14.594 -22.589 -47.538  1.00  0.00     0.090 A 
ATOM     23  C   UNL     1      14.959 -24.542 -46.133  1.00  0.00     0.030 A 
ATOM     24  C   UNL     1      15.743 -22.024 -47.001  1.00  0.00     0.030 A 
ATOM     25  C   UNL     1      16.111 -23.955 -45.608  1.00  0.00     0.002 A 
ATOM     26  C   UNL     1      16.503 -22.695 -46.042  1.00  0.00     0.002 A 
ENDBRANCH   1   9
TORSDOF 1
ENDMDL
MODEL 2
REMARK VINA RESULT:    -7.491     25.337     26.619
REMARK INTER + INTRA:          -8.277
REMARK INTER:                  -7.901
REMARK INTRA:                  -0.377
REMARK UNBOUND:                -0.348
REMARK SMILES c1ccc2c(c1)/C(=N/NC1=NCCN1)c1nc3ccccc3nc1-2
REMARK SMILES IDX 9 1 10 2 11 3 12 4 13 5 14 6 8 9 1 10 2 11 6 12 3 13 5 14
REMARK SMILES IDX 4 15 7 16 24 17 15 18 23 19 16 20 22 21 17 22 21 23 18 24
REMARK SMILES IDX 20 25 19 26
REMARK H PARENT 9 7 14 8
ROOT
ATOM      1  N   UNL     1       1.919  -7.628 -34.345  1.00  0.00    -0.247 N 
ATOM      2  C   UNL     1       0.925  -8.360 -33.760  1.00  0.00     0.212 C 
ATOM      3  N   UNL     1       0.685  -8.541 -32.491  1.00  0.00    -0.250 NA
ATOM      4  C   UNL     1      -0.519  -9.408 -32.463  1.00  0.00     0.167 C 
ATOM      5  C   UNL     1      -0.691  -9.942 -33.885  1.00  0.00     0.139 C 
ATOM      6  N   UNL     1       0.107  -9.007 -34.651  1.00  0.00    -0.353 N 
ATOM      7  H   UNL     1       1.747  -7.381 -35.320  1.00  0.00     0.193 HD
ATOM      8  H   UNL     1       0.611  -9.422 -35.424  1.00  0.00     0.163 HD
ENDROOT
BRANCH   1   9
ATOM      9  N   UNL     1       2.879  -6.943 -33.660  1.00  0.00    -0.170 NA
ATOM     10  C   UNL     1       5.611  -4.023 -31.719  1.00  0.00     0.001 A 
ATOM     11  C   UNL     1       5.231  -2.687 -31.959  1.00  0.00     0.001 A 
ATOM     12  C   UNL     1       4.873  -5.083 -32.247  1.00  0.00     0.011 A 
ATOM     13  C   UNL     1       4.104  -2.383 -32.732  1.00  0.00     0.011 A 
ATOM     14  C   UNL     1       3.765  -4.760 -33.007  1.00  0.00     0.014 A 
ATOM     15  C   UNL     1       3.372  -3.432 -33.255  1.00  0.00     0.012 A 
ATOM     16  C   UNL     1       2.799  -5.651 -33.689  1.00  0.00     0.119 C 
ATOM     17  C   UNL     1       2.187  -3.455 -34.070  1.00  0.00     0.100 A 
ATOM     18  C   UNL     1       1.822  -4.763 -34.344  1.00  0.00     0.118 A 
ATOM     19  N   UNL     1       1.493  -2.400 -34.520  1.00  0.00    -0.244 NA
ATOM     20  N   UNL     1       0.757  -5.142 -35.072  1.00  0.00    -0.242 NA
ATOM     21  C   UNL     1       0.407  -2.727 -35.261  1.00  0.00     0.089 A 
ATOM     22  C   UNL     1       0.041  -4.093 -35.534  1.00  0.00     0.090 A 
ATOM     23  C   UNL     1      -0.383  -1.709 -35.776  1.00  0.00     0.030 A 
ATOM     24  C   UNL     1      -1.090  -4.342 -36.300  1.00  0.00     0.030 A 
ATOM     25  C   UNL     1      -1.515  -1.983 -36.544  1.00  0.00     0.002 A 
ATOM     26  C   UNL     1      -1.869  -3.301 -36.806  1.00  0.00     0.002 A 
ENDBRANCH   1   9
TORSDOF 1
ENDMDL
MODEL 3
REMARK VINA RESULT:    -7.448      4.290      6.906
REMARK INTER + INTRA:          -8.232
REMARK INTER:                  -7.841
REMARK INTRA:                  -0.391
REMARK UNBOUND:                -0.348
REMARK SMILES c1ccc2c(c1)/C(=N/NC1=NCCN1)c1nc3ccccc3nc1-2
REMARK SMILES IDX 9 1 10 2 11 3 12 4 13 5 14 6 8 9 1 10 2 11 6 12 3 13 5 14
REMARK SMILES IDX 4 15 7 16 24 17 15 18 23 19 16 20 22 21 17 22 21 23 18 24
REMARK SMILES IDX 20 25 19 26
REMARK H PARENT 9 7 14 8
ROOT
ATOM      1  N   UNL     1      18.025 -23.567 -45.311  1.00  0.00    -0.247 N 
ATOM      2  C   UNL     1      18.997 -22.857 -44.667  1.00  0.00     0.212 C 
ATOM      3  N   UNL     1      19.298 -21.593 -44.785  1.00  0.00    -0.250 NA
ATOM      4  C   UNL     1      20.421 -21.390 -43.836  1.00  0.00     0.167 C 
ATOM      5  C   UNL     1      20.902 -22.787 -43.443  1.00  0.00     0.139 C 
ATOM      6  N   UNL     1      19.768 -23.606 -43.815  1.00  0.00    -0.353 N 
ATOM      7  H   UNL     1      17.772 -24.446 -44.860  1.00  0.00     0.193 HD
ATOM      8  H   UNL     1      20.012 -24.512 -44.193  1.00  0.00     0.163 HD
ENDROOT
BRANCH   1   9
ATOM      9  N   UNL     1      17.174 -23.044 -46.240  1.00  0.00    -0.170 NA
ATOM     10  C   UNL     1      13.796 -21.555 -48.717  1.00  0.00     0.001 A 
ATOM     11  C   UNL     1      12.548 -21.717 -48.081  1.00  0.00     0.001 A 
ATOM     12  C   UNL     1      14.976 -21.963 -48.093  1.00  0.00     0.011 A 
ATOM     13  C   UNL     1      12.455 -22.290 -46.806  1.00  0.00     0.011 A 
ATOM     14  C   UNL     1      14.860 -22.526 -46.836  1.00  0.00     0.014 A 
ATOM     15  C   UNL     1      13.623 -22.695 -46.188  1.00  0.00     0.012 A 
ATOM     16  C   UNL     1      15.915 -23.048 -45.938  1.00  0.00     0.119 C 
ATOM     17  C   UNL     1      13.862 -23.302 -44.906  1.00  0.00     0.100 A 
ATOM     18  C   UNL     1      15.218 -23.524 -44.730  1.00  0.00     0.118 A 
ATOM     19  N   UNL     1      12.948 -23.622 -43.979  1.00  0.00    -0.244 NA
ATOM     20  N   UNL     1      15.786 -24.069 -43.640  1.00  0.00    -0.242 NA
ATOM     21  C   UNL     1      13.469 -24.176 -42.857  1.00  0.00     0.089 A 
ATOM     22  C   UNL     1      14.882 -24.397 -42.689  1.00  0.00     0.090 A 
ATOM     23  C   UNL     1      12.610 -24.544 -41.832  1.00  0.00     0.030 A 
ATOM     24  C   UNL     1      15.334 -24.968 -41.507  1.00  0.00     0.030 A 
ATOM     25  C   UNL     1      13.087 -25.116 -40.652  1.00  0.00     0.002 A 
ATOM     26  C   UNL     1      14.450 -25.328 -40.489  1.00  0.00     0.002 A 
ENDBRANCH   1   9
TORSDOF 1
ENDMDL
MODEL 4
REMARK VINA RESULT:    -7.423      4.670      8.311
REMARK INTER + INTRA:          -8.205
REMARK INTER:                  -7.877
REMARK INTRA:                  -0.328
REMARK UNBOUND:                -0.348
REMARK SMILES c1ccc2c(c1)/C(=N/NC1=NCCN1)c1nc3ccccc3nc1-2
REMARK SMILES IDX 9 1 10 2 11 3 12 4 13 5 14 6 8 9 1 10 2 11 6 12 3 13 5 14
REMARK SMILES IDX 4 15 7 16 24 17 15 18 23 19 16 20 22 21 17 22 21 23 18 24
REMARK SMILES IDX 20 25 19 26
REMARK H PARENT 9 7 14 8
ROOT
ATOM      1  N   UNL     1      12.220 -23.848 -43.717  1.00  0.00    -0.247 N 
ATOM      2  C   UNL     1      12.055 -24.512 -44.899  1.00  0.00     0.212 C 
ATOM      3  N   UNL     1      12.044 -25.798 -45.117  1.00  0.00    -0.250 NA
ATOM      4  C   UNL     1      11.815 -25.923 -46.578  1.00  0.00     0.167 C 
ATOM      5  C   UNL     1      12.041 -24.530 -47.164  1.00  0.00     0.139 C 
ATOM      6  N   UNL     1      11.920 -23.692 -45.990  1.00  0.00    -0.353 N 
ATOM      7  H   UNL     1      11.902 -22.879 -43.727  1.00  0.00     0.193 HD
ATOM      8  H   UNL     1      12.552 -22.901 -45.973  1.00  0.00     0.163 HD
ENDROOT
BRANCH   1   9
ATOM      9  N   UNL     1      12.423 -24.454 -42.512  1.00  0.00    -0.170 NA
ATOM     10  C   UNL     1      13.899 -26.252 -38.724  1.00  0.00     0.001 A 
ATOM     11  C   UNL     1      15.294 -26.114 -38.569  1.00  0.00     0.001 A 
ATOM     12  C   UNL     1      13.251 -25.748 -39.853  1.00  0.00     0.011 A 
ATOM     13  C   UNL     1      16.070 -25.468 -39.540  1.00  0.00     0.011 A 
ATOM     14  C   UNL     1      14.036 -25.115 -40.798  1.00  0.00     0.014 A 
ATOM     15  C   UNL     1      15.428 -24.969 -40.658  1.00  0.00     0.012 A 
ATOM     16  C   UNL     1      13.643 -24.489 -42.081  1.00  0.00     0.119 C 
ATOM     17  C   UNL     1      15.928 -24.267 -41.810  1.00  0.00     0.100 A 
ATOM     18  C   UNL     1      14.888 -23.968 -42.674  1.00  0.00     0.118 A 
ATOM     19  N   UNL     1      17.199 -23.921 -42.058  1.00  0.00    -0.244 NA
ATOM     20  N   UNL     1      15.005 -23.309 -43.840  1.00  0.00    -0.242 NA
ATOM     21  C   UNL     1      17.373 -23.253 -43.224  1.00  0.00     0.089 A 
ATOM     22  C   UNL     1      16.279 -22.948 -44.110  1.00  0.00     0.090 A 
ATOM     23  C   UNL     1      18.651 -22.846 -43.578  1.00  0.00     0.030 A 
ATOM     24  C   UNL     1      16.542 -22.256 -45.285  1.00  0.00     0.030 A 
ATOM     25  C   UNL     1      18.893 -22.153 -44.765  1.00  0.00     0.002 A 
ATOM     26  C   UNL     1      17.837 -21.857 -45.619  1.00  0.00     0.002 A 
ENDBRANCH   1   9
TORSDOF 1
ENDMDL
MODEL 5
REMARK VINA RESULT:    -7.248     25.255     26.025
REMARK INTER + INTRA:          -8.020
REMARK INTER:                  -7.736
REMARK INTRA:                  -0.284
REMARK UNBOUND:                -0.348
REMARK SMILES c1ccc2c(c1)/C(=N/NC1=NCCN1)c1nc3ccccc3nc1-2
REMARK SMILES IDX 9 1 10 2 11 3 12 4 13 5 14 6 8 9 1 10 2 11 6 12 3 13 5 14
REMARK SMILES IDX 4 15 7 16 24 17 15 18 23 19 16 20 22 21 17 22 21 23 18 24
REMARK SMILES IDX 20 25 19 26
REMARK H PARENT 9 7 14 8
ROOT
ATOM      1  N   UNL     1       3.286  -6.543 -33.586  1.00  0.00    -0.247 N 
ATOM      2  C   UNL     1       3.680  -5.516 -32.777  1.00  0.00     0.212 C 
ATOM      3  N   UNL     1       3.361  -5.290 -31.532  1.00  0.00    -0.250 NA
ATOM      4  C   UNL     1       4.093  -4.047 -31.183  1.00  0.00     0.167 C 
ATOM      5  C   UNL     1       4.577  -3.454 -32.506  1.00  0.00     0.139 C 
ATOM      6  N   UNL     1       4.489  -4.595 -33.392  1.00  0.00    -0.353 N 
ATOM      7  H   UNL     1       3.876  -6.688 -34.405  1.00  0.00     0.193 HD
ATOM      8  H   UNL     1       4.193  -4.372 -34.333  1.00  0.00     0.163 HD
ENDROOT
BRANCH   1   9
ATOM      9  N   UNL     1       2.442  -7.545 -33.207  1.00  0.00    -0.170 NA
ATOM     10  C   UNL     1      -0.909 -10.330 -32.324  1.00  0.00     0.001 A 
ATOM     11  C   UNL     1      -2.144  -9.862 -32.818  1.00  0.00     0.001 A 
ATOM     12  C   UNL     1       0.261  -9.590 -32.506  1.00  0.00     0.011 A 
ATOM     13  C   UNL     1      -2.234  -8.645 -33.505  1.00  0.00     0.011 A 
ATOM     14  C   UNL     1       0.148  -8.393 -33.185  1.00  0.00     0.014 A 
ATOM     15  C   UNL     1      -1.075  -7.912 -33.684  1.00  0.00     0.012 A 
ATOM     16  C   UNL     1       1.196  -7.403 -33.527  1.00  0.00     0.119 C 
ATOM     17  C   UNL     1      -0.835  -6.652 -34.335  1.00  0.00     0.100 A 
ATOM     18  C   UNL     1       0.507  -6.323 -34.257  1.00  0.00     0.118 A 
ATOM     19  N   UNL     1      -1.738  -5.872 -34.947  1.00  0.00    -0.244 NA
ATOM     20  N   UNL     1       1.073  -5.216 -34.770  1.00  0.00    -0.242 NA
ATOM     21  C   UNL     1      -1.219  -4.741 -35.483  1.00  0.00     0.089 A 
ATOM     22  C   UNL     1       0.181  -4.416 -35.395  1.00  0.00     0.090 A 
ATOM     23  C   UNL     1      -2.068  -3.862 -36.141  1.00  0.00     0.030 A 
ATOM     24  C   UNL     1       0.632  -3.238 -35.974  1.00  0.00     0.030 A 
ATOM     25  C   UNL     1      -1.592  -2.683 -36.716  1.00  0.00     0.002 A 
ATOM     26  C   UNL     1      -0.241  -2.371 -36.633  1.00  0.00     0.002 A 
ENDBRANCH   1   9
TORSDOF 1
ENDMDL
MODEL 6
REMARK VINA RESULT:    -6.833      1.026      4.903
REMARK INTER + INTRA:          -7.581
REMARK INTER:                  -7.203
REMARK INTRA:                  -0.377
REMARK UNBOUND:                -0.348
REMARK SMILES c1ccc2c(c1)/C(=N/NC1=NCCN1)c1nc3ccccc3nc1-2
REMARK SMILES IDX 9 1 10 2 11 3 12 4 13 5 14 6 8 9 1 10 2 11 6 12 3 13 5 14
REMARK SMILES IDX 4 15 7 16 24 17 15 18 23 19 16 20 22 21 17 22 21 23 18 24
REMARK SMILES IDX 20 25 19 26
REMARK H PARENT 9 7 14 8
ROOT
ATOM      1  N   UNL     1      13.493 -20.238 -49.883  1.00  0.00    -0.247 N 
ATOM      2  C   UNL     1      13.817 -20.082 -51.200  1.00  0.00     0.212 C 
ATOM      3  N   UNL     1      14.863 -20.527 -51.841  1.00  0.00    -0.250 NA
ATOM      4  C   UNL     1      14.667 -20.061 -53.236  1.00  0.00     0.167 C 
ATOM      5  C   UNL     1      13.548 -19.022 -53.184  1.00  0.00     0.139 C 
ATOM      6  N   UNL     1      12.924 -19.323 -51.912  1.00  0.00    -0.353 N 
ATOM      7  H   UNL     1      12.510 -20.073 -49.665  1.00  0.00     0.193 HD
ATOM      8  H   UNL     1      12.599 -18.511 -51.403  1.00  0.00     0.163 HD
ENDROOT
BRANCH   1   9
ATOM      9  N   UNL     1      14.257 -20.910 -48.974  1.00  0.00    -0.170 NA
ATOM     10  C   UNL     1      16.122 -23.666 -46.027  1.00  0.00     0.001 A 
ATOM     11  C   UNL     1      15.347 -24.823 -45.805  1.00  0.00     0.001 A 
ATOM     12  C   UNL     1      15.699 -22.682 -46.922  1.00  0.00     0.011 A 
ATOM     13  C   UNL     1      14.132 -25.020 -46.475  1.00  0.00     0.011 A 
ATOM     14  C   UNL     1      14.498 -22.897 -47.571  1.00  0.00     0.014 A 
ATOM     15  C   UNL     1      13.713 -24.045 -47.361  1.00  0.00     0.012 A 
ATOM     16  C   UNL     1      13.798 -22.048 -48.561  1.00  0.00     0.119 C 
ATOM     17  C   UNL     1      12.541 -23.951 -48.190  1.00  0.00     0.100 A 
ATOM     18  C   UNL     1      12.565 -22.773 -48.916  1.00  0.00     0.118 A 
ATOM     19  N   UNL     1      11.546 -24.844 -48.289  1.00  0.00    -0.244 NA
ATOM     20  N   UNL     1      11.627 -22.375 -49.793  1.00  0.00    -0.242 NA
ATOM     21  C   UNL     1      10.572 -24.492 -49.163  1.00  0.00     0.089 A 
ATOM     22  C   UNL     1      10.614 -23.263 -49.912  1.00  0.00     0.090 A 
ATOM     23  C   UNL     1       9.495 -25.347 -49.344  1.00  0.00     0.030 A 
ATOM     24  C   UNL     1       9.577 -22.979 -50.790  1.00  0.00     0.030 A 
ATOM     25  C   UNL     1       8.462 -25.041 -50.231  1.00  0.00     0.002 A 
ATOM     26  C   UNL     1       8.504 -23.856 -50.955  1.00  0.00     0.002 A 
ENDBRANCH   1   9
TORSDOF 1
ENDMDL
MODEL 7
REMARK VINA RESULT:    -6.665      5.587      8.919
REMARK INTER + INTRA:          -7.403
REMARK INTER:                  -7.180
REMARK INTRA:                  -0.223
REMARK UNBOUND:                -0.348
REMARK SMILES c1ccc2c(c1)/C(=N/NC1=NCCN1)c1nc3ccccc3nc1-2
REMARK SMILES IDX 9 1 10 2 11 3 12 4 13 5 14 6 8 9 1 10 2 11 6 12 3 13 5 14
REMARK SMILES IDX 4 15 7 16 24 17 15 18 23 19 16 20 22 21 17 22 21 23 18 24
REMARK SMILES IDX 20 25 19 26
REMARK H PARENT 9 7 14 8
ROOT
ATOM      1  N   UNL     1      13.257 -25.688 -41.743  1.00  0.00    -0.247 N 
ATOM      2  C   UNL     1      13.355 -25.232 -40.460  1.00  0.00     0.212 C 
ATOM      3  N   UNL     1      13.274 -24.006 -40.021  1.00  0.00    -0.250 NA
ATOM      4  C   UNL     1      13.442 -24.127 -38.552  1.00  0.00     0.167 C 
ATOM      5  C   UNL     1      13.959 -25.543 -38.299  1.00  0.00     0.139 C 
ATOM      6  N   UNL     1      13.606 -26.212 -39.534  1.00  0.00    -0.353 N 
ATOM      7  H   UNL     1      13.052 -26.684 -41.825  1.00  0.00     0.193 HD
ATOM      8  H   UNL     1      14.286 -26.892 -39.850  1.00  0.00     0.163 HD
ENDROOT
BRANCH   1   9
ATOM      9  N   UNL     1      13.061 -24.892 -42.833  1.00  0.00    -0.170 NA
ATOM     10  C   UNL     1      13.265 -22.284 -46.427  1.00  0.00     0.001 A 
ATOM     11  C   UNL     1      14.590 -22.049 -46.848  1.00  0.00     0.001 A 
ATOM     12  C   UNL     1      12.999 -23.082 -45.313  1.00  0.00     0.011 A 
ATOM     13  C   UNL     1      15.677 -22.608 -46.165  1.00  0.00     0.011 A 
ATOM     14  C   UNL     1      14.086 -23.623 -44.654  1.00  0.00     0.014 A 
ATOM     15  C   UNL     1      15.413 -23.398 -45.061  1.00  0.00     0.012 A 
ATOM     16  C   UNL     1      14.122 -24.497 -43.459  1.00  0.00     0.119 C 
ATOM     17  C   UNL     1      16.288 -24.105 -44.164  1.00  0.00     0.100 A 
ATOM     18  C   UNL     1      15.548 -24.768 -43.201  1.00  0.00     0.118 A 
ATOM     19  N   UNL     1      17.627 -24.155 -44.211  1.00  0.00    -0.244 NA
ATOM     20  N   UNL     1      16.052 -25.530 -42.214  1.00  0.00    -0.242 NA
ATOM     21  C   UNL     1      18.187 -24.912 -43.237  1.00  0.00     0.089 A 
ATOM     22  C   UNL     1      17.401 -25.597 -42.243  1.00  0.00     0.090 A 
ATOM     23  C   UNL     1      19.569 -25.032 -43.195  1.00  0.00     0.030 A 
ATOM     24  C   UNL     1      18.054 -26.355 -41.281  1.00  0.00     0.030 A 
ATOM     25  C   UNL     1      20.203 -25.800 -42.217  1.00  0.00     0.002 A 
ATOM     26  C   UNL     1      19.445 -26.462 -41.259  1.00  0.00     0.002 A 
ENDBRANCH   1   9
TORSDOF 1
ENDMDL
MODEL 8
REMARK VINA RESULT:    -6.624      4.799      8.328
REMARK INTER + INTRA:          -7.360
REMARK INTER:                  -6.990
REMARK INTRA:                  -0.370
REMARK UNBOUND:                -0.348
REMARK SMILES c1ccc2c(c1)/C(=N/NC1=NCCN1)c1nc3ccccc3nc1-2
REMARK SMILES IDX 9 1 10 2 11 3 12 4 13 5 14 6 8 9 1 10 2 11 6 12 3 13 5 14
REMARK SMILES IDX 4 15 7 16 24 17 15 18 23 19 16 20 22 21 17 22 21 23 18 24
REMARK SMILES IDX 20 25 19 26
REMARK H PARENT 9 7 14 8
ROOT
ATOM      1  N   UNL     1      13.122 -23.739 -44.930  1.00  0.00    -0.247 N 
ATOM      2  C   UNL     1      12.395 -24.522 -45.781  1.00  0.00     0.212 C 
ATOM      3  N   UNL     1      12.722 -24.962 -46.965  1.00  0.00    -0.250 NA
ATOM      4  C   UNL     1      11.552 -25.765 -47.397  1.00  0.00     0.167 C 
ATOM      5  C   UNL     1      10.420 -25.420 -46.430  1.00  0.00     0.139 C 
ATOM      6  N   UNL     1      11.146 -24.845 -45.317  1.00  0.00    -0.353 N 
ATOM      7  H   UNL     1      12.810 -23.764 -43.959  1.00  0.00     0.193 HD
ATOM      8  H   UNL     1      10.677 -24.070 -44.867  1.00  0.00     0.163 HD
ENDROOT
BRANCH   1   9
ATOM      9  N   UNL     1      14.368 -23.254 -45.201  1.00  0.00    -0.170 NA
ATOM     10  C   UNL     1      18.621 -21.966 -45.314  1.00  0.00     0.001 A 
ATOM     11  C   UNL     1      19.326 -22.331 -44.149  1.00  0.00     0.001 A 
ATOM     12  C   UNL     1      17.270 -22.286 -45.463  1.00  0.00     0.011 A 
ATOM     13  C   UNL     1      18.695 -23.024 -43.108  1.00  0.00     0.011 A 
ATOM     14  C   UNL     1      16.668 -22.969 -44.424  1.00  0.00     0.014 A 
ATOM     15  C   UNL     1      17.357 -23.341 -43.255  1.00  0.00     0.012 A 
ATOM     16  C   UNL     1      15.270 -23.440 -44.292  1.00  0.00     0.119 C 
ATOM     17  C   UNL     1      16.441 -24.035 -42.390  1.00  0.00     0.100 A 
ATOM     18  C   UNL     1      15.191 -24.109 -42.981  1.00  0.00     0.118 A 
ATOM     19  N   UNL     1      16.705 -24.558 -41.184  1.00  0.00    -0.244 NA
ATOM     20  N   UNL     1      14.107 -24.699 -42.447  1.00  0.00    -0.242 NA
ATOM     21  C   UNL     1      15.644 -25.166 -40.601  1.00  0.00     0.089 A 
ATOM     22  C   UNL     1      14.351 -25.236 -41.231  1.00  0.00     0.090 A 
ATOM     23  C   UNL     1      15.809 -25.743 -39.350  1.00  0.00     0.030 A 
ATOM     24  C   UNL     1      13.317 -25.881 -40.566  1.00  0.00     0.030 A 
ATOM     25  C   UNL     1      14.754 -26.386 -38.700  1.00  0.00     0.002 A 
ATOM     26  C   UNL     1      13.507 -26.455 -39.309  1.00  0.00     0.002 A 
ENDBRANCH   1   9
TORSDOF 1
ENDMDL
MODEL 9
REMARK VINA RESULT:    -6.557      2.786      7.260
REMARK INTER + INTRA:          -7.289
REMARK INTER:                  -7.907
REMARK INTRA:                   0.618
REMARK UNBOUND:                -0.348
REMARK SMILES c1ccc2c(c1)/C(=N/NC1=NCCN1)c1nc3ccccc3nc1-2
REMARK SMILES IDX 9 1 10 2 11 3 12 4 13 5 14 6 8 9 1 10 2 11 6 12 3 13 5 14
REMARK SMILES IDX 4 15 7 16 24 17 15 18 23 19 16 20 22 21 17 22 21 23 18 24
REMARK SMILES IDX 20 25 19 26
REMARK H PARENT 9 7 14 8
ROOT
ATOM      1  N   UNL     1      11.668 -24.284 -44.612  1.00  0.00    -0.247 N 
ATOM      2  C   UNL     1      11.342 -25.072 -45.678  1.00  0.00     0.212 C 
ATOM      3  N   UNL     1      12.111 -25.865 -46.372  1.00  0.00    -0.250 NA
ATOM      4  C   UNL     1      11.207 -26.462 -47.386  1.00  0.00     0.167 C 
ATOM      5  C   UNL     1       9.926 -25.630 -47.356  1.00  0.00     0.139 C 
ATOM      6  N   UNL     1      10.032 -24.969 -46.072  1.00  0.00    -0.353 N 
ATOM      7  H   UNL     1      10.873 -23.985 -44.046  1.00  0.00     0.193 HD
ATOM      8  H   UNL     1       9.687 -24.018 -46.061  1.00  0.00     0.163 HD
ENDROOT
BRANCH   1   9
ATOM      9  N   UNL     1      12.920 -24.184 -44.080  1.00  0.00    -0.170 NA
ATOM     10  C   UNL     1      17.182 -23.446 -43.058  1.00  0.00     0.001 A 
ATOM     11  C   UNL     1      17.855 -22.707 -44.053  1.00  0.00     0.001 A 
ATOM     12  C   UNL     1      15.834 -23.775 -43.201  1.00  0.00     0.011 A 
ATOM     13  C   UNL     1      17.193 -22.282 -45.211  1.00  0.00     0.011 A 
ATOM     14  C   UNL     1      15.201 -23.346 -44.351  1.00  0.00     0.014 A 
ATOM     15  C   UNL     1      15.857 -22.609 -45.353  1.00  0.00     0.012 A 
ATOM     16  C   UNL     1      13.796 -23.539 -44.780  1.00  0.00     0.119 C 
ATOM     17  C   UNL     1      14.912 -22.325 -46.400  1.00  0.00     0.100 A 
ATOM     18  C   UNL     1      13.677 -22.866 -46.086  1.00  0.00     0.118 A 
ATOM     19  N   UNL     1      15.137 -21.638 -47.529  1.00  0.00    -0.244 NA
ATOM     20  N   UNL     1      12.569 -22.779 -46.844  1.00  0.00    -0.242 NA
ATOM     21  C   UNL     1      14.051 -21.520 -48.330  1.00  0.00     0.089 A 
ATOM     22  C   UNL     1      12.772 -22.088 -47.987  1.00  0.00     0.090 A 
ATOM     23  C   UNL     1      14.173 -20.826 -49.525  1.00  0.00     0.030 A 
ATOM     24  C   UNL     1      11.709 -21.918 -48.863  1.00  0.00     0.030 A 
ATOM     25  C   UNL     1      13.090 -20.668 -50.391  1.00  0.00     0.002 A 
ATOM     26  C   UNL     1      11.856 -21.214 -50.059  1.00  0.00     0.002 A 
ENDBRANCH   1   9
TORSDOF 1
ENDMDL
