MODEL 1
REMARK VINA RESULT:    -8.063      0.000      0.000
REMARK INTER + INTRA:         -10.409
REMARK INTER:                  -9.713
REMARK INTRA:                  -0.696
REMARK UNBOUND:                -0.696
REMARK SMILES Oc1ccccc1-c1[nH]nc(-c2ccccc2)c1-c1ncc[nH]1
REMARK SMILES IDX 2 1 3 2 4 3 5 4 6 5 7 6 1 7 8 9 9 10 18 11 10 12 11 13 19 15
REMARK SMILES IDX 20 16 23 17 21 18 22 19 12 21 13 22 17 23 14 24 16 25 15 26
REMARK H PARENT 1 8 9 14 23 20
ROOT
ATOM      1  C   UNL     1      14.376 -25.817 -42.133  1.00  0.00     0.124 A 
ATOM      2  C   UNL     1      14.645 -26.462 -40.925  1.00  0.00     0.047 A 
ATOM      3  C   UNL     1      14.157 -25.928 -39.732  1.00  0.00     0.004 A 
ATOM      4  C   UNL     1      13.412 -24.751 -39.748  1.00  0.00     0.001 A 
ATOM      5  C   UNL     1      13.143 -24.108 -40.959  1.00  0.00     0.014 A 
ATOM      6  C   UNL     1      13.606 -24.645 -42.169  1.00  0.00     0.042 A 
ENDROOT
BRANCH   1   7
ATOM      7  O   UNL     1      14.875 -26.328 -43.301  1.00  0.00    -0.507 OA
ATOM      8  H   UNL     1      15.634 -26.900 -43.100  1.00  0.00     0.293 HD
ENDBRANCH   1   7
BRANCH   6   9
ATOM      9  C   UNL     1      13.306 -23.955 -43.422  1.00  0.00     0.080 A 
ATOM     10  N   UNL     1      12.019 -23.832 -43.870  1.00  0.00    -0.276 N 
ATOM     11  C   UNL     1      14.073 -23.328 -44.391  1.00  0.00     0.071 A 
ATOM     12  N   UNL     1      11.902 -23.294 -45.089  1.00  0.00    -0.174 NA
ATOM     13  C   UNL     1      13.164 -22.985 -45.442  1.00  0.00     0.104 A 
ATOM     14  H   UNL     1      11.176 -24.121 -43.388  1.00  0.00     0.190 HD
BRANCH  11  15
ATOM     15  C   UNL     1      15.608 -23.040 -44.302  1.00  0.00     0.141 A 
ATOM     16  N   UNL     1      16.542 -23.953 -44.129  1.00  0.00    -0.237 NA
ATOM     17  N   UNL     1      16.186 -21.801 -44.435  1.00  0.00    -0.344 N 
ATOM     18  C   UNL     1      17.738 -23.286 -44.130  1.00  0.00     0.131 A 
ATOM     19  C   UNL     1      17.541 -21.941 -44.318  1.00  0.00     0.104 A 
ATOM     20  H   UNL     1      15.689 -20.944 -44.630  1.00  0.00     0.168 HD
ENDBRANCH  11  15
BRANCH  13  21
ATOM     21  C   UNL     1      13.411 -22.359 -46.742  1.00  0.00     0.003 A 
ATOM     22  C   UNL     1      14.628 -22.578 -47.403  1.00  0.00     0.010 A 
ATOM     23  C   UNL     1      12.474 -21.498 -47.324  1.00  0.00     0.010 A 
ATOM     24  C   UNL     1      14.892 -21.968 -48.632  1.00  0.00     0.001 A 
ATOM     25  C   UNL     1      12.736 -20.889 -48.555  1.00  0.00     0.001 A 
ATOM     26  C   UNL     1      13.944 -21.125 -49.208  1.00  0.00     0.000 A 
ENDBRANCH  13  21
ENDBRANCH   6   9
TORSDOF 4
ENDMDL
MODEL 2
REMARK VINA RESULT:    -7.627      1.594      6.057
REMARK INTER + INTRA:          -9.884
REMARK INTER:                  -9.158
REMARK INTRA:                  -0.726
REMARK UNBOUND:                -0.696
REMARK SMILES Oc1ccccc1-c1[nH]nc(-c2ccccc2)c1-c1ncc[nH]1
REMARK SMILES IDX 2 1 3 2 4 3 5 4 6 5 7 6 1 7 8 9 9 10 18 11 10 12 11 13 19 15
REMARK SMILES IDX 20 16 23 17 21 18 22 19 12 21 13 22 17 23 14 24 16 25 15 26
REMARK H PARENT 1 8 9 14 23 20
ROOT
ATOM      1  C   UNL     1      12.256 -23.649 -47.620  1.00  0.00     0.124 A 
ATOM      2  C   UNL     1      12.113 -23.141 -48.912  1.00  0.00     0.047 A 
ATOM      3  C   UNL     1      12.394 -21.798 -49.162  1.00  0.00     0.004 A 
ATOM      4  C   UNL     1      12.809 -20.966 -48.124  1.00  0.00     0.001 A 
ATOM      5  C   UNL     1      12.954 -21.478 -46.833  1.00  0.00     0.014 A 
ATOM      6  C   UNL     1      12.698 -22.831 -46.568  1.00  0.00     0.042 A 
ENDROOT
BRANCH   1   7
ATOM      7  O   UNL     1      11.957 -24.961 -47.368  1.00  0.00    -0.507 OA
ATOM      8  H   UNL     1      11.015 -25.034 -47.142  1.00  0.00     0.293 HD
ENDBRANCH   1   7
BRANCH   6   9
ATOM      9  C   UNL     1      12.862 -23.341 -45.209  1.00  0.00     0.080 A 
ATOM     10  N   UNL     1      11.807 -23.881 -44.524  1.00  0.00    -0.276 N 
ATOM     11  C   UNL     1      13.927 -23.422 -44.326  1.00  0.00     0.071 A 
ATOM     12  N   UNL     1      12.068 -24.188 -43.249  1.00  0.00    -0.174 NA
ATOM     13  C   UNL     1      13.374 -23.900 -43.095  1.00  0.00     0.104 A 
ATOM     14  H   UNL     1      10.871 -24.044 -44.878  1.00  0.00     0.190 HD
BRANCH  11  15
ATOM     15  C   UNL     1      15.419 -23.088 -44.654  1.00  0.00     0.141 A 
ATOM     16  N   UNL     1      16.303 -23.947 -45.120  1.00  0.00    -0.237 NA
ATOM     17  N   UNL     1      15.992 -21.845 -44.540  1.00  0.00    -0.344 N 
ATOM     18  C   UNL     1      17.469 -23.247 -45.287  1.00  0.00     0.131 A 
ATOM     19  C   UNL     1      17.299 -21.934 -44.930  1.00  0.00     0.104 A 
ATOM     20  H   UNL     1      15.509 -21.005 -44.255  1.00  0.00     0.168 HD
ENDBRANCH  11  15
BRANCH  13  21
ATOM     21  C   UNL     1      14.008 -24.127 -41.796  1.00  0.00     0.003 A 
ATOM     22  C   UNL     1      13.216 -24.285 -40.649  1.00  0.00     0.010 A 
ATOM     23  C   UNL     1      15.401 -24.141 -41.659  1.00  0.00     0.010 A 
ATOM     24  C   UNL     1      13.804 -24.477 -39.397  1.00  0.00     0.001 A 
ATOM     25  C   UNL     1      15.991 -24.335 -40.406  1.00  0.00     0.001 A 
ATOM     26  C   UNL     1      15.192 -24.505 -39.277  1.00  0.00     0.000 A 
ENDBRANCH  13  21
ENDBRANCH   6   9
TORSDOF 4
ENDMDL
MODEL 3
REMARK VINA RESULT:    -7.607      1.599      6.244
REMARK INTER + INTRA:          -9.860
REMARK INTER:                  -9.613
REMARK INTRA:                  -0.247
REMARK UNBOUND:                -0.696
REMARK SMILES Oc1ccccc1-c1[nH]nc(-c2ccccc2)c1-c1ncc[nH]1
REMARK SMILES IDX 2 1 3 2 4 3 5 4 6 5 7 6 1 7 8 9 9 10 18 11 10 12 11 13 19 15
REMARK SMILES IDX 20 16 23 17 21 18 22 19 12 21 13 22 17 23 14 24 16 25 15 26
REMARK H PARENT 1 8 9 14 23 20
ROOT
ATOM      1  C   UNL     1      12.915 -22.833 -46.755  1.00  0.00     0.124 A 
ATOM      2  C   UNL     1      13.210 -22.327 -48.022  1.00  0.00     0.047 A 
ATOM      3  C   UNL     1      14.527 -22.001 -48.347  1.00  0.00     0.004 A 
ATOM      4  C   UNL     1      15.541 -22.174 -47.407  1.00  0.00     0.001 A 
ATOM      5  C   UNL     1      15.243 -22.682 -46.140  1.00  0.00     0.014 A 
ATOM      6  C   UNL     1      13.928 -23.036 -45.805  1.00  0.00     0.042 A 
ENDROOT
BRANCH   1   7
ATOM      7  O   UNL     1      11.620 -23.130 -46.427  1.00  0.00    -0.507 OA
ATOM      8  H   UNL     1      11.482 -24.089 -46.510  1.00  0.00     0.293 HD
ENDBRANCH   1   7
BRANCH   6   9
ATOM      9  C   UNL     1      13.645 -23.571 -44.475  1.00  0.00     0.080 A 
ATOM     10  N   UNL     1      12.364 -23.861 -44.088  1.00  0.00    -0.276 N 
ATOM     11  C   UNL     1      14.422 -23.889 -43.372  1.00  0.00     0.071 A 
ATOM     12  N   UNL     1      12.237 -24.218 -42.806  1.00  0.00    -0.174 NA
ATOM     13  C   UNL     1      13.498 -24.230 -42.334  1.00  0.00     0.104 A 
ATOM     14  H   UNL     1      11.530 -23.809 -44.659  1.00  0.00     0.190 HD
BRANCH  11  15
ATOM     15  C   UNL     1      15.985 -23.898 -43.323  1.00  0.00     0.141 A 
ATOM     16  N   UNL     1      16.741 -22.847 -43.080  1.00  0.00    -0.237 NA
ATOM     17  N   UNL     1      16.772 -25.011 -43.485  1.00  0.00    -0.344 N 
ATOM     18  C   UNL     1      18.038 -23.290 -43.107  1.00  0.00     0.131 A 
ATOM     19  C   UNL     1      18.081 -24.638 -43.360  1.00  0.00     0.104 A 
ATOM     20  H   UNL     1      16.430 -25.951 -43.628  1.00  0.00     0.168 HD
ENDBRANCH  11  15
BRANCH  13  21
ATOM     21  C   UNL     1      13.736 -24.594 -40.936  1.00  0.00     0.003 A 
ATOM     22  C   UNL     1      14.480 -25.743 -40.630  1.00  0.00     0.010 A 
ATOM     23  C   UNL     1      13.191 -23.845 -39.887  1.00  0.00     0.010 A 
ATOM     24  C   UNL     1      14.696 -26.121 -39.302  1.00  0.00     0.001 A 
ATOM     25  C   UNL     1      13.408 -24.221 -38.557  1.00  0.00     0.001 A 
ATOM     26  C   UNL     1      14.161 -25.357 -38.267  1.00  0.00     0.000 A 
ENDBRANCH  13  21
ENDBRANCH   6   9
TORSDOF 4
ENDMDL
MODEL 4
REMARK VINA RESULT:    -7.339      2.137      6.728
REMARK INTER + INTRA:          -9.536
REMARK INTER:                  -8.915
REMARK INTRA:                  -0.622
REMARK UNBOUND:                -0.696
REMARK SMILES Oc1ccccc1-c1[nH]nc(-c2ccccc2)c1-c1ncc[nH]1
REMARK SMILES IDX 2 1 3 2 4 3 5 4 6 5 7 6 1 7 8 9 9 10 18 11 10 12 11 13 19 15
REMARK SMILES IDX 20 16 23 17 21 18 22 19 12 21 13 22 17 23 14 24 16 25 15 26
REMARK H PARENT 1 8 9 14 23 20
ROOT
ATOM      1  C   UNL     1      13.150 -22.161 -46.589  1.00  0.00     0.124 A 
ATOM      2  C   UNL     1      12.649 -21.877 -47.860  1.00  0.00     0.047 A 
ATOM      3  C   UNL     1      13.528 -21.725 -48.932  1.00  0.00     0.004 A 
ATOM      4  C   UNL     1      14.902 -21.848 -48.732  1.00  0.00     0.001 A 
ATOM      5  C   UNL     1      15.400 -22.134 -47.458  1.00  0.00     0.014 A 
ATOM      6  C   UNL     1      14.529 -22.313 -46.374  1.00  0.00     0.042 A 
ENDROOT
BRANCH   1   7
ATOM      7  O   UNL     1      12.290 -22.286 -45.532  1.00  0.00    -0.507 OA
ATOM      8  H   UNL     1      11.641 -21.563 -45.562  1.00  0.00     0.293 HD
ENDBRANCH   1   7
BRANCH   6   9
ATOM      9  C   UNL     1      15.077 -22.617 -45.054  1.00  0.00     0.080 A 
ATOM     10  N   UNL     1      15.957 -21.766 -44.442  1.00  0.00    -0.276 N 
ATOM     11  C   UNL     1      14.929 -23.666 -44.161  1.00  0.00     0.071 A 
ATOM     12  N   UNL     1      16.476 -22.228 -43.300  1.00  0.00    -0.174 NA
ATOM     13  C   UNL     1      15.866 -23.413 -43.109  1.00  0.00     0.104 A 
ATOM     14  H   UNL     1      16.257 -20.857 -44.775  1.00  0.00     0.190 HD
BRANCH  11  15
ATOM     15  C   UNL     1      13.910 -24.846 -44.291  1.00  0.00     0.141 A 
ATOM     16  N   UNL     1      13.652 -25.504 -45.402  1.00  0.00    -0.237 NA
ATOM     17  N   UNL     1      13.182 -25.376 -43.255  1.00  0.00    -0.344 N 
ATOM     18  C   UNL     1      12.727 -26.461 -45.077  1.00  0.00     0.131 A 
ATOM     19  C   UNL     1      12.417 -26.398 -43.742  1.00  0.00     0.104 A 
ATOM     20  H   UNL     1      13.241 -25.081 -42.291  1.00  0.00     0.168 HD
ENDBRANCH  11  15
BRANCH  13  21
ATOM     21  C   UNL     1      16.196 -24.206 -41.924  1.00  0.00     0.003 A 
ATOM     22  C   UNL     1      17.132 -25.247 -42.017  1.00  0.00     0.010 A 
ATOM     23  C   UNL     1      15.559 -23.981 -40.698  1.00  0.00     0.010 A 
ATOM     24  C   UNL     1      17.441 -26.031 -40.903  1.00  0.00     0.001 A 
ATOM     25  C   UNL     1      15.870 -24.764 -39.581  1.00  0.00     0.001 A 
ATOM     26  C   UNL     1      16.811 -25.787 -39.685  1.00  0.00     0.000 A 
ENDBRANCH  13  21
ENDBRANCH   6   9
TORSDOF 4
ENDMDL
MODEL 5
REMARK VINA RESULT:    -6.961      3.707      7.232
REMARK INTER + INTRA:          -9.081
REMARK INTER:                  -8.209
REMARK INTRA:                  -0.872
REMARK UNBOUND:                -0.696
REMARK SMILES Oc1ccccc1-c1[nH]nc(-c2ccccc2)c1-c1ncc[nH]1
REMARK SMILES IDX 2 1 3 2 4 3 5 4 6 5 7 6 1 7 8 9 9 10 18 11 10 12 11 13 19 15
REMARK SMILES IDX 20 16 23 17 21 18 22 19 12 21 13 22 17 23 14 24 16 25 15 26
REMARK H PARENT 1 8 9 14 23 20
ROOT
ATOM      1  C   UNL     1       9.144 -23.610 -49.363  1.00  0.00     0.124 A 
ATOM      2  C   UNL     1       8.145 -23.566 -50.336  1.00  0.00     0.047 A 
ATOM      3  C   UNL     1       8.482 -23.715 -51.681  1.00  0.00     0.004 A 
ATOM      4  C   UNL     1       9.813 -23.899 -52.051  1.00  0.00     0.001 A 
ATOM      5  C   UNL     1      10.811 -23.945 -51.074  1.00  0.00     0.014 A 
ATOM      6  C   UNL     1      10.486 -23.820 -49.716  1.00  0.00     0.042 A 
ENDROOT
BRANCH   1   7
ATOM      7  O   UNL     1       8.817 -23.439 -48.045  1.00  0.00    -0.507 OA
ATOM      8  H   UNL     1       8.664 -24.309 -47.640  1.00  0.00     0.293 HD
ENDBRANCH   1   7
BRANCH   6   9
ATOM      9  C   UNL     1      11.549 -23.876 -48.715  1.00  0.00     0.080 A 
ATOM     10  N   UNL     1      11.736 -24.991 -47.944  1.00  0.00    -0.276 N 
ATOM     11  C   UNL     1      12.525 -22.990 -48.286  1.00  0.00     0.071 A 
ATOM     12  N   UNL     1      12.657 -24.857 -46.984  1.00  0.00    -0.174 NA
ATOM     13  C   UNL     1      13.152 -23.619 -47.164  1.00  0.00     0.104 A 
ATOM     14  H   UNL     1      11.241 -25.872 -48.018  1.00  0.00     0.190 HD
BRANCH  11  15
ATOM     15  C   UNL     1      12.865 -21.611 -48.942  1.00  0.00     0.141 A 
ATOM     16  N   UNL     1      13.024 -20.479 -48.287  1.00  0.00    -0.237 NA
ATOM     17  N   UNL     1      13.084 -21.409 -50.282  1.00  0.00    -0.344 N 
ATOM     18  C   UNL     1      13.330 -19.530 -49.226  1.00  0.00     0.131 A 
ATOM     19  C   UNL     1      13.371 -20.087 -50.480  1.00  0.00     0.104 A 
ATOM     20  H   UNL     1      13.075 -22.130 -50.989  1.00  0.00     0.168 HD
ENDBRANCH  11  15
BRANCH  13  21
ATOM     21  C   UNL     1      14.209 -23.134 -46.274  1.00  0.00     0.003 A 
ATOM     22  C   UNL     1      15.460 -22.782 -46.801  1.00  0.00     0.010 A 
ATOM     23  C   UNL     1      14.016 -23.059 -44.890  1.00  0.00     0.010 A 
ATOM     24  C   UNL     1      16.489 -22.342 -45.965  1.00  0.00     0.001 A 
ATOM     25  C   UNL     1      15.044 -22.616 -44.052  1.00  0.00     0.001 A 
ATOM     26  C   UNL     1      16.278 -22.257 -44.590  1.00  0.00     0.000 A 
ENDBRANCH  13  21
ENDBRANCH   6   9
TORSDOF 4
ENDMDL
MODEL 6
REMARK VINA RESULT:    -6.845      3.853      6.203
REMARK INTER + INTRA:          -8.941
REMARK INTER:                  -8.107
REMARK INTRA:                  -0.834
REMARK UNBOUND:                -0.696
REMARK SMILES Oc1ccccc1-c1[nH]nc(-c2ccccc2)c1-c1ncc[nH]1
REMARK SMILES IDX 2 1 3 2 4 3 5 4 6 5 7 6 1 7 8 9 9 10 18 11 10 12 11 13 19 15
REMARK SMILES IDX 20 16 23 17 21 18 22 19 12 21 13 22 17 23 14 24 16 25 15 26
REMARK H PARENT 1 8 9 14 23 20
ROOT
ATOM      1  C   UNL     1      13.154 -22.978 -45.471  1.00  0.00     0.124 A 
ATOM      2  C   UNL     1      14.253 -22.730 -44.647  1.00  0.00     0.047 A 
ATOM      3  C   UNL     1      15.527 -22.624 -45.206  1.00  0.00     0.004 A 
ATOM      4  C   UNL     1      15.701 -22.773 -46.581  1.00  0.00     0.001 A 
ATOM      5  C   UNL     1      14.598 -23.020 -47.403  1.00  0.00     0.014 A 
ATOM      6  C   UNL     1      13.308 -23.106 -46.860  1.00  0.00     0.042 A 
ENDROOT
BRANCH   1   7
ATOM      7  O   UNL     1      11.908 -23.106 -44.920  1.00  0.00    -0.507 OA
ATOM      8  H   UNL     1      11.284 -23.396 -45.607  1.00  0.00     0.293 HD
ENDBRANCH   1   7
BRANCH   6   9
ATOM      9  C   UNL     1      12.172 -23.359 -47.743  1.00  0.00     0.080 A 
ATOM     10  N   UNL     1      11.231 -24.302 -47.431  1.00  0.00    -0.276 N 
ATOM     11  C   UNL     1      11.755 -22.841 -48.959  1.00  0.00     0.071 A 
ATOM     12  N   UNL     1      10.321 -24.519 -48.387  1.00  0.00    -0.174 NA
ATOM     13  C   UNL     1      10.632 -23.635 -49.354  1.00  0.00     0.104 A 
ATOM     14  H   UNL     1      11.175 -24.848 -46.580  1.00  0.00     0.190 HD
BRANCH  11  15
ATOM     15  C   UNL     1      12.385 -21.614 -49.699  1.00  0.00     0.141 A 
ATOM     16  N   UNL     1      12.784 -20.502 -49.117  1.00  0.00    -0.237 NA
ATOM     17  N   UNL     1      12.641 -21.554 -51.046  1.00  0.00    -0.344 N 
ATOM     18  C   UNL     1      13.287 -19.705 -50.111  1.00  0.00     0.131 A 
ATOM     19  C   UNL     1      13.207 -20.341 -51.325  1.00  0.00     0.104 A 
ATOM     20  H   UNL     1      12.477 -22.301 -51.705  1.00  0.00     0.168 HD
ENDBRANCH  11  15
BRANCH  13  21
ATOM     21  C   UNL     1       9.820 -23.590 -50.570  1.00  0.00     0.003 A 
ATOM     22  C   UNL     1       8.542 -23.011 -50.537  1.00  0.00     0.010 A 
ATOM     23  C   UNL     1      10.269 -24.160 -51.767  1.00  0.00     0.010 A 
ATOM     24  C   UNL     1       7.742 -22.981 -51.681  1.00  0.00     0.001 A 
ATOM     25  C   UNL     1       9.470 -24.129 -52.914  1.00  0.00     0.001 A 
ATOM     26  C   UNL     1       8.208 -23.539 -52.870  1.00  0.00     0.000 A 
ENDBRANCH  13  21
ENDBRANCH   6   9
TORSDOF 4
ENDMDL
MODEL 7
REMARK VINA RESULT:    -6.778     23.355     24.638
REMARK INTER + INTRA:          -8.860
REMARK INTER:                  -8.014
REMARK INTRA:                  -0.847
REMARK UNBOUND:                -0.696
REMARK SMILES Oc1ccccc1-c1[nH]nc(-c2ccccc2)c1-c1ncc[nH]1
REMARK SMILES IDX 2 1 3 2 4 3 5 4 6 5 7 6 1 7 8 9 9 10 18 11 10 12 11 13 19 15
REMARK SMILES IDX 20 16 23 17 21 18 22 19 12 21 13 22 17 23 14 24 16 25 15 26
REMARK H PARENT 1 8 9 14 23 20
ROOT
ATOM      1  C   UNL     1      -1.150  -9.176 -34.620  1.00  0.00     0.124 A 
ATOM      2  C   UNL     1      -2.386  -9.647 -35.065  1.00  0.00     0.047 A 
ATOM      3  C   UNL     1      -3.559  -9.167 -34.481  1.00  0.00     0.004 A 
ATOM      4  C   UNL     1      -3.494  -8.227 -33.454  1.00  0.00     0.001 A 
ATOM      5  C   UNL     1      -2.255  -7.757 -33.013  1.00  0.00     0.014 A 
ATOM      6  C   UNL     1      -1.067  -8.212 -33.604  1.00  0.00     0.042 A 
ENDROOT
BRANCH   1   7
ATOM      7  O   UNL     1       0.002  -9.665 -35.176  1.00  0.00    -0.507 OA
ATOM      8  H   UNL     1       0.350  -9.016 -35.810  1.00  0.00     0.293 HD
ENDBRANCH   1   7
BRANCH   6   9
ATOM      9  C   UNL     1       0.215  -7.699 -33.127  1.00  0.00     0.080 A 
ATOM     10  N   UNL     1       0.948  -8.385 -32.197  1.00  0.00    -0.276 N 
ATOM     11  C   UNL     1       0.966  -6.566 -33.394  1.00  0.00     0.071 A 
ATOM     12  N   UNL     1       2.033  -7.740 -31.756  1.00  0.00    -0.174 NA
ATOM     13  C   UNL     1       2.061  -6.601 -32.473  1.00  0.00     0.104 A 
ATOM     14  H   UNL     1       0.738  -9.297 -31.808  1.00  0.00     0.190 HD
BRANCH  11  15
ATOM     15  C   UNL     1       0.667  -5.507 -34.507  1.00  0.00     0.141 A 
ATOM     16  N   UNL     1      -0.533  -5.085 -34.847  1.00  0.00    -0.237 NA
ATOM     17  N   UNL     1       1.620  -4.851 -35.246  1.00  0.00    -0.344 N 
ATOM     18  C   UNL     1      -0.348  -4.155 -35.837  1.00  0.00     0.131 A 
ATOM     19  C   UNL     1       0.988  -3.994 -36.104  1.00  0.00     0.104 A 
ATOM     20  H   UNL     1       2.618  -4.958 -35.137  1.00  0.00     0.168 HD
ENDBRANCH  11  15
BRANCH  13  21
ATOM     21  C   UNL     1       3.143  -5.641 -32.251  1.00  0.00     0.003 A 
ATOM     22  C   UNL     1       4.339  -5.756 -32.975  1.00  0.00     0.010 A 
ATOM     23  C   UNL     1       3.034  -4.631 -31.288  1.00  0.00     0.010 A 
ATOM     24  C   UNL     1       5.393  -4.865 -32.758  1.00  0.00     0.001 A 
ATOM     25  C   UNL     1       4.087  -3.737 -31.071  1.00  0.00     0.001 A 
ATOM     26  C   UNL     1       5.265  -3.854 -31.807  1.00  0.00     0.000 A 
ENDBRANCH  13  21
ENDBRANCH   6   9
TORSDOF 4
ENDMDL
MODEL 8
REMARK VINA RESULT:    -6.521      3.481      6.113
REMARK INTER + INTRA:          -8.551
REMARK INTER:                  -7.544
REMARK INTRA:                  -1.007
REMARK UNBOUND:                -0.696
REMARK SMILES Oc1ccccc1-c1[nH]nc(-c2ccccc2)c1-c1ncc[nH]1
REMARK SMILES IDX 2 1 3 2 4 3 5 4 6 5 7 6 1 7 8 9 9 10 18 11 10 12 11 13 19 15
REMARK SMILES IDX 20 16 23 17 21 18 22 19 12 21 13 22 17 23 14 24 16 25 15 26
REMARK H PARENT 1 8 9 14 23 20
ROOT
ATOM      1  C   UNL     1      10.282 -25.204 -47.336  1.00  0.00     0.124 A 
ATOM      2  C   UNL     1       9.035 -25.340 -47.947  1.00  0.00     0.047 A 
ATOM      3  C   UNL     1       8.915 -25.145 -49.324  1.00  0.00     0.004 A 
ATOM      4  C   UNL     1      10.035 -24.809 -50.082  1.00  0.00     0.001 A 
ATOM      5  C   UNL     1      11.282 -24.675 -49.466  1.00  0.00     0.014 A 
ATOM      6  C   UNL     1      11.425 -24.891 -48.088  1.00  0.00     0.042 A 
ENDROOT
BRANCH   1   7
ATOM      7  O   UNL     1      10.396 -25.371 -45.982  1.00  0.00    -0.507 OA
ATOM      8  H   UNL     1      10.027 -24.592 -45.533  1.00  0.00     0.293 HD
ENDBRANCH   1   7
BRANCH   6   9
ATOM      9  C   UNL     1      12.741 -24.749 -47.471  1.00  0.00     0.080 A 
ATOM     10  N   UNL     1      13.409 -25.835 -46.973  1.00  0.00    -0.276 N 
ATOM     11  C   UNL     1      13.585 -23.678 -47.221  1.00  0.00     0.071 A 
ATOM     12  N   UNL     1      14.541 -25.544 -46.323  1.00  0.00    -0.174 NA
ATOM     13  C   UNL     1      14.666 -24.210 -46.449  1.00  0.00     0.104 A 
ATOM     14  H   UNL     1      13.122 -26.805 -47.032  1.00  0.00     0.190 HD
BRANCH  11  15
ATOM     15  C   UNL     1      13.382 -22.212 -47.726  1.00  0.00     0.141 A 
ATOM     16  N   UNL     1      13.550 -21.809 -48.969  1.00  0.00    -0.237 NA
ATOM     17  N   UNL     1      12.961 -21.161 -46.949  1.00  0.00    -0.344 N 
ATOM     18  C   UNL     1      13.252 -20.472 -48.985  1.00  0.00     0.131 A 
ATOM     19  C   UNL     1      12.883 -20.046 -47.734  1.00  0.00     0.104 A 
ATOM     20  H   UNL     1      12.712 -21.223 -45.972  1.00  0.00     0.168 HD
ENDBRANCH  11  15
BRANCH  13  21
ATOM     21  C   UNL     1      15.823 -23.540 -45.851  1.00  0.00     0.003 A 
ATOM     22  C   UNL     1      17.121 -23.937 -46.205  1.00  0.00     0.010 A 
ATOM     23  C   UNL     1      15.665 -22.537 -44.888  1.00  0.00     0.010 A 
ATOM     24  C   UNL     1      18.236 -23.328 -45.625  1.00  0.00     0.001 A 
ATOM     25  C   UNL     1      16.780 -21.925 -44.309  1.00  0.00     0.001 A 
ATOM     26  C   UNL     1      18.065 -22.320 -44.679  1.00  0.00     0.000 A 
ENDBRANCH  13  21
ENDBRANCH   6   9
TORSDOF 4
ENDMDL
MODEL 9
REMARK VINA RESULT:    -6.518      3.374      5.288
REMARK INTER + INTRA:          -8.548
REMARK INTER:                  -7.550
REMARK INTRA:                  -0.998
REMARK UNBOUND:                -0.696
REMARK SMILES Oc1ccccc1-c1[nH]nc(-c2ccccc2)c1-c1ncc[nH]1
REMARK SMILES IDX 2 1 3 2 4 3 5 4 6 5 7 6 1 7 8 9 9 10 18 11 10 12 11 13 19 15
REMARK SMILES IDX 20 16 23 17 21 18 22 19 12 21 13 22 17 23 14 24 16 25 15 26
REMARK H PARENT 1 8 9 14 23 20
ROOT
ATOM      1  C   UNL     1      14.657 -22.853 -45.135  1.00  0.00     0.124 A 
ATOM      2  C   UNL     1      15.718 -22.495 -44.301  1.00  0.00     0.047 A 
ATOM      3  C   UNL     1      17.002 -22.966 -44.576  1.00  0.00     0.004 A 
ATOM      4  C   UNL     1      17.222 -23.795 -45.674  1.00  0.00     0.001 A 
ATOM      5  C   UNL     1      16.158 -24.149 -46.508  1.00  0.00     0.014 A 
ATOM      6  C   UNL     1      14.866 -23.666 -46.259  1.00  0.00     0.042 A 
ENDROOT
BRANCH   1   7
ATOM      7  O   UNL     1      13.393 -22.412 -44.852  1.00  0.00    -0.507 OA
ATOM      8  H   UNL     1      13.384 -22.021 -43.962  1.00  0.00     0.293 HD
ENDBRANCH   1   7
BRANCH   6   9
ATOM      9  C   UNL     1      13.772 -24.048 -47.150  1.00  0.00     0.080 A 
ATOM     10  N   UNL     1      13.261 -25.318 -47.137  1.00  0.00    -0.276 N 
ATOM     11  C   UNL     1      13.038 -23.388 -48.123  1.00  0.00     0.071 A 
ATOM     12  N   UNL     1      12.356 -25.564 -48.090  1.00  0.00    -0.174 NA
ATOM     13  C   UNL     1      12.209 -24.386 -48.726  1.00  0.00     0.104 A 
ATOM     14  H   UNL     1      13.514 -26.069 -46.506  1.00  0.00     0.190 HD
BRANCH  11  15
ATOM     15  C   UNL     1      13.104 -21.858 -48.442  1.00  0.00     0.141 A 
ATOM     16  N   UNL     1      12.860 -20.894 -47.578  1.00  0.00    -0.237 NA
ATOM     17  N   UNL     1      13.464 -21.320 -49.652  1.00  0.00    -0.344 N 
ATOM     18  C   UNL     1      13.048 -19.716 -48.252  1.00  0.00     0.131 A 
ATOM     19  C   UNL     1      13.423 -19.958 -49.550  1.00  0.00     0.104 A 
ATOM     20  H   UNL     1      13.750 -21.849 -50.463  1.00  0.00     0.168 HD
ENDBRANCH  11  15
BRANCH  13  21
ATOM     21  C   UNL     1      11.269 -24.289 -49.843  1.00  0.00     0.003 A 
ATOM     22  C   UNL     1      11.400 -25.147 -50.945  1.00  0.00     0.010 A 
ATOM     23  C   UNL     1      10.261 -23.317 -49.863  1.00  0.00     0.010 A 
ATOM     24  C   UNL     1      10.528 -25.051 -52.032  1.00  0.00     0.001 A 
ATOM     25  C   UNL     1       9.386 -23.222 -50.949  1.00  0.00     0.001 A 
ATOM     26  C   UNL     1       9.519 -24.090 -52.032  1.00  0.00     0.000 A 
ENDBRANCH  13  21
ENDBRANCH   6   9
TORSDOF 4
ENDMDL
