MODEL 1
REMARK VINA RESULT:    -7.222      0.000      0.000
REMARK INTER + INTRA:         -10.837
REMARK INTER:                 -10.600
REMARK INTRA:                  -0.237
REMARK UNBOUND:                -0.237
REMARK SMILES COCCNC(=O)CN1CCN([C@@H](C)C(=O)NC(=O)N[C@]23C[C@H]4C[C@H](C[C@H](C4)C2)C3)CC1
REMARK SMILES IDX 5 1 6 2 7 3 4 5 3 6 2 7 1 8 8 9 9 10 10 11 32 12 11 13 31 14
REMARK SMILES IDX 12 15 13 16 14 17 15 18 16 19 17 20 18 21 19 22 20 23 21 26
REMARK SMILES IDX 29 27 30 28 22 29 27 30 25 31 23 32 28 33 26 34 24 35
REMARK H PARENT 5 4 17 24 20 25
ROOT
ATOM      1  N   UNL     1      14.506 -18.603 -51.834  1.00  0.00    -0.353 N 
ATOM      2  C   UNL     1      13.781 -19.711 -51.442  1.00  0.00     0.234 C 
ATOM      3  O   UNL     1      13.503 -20.652 -52.179  1.00  0.00    -0.274 OA
ATOM      4  H   UNL     1      14.417 -17.824 -51.184  1.00  0.00     0.163 HD
ENDROOT
BRANCH   1   5
ATOM      5  C   UNL     1      14.774 -18.315 -53.228  1.00  0.00     0.144 C 
BRANCH   5   6
ATOM      6  C   UNL     1      14.854 -16.823 -53.553  1.00  0.00     0.181 C 
BRANCH   6   7
ATOM      7  O   UNL     1      16.177 -16.527 -54.015  1.00  0.00    -0.383 OA
ATOM      8  C   UNL     1      17.069 -16.316 -52.927  1.00  0.00     0.194 C 
ENDBRANCH   6   7
ENDBRANCH   5   6
ENDBRANCH   1   5
BRANCH   2   9
ATOM      9  C   UNL     1      13.403 -19.690 -49.955  1.00  0.00     0.184 C 
BRANCH   9  10
ATOM     10  N   UNL     1      12.990 -21.040 -49.501  1.00  0.00    -0.292 NA
ATOM     11  C   UNL     1      13.299 -21.234 -48.061  1.00  0.00     0.100 C 
ATOM     12  C   UNL     1      11.551 -21.248 -49.729  1.00  0.00     0.100 C 
ATOM     13  C   UNL     1      12.450 -22.333 -47.365  1.00  0.00     0.101 C 
ATOM     14  C   UNL     1      11.078 -22.669 -49.305  1.00  0.00     0.101 C 
ATOM     15  N   UNL     1      11.960 -23.348 -48.327  1.00  0.00    -0.290 NA
BRANCH  15  16
ATOM     16  C   UNL     1      11.284 -24.482 -47.624  1.00  0.00     0.144 C 
ATOM     17  C   UNL     1      10.085 -25.056 -48.395  1.00  0.00     0.035 C 
BRANCH  16  18
ATOM     18  C   UNL     1      12.301 -25.635 -47.463  1.00  0.00     0.245 C 
ATOM     19  O   UNL     1      12.742 -26.261 -48.424  1.00  0.00    -0.273 OA
ATOM     20  N   UNL     1      12.595 -25.907 -46.143  1.00  0.00    -0.277 N 
ATOM     21  C   UNL     1      13.824 -25.521 -45.668  1.00  0.00     0.321 C 
ATOM     22  O   UNL     1      14.818 -25.325 -46.352  1.00  0.00    -0.248 OA
ATOM     23  N   UNL     1      13.790 -25.399 -44.290  1.00  0.00    -0.332 N 
ATOM     24  H   UNL     1      11.871 -25.519 -45.546  1.00  0.00     0.174 HD
ATOM     25  H   UNL     1      13.187 -26.083 -43.850  1.00  0.00     0.165 HD
BRANCH  23  26
ATOM     26  C   UNL     1      14.934 -24.957 -43.480  1.00  0.00     0.043 C 
ATOM     27  C   UNL     1      15.893 -26.164 -43.303  1.00  0.00     0.032 C 
ATOM     28  C   UNL     1      14.487 -24.502 -42.065  1.00  0.00     0.032 C 
ATOM     29  C   UNL     1      15.723 -23.811 -44.158  1.00  0.00     0.032 C 
ATOM     30  C   UNL     1      17.117 -25.779 -42.456  1.00  0.00    -0.008 C 
ATOM     31  C   UNL     1      15.706 -24.107 -41.212  1.00  0.00    -0.008 C 
ATOM     32  C   UNL     1      16.941 -23.414 -43.303  1.00  0.00    -0.008 C 
ATOM     33  C   UNL     1      17.868 -24.630 -43.148  1.00  0.00     0.007 C 
ATOM     34  C   UNL     1      16.641 -25.319 -41.070  1.00  0.00     0.007 C 
ATOM     35  C   UNL     1      16.461 -22.964 -41.911  1.00  0.00     0.007 C 
ENDBRANCH  23  26
ENDBRANCH  16  18
ENDBRANCH  15  16
ENDBRANCH   9  10
ENDBRANCH   2   9
TORSDOF 8
ENDMDL
MODEL 2
REMARK VINA RESULT:    -7.041      4.795      7.042
REMARK INTER + INTRA:         -10.571
REMARK INTER:                 -10.163
REMARK INTRA:                  -0.408
REMARK UNBOUND:                -0.237
REMARK SMILES COCCNC(=O)CN1CCN([C@@H](C)C(=O)NC(=O)N[C@]23C[C@H]4C[C@H](C[C@H](C4)C2)C3)CC1
REMARK SMILES IDX 5 1 6 2 7 3 4 5 3 6 2 7 1 8 8 9 9 10 10 11 32 12 11 13 31 14
REMARK SMILES IDX 12 15 13 16 14 17 15 18 16 19 17 20 18 21 19 22 20 23 21 26
REMARK SMILES IDX 29 27 30 28 22 29 27 30 25 31 23 32 28 33 26 34 24 35
REMARK H PARENT 5 4 17 24 20 25
ROOT
ATOM      1  N   UNL     1       4.891 -22.537 -53.072  1.00  0.00    -0.353 N 
ATOM      2  C   UNL     1       4.852 -23.814 -53.595  1.00  0.00     0.234 C 
ATOM      3  O   UNL     1       3.818 -24.419 -53.863  1.00  0.00    -0.274 OA
ATOM      4  H   UNL     1       5.800 -22.302 -52.676  1.00  0.00     0.163 HD
ENDROOT
BRANCH   1   5
ATOM      5  C   UNL     1       3.713 -21.891 -52.531  1.00  0.00     0.144 C 
BRANCH   5   6
ATOM      6  C   UNL     1       3.500 -22.130 -51.036  1.00  0.00     0.181 C 
BRANCH   6   7
ATOM      7  O   UNL     1       4.756 -22.483 -50.446  1.00  0.00    -0.383 OA
ATOM      8  C   UNL     1       4.619 -23.581 -49.553  1.00  0.00     0.194 C 
ENDBRANCH   6   7
ENDBRANCH   5   6
ENDBRANCH   1   5
BRANCH   2   9
ATOM      9  C   UNL     1       6.243 -24.395 -53.877  1.00  0.00     0.184 C 
BRANCH   9  10
ATOM     10  N   UNL     1       7.077 -24.373 -52.652  1.00  0.00    -0.292 NA
ATOM     11  C   UNL     1       7.015 -25.677 -51.943  1.00  0.00     0.100 C 
ATOM     12  C   UNL     1       8.477 -24.057 -52.981  1.00  0.00     0.100 C 
ATOM     13  C   UNL     1       8.222 -25.955 -51.005  1.00  0.00     0.101 C 
ATOM     14  C   UNL     1       9.385 -23.982 -51.720  1.00  0.00     0.101 C 
ATOM     15  N   UNL     1       8.861 -24.703 -50.536  1.00  0.00    -0.290 NA
BRANCH  15  16
ATOM     16  C   UNL     1       9.915 -24.981 -49.511  1.00  0.00     0.144 C 
ATOM     17  C   UNL     1      11.340 -24.998 -50.084  1.00  0.00     0.035 C 
BRANCH  16  18
ATOM     18  C   UNL     1       9.875 -23.856 -48.451  1.00  0.00     0.245 C 
ATOM     19  O   UNL     1       8.851 -23.568 -47.838  1.00  0.00    -0.273 OA
ATOM     20  N   UNL     1      11.079 -23.196 -48.329  1.00  0.00    -0.277 N 
ATOM     21  C   UNL     1      11.834 -23.440 -47.208  1.00  0.00     0.321 C 
ATOM     22  O   UNL     1      11.404 -23.860 -46.143  1.00  0.00    -0.248 OA
ATOM     23  N   UNL     1      13.161 -23.130 -47.445  1.00  0.00    -0.332 N 
ATOM     24  H   UNL     1      11.646 -23.364 -49.155  1.00  0.00     0.174 HD
ATOM     25  H   UNL     1      13.274 -22.331 -48.056  1.00  0.00     0.165 HD
BRANCH  23  26
ATOM     26  C   UNL     1      14.234 -23.323 -46.459  1.00  0.00     0.043 C 
ATOM     27  C   UNL     1      15.431 -22.422 -46.869  1.00  0.00     0.032 C 
ATOM     28  C   UNL     1      14.736 -24.792 -46.445  1.00  0.00     0.032 C 
ATOM     29  C   UNL     1      13.796 -22.919 -45.031  1.00  0.00     0.032 C 
ATOM     30  C   UNL     1      16.601 -22.576 -45.884  1.00  0.00    -0.008 C 
ATOM     31  C   UNL     1      15.904 -24.955 -45.455  1.00  0.00    -0.008 C 
ATOM     32  C   UNL     1      14.964 -23.087 -44.041  1.00  0.00    -0.008 C 
ATOM     33  C   UNL     1      16.129 -22.183 -44.475  1.00  0.00     0.007 C 
ATOM     34  C   UNL     1      17.064 -24.041 -45.880  1.00  0.00     0.007 C 
ATOM     35  C   UNL     1      15.432 -24.553 -44.048  1.00  0.00     0.007 C 
ENDBRANCH  23  26
ENDBRANCH  16  18
ENDBRANCH  15  16
ENDBRANCH   9  10
ENDBRANCH   2   9
TORSDOF 8
ENDMDL
MODEL 3
REMARK VINA RESULT:    -6.853      3.959      6.528
REMARK INTER + INTRA:         -10.295
REMARK INTER:                  -9.994
REMARK INTRA:                  -0.301
REMARK UNBOUND:                -0.237
REMARK SMILES COCCNC(=O)CN1CCN([C@@H](C)C(=O)NC(=O)N[C@]23C[C@H]4C[C@H](C[C@H](C4)C2)C3)CC1
REMARK SMILES IDX 5 1 6 2 7 3 4 5 3 6 2 7 1 8 8 9 9 10 10 11 32 12 11 13 31 14
REMARK SMILES IDX 12 15 13 16 14 17 15 18 16 19 17 20 18 21 19 22 20 23 21 26
REMARK SMILES IDX 29 27 30 28 22 29 27 30 25 31 23 32 28 33 26 34 24 35
REMARK H PARENT 5 4 17 24 20 25
ROOT
ATOM      1  N   UNL     1       5.632 -23.496 -50.222  1.00  0.00    -0.353 N 
ATOM      2  C   UNL     1       6.737 -23.037 -50.912  1.00  0.00     0.234 C 
ATOM      3  O   UNL     1       6.786 -21.963 -51.502  1.00  0.00    -0.274 OA
ATOM      4  H   UNL     1       5.678 -24.494 -50.024  1.00  0.00     0.163 HD
ENDROOT
BRANCH   1   5
ATOM      5  C   UNL     1       4.331 -22.875 -50.357  1.00  0.00     0.144 C 
BRANCH   5   6
ATOM      6  C   UNL     1       3.229 -23.828 -50.822  1.00  0.00     0.181 C 
BRANCH   6   7
ATOM      7  O   UNL     1       3.510 -24.227 -52.169  1.00  0.00    -0.383 OA
ATOM      8  C   UNL     1       3.407 -23.129 -53.066  1.00  0.00     0.194 C 
ENDBRANCH   6   7
ENDBRANCH   5   6
ENDBRANCH   1   5
BRANCH   2   9
ATOM      9  C   UNL     1       7.942 -23.982 -50.820  1.00  0.00     0.184 C 
BRANCH   9  10
ATOM     10  N   UNL     1       9.156 -23.242 -50.398  1.00  0.00    -0.292 NA
ATOM     11  C   UNL     1       9.581 -23.650 -49.035  1.00  0.00     0.100 C 
ATOM     12  C   UNL     1      10.258 -23.469 -51.347  1.00  0.00     0.100 C 
ATOM     13  C   UNL     1      11.079 -23.380 -48.722  1.00  0.00     0.101 C 
ATOM     14  C   UNL     1      11.545 -22.679 -50.969  1.00  0.00     0.101 C 
ATOM     15  N   UNL     1      11.627 -22.276 -49.545  1.00  0.00    -0.290 NA
BRANCH  15  16
ATOM     16  C   UNL     1      13.017 -21.920 -49.121  1.00  0.00     0.144 C 
ATOM     17  C   UNL     1      13.743 -20.996 -50.111  1.00  0.00     0.035 C 
BRANCH  16  18
ATOM     18  C   UNL     1      12.939 -21.159 -47.778  1.00  0.00     0.245 C 
ATOM     19  O   UNL     1      12.142 -20.243 -47.587  1.00  0.00    -0.273 OA
ATOM     20  N   UNL     1      13.887 -21.580 -46.870  1.00  0.00    -0.277 N 
ATOM     21  C   UNL     1      13.465 -22.339 -45.807  1.00  0.00     0.321 C 
ATOM     22  O   UNL     1      12.327 -22.360 -45.359  1.00  0.00    -0.248 OA
ATOM     23  N   UNL     1      14.517 -23.077 -45.294  1.00  0.00    -0.332 N 
ATOM     24  H   UNL     1      14.630 -22.073 -47.357  1.00  0.00     0.174 HD
ATOM     25  H   UNL     1      15.400 -22.584 -45.339  1.00  0.00     0.165 HD
BRANCH  23  26
ATOM     26  C   UNL     1      14.384 -24.026 -44.180  1.00  0.00     0.043 C 
ATOM     27  C   UNL     1      15.710 -24.008 -43.372  1.00  0.00     0.032 C 
ATOM     28  C   UNL     1      14.166 -25.475 -44.690  1.00  0.00     0.032 C 
ATOM     29  C   UNL     1      13.232 -23.643 -43.220  1.00  0.00     0.032 C 
ATOM     30  C   UNL     1      15.649 -24.986 -42.187  1.00  0.00    -0.008 C 
ATOM     31  C   UNL     1      14.096 -26.461 -43.509  1.00  0.00    -0.008 C 
ATOM     32  C   UNL     1      13.161 -24.632 -42.041  1.00  0.00    -0.008 C 
ATOM     33  C   UNL     1      14.486 -24.588 -41.264  1.00  0.00     0.007 C 
ATOM     34  C   UNL     1      15.416 -26.407 -42.723  1.00  0.00     0.007 C 
ATOM     35  C   UNL     1      12.938 -26.056 -42.582  1.00  0.00     0.007 C 
ENDBRANCH  23  26
ENDBRANCH  16  18
ENDBRANCH  15  16
ENDBRANCH   9  10
ENDBRANCH   2   9
TORSDOF 8
ENDMDL
MODEL 4
REMARK VINA RESULT:    -6.848      4.583      7.034
REMARK INTER + INTRA:         -10.287
REMARK INTER:                  -9.895
REMARK INTRA:                  -0.392
REMARK UNBOUND:                -0.237
REMARK SMILES COCCNC(=O)CN1CCN([C@@H](C)C(=O)NC(=O)N[C@]23C[C@H]4C[C@H](C[C@H](C4)C2)C3)CC1
REMARK SMILES IDX 5 1 6 2 7 3 4 5 3 6 2 7 1 8 8 9 9 10 10 11 32 12 11 13 31 14
REMARK SMILES IDX 12 15 13 16 14 17 15 18 16 19 17 20 18 21 19 22 20 23 21 26
REMARK SMILES IDX 29 27 30 28 22 29 27 30 25 31 23 32 28 33 26 34 24 35
REMARK H PARENT 5 4 17 24 20 25
ROOT
ATOM      1  N   UNL     1       3.793 -23.549 -48.626  1.00  0.00    -0.353 N 
ATOM      2  C   UNL     1       4.468 -23.102 -49.745  1.00  0.00     0.234 C 
ATOM      3  O   UNL     1       4.454 -21.941 -50.142  1.00  0.00    -0.274 OA
ATOM      4  H   UNL     1       3.705 -24.564 -48.599  1.00  0.00     0.163 HD
ENDROOT
BRANCH   1   5
ATOM      5  C   UNL     1       2.781 -22.748 -47.969  1.00  0.00     0.144 C 
BRANCH   5   6
ATOM      6  C   UNL     1       3.313 -21.882 -46.827  1.00  0.00     0.181 C 
BRANCH   6   7
ATOM      7  O   UNL     1       3.428 -20.533 -47.293  1.00  0.00    -0.383 OA
ATOM      8  C   UNL     1       4.122 -19.719 -46.356  1.00  0.00     0.194 C 
ENDBRANCH   6   7
ENDBRANCH   5   6
ENDBRANCH   1   5
BRANCH   2   9
ATOM      9  C   UNL     1       5.304 -24.195 -50.422  1.00  0.00     0.184 C 
BRANCH   9  10
ATOM     10  N   UNL     1       6.740 -24.040 -50.083  1.00  0.00    -0.292 NA
ATOM     11  C   UNL     1       7.010 -24.491 -48.694  1.00  0.00     0.100 C 
ATOM     12  C   UNL     1       7.581 -24.801 -51.022  1.00  0.00     0.100 C 
ATOM     13  C   UNL     1       8.488 -24.890 -48.425  1.00  0.00     0.101 C 
ATOM     14  C   UNL     1       9.101 -24.637 -50.732  1.00  0.00     0.101 C 
ATOM     15  N   UNL     1       9.423 -24.207 -49.350  1.00  0.00    -0.290 NA
BRANCH  15  16
ATOM     16  C   UNL     1      10.848 -24.473 -48.977  1.00  0.00     0.144 C 
ATOM     17  C   UNL     1      11.596 -25.348 -49.994  1.00  0.00     0.035 C 
BRANCH  16  18
ATOM     18  C   UNL     1      11.598 -23.123 -48.916  1.00  0.00     0.245 C 
ATOM     19  O   UNL     1      11.035 -22.050 -49.116  1.00  0.00    -0.273 OA
ATOM     20  N   UNL     1      12.948 -23.273 -48.677  1.00  0.00    -0.277 N 
ATOM     21  C   UNL     1      13.420 -22.938 -47.432  1.00  0.00     0.321 C 
ATOM     22  O   UNL     1      12.875 -22.171 -46.651  1.00  0.00    -0.248 OA
ATOM     23  N   UNL     1      14.619 -23.582 -47.184  1.00  0.00    -0.332 N 
ATOM     24  H   UNL     1      13.229 -24.224 -48.895  1.00  0.00     0.174 HD
ATOM     25  H   UNL     1      15.191 -23.679 -48.013  1.00  0.00     0.165 HD
BRANCH  23  26
ATOM     26  C   UNL     1      15.361 -23.470 -45.920  1.00  0.00     0.043 C 
ATOM     27  C   UNL     1      16.567 -24.446 -45.982  1.00  0.00     0.032 C 
ATOM     28  C   UNL     1      14.485 -23.884 -44.707  1.00  0.00     0.032 C 
ATOM     29  C   UNL     1      15.910 -22.041 -45.688  1.00  0.00     0.032 C 
ATOM     30  C   UNL     1      17.391 -24.389 -44.685  1.00  0.00    -0.008 C 
ATOM     31  C   UNL     1      15.301 -23.824 -43.403  1.00  0.00    -0.008 C 
ATOM     32  C   UNL     1      16.723 -21.981 -44.381  1.00  0.00    -0.008 C 
ATOM     33  C   UNL     1      17.907 -22.956 -44.477  1.00  0.00     0.007 C 
ATOM     34  C   UNL     1      16.494 -24.788 -43.504  1.00  0.00     0.007 C 
ATOM     35  C   UNL     1      15.823 -22.391 -43.201  1.00  0.00     0.007 C 
ENDBRANCH  23  26
ENDBRANCH  16  18
ENDBRANCH  15  16
ENDBRANCH   9  10
ENDBRANCH   2   9
TORSDOF 8
ENDMDL
MODEL 5
REMARK VINA RESULT:    -6.735      5.211      7.705
REMARK INTER + INTRA:         -10.122
REMARK INTER:                  -9.749
REMARK INTRA:                  -0.372
REMARK UNBOUND:                -0.237
REMARK SMILES COCCNC(=O)CN1CCN([C@@H](C)C(=O)NC(=O)N[C@]23C[C@H]4C[C@H](C[C@H](C4)C2)C3)CC1
REMARK SMILES IDX 5 1 6 2 7 3 4 5 3 6 2 7 1 8 8 9 9 10 10 11 32 12 11 13 31 14
REMARK SMILES IDX 12 15 13 16 14 17 15 18 16 19 17 20 18 21 19 22 20 23 21 26
REMARK SMILES IDX 29 27 30 28 22 29 27 30 25 31 23 32 28 33 26 34 24 35
REMARK H PARENT 5 4 17 24 20 25
ROOT
ATOM      1  N   UNL     1       3.859 -23.888 -51.821  1.00  0.00    -0.353 N 
ATOM      2  C   UNL     1       3.909 -25.229 -52.147  1.00  0.00     0.234 C 
ATOM      3  O   UNL     1       2.966 -26.005 -52.025  1.00  0.00    -0.274 OA
ATOM      4  H   UNL     1       4.784 -23.469 -51.740  1.00  0.00     0.163 HD
ENDROOT
BRANCH   1   5
ATOM      5  C   UNL     1       2.773 -23.325 -51.046  1.00  0.00     0.144 C 
BRANCH   5   6
ATOM      6  C   UNL     1       2.887 -21.818 -50.812  1.00  0.00     0.181 C 
BRANCH   6   7
ATOM      7  O   UNL     1       2.233 -21.139 -51.890  1.00  0.00    -0.383 OA
ATOM      8  C   UNL     1       0.818 -21.218 -51.769  1.00  0.00     0.194 C 
ENDBRANCH   6   7
ENDBRANCH   5   6
ENDBRANCH   1   5
BRANCH   2   9
ATOM      9  C   UNL     1       5.254 -25.655 -52.747  1.00  0.00     0.184 C 
BRANCH   9  10
ATOM     10  N   UNL     1       6.379 -25.124 -51.941  1.00  0.00    -0.292 NA
ATOM     11  C   UNL     1       7.009 -26.199 -51.133  1.00  0.00     0.100 C 
ATOM     12  C   UNL     1       7.392 -24.500 -52.808  1.00  0.00     0.100 C 
ATOM     13  C   UNL     1       8.473 -25.904 -50.702  1.00  0.00     0.101 C 
ATOM     14  C   UNL     1       8.575 -23.889 -52.003  1.00  0.00     0.101 C 
ATOM     15  N   UNL     1       8.751 -24.449 -50.642  1.00  0.00    -0.290 NA
BRANCH  15  16
ATOM     16  C   UNL     1      10.108 -24.178 -50.073  1.00  0.00     0.144 C 
ATOM     17  C   UNL     1      10.959 -23.234 -50.936  1.00  0.00     0.035 C 
BRANCH  16  18
ATOM     18  C   UNL     1       9.934 -23.489 -48.700  1.00  0.00     0.245 C 
ATOM     19  O   UNL     1       8.887 -23.555 -48.060  1.00  0.00    -0.273 OA
ATOM     20  N   UNL     1      11.043 -22.761 -48.324  1.00  0.00    -0.277 N 
ATOM     21  C   UNL     1      11.835 -23.270 -47.325  1.00  0.00     0.321 C 
ATOM     22  O   UNL     1      11.477 -24.073 -46.476  1.00  0.00    -0.248 OA
ATOM     23  N   UNL     1      13.108 -22.732 -47.400  1.00  0.00    -0.332 N 
ATOM     24  H   UNL     1      11.617 -22.569 -49.139  1.00  0.00     0.174 HD
ATOM     25  H   UNL     1      13.109 -21.767 -47.705  1.00  0.00     0.165 HD
BRANCH  23  26
ATOM     26  C   UNL     1      14.209 -23.107 -46.501  1.00  0.00     0.043 C 
ATOM     27  C   UNL     1      13.766 -22.800 -45.045  1.00  0.00     0.032 C 
ATOM     28  C   UNL     1      15.487 -22.275 -46.788  1.00  0.00     0.032 C 
ATOM     29  C   UNL     1      14.550 -24.614 -46.592  1.00  0.00     0.032 C 
ATOM     30  C   UNL     1      14.874 -23.162 -44.042  1.00  0.00    -0.008 C 
ATOM     31  C   UNL     1      16.604 -22.637 -45.792  1.00  0.00    -0.008 C 
ATOM     32  C   UNL     1      15.670 -24.974 -45.598  1.00  0.00    -0.008 C 
ATOM     33  C   UNL     1      15.200 -24.659 -44.169  1.00  0.00     0.007 C 
ATOM     34  C   UNL     1      16.128 -22.335 -44.362  1.00  0.00     0.007 C 
ATOM     35  C   UNL     1      16.922 -24.136 -45.914  1.00  0.00     0.007 C 
ENDBRANCH  23  26
ENDBRANCH  16  18
ENDBRANCH  15  16
ENDBRANCH   9  10
ENDBRANCH   2   9
TORSDOF 8
ENDMDL
MODEL 6
REMARK VINA RESULT:    -6.463      3.992      6.019
REMARK INTER + INTRA:          -9.722
REMARK INTER:                  -9.447
REMARK INTRA:                  -0.275
REMARK UNBOUND:                -0.237
REMARK SMILES COCCNC(=O)CN1CCN([C@@H](C)C(=O)NC(=O)N[C@]23C[C@H]4C[C@H](C[C@H](C4)C2)C3)CC1
REMARK SMILES IDX 5 1 6 2 7 3 4 5 3 6 2 7 1 8 8 9 9 10 10 11 32 12 11 13 31 14
REMARK SMILES IDX 12 15 13 16 14 17 15 18 16 19 17 20 18 21 19 22 20 23 21 26
REMARK SMILES IDX 29 27 30 28 22 29 27 30 25 31 23 32 28 33 26 34 24 35
REMARK H PARENT 5 4 17 24 20 25
ROOT
ATOM      1  N   UNL     1       6.652 -22.807 -52.489  1.00  0.00    -0.353 N 
ATOM      2  C   UNL     1       6.964 -23.792 -53.405  1.00  0.00     0.234 C 
ATOM      3  O   UNL     1       6.152 -24.309 -54.166  1.00  0.00    -0.274 OA
ATOM      4  H   UNL     1       7.374 -22.687 -51.780  1.00  0.00     0.163 HD
ENDROOT
BRANCH   1   5
ATOM      5  C   UNL     1       5.283 -22.482 -52.145  1.00  0.00     0.144 C 
BRANCH   5   6
ATOM      6  C   UNL     1       4.814 -23.077 -50.818  1.00  0.00     0.181 C 
BRANCH   6   7
ATOM      7  O   UNL     1       4.746 -22.028 -49.846  1.00  0.00    -0.383 OA
ATOM      8  C   UNL     1       3.398 -21.694 -49.537  1.00  0.00     0.194 C 
ENDBRANCH   6   7
ENDBRANCH   5   6
ENDBRANCH   1   5
BRANCH   2   9
ATOM      9  C   UNL     1       8.457 -24.142 -53.432  1.00  0.00     0.184 C 
BRANCH   9  10
ATOM     10  N   UNL     1       9.043 -24.038 -52.074  1.00  0.00    -0.292 NA
ATOM     11  C   UNL     1       8.702 -25.228 -51.254  1.00  0.00     0.100 C 
ATOM     12  C   UNL     1      10.506 -23.892 -52.148  1.00  0.00     0.100 C 
ATOM     13  C   UNL     1       9.672 -25.491 -50.069  1.00  0.00     0.101 C 
ATOM     14  C   UNL     1      11.164 -23.737 -50.747  1.00  0.00     0.101 C 
ATOM     15  N   UNL     1      10.348 -24.250 -49.621  1.00  0.00    -0.290 NA
BRANCH  15  16
ATOM     16  C   UNL     1      11.153 -24.487 -48.382  1.00  0.00     0.144 C 
ATOM     17  C   UNL     1      12.336 -25.444 -48.590  1.00  0.00     0.035 C 
BRANCH  16  18
ATOM     18  C   UNL     1      11.749 -23.137 -47.920  1.00  0.00     0.245 C 
ATOM     19  O   UNL     1      11.082 -22.106 -47.873  1.00  0.00    -0.273 OA
ATOM     20  N   UNL     1      13.096 -23.218 -47.638  1.00  0.00    -0.277 N 
ATOM     21  C   UNL     1      13.478 -23.183 -46.319  1.00  0.00     0.321 C 
ATOM     22  O   UNL     1      12.822 -22.706 -45.404  1.00  0.00    -0.248 OA
ATOM     23  N   UNL     1      14.728 -23.754 -46.165  1.00  0.00    -0.332 N 
ATOM     24  H   UNL     1      13.488 -24.046 -48.075  1.00  0.00     0.174 HD
ATOM     25  H   UNL     1      15.342 -23.574 -46.950  1.00  0.00     0.165 HD
BRANCH  23  26
ATOM     26  C   UNL     1      15.401 -23.913 -44.868  1.00  0.00     0.043 C 
ATOM     27  C   UNL     1      16.818 -24.492 -45.128  1.00  0.00     0.032 C 
ATOM     28  C   UNL     1      14.646 -24.915 -43.954  1.00  0.00     0.032 C 
ATOM     29  C   UNL     1      15.562 -22.566 -44.124  1.00  0.00     0.032 C 
ATOM     30  C   UNL     1      17.584 -24.693 -43.811  1.00  0.00    -0.008 C 
ATOM     31  C   UNL     1      15.403 -25.117 -42.629  1.00  0.00    -0.008 C 
ATOM     32  C   UNL     1      16.316 -22.769 -42.796  1.00  0.00    -0.008 C 
ATOM     33  C   UNL     1      17.712 -23.341 -43.090  1.00  0.00     0.007 C 
ATOM     34  C   UNL     1      16.805 -25.675 -42.924  1.00  0.00     0.007 C 
ATOM     35  C   UNL     1      15.538 -23.762 -41.914  1.00  0.00     0.007 C 
ENDBRANCH  23  26
ENDBRANCH  16  18
ENDBRANCH  15  16
ENDBRANCH   9  10
ENDBRANCH   2   9
TORSDOF 8
ENDMDL
MODEL 7
REMARK VINA RESULT:    -6.419      4.269      6.322
REMARK INTER + INTRA:          -9.658
REMARK INTER:                  -9.224
REMARK INTRA:                  -0.435
REMARK UNBOUND:                -0.237
REMARK SMILES COCCNC(=O)CN1CCN([C@@H](C)C(=O)NC(=O)N[C@]23C[C@H]4C[C@H](C[C@H](C4)C2)C3)CC1
REMARK SMILES IDX 5 1 6 2 7 3 4 5 3 6 2 7 1 8 8 9 9 10 10 11 32 12 11 13 31 14
REMARK SMILES IDX 12 15 13 16 14 17 15 18 16 19 17 20 18 21 19 22 20 23 21 26
REMARK SMILES IDX 29 27 30 28 22 29 27 30 25 31 23 32 28 33 26 34 24 35
REMARK H PARENT 5 4 17 24 20 25
ROOT
ATOM      1  N   UNL     1       5.869 -24.065 -51.213  1.00  0.00    -0.353 N 
ATOM      2  C   UNL     1       6.649 -23.145 -51.888  1.00  0.00     0.234 C 
ATOM      3  O   UNL     1       6.320 -21.982 -52.096  1.00  0.00    -0.274 OA
ATOM      4  H   UNL     1       6.177 -25.024 -51.360  1.00  0.00     0.163 HD
ENDROOT
BRANCH   1   5
ATOM      5  C   UNL     1       4.471 -23.822 -50.924  1.00  0.00     0.144 C 
BRANCH   5   6
ATOM      6  C   UNL     1       4.053 -24.192 -49.501  1.00  0.00     0.181 C 
BRANCH   6   7
ATOM      7  O   UNL     1       4.344 -23.087 -48.638  1.00  0.00    -0.383 OA
ATOM      8  C   UNL     1       3.172 -22.618 -47.984  1.00  0.00     0.194 C 
ENDBRANCH   6   7
ENDBRANCH   5   6
ENDBRANCH   1   5
BRANCH   2   9
ATOM      9  C   UNL     1       8.015 -23.703 -52.305  1.00  0.00     0.184 C 
BRANCH   9  10
ATOM     10  N   UNL     1       8.830 -24.037 -51.112  1.00  0.00    -0.292 NA
ATOM     11  C   UNL     1       9.793 -25.127 -51.414  1.00  0.00     0.100 C 
ATOM     12  C   UNL     1       9.560 -22.853 -50.632  1.00  0.00     0.100 C 
ATOM     13  C   UNL     1      11.023 -25.178 -50.466  1.00  0.00     0.101 C 
ATOM     14  C   UNL     1      10.399 -23.144 -49.354  1.00  0.00     0.101 C 
ATOM     15  N   UNL     1      10.730 -24.574 -49.145  1.00  0.00    -0.290 NA
BRANCH  15  16
ATOM     16  C   UNL     1      11.865 -24.774 -48.191  1.00  0.00     0.144 C 
ATOM     17  C   UNL     1      12.914 -23.652 -48.240  1.00  0.00     0.035 C 
BRANCH  16  18
ATOM     18  C   UNL     1      11.299 -24.791 -46.753  1.00  0.00     0.245 C 
ATOM     19  O   UNL     1      10.301 -25.438 -46.448  1.00  0.00    -0.273 OA
ATOM     20  N   UNL     1      11.996 -23.965 -45.896  1.00  0.00    -0.277 N 
ATOM     21  C   UNL     1      12.817 -24.552 -44.966  1.00  0.00     0.321 C 
ATOM     22  O   UNL     1      12.713 -25.698 -44.551  1.00  0.00    -0.248 OA
ATOM     23  N   UNL     1      13.783 -23.657 -44.543  1.00  0.00    -0.332 N 
ATOM     24  H   UNL     1      12.531 -23.289 -46.433  1.00  0.00     0.174 HD
ATOM     25  H   UNL     1      13.442 -22.705 -44.495  1.00  0.00     0.165 HD
BRANCH  23  26
ATOM     26  C   UNL     1      14.845 -23.991 -43.584  1.00  0.00     0.043 C 
ATOM     27  C   UNL     1      15.821 -22.786 -43.507  1.00  0.00     0.032 C 
ATOM     28  C   UNL     1      15.662 -25.227 -44.047  1.00  0.00     0.032 C 
ATOM     29  C   UNL     1      14.289 -24.250 -42.163  1.00  0.00     0.032 C 
ATOM     30  C   UNL     1      16.968 -23.065 -42.522  1.00  0.00    -0.008 C 
ATOM     31  C   UNL     1      16.809 -25.518 -43.062  1.00  0.00    -0.008 C 
ATOM     32  C   UNL     1      15.437 -24.545 -41.180  1.00  0.00    -0.008 C 
ATOM     33  C   UNL     1      16.382 -23.334 -41.127  1.00  0.00     0.007 C 
ATOM     34  C   UNL     1      17.747 -24.301 -42.999  1.00  0.00     0.007 C 
ATOM     35  C   UNL     1      16.221 -25.777 -41.665  1.00  0.00     0.007 C 
ENDBRANCH  23  26
ENDBRANCH  16  18
ENDBRANCH  15  16
ENDBRANCH   9  10
ENDBRANCH   2   9
TORSDOF 8
ENDMDL
MODEL 8
REMARK VINA RESULT:    -6.388      4.582     10.167
REMARK INTER + INTRA:          -9.612
REMARK INTER:                  -9.208
REMARK INTRA:                  -0.404
REMARK UNBOUND:                -0.237
REMARK SMILES COCCNC(=O)CN1CCN([C@@H](C)C(=O)NC(=O)N[C@]23C[C@H]4C[C@H](C[C@H](C4)C2)C3)CC1
REMARK SMILES IDX 5 1 6 2 7 3 4 5 3 6 2 7 1 8 8 9 9 10 10 11 32 12 11 13 31 14
REMARK SMILES IDX 12 15 13 16 14 17 15 18 16 19 17 20 18 21 19 22 20 23 21 26
REMARK SMILES IDX 29 27 30 28 22 29 27 30 25 31 23 32 28 33 26 34 24 35
REMARK H PARENT 5 4 17 24 20 25
ROOT
ATOM      1  N   UNL     1      16.577 -24.879 -42.498  1.00  0.00    -0.353 N 
ATOM      2  C   UNL     1      16.858 -23.560 -42.798  1.00  0.00     0.234 C 
ATOM      3  O   UNL     1      17.101 -22.698 -41.960  1.00  0.00    -0.274 OA
ATOM      4  H   UNL     1      16.153 -25.378 -43.278  1.00  0.00     0.163 HD
ENDROOT
BRANCH   1   5
ATOM      5  C   UNL     1      16.273 -25.312 -41.150  1.00  0.00     0.144 C 
BRANCH   5   6
ATOM      6  C   UNL     1      14.826 -25.764 -40.951  1.00  0.00     0.181 C 
BRANCH   6   7
ATOM      7  O   UNL     1      14.113 -25.565 -42.177  1.00  0.00    -0.383 OA
ATOM      8  C   UNL     1      13.075 -24.605 -42.023  1.00  0.00     0.194 C 
ENDBRANCH   6   7
ENDBRANCH   5   6
ENDBRANCH   1   5
BRANCH   2   9
ATOM      9  C   UNL     1      16.902 -23.280 -44.305  1.00  0.00     0.184 C 
BRANCH   9  10
ATOM     10  N   UNL     1      15.638 -23.704 -44.954  1.00  0.00    -0.292 NA
ATOM     11  C   UNL     1      15.114 -22.638 -45.845  1.00  0.00     0.100 C 
ATOM     12  C   UNL     1      15.840 -24.940 -45.728  1.00  0.00     0.100 C 
ATOM     13  C   UNL     1      14.153 -23.145 -46.956  1.00  0.00     0.101 C 
ATOM     14  C   UNL     1      14.530 -25.448 -46.396  1.00  0.00     0.101 C 
ATOM     15  N   UNL     1      13.485 -24.412 -46.576  1.00  0.00    -0.290 NA
BRANCH  15  16
ATOM     16  C   UNL     1      12.447 -24.802 -47.580  1.00  0.00     0.144 C 
ATOM     17  C   UNL     1      12.646 -26.213 -48.154  1.00  0.00     0.035 C 
BRANCH  16  18
ATOM     18  C   UNL     1      11.067 -24.797 -46.883  1.00  0.00     0.245 C 
ATOM     19  O   UNL     1      10.900 -24.331 -45.759  1.00  0.00    -0.273 OA
ATOM     20  N   UNL     1      10.089 -25.417 -47.632  1.00  0.00    -0.277 N 
ATOM     21  C   UNL     1       9.146 -24.624 -48.239  1.00  0.00     0.321 C 
ATOM     22  O   UNL     1       8.839 -23.494 -47.887  1.00  0.00    -0.248 OA
ATOM     23  N   UNL     1       8.572 -25.290 -49.306  1.00  0.00    -0.332 N 
ATOM     24  H   UNL     1      10.521 -26.013 -48.331  1.00  0.00     0.174 HD
ATOM     25  H   UNL     1       8.473 -26.284 -49.141  1.00  0.00     0.165 HD
BRANCH  23  26
ATOM     26  C   UNL     1       7.559 -24.698 -50.191  1.00  0.00     0.043 C 
ATOM     27  C   UNL     1       6.251 -24.517 -49.373  1.00  0.00     0.032 C 
ATOM     28  C   UNL     1       7.236 -25.629 -51.391  1.00  0.00     0.032 C 
ATOM     29  C   UNL     1       7.988 -23.309 -50.724  1.00  0.00     0.032 C 
ATOM     30  C   UNL     1       5.138 -23.905 -50.238  1.00  0.00    -0.008 C 
ATOM     31  C   UNL     1       6.127 -25.019 -52.267  1.00  0.00    -0.008 C 
ATOM     32  C   UNL     1       6.879 -22.702 -51.603  1.00  0.00    -0.008 C 
ATOM     33  C   UNL     1       5.602 -22.536 -50.764  1.00  0.00     0.007 C 
ATOM     34  C   UNL     1       4.854 -24.840 -51.424  1.00  0.00     0.007 C 
ATOM     35  C   UNL     1       6.589 -23.647 -52.784  1.00  0.00     0.007 C 
ENDBRANCH  23  26
ENDBRANCH  16  18
ENDBRANCH  15  16
ENDBRANCH   9  10
ENDBRANCH   2   9
TORSDOF 8
ENDMDL
MODEL 9
REMARK VINA RESULT:    -6.367      4.969     10.799
REMARK INTER + INTRA:          -9.582
REMARK INTER:                  -9.927
REMARK INTRA:                   0.345
REMARK UNBOUND:                -0.237
REMARK SMILES COCCNC(=O)CN1CCN([C@@H](C)C(=O)NC(=O)N[C@]23C[C@H]4C[C@H](C[C@H](C4)C2)C3)CC1
REMARK SMILES IDX 5 1 6 2 7 3 4 5 3 6 2 7 1 8 8 9 9 10 10 11 32 12 11 13 31 14
REMARK SMILES IDX 12 15 13 16 14 17 15 18 16 19 17 20 18 21 19 22 20 23 21 26
REMARK SMILES IDX 29 27 30 28 22 29 27 30 25 31 23 32 28 33 26 34 24 35
REMARK H PARENT 5 4 17 24 20 25
ROOT
ATOM      1  N   UNL     1      15.044 -23.273 -44.571  1.00  0.00    -0.353 N 
ATOM      2  C   UNL     1      15.435 -23.206 -45.894  1.00  0.00     0.234 C 
ATOM      3  O   UNL     1      16.192 -24.008 -46.432  1.00  0.00    -0.274 OA
ATOM      4  H   UNL     1      14.636 -22.402 -44.236  1.00  0.00     0.163 HD
ENDROOT
BRANCH   1   5
ATOM      5  C   UNL     1      15.705 -24.140 -43.617  1.00  0.00     0.144 C 
BRANCH   5   6
ATOM      6  C   UNL     1      16.277 -23.411 -42.402  1.00  0.00     0.181 C 
BRANCH   6   7
ATOM      7  O   UNL     1      17.537 -22.835 -42.766  1.00  0.00    -0.383 OA
ATOM      8  C   UNL     1      18.362 -23.777 -43.440  1.00  0.00     0.194 C 
ENDBRANCH   6   7
ENDBRANCH   5   6
ENDBRANCH   1   5
BRANCH   2   9
ATOM      9  C   UNL     1      14.775 -22.053 -46.661  1.00  0.00     0.184 C 
BRANCH   9  10
ATOM     10  N   UNL     1      13.722 -22.566 -47.571  1.00  0.00    -0.292 NA
ATOM     11  C   UNL     1      13.191 -23.867 -47.091  1.00  0.00     0.100 C 
ATOM     12  C   UNL     1      12.621 -21.597 -47.690  1.00  0.00     0.100 C 
ATOM     13  C   UNL     1      11.770 -24.213 -47.616  1.00  0.00     0.101 C 
ATOM     14  C   UNL     1      11.508 -22.072 -48.669  1.00  0.00     0.101 C 
ATOM     15  N   UNL     1      11.473 -23.536 -48.900  1.00  0.00    -0.290 NA
BRANCH  15  16
ATOM     16  C   UNL     1      10.172 -24.002 -49.473  1.00  0.00     0.144 C 
ATOM     17  C   UNL     1       8.982 -23.827 -48.517  1.00  0.00     0.035 C 
BRANCH  16  18
ATOM     18  C   UNL     1       9.860 -23.158 -50.730  1.00  0.00     0.245 C 
ATOM     19  O   UNL     1      10.627 -23.098 -51.687  1.00  0.00    -0.273 OA
ATOM     20  N   UNL     1       8.680 -22.454 -50.620  1.00  0.00    -0.277 N 
ATOM     21  C   UNL     1       7.602 -22.892 -51.349  1.00  0.00     0.321 C 
ATOM     22  O   UNL     1       7.661 -23.577 -52.360  1.00  0.00    -0.248 OA
ATOM     23  N   UNL     1       6.423 -22.435 -50.787  1.00  0.00    -0.332 N 
ATOM     24  H   UNL     1       8.414 -22.383 -49.643  1.00  0.00     0.174 HD
ATOM     25  H   UNL     1       6.513 -21.510 -50.384  1.00  0.00     0.165 HD
BRANCH  23  26
ATOM     26  C   UNL     1       5.088 -22.768 -51.303  1.00  0.00     0.043 C 
ATOM     27  C   UNL     1       4.892 -22.020 -52.650  1.00  0.00     0.032 C 
ATOM     28  C   UNL     1       3.970 -22.293 -50.337  1.00  0.00     0.032 C 
ATOM     29  C   UNL     1       4.924 -24.284 -51.567  1.00  0.00     0.032 C 
ATOM     30  C   UNL     1       3.508 -22.315 -53.251  1.00  0.00    -0.008 C 
ATOM     31  C   UNL     1       2.580 -22.591 -50.928  1.00  0.00    -0.008 C 
ATOM     32  C   UNL     1       3.532 -24.582 -52.155  1.00  0.00    -0.008 C 
ATOM     33  C   UNL     1       3.372 -23.828 -53.485  1.00  0.00     0.007 C 
ATOM     34  C   UNL     1       2.426 -21.849 -52.265  1.00  0.00     0.007 C 
ATOM     35  C   UNL     1       2.449 -24.104 -51.170  1.00  0.00     0.007 C 
ENDBRANCH  23  26
ENDBRANCH  16  18
ENDBRANCH  15  16
ENDBRANCH   9  10
ENDBRANCH   2   9
TORSDOF 8
ENDMDL
