REMARK SMILES Cc1c(C(=O)NC[C@H](c2c[nH]c3ccccc23)N2CCOCC2)cccc1[N+](=O)[O-]
REMARK SMILES IDX 4 1 5 2 6 3 3 5 2 6 27 7 24 8 26 9 25 10 1 11 28 12 29 13
REMARK SMILES IDX 30 14 7 15 8 16 9 17 10 18 17 19 11 20 16 21 12 22 15 23
REMARK SMILES IDX 13 24 14 25 18 27 19 28 23 29 20 30 22 31 21 32
REMARK H PARENT 6 4 11 26
ROOT
ATOM      1  C   UNL     1       0.069   1.213  -1.264  1.00  0.00     0.251 C 
ATOM      2  O   UNL     1       0.368   2.399  -1.253  1.00  0.00    -0.269 OA
ATOM      3  N   UNL     1       0.108   0.392  -0.163  1.00  0.00    -0.350 N 
ATOM      4  H   UNL     1      -0.071  -0.600  -0.267  1.00  0.00     0.163 HD
ENDROOT
BRANCH   1   5
ATOM      5  C   UNL     1      -0.383   0.559  -2.521  1.00  0.00     0.049 A 
ATOM      6  C   UNL     1      -1.401   1.129  -3.314  1.00  0.00     0.039 A 
ATOM      7  C   UNL     1      -1.705   0.472  -4.523  1.00  0.00     0.273 A 
ATOM      8  C   UNL     1       0.264  -0.629  -2.911  1.00  0.00     0.014 A 
ATOM      9  C   UNL     1      -1.073  -0.721  -4.910  1.00  0.00     0.086 A 
ATOM     10  C   UNL     1      -0.088  -1.272  -4.097  1.00  0.00     0.008 A 
ATOM     11  C   UNL     1      -2.102   2.392  -2.888  1.00  0.00     0.053 C 
BRANCH   7  12
ATOM     12  N   UNL     1      -2.699   1.012  -5.441  1.00  0.00     0.063 N 
ATOM     13  O   UNL     1      -2.529   2.167  -5.851  1.00  0.00    -0.258 OA
ATOM     14  O   UNL     1      -3.632   0.263  -5.759  1.00  0.00    -0.258 OA
ENDBRANCH   7  12
ENDBRANCH   1   5
BRANCH   3  15
ATOM     15  C   UNL     1       0.695   0.831   1.096  1.00  0.00     0.140 C 
BRANCH  15  16
ATOM     16  C   UNL     1       0.231   0.026   2.347  1.00  0.00     0.108 C 
BRANCH  16  17
ATOM     17  C   UNL     1       0.330  -1.484   2.144  1.00  0.00    -0.004 A 
ATOM     18  C   UNL     1      -0.683  -2.428   2.199  1.00  0.00     0.088 A 
ATOM     19  C   UNL     1       1.540  -2.222   1.873  1.00  0.00     0.004 A 
ATOM     20  N   UNL     1      -0.156  -3.664   1.953  1.00  0.00    -0.361 N 
ATOM     21  C   UNL     1       2.900  -1.870   1.730  1.00  0.00     0.010 A 
ATOM     22  C   UNL     1       1.196  -3.568   1.737  1.00  0.00     0.046 A 
ATOM     23  C   UNL     1       3.849  -2.858   1.444  1.00  0.00     0.001 A 
ATOM     24  C   UNL     1       2.132  -4.570   1.452  1.00  0.00     0.026 A 
ATOM     25  C   UNL     1       3.467  -4.189   1.303  1.00  0.00     0.002 A 
ATOM     26  H   UNL     1      -0.678  -4.529   1.950  1.00  0.00     0.166 HD
ENDBRANCH  16  17
BRANCH  16  27
ATOM     27  N   UNL     1      -1.106   0.384   2.870  1.00  0.00    -0.290 NA
ATOM     28  C   UNL     1      -2.168   0.596   1.884  1.00  0.00     0.113 C 
ATOM     29  C   UNL     1      -1.062   1.502   3.833  1.00  0.00     0.113 C 
ATOM     30  C   UNL     1      -3.524   0.764   2.600  1.00  0.00     0.175 C 
ATOM     31  C   UNL     1      -2.303   2.417   3.804  1.00  0.00     0.175 C 
ATOM     32  O   UNL     1      -3.517   1.675   3.709  1.00  0.00    -0.379 OA
ENDBRANCH  16  27
ENDBRANCH  15  16
ENDBRANCH   3  15
TORSDOF 6
