REMARK SMILES O=C(COC(=O)CC[C@@H]1[N-]C(=O)NC1=O)NCc1cnn(-c2ccccc2)c1
REMARK SMILES IDX 4 1 3 2 2 3 1 4 16 5 17 7 18 8 19 9 28 10 20 11 21 12 22 13
REMARK SMILES IDX 23 14 27 15 24 16 26 17 25 18 5 19 6 20 7 21 8 22 9 23 10 24
REMARK SMILES IDX 14 25 11 26 13 27 15 28 12 29
REMARK H PARENT 16 6 13 30
ROOT
ATOM      1  O   UNL     1       2.221  -2.193  -0.260  1.00  0.00    -0.456 OA
ENDROOT
BRANCH   1   2
ATOM      2  C   UNL     1       0.835  -2.310  -0.552  1.00  0.00     0.332 C 
BRANCH   2   3
ATOM      3  C   UNL     1      -0.159  -1.661   0.416  1.00  0.00     0.258 C 
ATOM      4  O   UNL     1      -1.307  -2.093   0.539  1.00  0.00    -0.271 OA
ATOM      5  N   UNL     1       0.298  -0.527   1.037  1.00  0.00    -0.349 N 
ATOM      6  H   UNL     1       1.302  -0.312   1.032  1.00  0.00     0.163 HD
BRANCH   5   7
ATOM      7  C   UNL     1      -0.488   0.219   1.983  1.00  0.00     0.155 C 
BRANCH   7   8
ATOM      8  C   UNL     1      -1.336   1.196   1.251  1.00  0.00     0.010 A 
ATOM      9  C   UNL     1      -1.038   2.535   0.932  1.00  0.00     0.141 A 
ATOM     10  C   UNL     1      -2.595   1.006   0.719  1.00  0.00     0.120 A 
ATOM     11  N   UNL     1      -2.033   3.148   0.284  1.00  0.00    -0.176 NA
ATOM     12  N   UNL     1      -2.980   2.186   0.127  1.00  0.00    -0.241 N 
BRANCH  12  13
ATOM     13  C   UNL     1      -4.193   2.462  -0.568  1.00  0.00     0.065 A 
ATOM     14  C   UNL     1      -5.172   1.474  -0.743  1.00  0.00     0.028 A 
ATOM     15  C   UNL     1      -4.413   3.747  -1.089  1.00  0.00     0.028 A 
ATOM     16  C   UNL     1      -6.354   1.773  -1.429  1.00  0.00     0.002 A 
ATOM     17  C   UNL     1      -5.596   4.039  -1.772  1.00  0.00     0.002 A 
ATOM     18  C   UNL     1      -6.565   3.052  -1.941  1.00  0.00     0.000 A 
ENDBRANCH  12  13
ENDBRANCH   7   8
ENDBRANCH   5   7
ENDBRANCH   2   3
ENDBRANCH   1   2
BRANCH   1  19
ATOM     19  C   UNL     1       2.638  -2.910   0.816  1.00  0.00     0.306 C 
ATOM     20  O   UNL     1       1.920  -3.652   1.480  1.00  0.00    -0.252 OA
BRANCH  19  21
ATOM     21  C   UNL     1       4.137  -2.838   0.996  1.00  0.00     0.123 C 
BRANCH  21  22
ATOM     22  C   UNL     1       4.778  -1.471   0.764  1.00  0.00     0.022 C 
BRANCH  22  23
ATOM     23  C   UNL     1       4.479  -0.477   1.885  1.00  0.00     0.062 C 
ATOM     24  N   UNL     1       3.114   0.082   1.788  1.00  0.00    -0.420 NA
ATOM     25  C   UNL     1       5.333   0.766   1.758  1.00  0.00     0.149 C 
ATOM     26  C   UNL     1       3.198   1.408   1.742  1.00  0.00     0.159 C 
ATOM     27  N   UNL     1       4.481   1.813   1.768  1.00  0.00    -0.395 N 
ATOM     28  O   UNL     1       6.550   0.820   1.664  1.00  0.00    -0.299 OA
ATOM     29  O   UNL     1       2.262   2.191   1.660  1.00  0.00    -0.299 OA
ATOM     30  H   UNL     1       4.755   2.770   1.662  1.00  0.00     0.032 HD
ENDBRANCH  22  23
ENDBRANCH  21  22
ENDBRANCH  19  21
ENDBRANCH   1  19
TORSDOF 9
