REMARK SMILES Cc1cc(C)c(O)c(C2=C[C@@H](c3ccc(F)cc3)NN2)c1
REMARK SMILES IDX 1 1 2 2 3 3 4 4 5 5 6 6 8 7 21 8 9 9 10 10 20 11 11 12 19 13
REMARK SMILES IDX 12 16 13 17 18 18 14 19 17 20 15 21 16 22 7 23
REMARK H PARENT 20 14 19 15 7 24
ROOT
ATOM      1  C   UNL     1      -4.282  -1.324   1.107  1.00  0.00     0.044 C 
ATOM      2  C   UNL     1      -2.934  -1.252   0.452  1.00  0.00    -0.050 A 
ATOM      3  C   UNL     1      -2.525  -2.249  -0.440  1.00  0.00     0.010 A 
ATOM      4  C   UNL     1      -1.251  -2.219  -1.028  1.00  0.00    -0.008 A 
ATOM      5  C   UNL     1      -0.865  -3.319  -1.976  1.00  0.00     0.048 C 
ATOM      6  C   UNL     1      -0.385  -1.158  -0.707  1.00  0.00     0.127 A 
ATOM      7  C   UNL     1      -0.765  -0.145   0.199  1.00  0.00     0.041 A 
ATOM      8  C   UNL     1      -2.045  -0.220   0.776  1.00  0.00     0.017 A 
ENDROOT
BRANCH   7   9
ATOM      9  C   UNL     1       0.131   0.963   0.574  1.00  0.00     0.058 C 
ATOM     10  C   UNL     1      -0.211   2.225   0.856  1.00  0.00     0.026 C 
ATOM     11  N   UNL     1       1.505   0.795   0.631  1.00  0.00    -0.320 N 
ATOM     12  C   UNL     1       1.038   3.022   1.071  1.00  0.00     0.129 C 
ATOM     13  N   UNL     1       2.146   2.065   0.774  1.00  0.00    -0.226 NA
ATOM     14  H   UNL     1       1.828   0.177  -0.125  1.00  0.00     0.181 HD
ATOM     15  H   UNL     1       2.772   2.034   1.581  1.00  0.00     0.148 HD
BRANCH  12  16
ATOM     16  C   UNL     1       1.142   3.629   2.460  1.00  0.00    -0.025 A 
ATOM     17  C   UNL     1       1.039   2.836   3.620  1.00  0.00     0.009 A 
ATOM     18  C   UNL     1       1.363   5.010   2.607  1.00  0.00     0.009 A 
ATOM     19  C   UNL     1       1.145   3.410   4.888  1.00  0.00     0.039 A 
ATOM     20  C   UNL     1       1.469   5.582   3.876  1.00  0.00     0.039 A 
ATOM     21  C   UNL     1       1.358   4.777   5.004  1.00  0.00     0.123 A 
ATOM     22  F   UNL     1       1.460   5.329   6.220  1.00  0.00    -0.207 F 
ENDBRANCH  12  16
ENDBRANCH   7   9
BRANCH   6  23
ATOM     23  O   UNL     1       0.865  -1.083  -1.279  1.00  0.00    -0.507 OA
ATOM     24  H   UNL     1       0.923  -1.722  -2.006  1.00  0.00     0.293 HD
ENDBRANCH   6  23
TORSDOF 3
