MODEL 1
REMARK VINA RESULT:    -7.700      0.000      0.000
REMARK INTER + INTRA:         -12.620
REMARK INTER:                 -11.752
REMARK INTRA:                  -0.868
REMARK UNBOUND:                -0.868
REMARK SMILES COc1ccc(S(=O)(=O)N(C)C)cc1NC(=O)CNc1ccc(-c2nnnn2C2CC2)cc1
REMARK SMILES IDX 15 1 16 2 17 3 14 5 3 6 4 7 5 8 13 9 6 10 2 11 1 12 7 13
REMARK SMILES IDX 8 14 9 15 10 16 11 17 12 18 18 19 19 20 20 22 21 23 33 24
REMARK SMILES IDX 22 25 32 26 23 27 24 28 25 29 28 30 26 31 27 32 29 33 30 34
REMARK SMILES IDX 31 35
REMARK H PARENT 15 4 19 21
ROOT
ATOM      1  N   UNL     1      10.516 -23.050 -48.586  1.00  0.00    -0.321 N 
ATOM      2  C   UNL     1      11.132 -22.360 -49.608  1.00  0.00     0.243 C 
ATOM      3  O   UNL     1      10.884 -22.466 -50.807  1.00  0.00    -0.273 OA
ATOM      4  H   UNL     1      10.822 -22.787 -47.647  1.00  0.00     0.170 HD
ENDROOT
BRANCH   1   5
ATOM      5  C   UNL     1       9.542 -24.062 -48.653  1.00  0.00     0.085 A 
ATOM      6  C   UNL     1       9.964 -25.382 -48.377  1.00  0.00     0.142 A 
ATOM      7  C   UNL     1       9.040 -26.432 -48.415  1.00  0.00     0.050 A 
ATOM      8  C   UNL     1       7.703 -26.177 -48.727  1.00  0.00     0.026 A 
ATOM      9  C   UNL     1       8.210 -23.815 -48.986  1.00  0.00     0.051 A 
ATOM     10  C   UNL     1       7.293 -24.870 -49.002  1.00  0.00     0.085 A 
BRANCH   6  11
ATOM     11  O   UNL     1      11.300 -25.523 -48.077  1.00  0.00    -0.495 OA
ATOM     12  C   UNL     1      12.117 -26.182 -49.037  1.00  0.00     0.278 C 
ENDBRANCH   6  11
BRANCH  10  13
ATOM     13  S   UNL     1       5.600 -24.551 -49.454  1.00  0.00     0.242 S 
ATOM     14  O   UNL     1       5.136 -23.455 -48.626  1.00  0.00    -0.207 OA
ATOM     15  O   UNL     1       4.906 -25.821 -49.458  1.00  0.00    -0.207 OA
BRANCH  13  16
ATOM     16  N   UNL     1       5.720 -23.983 -51.052  1.00  0.00    -0.204 NA
ATOM     17  C   UNL     1       4.514 -23.380 -51.649  1.00  0.00     0.124 C 
ATOM     18  C   UNL     1       6.481 -24.816 -51.997  1.00  0.00     0.124 C 
ENDBRANCH  13  16
ENDBRANCH  10  13
ENDBRANCH   1   5
BRANCH   2  19
ATOM     19  C   UNL     1      12.183 -21.356 -49.105  1.00  0.00     0.213 C 
BRANCH  19  20
ATOM     20  N   UNL     1      13.522 -21.959 -48.929  1.00  0.00    -0.376 N 
ATOM     21  H   UNL     1      13.672 -22.727 -49.583  1.00  0.00     0.161 HD
BRANCH  20  22
ATOM     22  C   UNL     1      13.973 -22.305 -47.648  1.00  0.00     0.034 A 
ATOM     23  C   UNL     1      15.355 -22.368 -47.429  1.00  0.00     0.026 A 
ATOM     24  C   UNL     1      13.138 -22.448 -46.537  1.00  0.00     0.026 A 
ATOM     25  C   UNL     1      15.882 -22.617 -46.156  1.00  0.00     0.014 A 
ATOM     26  C   UNL     1      13.659 -22.699 -45.260  1.00  0.00     0.014 A 
ATOM     27  C   UNL     1      15.039 -22.773 -45.053  1.00  0.00     0.021 A 
BRANCH  27  28
ATOM     28  C   UNL     1      15.620 -23.025 -43.739  1.00  0.00     0.182 A 
ATOM     29  N   UNL     1      16.634 -22.367 -43.200  1.00  0.00    -0.108 NA
ATOM     30  N   UNL     1      15.189 -23.931 -42.795  1.00  0.00    -0.222 N 
ATOM     31  N   UNL     1      16.828 -22.896 -41.947  1.00  0.00    -0.023 NA
ATOM     32  N   UNL     1      15.941 -23.843 -41.689  1.00  0.00    -0.044 NA
BRANCH  30  33
ATOM     33  C   UNL     1      13.981 -24.788 -42.874  1.00  0.00     0.112 C 
ATOM     34  C   UNL     1      12.666 -24.405 -42.232  1.00  0.00     0.029 C 
ATOM     35  C   UNL     1      13.460 -25.548 -41.677  1.00  0.00     0.029 C 
ENDBRANCH  30  33
ENDBRANCH  27  28
ENDBRANCH  20  22
ENDBRANCH  19  20
ENDBRANCH   2  19
TORSDOF 9
ENDMDL
MODEL 2
REMARK VINA RESULT:    -7.450      1.767      2.604
REMARK INTER + INTRA:         -12.238
REMARK INTER:                 -11.129
REMARK INTRA:                  -1.109
REMARK UNBOUND:                -0.868
REMARK SMILES COc1ccc(S(=O)(=O)N(C)C)cc1NC(=O)CNc1ccc(-c2nnnn2C2CC2)cc1
REMARK SMILES IDX 15 1 16 2 17 3 14 5 3 6 4 7 5 8 13 9 6 10 2 11 1 12 7 13
REMARK SMILES IDX 8 14 9 15 10 16 11 17 12 18 18 19 19 20 20 22 21 23 33 24
REMARK SMILES IDX 22 25 32 26 23 27 24 28 25 29 28 30 26 31 27 32 29 33 30 34
REMARK SMILES IDX 31 35
REMARK H PARENT 15 4 19 21
ROOT
ATOM      1  N   UNL     1       9.517 -24.904 -49.488  1.00  0.00    -0.321 N 
ATOM      2  C   UNL     1      10.237 -24.419 -48.417  1.00  0.00     0.243 C 
ATOM      3  O   UNL     1       9.956 -23.430 -47.744  1.00  0.00    -0.273 OA
ATOM      4  H   UNL     1       9.880 -25.771 -49.891  1.00  0.00     0.170 HD
ENDROOT
BRANCH   1   5
ATOM      5  C   UNL     1       8.372 -24.373 -50.108  1.00  0.00     0.085 A 
ATOM      6  C   UNL     1       8.547 -23.755 -51.366  1.00  0.00     0.142 A 
ATOM      7  C   UNL     1       7.444 -23.219 -52.039  1.00  0.00     0.050 A 
ATOM      8  C   UNL     1       6.172 -23.292 -51.467  1.00  0.00     0.026 A 
ATOM      9  C   UNL     1       7.103 -24.424 -49.530  1.00  0.00     0.051 A 
ATOM     10  C   UNL     1       6.006 -23.901 -50.221  1.00  0.00     0.085 A 
BRANCH   6  11
ATOM     11  O   UNL     1       9.838 -23.739 -51.841  1.00  0.00    -0.495 OA
ATOM     12  C   UNL     1      10.059 -24.257 -53.147  1.00  0.00     0.278 C 
ENDBRANCH   6  11
BRANCH  10  13
ATOM     13  S   UNL     1       4.394 -23.947 -49.467  1.00  0.00     0.242 S 
ATOM     14  O   UNL     1       4.436 -23.069 -48.315  1.00  0.00    -0.207 OA
ATOM     15  O   UNL     1       4.021 -25.338 -49.325  1.00  0.00    -0.207 OA
BRANCH  13  16
ATOM     16  N   UNL     1       3.392 -23.224 -50.636  1.00  0.00    -0.204 NA
ATOM     17  C   UNL     1       2.988 -21.825 -50.409  1.00  0.00     0.124 C 
ATOM     18  C   UNL     1       2.314 -24.057 -51.192  1.00  0.00     0.124 C 
ENDBRANCH  13  16
ENDBRANCH  10  13
ENDBRANCH   1   5
BRANCH   2  19
ATOM     19  C   UNL     1      11.463 -25.284 -48.077  1.00  0.00     0.213 C 
BRANCH  19  20
ATOM     20  N   UNL     1      12.720 -24.507 -48.022  1.00  0.00    -0.376 N 
ATOM     21  H   UNL     1      13.397 -24.847 -48.704  1.00  0.00     0.161 HD
BRANCH  20  22
ATOM     22  C   UNL     1      13.340 -24.262 -46.790  1.00  0.00     0.034 A 
ATOM     23  C   UNL     1      14.431 -25.063 -46.428  1.00  0.00     0.026 A 
ATOM     24  C   UNL     1      13.035 -23.176 -45.963  1.00  0.00     0.026 A 
ATOM     25  C   UNL     1      15.157 -24.821 -45.256  1.00  0.00     0.014 A 
ATOM     26  C   UNL     1      13.758 -22.929 -44.787  1.00  0.00     0.014 A 
ATOM     27  C   UNL     1      14.837 -23.742 -44.427  1.00  0.00     0.021 A 
BRANCH  27  28
ATOM     28  C   UNL     1      15.618 -23.513 -43.217  1.00  0.00     0.182 A 
ATOM     29  N   UNL     1      16.601 -22.638 -43.081  1.00  0.00    -0.108 NA
ATOM     30  N   UNL     1      15.438 -24.102 -41.984  1.00  0.00    -0.222 N 
ATOM     31  N   UNL     1      17.029 -22.722 -41.779  1.00  0.00    -0.023 NA
ATOM     32  N   UNL     1      16.315 -23.605 -41.100  1.00  0.00    -0.044 NA
BRANCH  30  33
ATOM     33  C   UNL     1      14.353 -25.034 -41.595  1.00  0.00     0.112 C 
ATOM     34  C   UNL     1      12.906 -24.603 -41.493  1.00  0.00     0.029 C 
ATOM     35  C   UNL     1      13.669 -24.948 -40.250  1.00  0.00     0.029 C 
ENDBRANCH  30  33
ENDBRANCH  27  28
ENDBRANCH  20  22
ENDBRANCH  19  20
ENDBRANCH   2  19
TORSDOF 9
ENDMDL
MODEL 3
REMARK VINA RESULT:    -7.436      1.934      2.410
REMARK INTER + INTRA:         -12.216
REMARK INTER:                 -11.660
REMARK INTRA:                  -0.556
REMARK UNBOUND:                -0.868
REMARK SMILES COc1ccc(S(=O)(=O)N(C)C)cc1NC(=O)CNc1ccc(-c2nnnn2C2CC2)cc1
REMARK SMILES IDX 15 1 16 2 17 3 14 5 3 6 4 7 5 8 13 9 6 10 2 11 1 12 7 13
REMARK SMILES IDX 8 14 9 15 10 16 11 17 12 18 18 19 19 20 20 22 21 23 33 24
REMARK SMILES IDX 22 25 32 26 23 27 24 28 25 29 28 30 26 31 27 32 29 33 30 34
REMARK SMILES IDX 31 35
REMARK H PARENT 15 4 19 21
ROOT
ATOM      1  N   UNL     1      10.119 -22.441 -50.363  1.00  0.00    -0.321 N 
ATOM      2  C   UNL     1      10.574 -22.677 -49.084  1.00  0.00     0.243 C 
ATOM      3  O   UNL     1      10.146 -23.529 -48.309  1.00  0.00    -0.273 OA
ATOM      4  H   UNL     1      10.637 -21.723 -50.876  1.00  0.00     0.170 HD
ENDROOT
BRANCH   1   5
ATOM      5  C   UNL     1       9.045 -23.031 -51.053  1.00  0.00     0.085 A 
ATOM      6  C   UNL     1       9.359 -24.032 -52.000  1.00  0.00     0.142 A 
ATOM      7  C   UNL     1       8.334 -24.666 -52.710  1.00  0.00     0.050 A 
ATOM      8  C   UNL     1       7.002 -24.309 -52.486  1.00  0.00     0.026 A 
ATOM      9  C   UNL     1       7.715 -22.662 -50.848  1.00  0.00     0.051 A 
ATOM     10  C   UNL     1       6.699 -23.317 -51.551  1.00  0.00     0.085 A 
BRANCH   6  11
ATOM     11  O   UNL     1      10.699 -24.310 -52.142  1.00  0.00    -0.495 OA
ATOM     12  C   UNL     1      11.292 -24.034 -53.405  1.00  0.00     0.278 C 
ENDBRANCH   6  11
BRANCH  10  13
ATOM     13  S   UNL     1       5.006 -22.823 -51.303  1.00  0.00     0.242 S 
ATOM     14  O   UNL     1       4.569 -22.170 -52.521  1.00  0.00    -0.207 OA
ATOM     15  O   UNL     1       4.936 -22.140 -50.029  1.00  0.00    -0.207 OA
BRANCH  13  16
ATOM     16  N   UNL     1       4.178 -24.304 -51.180  1.00  0.00    -0.204 NA
ATOM     17  C   UNL     1       2.800 -24.354 -51.701  1.00  0.00     0.124 C 
ATOM     18  C   UNL     1       4.356 -25.061 -49.931  1.00  0.00     0.124 C 
ENDBRANCH  13  16
ENDBRANCH  10  13
ENDBRANCH   1   5
BRANCH   2  19
ATOM     19  C   UNL     1      11.758 -21.777 -48.693  1.00  0.00     0.213 C 
BRANCH  19  20
ATOM     20  N   UNL     1      13.055 -22.487 -48.715  1.00  0.00    -0.376 N 
ATOM     21  H   UNL     1      13.004 -23.336 -49.274  1.00  0.00     0.161 HD
BRANCH  20  22
ATOM     22  C   UNL     1      13.746 -22.722 -47.518  1.00  0.00     0.034 A 
ATOM     23  C   UNL     1      15.100 -22.369 -47.457  1.00  0.00     0.026 A 
ATOM     24  C   UNL     1      13.138 -23.152 -46.335  1.00  0.00     0.026 A 
ATOM     25  C   UNL     1      15.833 -22.490 -46.270  1.00  0.00     0.014 A 
ATOM     26  C   UNL     1      13.867 -23.277 -45.144  1.00  0.00     0.014 A 
ATOM     27  C   UNL     1      15.221 -22.934 -45.095  1.00  0.00     0.021 A 
BRANCH  27  28
ATOM     28  C   UNL     1      16.011 -23.042 -43.874  1.00  0.00     0.182 A 
ATOM     29  N   UNL     1      17.096 -22.341 -43.587  1.00  0.00    -0.108 NA
ATOM     30  N   UNL     1      15.745 -23.829 -42.774  1.00  0.00    -0.222 N 
ATOM     31  N   UNL     1      17.496 -22.726 -42.330  1.00  0.00    -0.023 NA
ATOM     32  N   UNL     1      16.668 -23.625 -41.823  1.00  0.00    -0.044 NA
BRANCH  30  33
ATOM     33  C   UNL     1      14.545 -24.672 -42.556  1.00  0.00     0.112 C 
ATOM     34  C   UNL     1      13.408 -24.255 -41.649  1.00  0.00     0.029 C 
ATOM     35  C   UNL     1      14.300 -25.391 -41.249  1.00  0.00     0.029 C 
ENDBRANCH  30  33
ENDBRANCH  27  28
ENDBRANCH  20  22
ENDBRANCH  19  20
ENDBRANCH   2  19
TORSDOF 9
ENDMDL
MODEL 4
REMARK VINA RESULT:    -7.390      1.782      2.409
REMARK INTER + INTRA:         -12.147
REMARK INTER:                 -10.848
REMARK INTRA:                  -1.299
REMARK UNBOUND:                -0.868
REMARK SMILES COc1ccc(S(=O)(=O)N(C)C)cc1NC(=O)CNc1ccc(-c2nnnn2C2CC2)cc1
REMARK SMILES IDX 15 1 16 2 17 3 14 5 3 6 4 7 5 8 13 9 6 10 2 11 1 12 7 13
REMARK SMILES IDX 8 14 9 15 10 16 11 17 12 18 18 19 19 20 20 22 21 23 33 24
REMARK SMILES IDX 22 25 32 26 23 27 24 28 25 29 28 30 26 31 27 32 29 33 30 34
REMARK SMILES IDX 31 35
REMARK H PARENT 15 4 19 21
ROOT
ATOM      1  N   UNL     1      12.334 -22.992 -48.422  1.00  0.00    -0.321 N 
ATOM      2  C   UNL     1      12.727 -21.713 -48.090  1.00  0.00     0.243 C 
ATOM      3  O   UNL     1      11.991 -20.803 -47.716  1.00  0.00    -0.273 OA
ATOM      4  H   UNL     1      13.100 -23.627 -48.660  1.00  0.00     0.170 HD
ENDROOT
BRANCH   1   5
ATOM      5  C   UNL     1      11.041 -23.539 -48.492  1.00  0.00     0.085 A 
ATOM      6  C   UNL     1      10.710 -24.536 -47.546  1.00  0.00     0.142 A 
ATOM      7  C   UNL     1       9.435 -25.110 -47.556  1.00  0.00     0.050 A 
ATOM      8  C   UNL     1       8.490 -24.702 -48.501  1.00  0.00     0.026 A 
ATOM      9  C   UNL     1      10.102 -23.150 -49.448  1.00  0.00     0.051 A 
ATOM     10  C   UNL     1       8.825 -23.719 -49.435  1.00  0.00     0.085 A 
BRANCH   6  11
ATOM     11  O   UNL     1      11.710 -24.861 -46.659  1.00  0.00    -0.495 OA
ATOM     12  C   UNL     1      11.602 -24.347 -45.338  1.00  0.00     0.278 C 
ENDBRANCH   6  11
BRANCH  10  13
ATOM     13  S   UNL     1       7.640 -23.237 -50.674  1.00  0.00     0.242 S 
ATOM     14  O   UNL     1       8.139 -22.026 -51.295  1.00  0.00    -0.207 OA
ATOM     15  O   UNL     1       6.331 -23.267 -50.057  1.00  0.00    -0.207 OA
BRANCH  13  16
ATOM     16  N   UNL     1       7.738 -24.489 -51.820  1.00  0.00    -0.204 NA
ATOM     17  C   UNL     1       7.965 -24.104 -53.225  1.00  0.00     0.124 C 
ATOM     18  C   UNL     1       6.788 -25.603 -51.669  1.00  0.00     0.124 C 
ENDBRANCH  13  16
ENDBRANCH  10  13
ENDBRANCH   1   5
BRANCH   2  19
ATOM     19  C   UNL     1      14.249 -21.511 -48.181  1.00  0.00     0.213 C 
BRANCH  19  20
ATOM     20  N   UNL     1      15.014 -22.744 -47.895  1.00  0.00    -0.376 N 
ATOM     21  H   UNL     1      14.641 -23.540 -48.411  1.00  0.00     0.161 HD
BRANCH  20  22
ATOM     22  C   UNL     1      15.300 -23.102 -46.571  1.00  0.00     0.034 A 
ATOM     23  C   UNL     1      15.222 -24.456 -46.221  1.00  0.00     0.026 A 
ATOM     24  C   UNL     1      15.799 -22.216 -45.612  1.00  0.00     0.026 A 
ATOM     25  C   UNL     1      15.579 -24.901 -44.943  1.00  0.00     0.014 A 
ATOM     26  C   UNL     1      16.158 -22.656 -44.329  1.00  0.00     0.014 A 
ATOM     27  C   UNL     1      16.064 -24.007 -43.985  1.00  0.00     0.021 A 
BRANCH  27  28
ATOM     28  C   UNL     1      16.435 -24.505 -42.665  1.00  0.00     0.182 A 
ATOM     29  N   UNL     1      17.627 -24.958 -42.312  1.00  0.00    -0.108 NA
ATOM     30  N   UNL     1      15.650 -24.531 -41.532  1.00  0.00    -0.222 N 
ATOM     31  N   UNL     1      17.550 -25.283 -40.980  1.00  0.00    -0.023 NA
ATOM     32  N   UNL     1      16.349 -25.012 -40.494  1.00  0.00    -0.044 NA
BRANCH  30  33
ATOM     33  C   UNL     1      14.283 -23.976 -41.386  1.00  0.00     0.112 C 
ATOM     34  C   UNL     1      13.252 -24.579 -40.459  1.00  0.00     0.029 C 
ATOM     35  C   UNL     1      13.069 -24.682 -41.943  1.00  0.00     0.029 C 
ENDBRANCH  30  33
ENDBRANCH  27  28
ENDBRANCH  20  22
ENDBRANCH  19  20
ENDBRANCH   2  19
TORSDOF 9
ENDMDL
MODEL 5
REMARK VINA RESULT:    -7.282      4.030      9.746
REMARK INTER + INTRA:         -11.982
REMARK INTER:                 -10.744
REMARK INTRA:                  -1.238
REMARK UNBOUND:                -0.868
REMARK SMILES COc1ccc(S(=O)(=O)N(C)C)cc1NC(=O)CNc1ccc(-c2nnnn2C2CC2)cc1
REMARK SMILES IDX 15 1 16 2 17 3 14 5 3 6 4 7 5 8 13 9 6 10 2 11 1 12 7 13
REMARK SMILES IDX 8 14 9 15 10 16 11 17 12 18 18 19 19 20 20 22 21 23 33 24
REMARK SMILES IDX 22 25 32 26 23 27 24 28 25 29 28 30 26 31 27 32 29 33 30 34
REMARK SMILES IDX 31 35
REMARK H PARENT 15 4 19 21
ROOT
ATOM      1  N   UNL     1      13.625 -22.326 -45.620  1.00  0.00    -0.321 N 
ATOM      2  C   UNL     1      14.217 -22.583 -46.838  1.00  0.00     0.243 C 
ATOM      3  O   UNL     1      14.903 -23.563 -47.117  1.00  0.00    -0.273 OA
ATOM      4  H   UNL     1      13.046 -21.483 -45.594  1.00  0.00     0.170 HD
ENDROOT
BRANCH   1   5
ATOM      5  C   UNL     1      13.713 -23.045 -44.415  1.00  0.00     0.085 A 
ATOM      6  C   UNL     1      12.575 -23.782 -44.018  1.00  0.00     0.142 A 
ATOM      7  C   UNL     1      12.604 -24.528 -42.835  1.00  0.00     0.050 A 
ATOM      8  C   UNL     1      13.756 -24.541 -42.044  1.00  0.00     0.026 A 
ATOM      9  C   UNL     1      14.854 -23.043 -43.611  1.00  0.00     0.051 A 
ATOM     10  C   UNL     1      14.876 -23.807 -42.440  1.00  0.00     0.085 A 
BRANCH   6  11
ATOM     11  O   UNL     1      11.496 -23.704 -44.869  1.00  0.00    -0.495 OA
ATOM     12  C   UNL     1      11.169 -24.869 -45.615  1.00  0.00     0.278 C 
ENDBRANCH   6  11
BRANCH  10  13
ATOM     13  S   UNL     1      16.326 -23.780 -41.406  1.00  0.00     0.242 S 
ATOM     14  O   UNL     1      15.871 -23.828 -40.031  1.00  0.00    -0.207 OA
ATOM     15  O   UNL     1      17.169 -22.699 -41.870  1.00  0.00    -0.207 OA
BRANCH  13  16
ATOM     16  N   UNL     1      17.086 -25.261 -41.756  1.00  0.00    -0.204 NA
ATOM     17  C   UNL     1      17.395 -26.148 -40.619  1.00  0.00     0.124 C 
ATOM     18  C   UNL     1      18.143 -25.239 -42.779  1.00  0.00     0.124 C 
ENDBRANCH  13  16
ENDBRANCH  10  13
ENDBRANCH   1   5
BRANCH   2  19
ATOM     19  C   UNL     1      13.897 -21.515 -47.898  1.00  0.00     0.213 C 
BRANCH  19  20
ATOM     20  N   UNL     1      12.450 -21.235 -48.017  1.00  0.00    -0.376 N 
ATOM     21  H   UNL     1      12.018 -21.117 -47.102  1.00  0.00     0.161 HD
BRANCH  20  22
ATOM     22  C   UNL     1      11.647 -22.031 -48.845  1.00  0.00     0.034 A 
ATOM     23  C   UNL     1      11.885 -22.000 -50.225  1.00  0.00     0.026 A 
ATOM     24  C   UNL     1      10.720 -22.965 -48.372  1.00  0.00     0.026 A 
ATOM     25  C   UNL     1      11.186 -22.834 -51.105  1.00  0.00     0.014 A 
ATOM     26  C   UNL     1      10.015 -23.802 -49.249  1.00  0.00     0.014 A 
ATOM     27  C   UNL     1      10.251 -23.755 -50.625  1.00  0.00     0.021 A 
BRANCH  27  28
ATOM     28  C   UNL     1       9.544 -24.614 -51.569  1.00  0.00     0.182 A 
ATOM     29  N   UNL     1       9.848 -25.871 -51.852  1.00  0.00    -0.108 NA
ATOM     30  N   UNL     1       8.403 -24.312 -52.280  1.00  0.00    -0.222 N 
ATOM     31  N   UNL     1       8.909 -26.312 -52.752  1.00  0.00    -0.023 NA
ATOM     32  N   UNL     1       8.016 -25.370 -53.008  1.00  0.00    -0.044 NA
BRANCH  30  33
ATOM     33  C   UNL     1       7.592 -23.076 -52.173  1.00  0.00     0.112 C 
ATOM     34  C   UNL     1       6.742 -22.760 -50.963  1.00  0.00     0.029 C 
ATOM     35  C   UNL     1       6.084 -23.098 -52.266  1.00  0.00     0.029 C 
ENDBRANCH  30  33
ENDBRANCH  27  28
ENDBRANCH  20  22
ENDBRANCH  19  20
ENDBRANCH   2  19
TORSDOF 9
ENDMDL
MODEL 6
REMARK VINA RESULT:    -7.157      3.991      9.325
REMARK INTER + INTRA:         -11.791
REMARK INTER:                 -10.711
REMARK INTRA:                  -1.079
REMARK UNBOUND:                -0.868
REMARK SMILES COc1ccc(S(=O)(=O)N(C)C)cc1NC(=O)CNc1ccc(-c2nnnn2C2CC2)cc1
REMARK SMILES IDX 15 1 16 2 17 3 14 5 3 6 4 7 5 8 13 9 6 10 2 11 1 12 7 13
REMARK SMILES IDX 8 14 9 15 10 16 11 17 12 18 18 19 19 20 20 22 21 23 33 24
REMARK SMILES IDX 22 25 32 26 23 27 24 28 25 29 28 30 26 31 27 32 29 33 30 34
REMARK SMILES IDX 31 35
REMARK H PARENT 15 4 19 21
ROOT
ATOM      1  N   UNL     1      14.599 -22.425 -45.158  1.00  0.00    -0.321 N 
ATOM      2  C   UNL     1      15.284 -22.801 -46.293  1.00  0.00     0.243 C 
ATOM      3  O   UNL     1      15.702 -23.928 -46.547  1.00  0.00    -0.273 OA
ATOM      4  H   UNL     1      14.285 -21.452 -45.149  1.00  0.00     0.170 HD
ENDROOT
BRANCH   1   5
ATOM      5  C   UNL     1      14.282 -23.181 -44.014  1.00  0.00     0.085 A 
ATOM      6  C   UNL     1      12.973 -23.707 -43.930  1.00  0.00     0.142 A 
ATOM      7  C   UNL     1      12.601 -24.476 -42.824  1.00  0.00     0.050 A 
ATOM      8  C   UNL     1      13.520 -24.723 -41.801  1.00  0.00     0.026 A 
ATOM      9  C   UNL     1      15.190 -23.411 -42.980  1.00  0.00     0.051 A 
ATOM     10  C   UNL     1      14.811 -24.197 -41.889  1.00  0.00     0.085 A 
BRANCH   6  11
ATOM     11  O   UNL     1      12.149 -23.408 -44.991  1.00  0.00    -0.495 OA
ATOM     12  C   UNL     1      11.364 -24.467 -45.524  1.00  0.00     0.278 C 
ENDBRANCH   6  11
BRANCH  10  13
ATOM     13  S   UNL     1      15.967 -24.466 -40.560  1.00  0.00     0.242 S 
ATOM     14  O   UNL     1      16.345 -23.162 -40.053  1.00  0.00    -0.207 OA
ATOM     15  O   UNL     1      16.969 -25.393 -41.039  1.00  0.00    -0.207 OA
BRANCH  13  16
ATOM     16  N   UNL     1      15.027 -25.236 -39.371  1.00  0.00    -0.204 NA
ATOM     17  C   UNL     1      14.274 -24.375 -38.441  1.00  0.00     0.124 C 
ATOM     18  C   UNL     1      15.617 -26.417 -38.721  1.00  0.00     0.124 C 
ENDBRANCH  13  16
ENDBRANCH  10  13
ENDBRANCH   1   5
BRANCH   2  19
ATOM     19  C   UNL     1      15.457 -21.649 -47.298  1.00  0.00     0.213 C 
BRANCH  19  20
ATOM     20  N   UNL     1      14.934 -21.974 -48.643  1.00  0.00    -0.376 N 
ATOM     21  H   UNL     1      15.237 -21.289 -49.334  1.00  0.00     0.161 HD
BRANCH  20  22
ATOM     22  C   UNL     1      13.578 -22.282 -48.813  1.00  0.00     0.034 A 
ATOM     23  C   UNL     1      13.204 -23.631 -48.831  1.00  0.00     0.026 A 
ATOM     24  C   UNL     1      12.554 -21.329 -48.821  1.00  0.00     0.026 A 
ATOM     25  C   UNL     1      11.860 -24.015 -48.906  1.00  0.00     0.014 A 
ATOM     26  C   UNL     1      11.206 -21.708 -48.898  1.00  0.00     0.014 A 
ATOM     27  C   UNL     1      10.843 -23.057 -48.927  1.00  0.00     0.021 A 
BRANCH  27  28
ATOM     28  C   UNL     1       9.453 -23.491 -48.999  1.00  0.00     0.182 A 
ATOM     29  N   UNL     1       8.666 -23.749 -47.967  1.00  0.00    -0.108 NA
ATOM     30  N   UNL     1       8.683 -23.643 -50.132  1.00  0.00    -0.222 N 
ATOM     31  N   UNL     1       7.436 -24.083 -48.480  1.00  0.00    -0.023 NA
ATOM     32  N   UNL     1       7.436 -24.008 -49.801  1.00  0.00    -0.044 NA
BRANCH  30  33
ATOM     33  C   UNL     1       9.076 -23.312 -51.523  1.00  0.00     0.112 C 
ATOM     34  C   UNL     1       8.991 -24.312 -52.655  1.00  0.00     0.029 C 
ATOM     35  C   UNL     1      10.332 -23.868 -52.154  1.00  0.00     0.029 C 
ENDBRANCH  30  33
ENDBRANCH  27  28
ENDBRANCH  20  22
ENDBRANCH  19  20
ENDBRANCH   2  19
TORSDOF 9
ENDMDL
MODEL 7
REMARK VINA RESULT:    -7.126      3.656     10.036
REMARK INTER + INTRA:         -11.743
REMARK INTER:                 -10.848
REMARK INTRA:                  -0.895
REMARK UNBOUND:                -0.868
REMARK SMILES COc1ccc(S(=O)(=O)N(C)C)cc1NC(=O)CNc1ccc(-c2nnnn2C2CC2)cc1
REMARK SMILES IDX 15 1 16 2 17 3 14 5 3 6 4 7 5 8 13 9 6 10 2 11 1 12 7 13
REMARK SMILES IDX 8 14 9 15 10 16 11 17 12 18 18 19 19 20 20 22 21 23 33 24
REMARK SMILES IDX 22 25 32 26 23 27 24 28 25 29 28 30 26 31 27 32 29 33 30 34
REMARK SMILES IDX 31 35
REMARK H PARENT 15 4 19 21
ROOT
ATOM      1  N   UNL     1      11.120 -22.693 -50.921  1.00  0.00    -0.321 N 
ATOM      2  C   UNL     1      10.913 -23.944 -51.460  1.00  0.00     0.243 C 
ATOM      3  O   UNL     1      11.306 -25.009 -50.990  1.00  0.00    -0.273 OA
ATOM      4  H   UNL     1      10.670 -21.928 -51.429  1.00  0.00     0.170 HD
ENDROOT
BRANCH   1   5
ATOM      5  C   UNL     1      11.866 -22.320 -49.789  1.00  0.00     0.085 A 
ATOM      6  C   UNL     1      12.707 -21.191 -49.914  1.00  0.00     0.142 A 
ATOM      7  C   UNL     1      13.466 -20.762 -48.820  1.00  0.00     0.050 A 
ATOM      8  C   UNL     1      13.396 -21.451 -47.606  1.00  0.00     0.026 A 
ATOM      9  C   UNL     1      11.816 -23.018 -48.582  1.00  0.00     0.051 A 
ATOM     10  C   UNL     1      12.565 -22.568 -47.491  1.00  0.00     0.085 A 
BRANCH   6  11
ATOM     11  O   UNL     1      12.700 -20.584 -51.149  1.00  0.00    -0.495 OA
ATOM     12  C   UNL     1      13.493 -19.414 -51.305  1.00  0.00     0.278 C 
ENDBRANCH   6  11
BRANCH  10  13
ATOM     13  S   UNL     1      12.516 -23.479 -45.961  1.00  0.00     0.242 S 
ATOM     14  O   UNL     1      11.205 -24.089 -45.869  1.00  0.00    -0.207 OA
ATOM     15  O   UNL     1      13.000 -22.599 -44.918  1.00  0.00    -0.207 OA
BRANCH  13  16
ATOM     16  N   UNL     1      13.653 -24.720 -46.206  1.00  0.00    -0.204 NA
ATOM     17  C   UNL     1      13.315 -26.058 -45.688  1.00  0.00     0.124 C 
ATOM     18  C   UNL     1      15.070 -24.367 -46.025  1.00  0.00     0.124 C 
ENDBRANCH  13  16
ENDBRANCH  10  13
ENDBRANCH   1   5
BRANCH   2  19
ATOM     19  C   UNL     1      10.064 -23.913 -52.742  1.00  0.00     0.213 C 
BRANCH  19  20
ATOM     20  N   UNL     1       8.806 -24.683 -52.621  1.00  0.00    -0.376 N 
ATOM     21  H   UNL     1       8.735 -25.392 -53.349  1.00  0.00     0.161 HD
BRANCH  20  22
ATOM     22  C   UNL     1       7.586 -24.013 -52.461  1.00  0.00     0.034 A 
ATOM     23  C   UNL     1       6.435 -24.597 -53.005  1.00  0.00     0.026 A 
ATOM     24  C   UNL     1       7.417 -22.874 -51.668  1.00  0.00     0.026 A 
ATOM     25  C   UNL     1       5.168 -24.035 -52.809  1.00  0.00     0.014 A 
ATOM     26  C   UNL     1       6.151 -22.305 -51.469  1.00  0.00     0.014 A 
ATOM     27  C   UNL     1       5.010 -22.887 -52.027  1.00  0.00     0.021 A 
BRANCH  27  28
ATOM     28  C   UNL     1       3.675 -22.331 -51.836  1.00  0.00     0.182 A 
ATOM     29  N   UNL     1       3.088 -21.439 -52.617  1.00  0.00    -0.108 NA
ATOM     30  N   UNL     1       2.759 -22.673 -50.866  1.00  0.00    -0.222 N 
ATOM     31  N   UNL     1       1.833 -21.225 -52.100  1.00  0.00    -0.023 NA
ATOM     32  N   UNL     1       1.621 -21.986 -51.039  1.00  0.00    -0.044 NA
BRANCH  30  33
ATOM     33  C   UNL     1       2.896 -23.749 -49.855  1.00  0.00     0.112 C 
ATOM     34  C   UNL     1       2.506 -23.562 -48.406  1.00  0.00     0.029 C 
ATOM     35  C   UNL     1       3.951 -23.702 -48.775  1.00  0.00     0.029 C 
ENDBRANCH  30  33
ENDBRANCH  27  28
ENDBRANCH  20  22
ENDBRANCH  19  20
ENDBRANCH   2  19
TORSDOF 9
ENDMDL
MODEL 8
REMARK VINA RESULT:    -6.984      3.333     10.019
REMARK INTER + INTRA:         -11.526
REMARK INTER:                 -10.585
REMARK INTRA:                  -0.941
REMARK UNBOUND:                -0.868
REMARK SMILES COc1ccc(S(=O)(=O)N(C)C)cc1NC(=O)CNc1ccc(-c2nnnn2C2CC2)cc1
REMARK SMILES IDX 15 1 16 2 17 3 14 5 3 6 4 7 5 8 13 9 6 10 2 11 1 12 7 13
REMARK SMILES IDX 8 14 9 15 10 16 11 17 12 18 18 19 19 20 20 22 21 23 33 24
REMARK SMILES IDX 22 25 32 26 23 27 24 28 25 29 28 30 26 31 27 32 29 33 30 34
REMARK SMILES IDX 31 35
REMARK H PARENT 15 4 19 21
ROOT
ATOM      1  N   UNL     1      12.390 -23.208 -48.119  1.00  0.00    -0.321 N 
ATOM      2  C   UNL     1      11.951 -22.072 -48.763  1.00  0.00     0.243 C 
ATOM      3  O   UNL     1      11.931 -20.936 -48.296  1.00  0.00    -0.273 OA
ATOM      4  H   UNL     1      12.380 -24.056 -48.690  1.00  0.00     0.170 HD
ENDROOT
BRANCH   1   5
ATOM      5  C   UNL     1      12.835 -23.368 -46.794  1.00  0.00     0.085 A 
ATOM      6  C   UNL     1      11.934 -23.955 -45.877  1.00  0.00     0.142 A 
ATOM      7  C   UNL     1      12.321 -24.152 -44.548  1.00  0.00     0.050 A 
ATOM      8  C   UNL     1      13.596 -23.768 -44.126  1.00  0.00     0.026 A 
ATOM      9  C   UNL     1      14.099 -22.965 -46.363  1.00  0.00     0.051 A 
ATOM     10  C   UNL     1      14.481 -23.185 -45.037  1.00  0.00     0.085 A 
BRANCH   6  11
ATOM     11  O   UNL     1      10.707 -24.300 -46.396  1.00  0.00    -0.495 OA
ATOM     12  C   UNL     1      10.365 -25.681 -46.397  1.00  0.00     0.278 C 
ENDBRANCH   6  11
BRANCH  10  13
ATOM     13  S   UNL     1      16.086 -22.645 -44.487  1.00  0.00     0.242 S 
ATOM     14  O   UNL     1      15.895 -21.945 -43.233  1.00  0.00    -0.207 OA
ATOM     15  O   UNL     1      16.732 -21.995 -45.608  1.00  0.00    -0.207 OA
BRANCH  13  16
ATOM     16  N   UNL     1      16.898 -24.101 -44.152  1.00  0.00    -0.204 NA
ATOM     17  C   UNL     1      18.145 -24.017 -43.371  1.00  0.00     0.124 C 
ATOM     18  C   UNL     1      16.959 -25.092 -45.239  1.00  0.00     0.124 C 
ENDBRANCH  13  16
ENDBRANCH  10  13
ENDBRANCH   1   5
BRANCH   2  19
ATOM     19  C   UNL     1      11.507 -22.337 -50.212  1.00  0.00     0.213 C 
BRANCH  19  20
ATOM     20  N   UNL     1      10.754 -23.602 -50.363  1.00  0.00    -0.376 N 
ATOM     21  H   UNL     1      11.093 -24.142 -51.157  1.00  0.00     0.161 HD
BRANCH  20  22
ATOM     22  C   UNL     1       9.353 -23.592 -50.332  1.00  0.00     0.034 A 
ATOM     23  C   UNL     1       8.708 -24.386 -49.375  1.00  0.00     0.026 A 
ATOM     24  C   UNL     1       8.560 -22.731 -51.096  1.00  0.00     0.026 A 
ATOM     25  C   UNL     1       7.317 -24.360 -49.223  1.00  0.00     0.014 A 
ATOM     26  C   UNL     1       7.166 -22.702 -50.950  1.00  0.00     0.014 A 
ATOM     27  C   UNL     1       6.529 -23.507 -50.001  1.00  0.00     0.021 A 
BRANCH  27  28
ATOM     28  C   UNL     1       5.083 -23.499 -49.813  1.00  0.00     0.182 A 
ATOM     29  N   UNL     1       4.451 -23.462 -48.651  1.00  0.00    -0.108 NA
ATOM     30  N   UNL     1       4.114 -23.456 -50.793  1.00  0.00    -0.222 N 
ATOM     31  N   UNL     1       3.107 -23.427 -48.932  1.00  0.00    -0.023 NA
ATOM     32  N   UNL     1       2.895 -23.409 -50.237  1.00  0.00    -0.044 NA
BRANCH  30  33
ATOM     33  C   UNL     1       4.333 -23.318 -52.252  1.00  0.00     0.112 C 
ATOM     34  C   UNL     1       4.204 -21.996 -52.976  1.00  0.00     0.029 C 
ATOM     35  C   UNL     1       3.192 -23.075 -53.213  1.00  0.00     0.029 C 
ENDBRANCH  30  33
ENDBRANCH  27  28
ENDBRANCH  20  22
ENDBRANCH  19  20
ENDBRANCH   2  19
TORSDOF 9
ENDMDL
MODEL 9
REMARK VINA RESULT:    -6.974      2.198      3.381
REMARK INTER + INTRA:         -11.511
REMARK INTER:                 -10.659
REMARK INTRA:                  -0.852
REMARK UNBOUND:                -0.868
REMARK SMILES COc1ccc(S(=O)(=O)N(C)C)cc1NC(=O)CNc1ccc(-c2nnnn2C2CC2)cc1
REMARK SMILES IDX 15 1 16 2 17 3 14 5 3 6 4 7 5 8 13 9 6 10 2 11 1 12 7 13
REMARK SMILES IDX 8 14 9 15 10 16 11 17 12 18 18 19 19 20 20 22 21 23 33 24
REMARK SMILES IDX 22 25 32 26 23 27 24 28 25 29 28 30 26 31 27 32 29 33 30 34
REMARK SMILES IDX 31 35
REMARK H PARENT 15 4 19 21
ROOT
ATOM      1  N   UNL     1      11.441 -22.475 -47.956  1.00  0.00    -0.321 N 
ATOM      2  C   UNL     1      12.412 -23.090 -47.196  1.00  0.00     0.243 C 
ATOM      3  O   UNL     1      12.979 -24.147 -47.463  1.00  0.00    -0.273 OA
ATOM      4  H   UNL     1      11.125 -21.571 -47.597  1.00  0.00     0.170 HD
ENDROOT
BRANCH   1   5
ATOM      5  C   UNL     1      10.819 -22.916 -49.138  1.00  0.00     0.085 A 
ATOM      6  C   UNL     1      11.503 -22.682 -50.353  1.00  0.00     0.142 A 
ATOM      7  C   UNL     1      10.942 -23.107 -51.561  1.00  0.00     0.050 A 
ATOM      8  C   UNL     1       9.707 -23.760 -51.569  1.00  0.00     0.026 A 
ATOM      9  C   UNL     1       9.576 -23.548 -49.152  1.00  0.00     0.051 A 
ATOM     10  C   UNL     1       9.035 -23.985 -50.365  1.00  0.00     0.085 A 
BRANCH   6  11
ATOM     11  O   UNL     1      12.712 -22.035 -50.234  1.00  0.00    -0.495 OA
ATOM     12  C   UNL     1      12.796 -20.712 -50.747  1.00  0.00     0.278 C 
ENDBRANCH   6  11
BRANCH  10  13
ATOM     13  S   UNL     1       7.436 -24.769 -50.378  1.00  0.00     0.242 S 
ATOM     14  O   UNL     1       7.365 -25.614 -49.204  1.00  0.00    -0.207 OA
ATOM     15  O   UNL     1       7.234 -25.319 -51.702  1.00  0.00    -0.207 OA
BRANCH  13  16
ATOM     16  N   UNL     1       6.361 -23.470 -50.152  1.00  0.00    -0.204 NA
ATOM     17  C   UNL     1       4.975 -23.798 -49.769  1.00  0.00     0.124 C 
ATOM     18  C   UNL     1       6.451 -22.359 -51.112  1.00  0.00     0.124 C 
ENDBRANCH  13  16
ENDBRANCH  10  13
ENDBRANCH   1   5
BRANCH   2  19
ATOM     19  C   UNL     1      12.792 -22.286 -45.941  1.00  0.00     0.213 C 
BRANCH  19  20
ATOM     20  N   UNL     1      14.245 -22.298 -45.664  1.00  0.00    -0.376 N 
ATOM     21  H   UNL     1      14.782 -22.480 -46.511  1.00  0.00     0.161 HD
BRANCH  20  22
ATOM     22  C   UNL     1      14.748 -23.042 -44.589  1.00  0.00     0.034 A 
ATOM     23  C   UNL     1      15.798 -22.496 -43.841  1.00  0.00     0.026 A 
ATOM     24  C   UNL     1      14.174 -24.229 -44.123  1.00  0.00     0.026 A 
ATOM     25  C   UNL     1      16.292 -23.138 -42.699  1.00  0.00     0.014 A 
ATOM     26  C   UNL     1      14.665 -24.877 -42.980  1.00  0.00     0.014 A 
ATOM     27  C   UNL     1      15.722 -24.331 -42.248  1.00  0.00     0.021 A 
BRANCH  27  28
ATOM     28  C   UNL     1      16.256 -24.971 -41.051  1.00  0.00     0.182 A 
ATOM     29  N   UNL     1      17.348 -25.716 -40.990  1.00  0.00    -0.108 NA
ATOM     30  N   UNL     1      15.777 -24.864 -39.763  1.00  0.00    -0.222 N 
ATOM     31  N   UNL     1      17.507 -26.080 -39.676  1.00  0.00    -0.023 NA
ATOM     32  N   UNL     1      16.558 -25.553 -38.919  1.00  0.00    -0.044 NA
BRANCH  30  33
ATOM     33  C   UNL     1      14.663 -24.003 -39.299  1.00  0.00     0.112 C 
ATOM     34  C   UNL     1      13.743 -24.399 -38.165  1.00  0.00     0.029 C 
ATOM     35  C   UNL     1      13.217 -24.351 -39.567  1.00  0.00     0.029 C 
ENDBRANCH  30  33
ENDBRANCH  27  28
ENDBRANCH  20  22
ENDBRANCH  19  20
ENDBRANCH   2  19
TORSDOF 9
ENDMDL
