REMARK SMILES CCN(CC)S(=O)(=O)c1ccc(=O)n(CC(=O)N[C@H](C)c2ccc(S(N)(=O)=O)cc2)c1
REMARK SMILES IDX 16 1 17 2 18 3 15 5 14 6 9 7 10 8 31 9 11 10 12 11 13 12
REMARK SMILES IDX 6 13 7 14 8 15 3 16 2 17 1 18 4 19 5 20 19 21 20 22 21 23
REMARK SMILES IDX 22 24 30 25 23 26 29 27 24 28 25 29 27 30 28 31 26 32
REMARK H PARENT 18 4 26 33 26 34
ROOT
ATOM      1  C   UNL     1       2.339  -0.872  -0.011  1.00  0.00     0.240 C 
ATOM      2  O   UNL     1       1.826  -1.577  -0.876  1.00  0.00    -0.273 OA
ATOM      3  N   UNL     1       2.707   0.444  -0.211  1.00  0.00    -0.348 N 
ATOM      4  H   UNL     1       2.747   1.022   0.629  1.00  0.00     0.164 HD
ENDROOT
BRANCH   1   5
ATOM      5  C   UNL     1       2.529  -1.351   1.427  1.00  0.00     0.225 C 
BRANCH   5   6
ATOM      6  N   UNL     1       1.305  -1.078   2.177  1.00  0.00    -0.305 N 
ATOM      7  C   UNL     1      -0.830  -1.826   2.905  1.00  0.00     0.099 C 
ATOM      8  C   UNL     1      -1.061  -0.535   3.519  1.00  0.00     0.029 C 
ATOM      9  C   UNL     1       0.333  -2.063   2.278  1.00  0.00     0.111 C 
ATOM     10  C   UNL     1      -0.145   0.439   3.426  1.00  0.00     0.073 C 
ATOM     11  C   UNL     1       1.124   0.207   2.684  1.00  0.00     0.251 C 
ATOM     12  O   UNL     1       1.922   1.128   2.529  1.00  0.00    -0.269 OA
BRANCH   7  13
ATOM     13  S   UNL     1      -2.038  -3.100   2.958  1.00  0.00     0.244 S 
ATOM     14  O   UNL     1      -1.378  -4.386   2.837  1.00  0.00    -0.207 OA
ATOM     15  O   UNL     1      -2.910  -2.847   4.090  1.00  0.00    -0.207 OA
BRANCH  13  16
ATOM     16  N   UNL     1      -2.995  -2.896   1.553  1.00  0.00    -0.198 NA
BRANCH  16  17
ATOM     17  C   UNL     1      -3.810  -1.660   1.476  1.00  0.00     0.099 C 
ATOM     18  C   UNL     1      -5.150  -1.949   0.818  1.00  0.00     0.022 C 
ENDBRANCH  16  17
BRANCH  16  19
ATOM     19  C   UNL     1      -2.403  -3.337   0.265  1.00  0.00     0.099 C 
ATOM     20  C   UNL     1      -2.990  -4.682  -0.126  1.00  0.00     0.022 C 
ENDBRANCH  16  19
ENDBRANCH  13  16
ENDBRANCH   7  13
ENDBRANCH   5   6
ENDBRANCH   1   5
BRANCH   3  21
ATOM     21  C   UNL     1       2.447   1.125  -1.469  1.00  0.00     0.109 C 
ATOM     22  C   UNL     1       3.397   0.656  -2.575  1.00  0.00     0.036 C 
BRANCH  21  23
ATOM     23  C   UNL     1       2.531   2.629  -1.261  1.00  0.00    -0.026 A 
ATOM     24  C   UNL     1       3.738   3.250  -0.895  1.00  0.00     0.007 A 
ATOM     25  C   UNL     1       1.380   3.420  -1.412  1.00  0.00     0.007 A 
ATOM     26  C   UNL     1       3.796   4.629  -0.687  1.00  0.00     0.022 A 
ATOM     27  C   UNL     1       1.430   4.800  -1.204  1.00  0.00     0.022 A 
ATOM     28  C   UNL     1       2.638   5.394  -0.833  1.00  0.00     0.082 A 
BRANCH  28  29
ATOM     29  S   UNL     1       2.719   7.143  -0.559  1.00  0.00     0.238 S 
ATOM     30  O   UNL     1       4.023   7.609  -0.964  1.00  0.00    -0.207 OA
ATOM     31  O   UNL     1       1.493   7.743  -1.036  1.00  0.00    -0.207 OA
BRANCH  29  32
ATOM     32  N   UNL     1       2.633   7.223   1.122  1.00  0.00    -0.225 NA
ATOM     33  H   UNL     1       1.772   7.706   1.385  1.00  0.00     0.137 HD
ATOM     34  H   UNL     1       2.712   6.312   1.573  1.00  0.00     0.137 HD
ENDBRANCH  29  32
ENDBRANCH  28  29
ENDBRANCH  21  23
ENDBRANCH   3  21
TORSDOF 10
