REMARK SMILES O=C1OC2(CCCC2)OC(=O)C1=Cc1ccc(-c2cccc(C(F)(F)F)c2)o1
REMARK SMILES IDX 18 1 19 2 20 3 21 4 22 5 27 6 17 7 14 8 15 9 28 10 16 11
REMARK SMILES IDX 13 12 1 13 2 14 3 15 12 16 4 17 10 18 5 19 9 20 8 21 11 22
REMARK SMILES IDX 6 23 7 24 23 25 24 26 25 27 26 28
REMARK H PARENT
ROOT
ATOM      1  C   UNL     1       1.251  -0.189  -2.529  1.00  0.00     0.018 A 
ATOM      2  C   UNL     1       1.601   1.029  -1.930  1.00  0.00     0.012 A 
ATOM      3  C   UNL     1       2.872   1.579  -2.109  1.00  0.00     0.001 A 
ATOM      4  C   UNL     1       3.815   0.916  -2.892  1.00  0.00     0.013 A 
ATOM      5  C   UNL     1       3.497  -0.306  -3.500  1.00  0.00     0.056 A 
ATOM      6  C   UNL     1       2.209  -0.843  -3.319  1.00  0.00     0.025 A 
ENDROOT
BRANCH   1   7
ATOM      7  C   UNL     1      -0.079  -0.758  -2.350  1.00  0.00     0.134 A 
ATOM      8  C   UNL     1      -2.015  -0.913  -1.252  1.00  0.00     0.128 A 
ATOM      9  C   UNL     1      -2.065  -1.787  -2.330  1.00  0.00     0.051 A 
ATOM     10  O   UNL     1      -0.777  -0.318  -1.265  1.00  0.00    -0.457 OA
ATOM     11  C   UNL     1      -0.837  -1.685  -3.029  1.00  0.00     0.051 A 
BRANCH   8  12
ATOM     12  C   UNL     1      -2.992  -0.690  -0.247  1.00  0.00     0.070 C 
ATOM     13  O   UNL     1      -5.024  -0.341   1.627  1.00  0.00    -0.246 OA
ATOM     14  C   UNL     1      -4.048   0.396   1.601  1.00  0.00     0.349 C 
ATOM     15  O   UNL     1      -3.758   1.233   2.619  1.00  0.00    -0.419 OA
ATOM     16  C   UNL     1      -3.093   0.435   0.485  1.00  0.00     0.148 C 
ATOM     17  C   UNL     1      -2.454   1.795   2.652  1.00  0.00     0.258 C 
ATOM     18  C   UNL     1      -2.328   1.673   0.277  1.00  0.00     0.349 C 
ATOM     19  C   UNL     1      -2.420   2.901   3.707  1.00  0.00     0.094 C 
ATOM     20  O   UNL     1      -2.055   2.361   1.407  1.00  0.00    -0.419 OA
ATOM     21  C   UNL     1      -1.400   0.824   3.195  1.00  0.00     0.094 C 
ATOM     22  O   UNL     1      -2.010   2.107  -0.821  1.00  0.00    -0.246 OA
ATOM     23  C   UNL     1      -0.942   3.064   4.048  1.00  0.00     0.008 C 
ATOM     24  C   UNL     1      -0.284   1.725   3.718  1.00  0.00     0.008 C 
ENDBRANCH   8  12
ENDBRANCH   1   7
BRANCH   5  25
ATOM     25  C   UNL     1       4.504  -1.018  -4.367  1.00  0.00     0.416 C 
ATOM     26  F   UNL     1       5.795  -0.758  -4.018  1.00  0.00    -0.166 F 
ATOM     27  F   UNL     1       4.395  -0.672  -5.679  1.00  0.00    -0.166 F 
ATOM     28  F   UNL     1       4.377  -2.374  -4.328  1.00  0.00    -0.166 F 
ENDBRANCH   5  25
TORSDOF 3
