REMARK SMILES C/C=C(/Nc1ccccc1N)C1=C([O-])[C@H](C(=O)OC)C(C)(C)CC1=O
REMARK SMILES IDX 1 1 2 2 3 3 4 4 5 6 6 7 10 8 7 9 9 10 8 11 11 12 12 15 13 16
REMARK SMILES IDX 24 17 15 18 23 19 25 20 20 21 14 22 21 23 22 24 16 25 17 26
REMARK SMILES IDX 18 27 19 28
REMARK H PARENT 4 5 11 13 11 14
ROOT
ATOM      1  C   UNL     1      -3.617   1.920  -1.741  1.00  0.00     0.038 C 
ATOM      2  C   UNL     1      -2.322   1.481  -2.345  1.00  0.00    -0.004 C 
ATOM      3  C   UNL     1      -1.339   0.741  -1.783  1.00  0.00     0.044 C 
ENDROOT
BRANCH   3   4
ATOM      4  N   UNL     1      -0.095   0.490  -2.403  1.00  0.00    -0.354 N 
ATOM      5  H   UNL     1       0.575   0.500  -1.605  1.00  0.00     0.167 HD
BRANCH   4   6
ATOM      6  C   UNL     1       0.429   1.307  -3.444  1.00  0.00     0.062 A 
ATOM      7  C   UNL     1       1.085   2.507  -3.143  1.00  0.00     0.028 A 
ATOM      8  C   UNL     1       0.213   0.951  -4.793  1.00  0.00     0.055 A 
ATOM      9  C   UNL     1       1.511   3.351  -4.170  1.00  0.00     0.002 A 
ATOM     10  C   UNL     1       0.595   1.826  -5.811  1.00  0.00     0.028 A 
ATOM     11  C   UNL     1       1.261   3.013  -5.501  1.00  0.00     0.002 A 
BRANCH   8  12
ATOM     12  N   UNL     1      -0.579  -0.191  -5.104  1.00  0.00    -0.397 N 
ATOM     13  H   UNL     1      -1.552   0.107  -5.128  1.00  0.00     0.156 HD
ATOM     14  H   UNL     1      -0.515  -0.790  -4.269  1.00  0.00     0.156 HD
ENDBRANCH   8  12
ENDBRANCH   4   6
ENDBRANCH   3   4
BRANCH   3  15
ATOM     15  C   UNL     1      -1.460   0.152  -0.422  1.00  0.00     0.030 C 
ATOM     16  C   UNL     1      -0.476   0.303   0.517  1.00  0.00    -0.105 C 
ATOM     17  C   UNL     1      -2.696  -0.636  -0.085  1.00  0.00     0.164 C 
ATOM     18  C   UNL     1      -0.599  -0.349   1.926  1.00  0.00     0.121 C 
ATOM     19  C   UNL     1      -2.987  -0.854   1.377  1.00  0.00     0.088 C 
ATOM     20  O   UNL     1      -3.479  -1.060  -0.938  1.00  0.00    -0.294 OA
ATOM     21  C   UNL     1      -1.744  -1.404   2.083  1.00  0.00    -0.012 C 
ATOM     22  O   UNL     1       0.594   0.979   0.437  1.00  0.00    -0.874 OA
ATOM     23  C   UNL     1      -2.087  -1.602   3.575  1.00  0.00     0.013 C 
ATOM     24  C   UNL     1      -1.397  -2.789   1.488  1.00  0.00     0.013 C 
BRANCH  18  25
ATOM     25  C   UNL     1       0.730  -0.940   2.472  1.00  0.00     0.312 C 
ATOM     26  O   UNL     1       1.373  -1.872   1.997  1.00  0.00    -0.252 OA
BRANCH  25  27
ATOM     27  O   UNL     1       1.048  -0.333   3.665  1.00  0.00    -0.469 OA
ATOM     28  C   UNL     1       2.296  -0.760   4.201  1.00  0.00     0.282 C 
ENDBRANCH  25  27
ENDBRANCH  18  25
ENDBRANCH   3  15
TORSDOF 6
