REMARK SMILES Cc1ccc(CNC(=O)c2ccccc2NC(=O)CN(C)Cc2cc(C#N)ccc2F)cc1
REMARK SMILES IDX 16 1 17 2 18 3 15 5 10 6 11 7 12 8 14 9 13 10 8 11 7 12 9 13
REMARK SMILES IDX 6 15 5 16 2 17 3 18 33 19 4 20 32 21 1 22 19 23 20 24 21 25
REMARK SMILES IDX 22 26 23 27 24 28 30 29 25 30 29 31 26 32 28 33 27 34 31 35
REMARK H PARENT 16 4 7 14
ROOT
ATOM      1  N   UNL     1      -1.082   2.031   1.549  1.00  0.00    -0.324 N 
ATOM      2  C   UNL     1      -1.714   2.534   2.674  1.00  0.00     0.238 C 
ATOM      3  O   UNL     1      -1.156   2.923   3.696  1.00  0.00    -0.273 OA
ATOM      4  H   UNL     1      -1.686   1.700   0.794  1.00  0.00     0.170 HD
ENDROOT
BRANCH   1   5
ATOM      5  C   UNL     1       0.292   1.740   1.357  1.00  0.00     0.054 A 
ATOM      6  C   UNL     1       0.703   1.107   0.157  1.00  0.00     0.063 A 
ATOM      7  C   UNL     1       2.049   0.737  -0.013  1.00  0.00     0.016 A 
ATOM      8  C   UNL     1       2.992   1.029   0.971  1.00  0.00     0.001 A 
ATOM      9  C   UNL     1       1.259   2.032   2.326  1.00  0.00     0.027 A 
ATOM     10  C   UNL     1       2.599   1.684   2.132  1.00  0.00     0.002 A 
BRANCH   6  11
ATOM     11  C   UNL     1      -0.298   0.780  -0.911  1.00  0.00     0.253 C 
ATOM     12  N   UNL     1       0.179   0.629  -2.193  1.00  0.00    -0.348 N 
ATOM     13  O   UNL     1      -1.493   0.692  -0.634  1.00  0.00    -0.269 OA
ATOM     14  H   UNL     1       1.118   0.922  -2.426  1.00  0.00     0.164 HD
BRANCH  12  15
ATOM     15  C   UNL     1      -0.715   0.351  -3.292  1.00  0.00     0.152 C 
BRANCH  15  16
ATOM     16  C   UNL     1       0.062  -0.034  -4.521  1.00  0.00    -0.029 A 
ATOM     17  C   UNL     1       1.580  -0.750  -6.785  1.00  0.00    -0.051 A 
ATOM     18  C   UNL     1       1.374  -1.669  -5.751  1.00  0.00     0.004 A 
ATOM     19  C   UNL     1       1.009   0.525  -6.686  1.00  0.00     0.004 A 
ATOM     20  C   UNL     1       0.629  -1.312  -4.625  1.00  0.00     0.006 A 
ATOM     21  C   UNL     1       0.264   0.883  -5.560  1.00  0.00     0.006 A 
ATOM     22  C   UNL     1       2.350  -1.145  -8.010  1.00  0.00     0.044 C 
ENDBRANCH  15  16
ENDBRANCH  12  15
ENDBRANCH   6  11
ENDBRANCH   1   5
BRANCH   2  23
ATOM     23  C   UNL     1      -3.243   2.592   2.512  1.00  0.00     0.185 C 
BRANCH  23  24
ATOM     24  N   UNL     1      -3.945   1.768   3.520  1.00  0.00    -0.293 NA
ATOM     25  C   UNL     1      -5.312   2.265   3.690  1.00  0.00     0.106 C 
BRANCH  24  26
ATOM     26  C   UNL     1      -3.980   0.332   3.189  1.00  0.00     0.123 C 
BRANCH  26  27
ATOM     27  C   UNL     1      -2.675  -0.397   3.396  1.00  0.00     0.003 A 
ATOM     28  C   UNL     1      -2.003  -0.997   2.317  1.00  0.00     0.027 A 
ATOM     29  C   UNL     1      -2.118  -0.515   4.674  1.00  0.00     0.127 A 
ATOM     30  C   UNL     1      -0.781  -1.655   2.512  1.00  0.00     0.053 A 
ATOM     31  C   UNL     1      -0.906  -1.171   4.878  1.00  0.00     0.041 A 
ATOM     32  C   UNL     1      -0.087  -2.230   1.396  1.00  0.00     0.099 C 
ATOM     33  C   UNL     1      -0.231  -1.736   3.796  1.00  0.00     0.022 A 
ATOM     34  N   UNL     1       0.481  -2.688   0.492  1.00  0.00    -0.192 NA
ATOM     35  F   UNL     1      -2.761  -0.017   5.739  1.00  0.00    -0.207 F 
ENDBRANCH  26  27
ENDBRANCH  24  26
ENDBRANCH  23  24
ENDBRANCH   2  23
TORSDOF 8
