MODEL 1
REMARK VINA RESULT:    -6.485      0.000      0.000
REMARK INTER + INTRA:         -11.112
REMARK INTER:                 -10.087
REMARK INTRA:                  -1.025
REMARK UNBOUND:                -1.025
REMARK SMILES CC(=O)CO[C@H]1O[C@H](n2c(S(C)(=O)=O)nc3c(N)ncnc32)[C@@H](OC(C)=O)[C@@H]1OC(C)=O
REMARK SMILES IDX 6 1 7 2 8 3 23 4 28 5 5 6 4 7 2 8 3 9 1 10 29 11 30 12 32 13
REMARK SMILES IDX 31 14 9 15 10 16 22 17 15 18 21 19 16 20 20 21 17 22 19 23
REMARK SMILES IDX 11 24 13 25 14 26 12 27 18 28 24 31 25 32 27 33 26 34
REMARK H PARENT 18 29 18 30
ROOT
ATOM      1  C   UNL     1      12.440 -24.089 -44.221  1.00  0.00     0.298 C 
ATOM      2  O   UNL     1      11.780 -23.076 -44.984  1.00  0.00    -0.321 OA
ATOM      3  C   UNL     1      12.629 -22.714 -46.083  1.00  0.00     0.271 C 
ATOM      4  C   UNL     1      13.888 -23.585 -46.050  1.00  0.00     0.272 C 
ATOM      5  C   UNL     1      13.518 -24.721 -45.111  1.00  0.00     0.278 C 
ENDROOT
BRANCH   1   6
ATOM      6  O   UNL     1      13.075 -23.485 -43.090  1.00  0.00    -0.341 OA
BRANCH   6   7
ATOM      7  C   UNL     1      13.918 -24.395 -42.399  1.00  0.00     0.238 C 
BRANCH   7   8
ATOM      8  C   UNL     1      13.270 -25.016 -41.166  1.00  0.00     0.155 C 
ATOM      9  O   UNL     1      12.711 -26.112 -41.213  1.00  0.00    -0.297 OA
ATOM     10  C   UNL     1      13.308 -24.207 -39.896  1.00  0.00     0.090 C 
ENDBRANCH   7   8
ENDBRANCH   6   7
ENDBRANCH   1   6
BRANCH   5  11
ATOM     11  O   UNL     1      13.010 -25.806 -45.910  1.00  0.00    -0.453 OA
BRANCH  11  12
ATOM     12  C   UNL     1      13.833 -26.202 -46.918  1.00  0.00     0.303 C 
ATOM     13  O   UNL     1      15.020 -26.462 -46.789  1.00  0.00    -0.253 OA
ATOM     14  C   UNL     1      13.073 -26.296 -48.205  1.00  0.00     0.139 C 
ENDBRANCH  11  12
ENDBRANCH   5  11
BRANCH   3  15
ATOM     15  N   UNL     1      11.882 -22.812 -47.331  1.00  0.00    -0.268 N 
ATOM     16  C   UNL     1      12.102 -22.038 -48.456  1.00  0.00     0.232 A 
ATOM     17  C   UNL     1      10.869 -23.685 -47.632  1.00  0.00     0.168 A 
ATOM     18  N   UNL     1      11.282 -22.370 -49.442  1.00  0.00    -0.212 NA
ATOM     19  N   UNL     1      10.333 -24.640 -46.853  1.00  0.00    -0.216 NA
ATOM     20  C   UNL     1      10.498 -23.379 -48.931  1.00  0.00     0.151 A 
ATOM     21  C   UNL     1       9.330 -25.284 -47.480  1.00  0.00     0.226 A 
ATOM     22  C   UNL     1       9.446 -24.128 -49.486  1.00  0.00     0.155 A 
ATOM     23  N   UNL     1       8.875 -25.096 -48.736  1.00  0.00    -0.217 NA
BRANCH  16  24
ATOM     24  S   UNL     1      13.348 -20.786 -48.574  1.00  0.00     0.209 S 
ATOM     25  O   UNL     1      14.597 -21.519 -48.512  1.00  0.00    -0.221 OA
ATOM     26  O   UNL     1      12.992 -19.807 -47.569  1.00  0.00    -0.221 OA
ATOM     27  C   UNL     1      13.130 -20.098 -50.192  1.00  0.00     0.167 C 
ENDBRANCH  16  24
BRANCH  22  28
ATOM     28  N   UNL     1       8.972 -23.938 -50.776  1.00  0.00    -0.382 N 
ATOM     29  H   UNL     1       8.095 -23.436 -50.831  1.00  0.00     0.158 HD
ATOM     30  H   UNL     1       9.706 -23.679 -51.422  1.00  0.00     0.158 HD
ENDBRANCH  22  28
ENDBRANCH   3  15
BRANCH   4  31
ATOM     31  O   UNL     1      14.968 -22.791 -45.510  1.00  0.00    -0.453 OA
BRANCH  31  32
ATOM     32  C   UNL     1      16.216 -23.249 -45.793  1.00  0.00     0.303 C 
ATOM     33  O   UNL     1      16.777 -23.130 -46.873  1.00  0.00    -0.253 OA
ATOM     34  C   UNL     1      16.797 -23.939 -44.599  1.00  0.00     0.139 C 
ENDBRANCH  31  32
ENDBRANCH   4  31
TORSDOF 10
ENDMDL
MODEL 2
REMARK VINA RESULT:    -5.315      2.210      4.744
REMARK INTER + INTRA:          -9.292
REMARK INTER:                  -8.318
REMARK INTRA:                  -0.975
REMARK UNBOUND:                -1.025
REMARK SMILES CC(=O)CO[C@H]1O[C@H](n2c(S(C)(=O)=O)nc3c(N)ncnc32)[C@@H](OC(C)=O)[C@@H]1OC(C)=O
REMARK SMILES IDX 6 1 7 2 8 3 23 4 28 5 5 6 4 7 2 8 3 9 1 10 29 11 30 12 32 13
REMARK SMILES IDX 31 14 9 15 10 16 22 17 15 18 21 19 16 20 20 21 17 22 19 23
REMARK SMILES IDX 11 24 13 25 14 26 12 27 18 28 24 31 25 32 27 33 26 34
REMARK H PARENT 18 29 18 30
ROOT
ATOM      1  C   UNL     1      15.233 -25.208 -45.790  1.00  0.00     0.298 C 
ATOM      2  O   UNL     1      14.351 -25.428 -46.893  1.00  0.00    -0.321 OA
ATOM      3  C   UNL     1      13.039 -24.990 -46.515  1.00  0.00     0.271 C 
ATOM      4  C   UNL     1      13.093 -24.407 -45.101  1.00  0.00     0.272 C 
ATOM      5  C   UNL     1      14.575 -24.179 -44.861  1.00  0.00     0.278 C 
ENDROOT
BRANCH   1   6
ATOM      6  O   UNL     1      15.400 -26.434 -45.071  1.00  0.00    -0.341 OA
BRANCH   6   7
ATOM      7  C   UNL     1      15.972 -26.230 -43.787  1.00  0.00     0.238 C 
BRANCH   7   8
ATOM      8  C   UNL     1      17.488 -26.066 -43.810  1.00  0.00     0.155 C 
ATOM      9  O   UNL     1      18.166 -26.456 -44.762  1.00  0.00    -0.297 OA
ATOM     10  C   UNL     1      18.124 -25.444 -42.595  1.00  0.00     0.090 C 
ENDBRANCH   7   8
ENDBRANCH   6   7
ENDBRANCH   1   6
BRANCH   5  11
ATOM     11  O   UNL     1      14.880 -22.822 -45.234  1.00  0.00    -0.453 OA
BRANCH  11  12
ATOM     12  C   UNL     1      16.095 -22.378 -44.814  1.00  0.00     0.303 C 
ATOM     13  O   UNL     1      16.986 -21.979 -45.551  1.00  0.00    -0.253 OA
ATOM     14  C   UNL     1      16.180 -22.423 -43.320  1.00  0.00     0.139 C 
ENDBRANCH  11  12
ENDBRANCH   5  11
BRANCH   3  15
ATOM     15  N   UNL     1      12.527 -24.058 -47.513  1.00  0.00    -0.268 N 
ATOM     16  C   UNL     1      11.232 -24.037 -47.998  1.00  0.00     0.232 A 
ATOM     17  C   UNL     1      13.205 -23.033 -48.122  1.00  0.00     0.168 A 
ATOM     18  N   UNL     1      11.059 -23.064 -48.880  1.00  0.00    -0.212 NA
ATOM     19  N   UNL     1      14.482 -22.657 -47.945  1.00  0.00    -0.216 NA
ATOM     20  C   UNL     1      12.286 -22.448 -48.978  1.00  0.00     0.151 A 
ATOM     21  C   UNL     1      14.807 -21.622 -48.743  1.00  0.00     0.226 A 
ATOM     22  C   UNL     1      12.736 -21.364 -49.752  1.00  0.00     0.155 A 
ATOM     23  N   UNL     1      14.016 -20.956 -49.610  1.00  0.00    -0.217 NA
BRANCH  16  24
ATOM     24  S   UNL     1       9.957 -25.149 -47.476  1.00  0.00     0.209 S 
ATOM     25  O   UNL     1       9.936 -25.017 -46.033  1.00  0.00    -0.221 OA
ATOM     26  O   UNL     1      10.272 -26.408 -48.119  1.00  0.00    -0.221 OA
ATOM     27  C   UNL     1       8.472 -24.473 -48.167  1.00  0.00     0.167 C 
ENDBRANCH  16  24
BRANCH  22  28
ATOM     28  N   UNL     1      11.928 -20.678 -50.647  1.00  0.00    -0.382 N 
ATOM     29  H   UNL     1      11.192 -21.235 -51.060  1.00  0.00     0.158 HD
ATOM     30  H   UNL     1      11.692 -19.750 -50.319  1.00  0.00     0.158 HD
ENDBRANCH  22  28
ENDBRANCH   3  15
BRANCH   4  31
ATOM     31  O   UNL     1      12.560 -25.394 -44.189  1.00  0.00    -0.453 OA
BRANCH  31  32
ATOM     32  C   UNL     1      12.412 -24.971 -42.906  1.00  0.00     0.303 C 
ATOM     33  O   UNL     1      12.023 -23.860 -42.576  1.00  0.00    -0.253 OA
ATOM     34  C   UNL     1      12.813 -26.054 -41.954  1.00  0.00     0.139 C 
ENDBRANCH  31  32
ENDBRANCH   4  31
TORSDOF 10
ENDMDL
MODEL 3
REMARK VINA RESULT:    -5.039     24.611     26.246
REMARK INTER + INTRA:          -8.863
REMARK INTER:                  -7.705
REMARK INTRA:                  -1.158
REMARK UNBOUND:                -1.025
REMARK SMILES CC(=O)CO[C@H]1O[C@H](n2c(S(C)(=O)=O)nc3c(N)ncnc32)[C@@H](OC(C)=O)[C@@H]1OC(C)=O
REMARK SMILES IDX 6 1 7 2 8 3 23 4 28 5 5 6 4 7 2 8 3 9 1 10 29 11 30 12 32 13
REMARK SMILES IDX 31 14 9 15 10 16 22 17 15 18 21 19 16 20 20 21 17 22 19 23
REMARK SMILES IDX 11 24 13 25 14 26 12 27 18 28 24 31 25 32 27 33 26 34
REMARK H PARENT 18 29 18 30
ROOT
ATOM      1  C   UNL     1       3.247  -4.827 -33.174  1.00  0.00     0.298 C 
ATOM      2  O   UNL     1       2.495  -5.845 -33.837  1.00  0.00    -0.321 OA
ATOM      3  C   UNL     1       1.368  -6.182 -33.016  1.00  0.00     0.271 C 
ATOM      4  C   UNL     1       1.370  -5.288 -31.773  1.00  0.00     0.272 C 
ATOM      5  C   UNL     1       2.330  -4.168 -32.135  1.00  0.00     0.278 C 
ENDROOT
BRANCH   1   6
ATOM      6  O   UNL     1       4.352  -5.429 -32.493  1.00  0.00    -0.341 OA
BRANCH   6   7
ATOM      7  C   UNL     1       5.569  -4.735 -32.728  1.00  0.00     0.238 C 
BRANCH   7   8
ATOM      8  C   UNL     1       5.997  -3.838 -31.571  1.00  0.00     0.155 C 
ATOM      9  O   UNL     1       6.635  -4.278 -30.614  1.00  0.00    -0.297 OA
ATOM     10  C   UNL     1       5.566  -2.396 -31.632  1.00  0.00     0.090 C 
ENDBRANCH   7   8
ENDBRANCH   6   7
ENDBRANCH   1   6
BRANCH   5  11
ATOM     11  O   UNL     1       1.557  -3.085 -32.687  1.00  0.00    -0.453 OA
BRANCH  11  12
ATOM     12  C   UNL     1       0.790  -2.418 -31.783  1.00  0.00     0.303 C 
ATOM     13  O   UNL     1       1.198  -1.951 -30.730  1.00  0.00    -0.253 OA
ATOM     14  C   UNL     1      -0.622  -2.315 -32.272  1.00  0.00     0.139 C 
ENDBRANCH  11  12
ENDBRANCH   5  11
BRANCH   3  15
ATOM     15  N   UNL     1       0.144  -6.088 -33.802  1.00  0.00    -0.268 N 
ATOM     16  C   UNL     1      -0.985  -6.866 -33.619  1.00  0.00     0.232 A 
ATOM     17  C   UNL     1      -0.127  -5.215 -34.824  1.00  0.00     0.168 A 
ATOM     18  N   UNL     1      -1.945  -6.536 -34.470  1.00  0.00    -0.212 NA
ATOM     19  N   UNL     1       0.665  -4.256 -35.333  1.00  0.00    -0.216 NA
ATOM     20  C   UNL     1      -1.413  -5.525 -35.236  1.00  0.00     0.151 A 
ATOM     21  C   UNL     1       0.068  -3.614 -36.355  1.00  0.00     0.226 A 
ATOM     22  C   UNL     1      -1.937  -4.776 -36.304  1.00  0.00     0.155 A 
ATOM     23  N   UNL     1      -1.173  -3.806 -36.851  1.00  0.00    -0.217 NA
BRANCH  16  24
ATOM     24  S   UNL     1      -1.138  -8.120 -32.378  1.00  0.00     0.209 S 
ATOM     25  O   UNL     1      -1.774  -7.444 -31.265  1.00  0.00    -0.221 OA
ATOM     26  O   UNL     1       0.186  -8.695 -32.262  1.00  0.00    -0.221 OA
ATOM     27  C   UNL     1      -2.252  -9.304 -33.083  1.00  0.00     0.167 C 
ENDBRANCH  16  24
BRANCH  22  28
ATOM     28  N   UNL     1      -3.211  -4.971 -36.820  1.00  0.00    -0.382 N 
ATOM     29  H   UNL     1      -3.909  -4.330 -36.466  1.00  0.00     0.158 HD
ATOM     30  H   UNL     1      -3.199  -5.156 -37.815  1.00  0.00     0.158 HD
ENDBRANCH  22  28
ENDBRANCH   3  15
BRANCH   4  31
ATOM     31  O   UNL     1       1.870  -6.067 -30.663  1.00  0.00    -0.453 OA
BRANCH  31  32
ATOM     32  C   UNL     1       0.955  -6.340 -29.694  1.00  0.00     0.303 C 
ATOM     33  O   UNL     1       0.776  -7.440 -29.192  1.00  0.00    -0.253 OA
ATOM     34  C   UNL     1       0.185  -5.105 -29.346  1.00  0.00     0.139 C 
ENDBRANCH  31  32
ENDBRANCH   4  31
TORSDOF 10
ENDMDL
MODEL 4
REMARK VINA RESULT:    -4.793      3.610      6.954
REMARK INTER + INTRA:          -8.479
REMARK INTER:                 -10.124
REMARK INTRA:                   1.645
REMARK UNBOUND:                -1.025
REMARK SMILES CC(=O)CO[C@H]1O[C@H](n2c(S(C)(=O)=O)nc3c(N)ncnc32)[C@@H](OC(C)=O)[C@@H]1OC(C)=O
REMARK SMILES IDX 6 1 7 2 8 3 23 4 28 5 5 6 4 7 2 8 3 9 1 10 29 11 30 12 32 13
REMARK SMILES IDX 31 14 9 15 10 16 22 17 15 18 21 19 16 20 20 21 17 22 19 23
REMARK SMILES IDX 11 24 13 25 14 26 12 27 18 28 24 31 25 32 27 33 26 34
REMARK H PARENT 18 29 18 30
ROOT
ATOM      1  C   UNL     1      15.399 -22.423 -46.808  1.00  0.00     0.298 C 
ATOM      2  O   UNL     1      15.748 -22.006 -45.487  1.00  0.00    -0.321 OA
ATOM      3  C   UNL     1      14.815 -22.590 -44.567  1.00  0.00     0.271 C 
ATOM      4  C   UNL     1      13.838 -23.479 -45.343  1.00  0.00     0.272 C 
ATOM      5  C   UNL     1      14.517 -23.673 -46.688  1.00  0.00     0.278 C 
ENDROOT
BRANCH   1   6
ATOM      6  O   UNL     1      14.643 -21.388 -47.443  1.00  0.00    -0.341 OA
BRANCH   6   7
ATOM      7  C   UNL     1      14.339 -21.698 -48.795  1.00  0.00     0.238 C 
BRANCH   7   8
ATOM      8  C   UNL     1      13.537 -20.613 -49.508  1.00  0.00     0.155 C 
ATOM      9  O   UNL     1      12.787 -19.855 -48.893  1.00  0.00    -0.297 OA
ATOM     10  C   UNL     1      13.674 -20.541 -51.006  1.00  0.00     0.090 C 
ENDBRANCH   7   8
ENDBRANCH   6   7
ENDBRANCH   1   6
BRANCH   5  11
ATOM     11  O   UNL     1      15.285 -24.889 -46.624  1.00  0.00    -0.453 OA
BRANCH  11  12
ATOM     12  C   UNL     1      14.597 -25.971 -46.169  1.00  0.00     0.303 C 
ATOM     13  O   UNL     1      14.723 -26.462 -45.056  1.00  0.00    -0.253 OA
ATOM     14  C   UNL     1      13.646 -26.462 -47.215  1.00  0.00     0.139 C 
ENDBRANCH  11  12
ENDBRANCH   5  11
BRANCH   3  15
ATOM     15  N   UNL     1      15.539 -23.295 -43.516  1.00  0.00    -0.268 N 
ATOM     16  C   UNL     1      16.916 -23.369 -43.406  1.00  0.00     0.232 A 
ATOM     17  C   UNL     1      15.010 -23.975 -42.450  1.00  0.00     0.168 A 
ATOM     18  N   UNL     1      17.281 -24.060 -42.336  1.00  0.00    -0.212 NA
ATOM     19  N   UNL     1      13.717 -24.150 -42.131  1.00  0.00    -0.216 NA
ATOM     20  C   UNL     1      16.102 -24.458 -41.748  1.00  0.00     0.151 A 
ATOM     21  C   UNL     1      13.578 -24.903 -41.024  1.00  0.00     0.226 A 
ATOM     22  C   UNL     1      15.834 -25.221 -40.598  1.00  0.00     0.155 A 
ATOM     23  N   UNL     1      14.547 -25.426 -40.244  1.00  0.00    -0.217 NA
BRANCH  16  24
ATOM     24  S   UNL     1      18.047 -22.603 -44.533  1.00  0.00     0.209 S 
ATOM     25  O   UNL     1      17.624 -21.217 -44.576  1.00  0.00    -0.221 OA
ATOM     26  O   UNL     1      18.023 -23.441 -45.714  1.00  0.00    -0.221 OA
ATOM     27  C   UNL     1      19.622 -22.731 -43.732  1.00  0.00     0.167 C 
ENDBRANCH  16  24
BRANCH  22  28
ATOM     28  N   UNL     1      16.826 -25.764 -39.794  1.00  0.00    -0.382 N 
ATOM     29  H   UNL     1      17.183 -26.655 -40.113  1.00  0.00     0.158 HD
ATOM     30  H   UNL     1      17.494 -25.069 -39.485  1.00  0.00     0.158 HD
ENDBRANCH  22  28
ENDBRANCH   3  15
BRANCH   4  31
ATOM     31  O   UNL     1      12.593 -22.759 -45.483  1.00  0.00    -0.453 OA
BRANCH  31  32
ATOM     32  C   UNL     1      11.723 -23.285 -46.385  1.00  0.00     0.303 C 
ATOM     33  O   UNL     1      11.448 -22.785 -47.466  1.00  0.00    -0.253 OA
ATOM     34  C   UNL     1      11.133 -24.555 -45.855  1.00  0.00     0.139 C 
ENDBRANCH  31  32
ENDBRANCH   4  31
TORSDOF 10
ENDMDL
MODEL 5
REMARK VINA RESULT:    -4.754      2.803      6.371
REMARK INTER + INTRA:          -8.420
REMARK INTER:                  -7.644
REMARK INTRA:                  -0.776
REMARK UNBOUND:                -1.025
REMARK SMILES CC(=O)CO[C@H]1O[C@H](n2c(S(C)(=O)=O)nc3c(N)ncnc32)[C@@H](OC(C)=O)[C@@H]1OC(C)=O
REMARK SMILES IDX 6 1 7 2 8 3 23 4 28 5 5 6 4 7 2 8 3 9 1 10 29 11 30 12 32 13
REMARK SMILES IDX 31 14 9 15 10 16 22 17 15 18 21 19 16 20 20 21 17 22 19 23
REMARK SMILES IDX 11 24 13 25 14 26 12 27 18 28 24 31 25 32 27 33 26 34
REMARK H PARENT 18 29 18 30
ROOT
ATOM      1  C   UNL     1      12.110 -25.286 -48.498  1.00  0.00     0.298 C 
ATOM      2  O   UNL     1      13.371 -25.466 -47.851  1.00  0.00    -0.321 OA
ATOM      3  C   UNL     1      13.791 -24.202 -47.319  1.00  0.00     0.271 C 
ATOM      4  C   UNL     1      12.706 -23.157 -47.598  1.00  0.00     0.272 C 
ATOM      5  C   UNL     1      11.489 -23.989 -47.963  1.00  0.00     0.278 C 
ENDROOT
BRANCH   1   6
ATOM      6  O   UNL     1      12.320 -25.146 -49.906  1.00  0.00    -0.341 OA
BRANCH   6   7
ATOM      7  C   UNL     1      11.099 -25.103 -50.630  1.00  0.00     0.238 C 
BRANCH   7   8
ATOM      8  C   UNL     1      10.985 -23.907 -51.570  1.00  0.00     0.155 C 
ATOM      9  O   UNL     1      10.915 -22.754 -51.144  1.00  0.00    -0.297 OA
ATOM     10  C   UNL     1      10.920 -24.206 -53.045  1.00  0.00     0.090 C 
ENDBRANCH   7   8
ENDBRANCH   6   7
ENDBRANCH   1   6
BRANCH   5  11
ATOM     11  O   UNL     1      10.721 -24.197 -46.762  1.00  0.00    -0.453 OA
BRANCH  11  12
ATOM     12  C   UNL     1       9.629 -24.994 -46.919  1.00  0.00     0.303 C 
ATOM     13  O   UNL     1       9.425 -26.029 -46.301  1.00  0.00    -0.253 OA
ATOM     14  C   UNL     1       8.700 -24.411 -47.938  1.00  0.00     0.139 C 
ENDBRANCH  11  12
ENDBRANCH   5  11
BRANCH   3  15
ATOM     15  N   UNL     1      14.112 -24.348 -45.905  1.00  0.00    -0.268 N 
ATOM     16  C   UNL     1      15.159 -23.720 -45.253  1.00  0.00     0.232 A 
ATOM     17  C   UNL     1      13.439 -25.090 -44.968  1.00  0.00     0.168 A 
ATOM     18  N   UNL     1      15.185 -24.030 -43.966  1.00  0.00    -0.212 NA
ATOM     19  N   UNL     1      12.343 -25.848 -45.136  1.00  0.00    -0.216 NA
ATOM     20  C   UNL     1      14.132 -24.898 -43.784  1.00  0.00     0.151 A 
ATOM     21  C   UNL     1      11.983 -26.457 -43.990  1.00  0.00     0.226 A 
ATOM     22  C   UNL     1      13.654 -25.574 -42.649  1.00  0.00     0.155 A 
ATOM     23  N   UNL     1      12.557 -26.353 -42.774  1.00  0.00    -0.217 NA
BRANCH  16  24
ATOM     24  S   UNL     1      16.296 -22.612 -46.037  1.00  0.00     0.209 S 
ATOM     25  O   UNL     1      15.450 -21.613 -46.659  1.00  0.00    -0.221 OA
ATOM     26  O   UNL     1      17.168 -23.463 -46.820  1.00  0.00    -0.221 OA
ATOM     27  C   UNL     1      17.201 -21.889 -44.697  1.00  0.00     0.167 C 
ENDBRANCH  16  24
BRANCH  22  28
ATOM     28  N   UNL     1      14.243 -25.473 -41.396  1.00  0.00    -0.382 N 
ATOM     29  H   UNL     1      15.206 -25.164 -41.409  1.00  0.00     0.158 HD
ATOM     30  H   UNL     1      13.622 -25.060 -40.712  1.00  0.00     0.158 HD
ENDBRANCH  22  28
ENDBRANCH   3  15
BRANCH   4  31
ATOM     31  O   UNL     1      13.141 -22.348 -48.714  1.00  0.00    -0.453 OA
BRANCH  31  32
ATOM     32  C   UNL     1      12.807 -21.033 -48.635  1.00  0.00     0.303 C 
ATOM     33  O   UNL     1      12.229 -20.513 -47.692  1.00  0.00    -0.253 OA
ATOM     34  C   UNL     1      13.232 -20.316 -49.879  1.00  0.00     0.139 C 
ENDBRANCH  31  32
ENDBRANCH   4  31
TORSDOF 10
ENDMDL
MODEL 6
REMARK VINA RESULT:    -4.741      3.611      6.814
REMARK INTER + INTRA:          -8.400
REMARK INTER:                  -8.419
REMARK INTRA:                   0.020
REMARK UNBOUND:                -1.025
REMARK SMILES CC(=O)CO[C@H]1O[C@H](n2c(S(C)(=O)=O)nc3c(N)ncnc32)[C@@H](OC(C)=O)[C@@H]1OC(C)=O
REMARK SMILES IDX 6 1 7 2 8 3 23 4 28 5 5 6 4 7 2 8 3 9 1 10 29 11 30 12 32 13
REMARK SMILES IDX 31 14 9 15 10 16 22 17 15 18 21 19 16 20 20 21 17 22 19 23
REMARK SMILES IDX 11 24 13 25 14 26 12 27 18 28 24 31 25 32 27 33 26 34
REMARK H PARENT 18 29 18 30
ROOT
ATOM      1  C   UNL     1      13.517 -24.694 -46.280  1.00  0.00     0.298 C 
ATOM      2  O   UNL     1      14.764 -25.254 -45.863  1.00  0.00    -0.321 OA
ATOM      3  C   UNL     1      15.687 -24.181 -45.635  1.00  0.00     0.271 C 
ATOM      4  C   UNL     1      14.972 -22.848 -45.870  1.00  0.00     0.272 C 
ATOM      5  C   UNL     1      13.500 -23.220 -45.856  1.00  0.00     0.278 C 
ENDROOT
BRANCH   1   6
ATOM      6  O   UNL     1      13.425 -24.762 -47.706  1.00  0.00    -0.341 OA
BRANCH   6   7
ATOM      7  C   UNL     1      12.108 -25.059 -48.146  1.00  0.00     0.238 C 
BRANCH   7   8
ATOM      8  C   UNL     1      11.371 -23.859 -48.733  1.00  0.00     0.155 C 
ATOM      9  O   UNL     1      10.959 -22.943 -48.021  1.00  0.00    -0.297 OA
ATOM     10  C   UNL     1      11.134 -23.868 -50.220  1.00  0.00     0.090 C 
ENDBRANCH   7   8
ENDBRANCH   6   7
ENDBRANCH   1   6
BRANCH   5  11
ATOM     11  O   UNL     1      13.010 -23.035 -44.514  1.00  0.00    -0.453 OA
BRANCH  11  12
ATOM     12  C   UNL     1      11.945 -23.815 -44.188  1.00  0.00     0.303 C 
ATOM     13  O   UNL     1      11.088 -24.193 -44.974  1.00  0.00    -0.253 OA
ATOM     14  C   UNL     1      11.981 -24.167 -42.733  1.00  0.00     0.139 C 
ENDBRANCH  11  12
ENDBRANCH   5  11
BRANCH   3  15
ATOM     15  N   UNL     1      16.265 -24.308 -44.302  1.00  0.00    -0.268 N 
ATOM     16  C   UNL     1      17.394 -23.645 -43.854  1.00  0.00     0.232 A 
ATOM     17  C   UNL     1      15.796 -25.062 -43.257  1.00  0.00     0.168 A 
ATOM     18  N   UNL     1      17.664 -23.945 -42.592  1.00  0.00    -0.212 NA
ATOM     19  N   UNL     1      14.710 -25.852 -43.221  1.00  0.00    -0.216 NA
ATOM     20  C   UNL     1      16.687 -24.841 -42.220  1.00  0.00     0.151 A 
ATOM     21  C   UNL     1      14.583 -26.462 -42.027  1.00  0.00     0.226 A 
ATOM     22  C   UNL     1      16.445 -25.523 -41.015  1.00  0.00     0.155 A 
ATOM     23  N   UNL     1      15.366 -26.333 -40.936  1.00  0.00    -0.217 NA
BRANCH  16  24
ATOM     24  S   UNL     1      18.336 -22.511 -44.834  1.00  0.00     0.209 S 
ATOM     25  O   UNL     1      17.634 -21.251 -44.696  1.00  0.00    -0.221 OA
ATOM     26  O   UNL     1      18.483 -23.161 -46.120  1.00  0.00    -0.221 OA
ATOM     27  C   UNL     1      19.907 -22.423 -44.018  1.00  0.00     0.167 C 
ENDBRANCH  16  24
BRANCH  22  28
ATOM     28  N   UNL     1      17.248 -25.395 -39.891  1.00  0.00    -0.382 N 
ATOM     29  H   UNL     1      17.241 -26.199 -39.277  1.00  0.00     0.158 HD
ATOM     30  H   UNL     1      18.141 -24.970 -40.103  1.00  0.00     0.158 HD
ENDBRANCH  22  28
ENDBRANCH   3  15
BRANCH   4  31
ATOM     31  O   UNL     1      15.374 -22.347 -47.165  1.00  0.00    -0.453 OA
BRANCH  31  32
ATOM     32  C   UNL     1      14.452 -21.568 -47.792  1.00  0.00     0.303 C 
ATOM     33  O   UNL     1      13.678 -20.809 -47.227  1.00  0.00    -0.253 OA
ATOM     34  C   UNL     1      14.508 -21.788 -49.271  1.00  0.00     0.139 C 
ENDBRANCH  31  32
ENDBRANCH   4  31
TORSDOF 10
ENDMDL
MODEL 7
REMARK VINA RESULT:    -4.581     24.422     26.472
REMARK INTER + INTRA:          -8.150
REMARK INTER:                  -7.232
REMARK INTRA:                  -0.918
REMARK UNBOUND:                -1.025
REMARK SMILES CC(=O)CO[C@H]1O[C@H](n2c(S(C)(=O)=O)nc3c(N)ncnc32)[C@@H](OC(C)=O)[C@@H]1OC(C)=O
REMARK SMILES IDX 6 1 7 2 8 3 23 4 28 5 5 6 4 7 2 8 3 9 1 10 29 11 30 12 32 13
REMARK SMILES IDX 31 14 9 15 10 16 22 17 15 18 21 19 16 20 20 21 17 22 19 23
REMARK SMILES IDX 11 24 13 25 14 26 12 27 18 28 24 31 25 32 27 33 26 34
REMARK H PARENT 18 29 18 30
ROOT
ATOM      1  C   UNL     1      -0.871  -3.752 -35.510  1.00  0.00     0.298 C 
ATOM      2  O   UNL     1       0.440  -4.316 -35.576  1.00  0.00    -0.321 OA
ATOM      3  C   UNL     1       1.078  -4.128 -34.305  1.00  0.00     0.271 C 
ATOM      4  C   UNL     1       0.095  -3.445 -33.349  1.00  0.00     0.272 C 
ATOM      5  C   UNL     1      -1.252  -3.621 -34.029  1.00  0.00     0.278 C 
ENDROOT
BRANCH   1   6
ATOM      6  O   UNL     1      -0.850  -2.447 -36.095  1.00  0.00    -0.341 OA
BRANCH   6   7
ATOM      7  C   UNL     1      -1.753  -2.333 -37.186  1.00  0.00     0.238 C 
BRANCH   7   8
ATOM      8  C   UNL     1      -1.330  -3.124 -38.419  1.00  0.00     0.155 C 
ATOM      9  O   UNL     1      -2.055  -3.987 -38.913  1.00  0.00    -0.297 OA
ATOM     10  C   UNL     1       0.037  -2.830 -38.980  1.00  0.00     0.090 C 
ENDBRANCH   7   8
ENDBRANCH   6   7
ENDBRANCH   1   6
BRANCH   5  11
ATOM     11  O   UNL     1      -1.858  -4.817 -33.506  1.00  0.00    -0.453 OA
BRANCH  11  12
ATOM     12  C   UNL     1      -2.352  -4.697 -32.244  1.00  0.00     0.303 C 
ATOM     13  O   UNL     1      -3.083  -3.793 -31.863  1.00  0.00    -0.253 OA
ATOM     14  C   UNL     1      -1.894  -5.840 -31.393  1.00  0.00     0.139 C 
ENDBRANCH  11  12
ENDBRANCH   5  11
BRANCH   3  15
ATOM     15  N   UNL     1       1.579  -5.405 -33.814  1.00  0.00    -0.268 N 
ATOM     16  C   UNL     1       2.779  -5.592 -33.152  1.00  0.00     0.232 A 
ATOM     17  C   UNL     1       0.962  -6.628 -33.885  1.00  0.00     0.168 A 
ATOM     18  N   UNL     1       2.953  -6.860 -32.809  1.00  0.00    -0.212 NA
ATOM     19  N   UNL     1      -0.233  -6.927 -34.420  1.00  0.00    -0.216 NA
ATOM     20  C   UNL     1       1.837  -7.514 -33.279  1.00  0.00     0.151 A 
ATOM     21  C   UNL     1      -0.497  -8.245 -34.332  1.00  0.00     0.226 A 
ATOM     22  C   UNL     1       1.448  -8.863 -33.234  1.00  0.00     0.155 A 
ATOM     23  N   UNL     1       0.255  -9.211 -33.766  1.00  0.00    -0.217 NA
BRANCH  16  24
ATOM     24  S   UNL     1       3.921  -4.291 -32.777  1.00  0.00     0.209 S 
ATOM     25  O   UNL     1       3.686  -4.003 -31.376  1.00  0.00    -0.221 OA
ATOM     26  O   UNL     1       3.703  -3.294 -33.805  1.00  0.00    -0.221 OA
ATOM     27  C   UNL     1       5.517  -5.033 -32.983  1.00  0.00     0.167 C 
ENDBRANCH  16  24
BRANCH  22  28
ATOM     28  N   UNL     1       2.219  -9.861 -32.655  1.00  0.00    -0.382 N 
ATOM     29  H   UNL     1       1.944 -10.112 -31.715  1.00  0.00     0.158 HD
ATOM     30  H   UNL     1       2.428 -10.610 -33.303  1.00  0.00     0.158 HD
ENDBRANCH  22  28
ENDBRANCH   3  15
BRANCH   4  31
ATOM     31  O   UNL     1       0.457  -2.049 -33.257  1.00  0.00    -0.453 OA
BRANCH  31  32
ATOM     32  C   UNL     1       0.814  -1.628 -32.015  1.00  0.00     0.303 C 
ATOM     33  O   UNL     1       1.951  -1.338 -31.674  1.00  0.00    -0.253 OA
ATOM     34  C   UNL     1      -0.384  -1.590 -31.117  1.00  0.00     0.139 C 
ENDBRANCH  31  32
ENDBRANCH   4  31
TORSDOF 10
ENDMDL
MODEL 8
REMARK VINA RESULT:    -4.431     24.275     26.071
REMARK INTER + INTRA:          -7.917
REMARK INTER:                  -7.374
REMARK INTRA:                  -0.542
REMARK UNBOUND:                -1.025
REMARK SMILES CC(=O)CO[C@H]1O[C@H](n2c(S(C)(=O)=O)nc3c(N)ncnc32)[C@@H](OC(C)=O)[C@@H]1OC(C)=O
REMARK SMILES IDX 6 1 7 2 8 3 23 4 28 5 5 6 4 7 2 8 3 9 1 10 29 11 30 12 32 13
REMARK SMILES IDX 31 14 9 15 10 16 22 17 15 18 21 19 16 20 20 21 17 22 19 23
REMARK SMILES IDX 11 24 13 25 14 26 12 27 18 28 24 31 25 32 27 33 26 34
REMARK H PARENT 18 29 18 30
ROOT
ATOM      1  C   UNL     1       0.343  -3.393 -32.046  1.00  0.00     0.298 C 
ATOM      2  O   UNL     1      -0.295  -3.762 -33.271  1.00  0.00    -0.321 OA
ATOM      3  C   UNL     1       0.344  -4.943 -33.774  1.00  0.00     0.271 C 
ATOM      4  C   UNL     1       1.424  -5.388 -32.785  1.00  0.00     0.272 C 
ATOM      5  C   UNL     1       1.088  -4.624 -31.515  1.00  0.00     0.278 C 
ENDROOT
BRANCH   1   6
ATOM      6  O   UNL     1       1.295  -2.357 -32.306  1.00  0.00    -0.341 OA
BRANCH   6   7
ATOM      7  C   UNL     1       2.026  -1.995 -31.143  1.00  0.00     0.238 C 
BRANCH   7   8
ATOM      8  C   UNL     1       3.538  -2.103 -31.310  1.00  0.00     0.155 C 
ATOM      9  O   UNL     1       4.245  -2.645 -30.460  1.00  0.00    -0.297 OA
ATOM     10  C   UNL     1       4.133  -1.477 -32.544  1.00  0.00     0.090 C 
ENDBRANCH   7   8
ENDBRANCH   6   7
ENDBRANCH   1   6
BRANCH   5  11
ATOM     11  O   UNL     1       0.253  -5.468 -30.700  1.00  0.00    -0.453 OA
BRANCH  11  12
ATOM     12  C   UNL     1       0.919  -6.169 -29.743  1.00  0.00     0.303 C 
ATOM     13  O   UNL     1       2.040  -5.902 -29.334  1.00  0.00    -0.253 OA
ATOM     14  C   UNL     1       0.076  -7.301 -29.244  1.00  0.00     0.139 C 
ENDBRANCH  11  12
ENDBRANCH   5  11
BRANCH   3  15
ATOM     15  N   UNL     1      -0.660  -5.965 -34.044  1.00  0.00    -0.268 N 
ATOM     16  C   UNL     1      -1.785  -5.794 -34.830  1.00  0.00     0.232 A 
ATOM     17  C   UNL     1      -0.665  -7.265 -33.607  1.00  0.00     0.168 A 
ATOM     18  N   UNL     1      -2.498  -6.907 -34.906  1.00  0.00    -0.212 NA
ATOM     19  N   UNL     1       0.241  -7.889 -32.836  1.00  0.00    -0.216 NA
ATOM     20  C   UNL     1      -1.820  -7.821 -34.132  1.00  0.00     0.151 A 
ATOM     21  C   UNL     1      -0.116  -9.163 -32.587  1.00  0.00     0.226 A 
ATOM     22  C   UNL     1      -2.082  -9.165 -33.815  1.00  0.00     0.155 A 
ATOM     23  N   UNL     1      -1.199  -9.830 -33.037  1.00  0.00    -0.217 NA
BRANCH  16  24
ATOM     24  S   UNL     1      -2.198  -4.285 -35.659  1.00  0.00     0.209 S 
ATOM     25  O   UNL     1      -1.000  -3.946 -36.401  1.00  0.00    -0.221 OA
ATOM     26  O   UNL     1      -2.719  -3.418 -34.623  1.00  0.00    -0.221 OA
ATOM     27  C   UNL     1      -3.495  -4.737 -36.778  1.00  0.00     0.167 C 
ENDBRANCH  16  24
BRANCH  22  28
ATOM     28  N   UNL     1      -3.196  -9.854 -34.273  1.00  0.00    -0.382 N 
ATOM     29  H   UNL     1      -3.164 -10.097 -35.255  1.00  0.00     0.158 HD
ATOM     30  H   UNL     1      -3.506 -10.562 -33.620  1.00  0.00     0.158 HD
ENDBRANCH  22  28
ENDBRANCH   3  15
BRANCH   4  31
ATOM     31  O   UNL     1       2.708  -4.986 -33.314  1.00  0.00    -0.453 OA
BRANCH  31  32
ATOM     32  C   UNL     1       3.728  -5.849 -33.065  1.00  0.00     0.303 C 
ATOM     33  O   UNL     1       3.605  -7.058 -32.931  1.00  0.00    -0.253 OA
ATOM     34  C   UNL     1       5.022  -5.105 -32.958  1.00  0.00     0.139 C 
ENDBRANCH  31  32
ENDBRANCH   4  31
TORSDOF 10
ENDMDL
