MODEL 1
REMARK VINA RESULT:    -7.995      0.000      0.000
REMARK INTER + INTRA:         -11.073
REMARK INTER:                 -10.332
REMARK INTRA:                  -0.741
REMARK UNBOUND:                -0.741
REMARK SMILES COC(=O)Nc1ccc(C(=O)Nc2cc(NC(C)=O)ccc2F)cc1
REMARK SMILES IDX 6 1 7 2 8 3 9 4 24 5 25 6 5 7 3 8 4 9 2 11 1 12 10 13 11 14
REMARK SMILES IDX 12 15 13 17 14 18 22 19 15 20 21 21 20 22 23 23 16 24 17 25
REMARK SMILES IDX 19 26 18 28
REMARK H PARENT 5 10 12 16 16 27
ROOT
ATOM      1  C   UNL     1      13.753 -20.842 -48.860  1.00  0.00     0.044 A 
ATOM      2  C   UNL     1      12.751 -20.846 -47.886  1.00  0.00     0.027 A 
ATOM      3  C   UNL     1      12.865 -21.658 -46.749  1.00  0.00     0.016 A 
ATOM      4  C   UNL     1      13.990 -22.469 -46.573  1.00  0.00     0.040 A 
ATOM      5  C   UNL     1      14.986 -22.481 -47.555  1.00  0.00     0.016 A 
ATOM      6  C   UNL     1      14.869 -21.669 -48.687  1.00  0.00     0.027 A 
ENDROOT
BRANCH   1   7
ATOM      7  N   UNL     1      13.709 -20.056 -50.021  1.00  0.00    -0.291 N 
ATOM      8  C   UNL     1      13.114 -20.337 -51.218  1.00  0.00     0.411 C 
ATOM      9  O   UNL     1      12.488 -21.338 -51.531  1.00  0.00    -0.224 OA
ATOM     10  H   UNL     1      14.165 -19.154 -50.006  1.00  0.00     0.173 HD
BRANCH   8  11
ATOM     11  O   UNL     1      13.331 -19.284 -52.052  1.00  0.00    -0.453 OA
ATOM     12  C   UNL     1      14.466 -19.440 -52.905  1.00  0.00     0.284 C 
ENDBRANCH   8  11
ENDBRANCH   1   7
BRANCH   4  13
ATOM     13  C   UNL     1      14.154 -23.352 -45.382  1.00  0.00     0.255 C 
ATOM     14  O   UNL     1      13.242 -24.118 -45.093  1.00  0.00    -0.269 OA
ATOM     15  N   UNL     1      15.365 -23.238 -44.729  1.00  0.00    -0.319 N 
ATOM     16  H   UNL     1      16.081 -22.653 -45.148  1.00  0.00     0.170 HD
BRANCH  15  17
ATOM     17  C   UNL     1      15.782 -23.921 -43.563  1.00  0.00     0.079 A 
ATOM     18  C   UNL     1      15.248 -23.709 -42.290  1.00  0.00     0.055 A 
ATOM     19  C   UNL     1      16.806 -24.862 -43.710  1.00  0.00     0.146 A 
ATOM     20  C   UNL     1      15.722 -24.430 -41.179  1.00  0.00     0.043 A 
ATOM     21  C   UNL     1      17.287 -25.583 -42.624  1.00  0.00     0.043 A 
ATOM     22  C   UNL     1      16.743 -25.367 -41.357  1.00  0.00     0.029 A 
ATOM     23  F   UNL     1      17.338 -25.077 -44.923  1.00  0.00    -0.205 F 
BRANCH  20  24
ATOM     24  N   UNL     1      15.119 -24.151 -39.934  1.00  0.00    -0.326 N 
ATOM     25  C   UNL     1      13.886 -24.578 -39.478  1.00  0.00     0.221 C 
ATOM     26  O   UNL     1      13.092 -25.302 -40.068  1.00  0.00    -0.275 OA
ATOM     27  H   UNL     1      15.663 -23.573 -39.304  1.00  0.00     0.169 HD
ATOM     28  C   UNL     1      13.585 -24.074 -38.088  1.00  0.00     0.114 C 
ENDBRANCH  20  24
ENDBRANCH  15  17
ENDBRANCH   4  13
TORSDOF 5
ENDMDL
MODEL 2
REMARK VINA RESULT:    -7.515      2.527      9.359
REMARK INTER + INTRA:         -10.453
REMARK INTER:                  -9.691
REMARK INTRA:                  -0.762
REMARK UNBOUND:                -0.741
REMARK SMILES COC(=O)Nc1ccc(C(=O)Nc2cc(NC(C)=O)ccc2F)cc1
REMARK SMILES IDX 6 1 7 2 8 3 9 4 24 5 25 6 5 7 3 8 4 9 2 11 1 12 10 13 11 14
REMARK SMILES IDX 12 15 13 17 14 18 22 19 15 20 21 21 20 22 23 23 16 24 17 25
REMARK SMILES IDX 19 26 18 28
REMARK H PARENT 5 10 12 16 16 27
ROOT
ATOM      1  C   UNL     1      13.861 -24.304 -41.527  1.00  0.00     0.044 A 
ATOM      2  C   UNL     1      14.975 -23.856 -42.242  1.00  0.00     0.027 A 
ATOM      3  C   UNL     1      14.908 -23.688 -43.633  1.00  0.00     0.016 A 
ATOM      4  C   UNL     1      13.720 -23.958 -44.318  1.00  0.00     0.040 A 
ATOM      5  C   UNL     1      12.609 -24.424 -43.607  1.00  0.00     0.016 A 
ATOM      6  C   UNL     1      12.680 -24.590 -42.220  1.00  0.00     0.027 A 
ENDROOT
BRANCH   1   7
ATOM      7  N   UNL     1      13.853 -24.495 -40.137  1.00  0.00    -0.291 N 
ATOM      8  C   UNL     1      14.424 -25.502 -39.412  1.00  0.00     0.411 C 
ATOM      9  O   UNL     1      15.070 -26.454 -39.824  1.00  0.00    -0.224 OA
ATOM     10  H   UNL     1      13.372 -23.816 -39.564  1.00  0.00     0.173 HD
BRANCH   8  11
ATOM     11  O   UNL     1      14.156 -25.277 -38.097  1.00  0.00    -0.453 OA
ATOM     12  C   UNL     1      13.563 -24.004 -37.832  1.00  0.00     0.284 C 
ENDBRANCH   8  11
ENDBRANCH   1   7
BRANCH   4  13
ATOM     13  C   UNL     1      13.602 -23.796 -45.796  1.00  0.00     0.255 C 
ATOM     14  O   UNL     1      13.940 -24.730 -46.514  1.00  0.00    -0.269 OA
ATOM     15  N   UNL     1      13.075 -22.591 -46.215  1.00  0.00    -0.319 N 
ATOM     16  H   UNL     1      12.720 -21.953 -45.510  1.00  0.00     0.170 HD
BRANCH  15  17
ATOM     17  C   UNL     1      12.879 -22.153 -47.545  1.00  0.00     0.079 A 
ATOM     18  C   UNL     1      11.668 -22.241 -48.236  1.00  0.00     0.055 A 
ATOM     19  C   UNL     1      13.985 -21.606 -48.204  1.00  0.00     0.146 A 
ATOM     20  C   UNL     1      11.557 -21.784 -49.560  1.00  0.00     0.043 A 
ATOM     21  C   UNL     1      13.895 -21.151 -49.514  1.00  0.00     0.043 A 
ATOM     22  C   UNL     1      12.679 -21.239 -50.192  1.00  0.00     0.029 A 
ATOM     23  F   UNL     1      15.161 -21.519 -47.562  1.00  0.00    -0.205 F 
BRANCH  20  24
ATOM     24  N   UNL     1      10.293 -21.910 -50.174  1.00  0.00    -0.326 N 
ATOM     25  C   UNL     1       9.691 -23.064 -50.640  1.00  0.00     0.221 C 
ATOM     26  O   UNL     1      10.140 -24.204 -50.585  1.00  0.00    -0.275 OA
ATOM     27  H   UNL     1       9.768 -21.049 -50.277  1.00  0.00     0.169 HD
ATOM     28  C   UNL     1       8.331 -22.799 -51.236  1.00  0.00     0.114 C 
ENDBRANCH  20  24
ENDBRANCH  15  17
ENDBRANCH   4  13
TORSDOF 5
ENDMDL
MODEL 3
REMARK VINA RESULT:    -7.392      2.122      9.613
REMARK INTER + INTRA:         -10.294
REMARK INTER:                  -9.942
REMARK INTRA:                  -0.352
REMARK UNBOUND:                -0.741
REMARK SMILES COC(=O)Nc1ccc(C(=O)Nc2cc(NC(C)=O)ccc2F)cc1
REMARK SMILES IDX 6 1 7 2 8 3 9 4 24 5 25 6 5 7 3 8 4 9 2 11 1 12 10 13 11 14
REMARK SMILES IDX 12 15 13 17 14 18 22 19 15 20 21 21 20 22 23 23 16 24 17 25
REMARK SMILES IDX 19 26 18 28
REMARK H PARENT 5 10 12 16 16 27
ROOT
ATOM      1  C   UNL     1      14.705 -23.854 -41.806  1.00  0.00     0.044 A 
ATOM      2  C   UNL     1      15.766 -23.194 -42.431  1.00  0.00     0.027 A 
ATOM      3  C   UNL     1      15.702 -22.871 -43.794  1.00  0.00     0.016 A 
ATOM      4  C   UNL     1      14.566 -23.197 -44.541  1.00  0.00     0.040 A 
ATOM      5  C   UNL     1      13.510 -23.874 -43.923  1.00  0.00     0.016 A 
ATOM      6  C   UNL     1      13.578 -24.195 -42.563  1.00  0.00     0.027 A 
ENDROOT
BRANCH   1   7
ATOM      7  N   UNL     1      14.699 -24.208 -40.449  1.00  0.00    -0.291 N 
ATOM      8  C   UNL     1      15.162 -25.353 -39.865  1.00  0.00     0.411 C 
ATOM      9  O   UNL     1      15.687 -26.315 -40.405  1.00  0.00    -0.224 OA
ATOM     10  H   UNL     1      14.309 -23.553 -39.785  1.00  0.00     0.173 HD
BRANCH   8  11
ATOM     11  O   UNL     1      14.944 -25.259 -38.525  1.00  0.00    -0.453 OA
ATOM     12  C   UNL     1      13.839 -24.426 -38.171  1.00  0.00     0.284 C 
ENDBRANCH   8  11
ENDBRANCH   1   7
BRANCH   4  13
ATOM     13  C   UNL     1      14.452 -22.876 -45.993  1.00  0.00     0.255 C 
ATOM     14  O   UNL     1      15.399 -23.140 -46.725  1.00  0.00    -0.269 OA
ATOM     15  N   UNL     1      13.244 -22.332 -46.382  1.00  0.00    -0.319 N 
ATOM     16  H   UNL     1      12.499 -22.282 -45.694  1.00  0.00     0.170 HD
BRANCH  15  17
ATOM     17  C   UNL     1      12.869 -21.905 -47.676  1.00  0.00     0.079 A 
ATOM     18  C   UNL     1      13.505 -20.884 -48.387  1.00  0.00     0.055 A 
ATOM     19  C   UNL     1      11.779 -22.551 -48.268  1.00  0.00     0.146 A 
ATOM     20  C   UNL     1      13.067 -20.517 -49.671  1.00  0.00     0.043 A 
ATOM     21  C   UNL     1      11.331 -22.201 -49.536  1.00  0.00     0.043 A 
ATOM     22  C   UNL     1      11.977 -21.184 -50.239  1.00  0.00     0.029 A 
ATOM     23  F   UNL     1      11.148 -23.530 -47.600  1.00  0.00    -0.205 F 
BRANCH  20  24
ATOM     24  N   UNL     1      13.774 -19.479 -50.313  1.00  0.00    -0.326 N 
ATOM     25  C   UNL     1      13.764 -19.154 -51.657  1.00  0.00     0.221 C 
ATOM     26  O   UNL     1      13.115 -19.701 -52.542  1.00  0.00    -0.275 OA
ATOM     27  H   UNL     1      14.351 -18.903 -49.710  1.00  0.00     0.169 HD
ATOM     28  C   UNL     1      14.650 -17.974 -51.967  1.00  0.00     0.114 C 
ENDBRANCH  20  24
ENDBRANCH  15  17
ENDBRANCH   4  13
TORSDOF 5
ENDMDL
MODEL 4
REMARK VINA RESULT:    -7.297      6.144      9.794
REMARK INTER + INTRA:         -10.171
REMARK INTER:                  -9.601
REMARK INTRA:                  -0.571
REMARK UNBOUND:                -0.741
REMARK SMILES COC(=O)Nc1ccc(C(=O)Nc2cc(NC(C)=O)ccc2F)cc1
REMARK SMILES IDX 6 1 7 2 8 3 9 4 24 5 25 6 5 7 3 8 4 9 2 11 1 12 10 13 11 14
REMARK SMILES IDX 12 15 13 17 14 18 22 19 15 20 21 21 20 22 23 23 16 24 17 25
REMARK SMILES IDX 19 26 18 28
REMARK H PARENT 5 10 12 16 16 27
ROOT
ATOM      1  C   UNL     1       5.608 -23.941 -49.757  1.00  0.00     0.044 A 
ATOM      2  C   UNL     1       5.972 -23.062 -50.780  1.00  0.00     0.027 A 
ATOM      3  C   UNL     1       7.321 -22.770 -51.024  1.00  0.00     0.016 A 
ATOM      4  C   UNL     1       8.321 -23.365 -50.249  1.00  0.00     0.040 A 
ATOM      5  C   UNL     1       7.959 -24.232 -49.212  1.00  0.00     0.016 A 
ATOM      6  C   UNL     1       6.612 -24.520 -48.972  1.00  0.00     0.027 A 
ENDROOT
BRANCH   1   7
ATOM      7  N   UNL     1       4.281 -24.280 -49.456  1.00  0.00    -0.291 N 
ATOM      8  C   UNL     1       3.397 -23.626 -48.644  1.00  0.00     0.411 C 
ATOM      9  O   UNL     1       3.577 -22.599 -48.008  1.00  0.00    -0.224 OA
ATOM     10  H   UNL     1       3.892 -25.112 -49.879  1.00  0.00     0.173 HD
BRANCH   8  11
ATOM     11  O   UNL     1       2.228 -24.322 -48.651  1.00  0.00    -0.453 OA
ATOM     12  C   UNL     1       1.799 -24.730 -49.951  1.00  0.00     0.284 C 
ENDBRANCH   8  11
ENDBRANCH   1   7
BRANCH   4  13
ATOM     13  C   UNL     1       9.769 -23.084 -50.469  1.00  0.00     0.255 C 
ATOM     14  O   UNL     1      10.295 -23.501 -51.495  1.00  0.00    -0.269 OA
ATOM     15  N   UNL     1      10.378 -22.332 -49.484  1.00  0.00    -0.319 N 
ATOM     16  H   UNL     1       9.795 -21.946 -48.749  1.00  0.00     0.170 HD
BRANCH  15  17
ATOM     17  C   UNL     1      11.735 -21.944 -49.414  1.00  0.00     0.079 A 
ATOM     18  C   UNL     1      12.287 -20.867 -50.113  1.00  0.00     0.055 A 
ATOM     19  C   UNL     1      12.572 -22.704 -48.591  1.00  0.00     0.146 A 
ATOM     20  C   UNL     1      13.650 -20.549 -49.990  1.00  0.00     0.043 A 
ATOM     21  C   UNL     1      13.923 -22.405 -48.457  1.00  0.00     0.043 A 
ATOM     22  C   UNL     1      14.462 -21.325 -49.157  1.00  0.00     0.029 A 
ATOM     23  F   UNL     1      12.065 -23.747 -47.915  1.00  0.00    -0.205 F 
BRANCH  20  24
ATOM     24  N   UNL     1      14.116 -19.442 -50.732  1.00  0.00    -0.326 N 
ATOM     25  C   UNL     1      13.919 -19.182 -52.075  1.00  0.00     0.221 C 
ATOM     26  O   UNL     1      13.280 -19.861 -52.871  1.00  0.00    -0.275 OA
ATOM     27  H   UNL     1      14.652 -18.759 -50.209  1.00  0.00     0.169 HD
ATOM     28  C   UNL     1      14.572 -17.894 -52.510  1.00  0.00     0.114 C 
ENDBRANCH  20  24
ENDBRANCH  15  17
ENDBRANCH   4  13
TORSDOF 5
ENDMDL
MODEL 5
REMARK VINA RESULT:    -6.863      3.820      4.612
REMARK INTER + INTRA:          -9.610
REMARK INTER:                  -9.178
REMARK INTRA:                  -0.433
REMARK UNBOUND:                -0.741
REMARK SMILES COC(=O)Nc1ccc(C(=O)Nc2cc(NC(C)=O)ccc2F)cc1
REMARK SMILES IDX 6 1 7 2 8 3 9 4 24 5 25 6 5 7 3 8 4 9 2 11 1 12 10 13 11 14
REMARK SMILES IDX 12 15 13 17 14 18 22 19 15 20 21 21 20 22 23 23 16 24 17 25
REMARK SMILES IDX 19 26 18 28
REMARK H PARENT 5 10 12 16 16 27
ROOT
ATOM      1  C   UNL     1       9.386 -23.661 -50.094  1.00  0.00     0.044 A 
ATOM      2  C   UNL     1       9.064 -24.207 -48.849  1.00  0.00     0.027 A 
ATOM      3  C   UNL     1       9.952 -24.094 -47.770  1.00  0.00     0.016 A 
ATOM      4  C   UNL     1      11.168 -23.423 -47.927  1.00  0.00     0.040 A 
ATOM      5  C   UNL     1      11.501 -22.891 -49.177  1.00  0.00     0.016 A 
ATOM      6  C   UNL     1      10.613 -23.006 -50.251  1.00  0.00     0.027 A 
ENDROOT
BRANCH   1   7
ATOM      7  N   UNL     1       8.549 -23.735 -51.218  1.00  0.00    -0.291 N 
ATOM      8  C   UNL     1       7.511 -22.916 -51.562  1.00  0.00     0.411 C 
ATOM      9  O   UNL     1       7.092 -21.938 -50.963  1.00  0.00    -0.224 OA
ATOM     10  H   UNL     1       8.706 -24.480 -51.883  1.00  0.00     0.173 HD
BRANCH   8  11
ATOM     11  O   UNL     1       6.987 -23.373 -52.732  1.00  0.00    -0.453 OA
ATOM     12  C   UNL     1       7.960 -23.867 -53.654  1.00  0.00     0.284 C 
ENDBRANCH   8  11
ENDBRANCH   1   7
BRANCH   4  13
ATOM     13  C   UNL     1      12.145 -23.279 -46.809  1.00  0.00     0.255 C 
ATOM     14  O   UNL     1      11.715 -23.065 -45.682  1.00  0.00    -0.269 OA
ATOM     15  N   UNL     1      13.470 -23.440 -47.163  1.00  0.00    -0.319 N 
ATOM     16  H   UNL     1      13.679 -23.737 -48.111  1.00  0.00     0.170 HD
BRANCH  15  17
ATOM     17  C   UNL     1      14.604 -23.329 -46.326  1.00  0.00     0.079 A 
ATOM     18  C   UNL     1      14.719 -23.923 -45.067  1.00  0.00     0.055 A 
ATOM     19  C   UNL     1      15.671 -22.559 -46.800  1.00  0.00     0.146 A 
ATOM     20  C   UNL     1      15.882 -23.760 -44.295  1.00  0.00     0.043 A 
ATOM     21  C   UNL     1      16.828 -22.386 -46.051  1.00  0.00     0.043 A 
ATOM     22  C   UNL     1      16.934 -22.988 -44.796  1.00  0.00     0.029 A 
ATOM     23  F   UNL     1      15.579 -21.972 -48.004  1.00  0.00    -0.205 F 
BRANCH  20  24
ATOM     24  N   UNL     1      15.908 -24.402 -43.038  1.00  0.00    -0.326 N 
ATOM     25  C   UNL     1      16.345 -23.883 -41.833  1.00  0.00     0.221 C 
ATOM     26  O   UNL     1      16.773 -22.752 -41.630  1.00  0.00    -0.275 OA
ATOM     27  H   UNL     1      15.558 -25.353 -43.024  1.00  0.00     0.169 HD
ATOM     28  C   UNL     1      16.216 -24.874 -40.704  1.00  0.00     0.114 C 
ENDBRANCH  20  24
ENDBRANCH  15  17
ENDBRANCH   4  13
TORSDOF 5
ENDMDL
MODEL 6
REMARK VINA RESULT:    -6.831      5.975      7.764
REMARK INTER + INTRA:          -9.569
REMARK INTER:                  -8.836
REMARK INTRA:                  -0.733
REMARK UNBOUND:                -0.741
REMARK SMILES COC(=O)Nc1ccc(C(=O)Nc2cc(NC(C)=O)ccc2F)cc1
REMARK SMILES IDX 6 1 7 2 8 3 9 4 24 5 25 6 5 7 3 8 4 9 2 11 1 12 10 13 11 14
REMARK SMILES IDX 12 15 13 17 14 18 22 19 15 20 21 21 20 22 23 23 16 24 17 25
REMARK SMILES IDX 19 26 18 28
REMARK H PARENT 5 10 12 16 16 27
ROOT
ATOM      1  C   UNL     1       5.932 -23.450 -50.439  1.00  0.00     0.044 A 
ATOM      2  C   UNL     1       6.831 -22.718 -51.219  1.00  0.00     0.027 A 
ATOM      3  C   UNL     1       8.203 -22.737 -50.933  1.00  0.00     0.016 A 
ATOM      4  C   UNL     1       8.690 -23.498 -49.866  1.00  0.00     0.040 A 
ATOM      5  C   UNL     1       7.790 -24.217 -49.071  1.00  0.00     0.016 A 
ATOM      6  C   UNL     1       6.422 -24.196 -49.360  1.00  0.00     0.027 A 
ENDROOT
BRANCH   1   7
ATOM      7  N   UNL     1       4.548 -23.480 -50.665  1.00  0.00    -0.291 N 
ATOM      8  C   UNL     1       3.580 -22.673 -50.136  1.00  0.00     0.411 C 
ATOM      9  O   UNL     1       3.718 -21.747 -49.352  1.00  0.00    -0.224 OA
ATOM     10  H   UNL     1       4.182 -24.176 -51.300  1.00  0.00     0.173 HD
BRANCH   8  11
ATOM     11  O   UNL     1       2.381 -23.072 -50.639  1.00  0.00    -0.453 OA
ATOM     12  C   UNL     1       1.931 -22.302 -51.755  1.00  0.00     0.284 C 
ENDBRANCH   8  11
ENDBRANCH   1   7
BRANCH   4  13
ATOM     13  C   UNL     1      10.140 -23.548 -49.521  1.00  0.00     0.255 C 
ATOM     14  O   UNL     1      10.786 -24.534 -49.855  1.00  0.00    -0.269 OA
ATOM     15  N   UNL     1      10.628 -22.430 -48.874  1.00  0.00    -0.319 N 
ATOM     16  H   UNL     1      10.011 -21.631 -48.769  1.00  0.00     0.170 HD
BRANCH  15  17
ATOM     17  C   UNL     1      11.944 -22.214 -48.404  1.00  0.00     0.079 A 
ATOM     18  C   UNL     1      12.349 -22.396 -47.079  1.00  0.00     0.055 A 
ATOM     19  C   UNL     1      12.890 -21.780 -49.338  1.00  0.00     0.146 A 
ATOM     20  C   UNL     1      13.679 -22.156 -46.692  1.00  0.00     0.043 A 
ATOM     21  C   UNL     1      14.208 -21.537 -48.973  1.00  0.00     0.043 A 
ATOM     22  C   UNL     1      14.604 -21.726 -47.648  1.00  0.00     0.029 A 
ATOM     23  F   UNL     1      12.520 -21.592 -50.615  1.00  0.00    -0.205 F 
BRANCH  20  24
ATOM     24  N   UNL     1      13.996 -22.371 -45.333  1.00  0.00    -0.326 N 
ATOM     25  C   UNL     1      14.791 -23.367 -44.798  1.00  0.00     0.221 C 
ATOM     26  O   UNL     1      15.389 -24.242 -45.414  1.00  0.00    -0.275 OA
ATOM     27  H   UNL     1      13.594 -21.708 -44.679  1.00  0.00     0.169 HD
ATOM     28  C   UNL     1      14.897 -23.269 -43.297  1.00  0.00     0.114 C 
ENDBRANCH  20  24
ENDBRANCH  15  17
ENDBRANCH   4  13
TORSDOF 5
ENDMDL
MODEL 7
REMARK VINA RESULT:    -6.759      5.077      9.174
REMARK INTER + INTRA:          -9.476
REMARK INTER:                  -8.730
REMARK INTRA:                  -0.746
REMARK UNBOUND:                -0.741
REMARK SMILES COC(=O)Nc1ccc(C(=O)Nc2cc(NC(C)=O)ccc2F)cc1
REMARK SMILES IDX 6 1 7 2 8 3 9 4 24 5 25 6 5 7 3 8 4 9 2 11 1 12 10 13 11 14
REMARK SMILES IDX 12 15 13 17 14 18 22 19 15 20 21 21 20 22 23 23 16 24 17 25
REMARK SMILES IDX 19 26 18 28
REMARK H PARENT 5 10 12 16 16 27
ROOT
ATOM      1  C   UNL     1      15.292 -22.801 -46.882  1.00  0.00     0.044 A 
ATOM      2  C   UNL     1      14.116 -23.494 -46.581  1.00  0.00     0.027 A 
ATOM      3  C   UNL     1      12.973 -23.339 -47.378  1.00  0.00     0.016 A 
ATOM      4  C   UNL     1      13.000 -22.494 -48.491  1.00  0.00     0.040 A 
ATOM      5  C   UNL     1      14.170 -21.784 -48.784  1.00  0.00     0.016 A 
ATOM      6  C   UNL     1      15.308 -21.942 -47.987  1.00  0.00     0.027 A 
ENDROOT
BRANCH   1   7
ATOM      7  N   UNL     1      16.473 -22.906 -46.131  1.00  0.00    -0.291 N 
ATOM      8  C   UNL     1      16.806 -22.265 -44.972  1.00  0.00     0.411 C 
ATOM      9  O   UNL     1      16.140 -21.462 -44.338  1.00  0.00    -0.224 OA
ATOM     10  H   UNL     1      17.194 -23.532 -46.462  1.00  0.00     0.173 HD
BRANCH   8  11
ATOM     11  O   UNL     1      18.051 -22.676 -44.609  1.00  0.00    -0.453 OA
ATOM     12  C   UNL     1      18.066 -23.602 -43.521  1.00  0.00     0.284 C 
ENDBRANCH   8  11
ENDBRANCH   1   7
BRANCH   4  13
ATOM     13  C   UNL     1      11.809 -22.295 -49.366  1.00  0.00     0.255 C 
ATOM     14  O   UNL     1      11.534 -21.156 -49.726  1.00  0.00    -0.269 OA
ATOM     15  N   UNL     1      11.141 -23.450 -49.721  1.00  0.00    -0.319 N 
ATOM     16  H   UNL     1      11.550 -24.339 -49.454  1.00  0.00     0.170 HD
BRANCH  15  17
ATOM     17  C   UNL     1       9.972 -23.560 -50.508  1.00  0.00     0.079 A 
ATOM     18  C   UNL     1       8.671 -23.440 -50.012  1.00  0.00     0.055 A 
ATOM     19  C   UNL     1      10.146 -23.817 -51.871  1.00  0.00     0.146 A 
ATOM     20  C   UNL     1       7.560 -23.567 -50.863  1.00  0.00     0.043 A 
ATOM     21  C   UNL     1       9.059 -23.946 -52.728  1.00  0.00     0.043 A 
ATOM     22  C   UNL     1       7.764 -23.820 -52.223  1.00  0.00     0.029 A 
ATOM     23  F   UNL     1      11.387 -23.944 -52.368  1.00  0.00    -0.205 F 
BRANCH  20  24
ATOM     24  N   UNL     1       6.286 -23.426 -50.273  1.00  0.00    -0.326 N 
ATOM     25  C   UNL     1       5.632 -24.324 -49.451  1.00  0.00     0.221 C 
ATOM     26  O   UNL     1       6.052 -25.408 -49.062  1.00  0.00    -0.275 OA
ATOM     27  H   UNL     1       5.802 -22.559 -50.476  1.00  0.00     0.169 HD
ATOM     28  C   UNL     1       4.280 -23.819 -49.013  1.00  0.00     0.114 C 
ENDBRANCH  20  24
ENDBRANCH  15  17
ENDBRANCH   4  13
TORSDOF 5
ENDMDL
MODEL 8
REMARK VINA RESULT:    -6.416      5.392      9.162
REMARK INTER + INTRA:          -9.032
REMARK INTER:                  -8.354
REMARK INTRA:                  -0.679
REMARK UNBOUND:                -0.741
REMARK SMILES COC(=O)Nc1ccc(C(=O)Nc2cc(NC(C)=O)ccc2F)cc1
REMARK SMILES IDX 6 1 7 2 8 3 9 4 24 5 25 6 5 7 3 8 4 9 2 11 1 12 10 13 11 14
REMARK SMILES IDX 12 15 13 17 14 18 22 19 15 20 21 21 20 22 23 23 16 24 17 25
REMARK SMILES IDX 19 26 18 28
REMARK H PARENT 5 10 12 16 16 27
ROOT
ATOM      1  C   UNL     1      14.551 -22.581 -45.914  1.00  0.00     0.044 A 
ATOM      2  C   UNL     1      13.599 -23.331 -45.219  1.00  0.00     0.027 A 
ATOM      3  C   UNL     1      12.474 -23.844 -45.879  1.00  0.00     0.016 A 
ATOM      4  C   UNL     1      12.297 -23.617 -47.248  1.00  0.00     0.040 A 
ATOM      5  C   UNL     1      13.239 -22.850 -47.942  1.00  0.00     0.016 A 
ATOM      6  C   UNL     1      14.360 -22.341 -47.279  1.00  0.00     0.027 A 
ENDROOT
BRANCH   1   7
ATOM      7  N   UNL     1      15.700 -22.037 -45.320  1.00  0.00    -0.291 N 
ATOM      8  C   UNL     1      16.992 -22.473 -45.408  1.00  0.00     0.411 C 
ATOM      9  O   UNL     1      17.422 -23.433 -46.028  1.00  0.00    -0.224 OA
ATOM     10  H   UNL     1      15.597 -21.212 -44.746  1.00  0.00     0.173 HD
BRANCH   8  11
ATOM     11  O   UNL     1      17.768 -21.637 -44.666  1.00  0.00    -0.453 OA
ATOM     12  C   UNL     1      19.100 -22.109 -44.457  1.00  0.00     0.284 C 
ENDBRANCH   8  11
ENDBRANCH   1   7
BRANCH   4  13
ATOM     13  C   UNL     1      11.116 -24.140 -47.993  1.00  0.00     0.255 C 
ATOM     14  O   UNL     1      10.712 -25.267 -47.730  1.00  0.00    -0.269 OA
ATOM     15  N   UNL     1      10.560 -23.263 -48.903  1.00  0.00    -0.319 N 
ATOM     16  H   UNL     1      10.919 -22.313 -48.932  1.00  0.00     0.170 HD
BRANCH  15  17
ATOM     17  C   UNL     1       9.464 -23.497 -49.765  1.00  0.00     0.079 A 
ATOM     18  C   UNL     1       8.167 -23.783 -49.333  1.00  0.00     0.055 A 
ATOM     19  C   UNL     1       9.714 -23.444 -51.140  1.00  0.00     0.146 A 
ATOM     20  C   UNL     1       7.131 -24.006 -50.257  1.00  0.00     0.043 A 
ATOM     21  C   UNL     1       8.703 -23.663 -52.068  1.00  0.00     0.043 A 
ATOM     22  C   UNL     1       7.410 -23.943 -51.626  1.00  0.00     0.029 A 
ATOM     23  F   UNL     1      10.955 -23.178 -51.577  1.00  0.00    -0.205 F 
BRANCH  20  24
ATOM     24  N   UNL     1       5.853 -24.284 -49.727  1.00  0.00    -0.326 N 
ATOM     25  C   UNL     1       4.763 -23.436 -49.661  1.00  0.00     0.221 C 
ATOM     26  O   UNL     1       4.700 -22.284 -50.074  1.00  0.00    -0.275 OA
ATOM     27  H   UNL     1       5.725 -25.220 -49.359  1.00  0.00     0.169 HD
ATOM     28  C   UNL     1       3.565 -24.094 -49.025  1.00  0.00     0.114 C 
ENDBRANCH  20  24
ENDBRANCH  15  17
ENDBRANCH   4  13
TORSDOF 5
ENDMDL
MODEL 9
REMARK VINA RESULT:    -6.303      5.265      9.523
REMARK INTER + INTRA:          -8.886
REMARK INTER:                  -8.349
REMARK INTRA:                  -0.538
REMARK UNBOUND:                -0.741
REMARK SMILES COC(=O)Nc1ccc(C(=O)Nc2cc(NC(C)=O)ccc2F)cc1
REMARK SMILES IDX 6 1 7 2 8 3 9 4 24 5 25 6 5 7 3 8 4 9 2 11 1 12 10 13 11 14
REMARK SMILES IDX 12 15 13 17 14 18 22 19 15 20 21 21 20 22 23 23 16 24 17 25
REMARK SMILES IDX 19 26 18 28
REMARK H PARENT 5 10 12 16 16 27
ROOT
ATOM      1  C   UNL     1      14.143 -22.497 -46.422  1.00  0.00     0.044 A 
ATOM      2  C   UNL     1      13.019 -23.091 -45.842  1.00  0.00     0.027 A 
ATOM      3  C   UNL     1      11.969 -23.563 -46.643  1.00  0.00     0.016 A 
ATOM      4  C   UNL     1      12.041 -23.452 -48.035  1.00  0.00     0.040 A 
ATOM      5  C   UNL     1      13.156 -22.840 -48.617  1.00  0.00     0.016 A 
ATOM      6  C   UNL     1      14.201 -22.372 -47.815  1.00  0.00     0.027 A 
ENDROOT
BRANCH   1   7
ATOM      7  N   UNL     1      15.230 -22.004 -45.686  1.00  0.00    -0.291 N 
ATOM      8  C   UNL     1      16.502 -22.497 -45.609  1.00  0.00     0.411 C 
ATOM      9  O   UNL     1      16.965 -23.477 -46.173  1.00  0.00    -0.224 OA
ATOM     10  H   UNL     1      15.092 -21.173 -45.127  1.00  0.00     0.173 HD
BRANCH   8  11
ATOM     11  O   UNL     1      17.214 -21.694 -44.772  1.00  0.00    -0.453 OA
ATOM     12  C   UNL     1      18.576 -22.091 -44.602  1.00  0.00     0.284 C 
ENDBRANCH   8  11
ENDBRANCH   1   7
BRANCH   4  13
ATOM     13  C   UNL     1      10.948 -23.936 -48.928  1.00  0.00     0.255 C 
ATOM     14  O   UNL     1      10.431 -25.020 -48.681  1.00  0.00    -0.269 OA
ATOM     15  N   UNL     1      10.597 -23.075 -49.948  1.00  0.00    -0.319 N 
ATOM     16  H   UNL     1      11.023 -22.153 -49.962  1.00  0.00     0.170 HD
BRANCH  15  17
ATOM     17  C   UNL     1       9.627 -23.282 -50.954  1.00  0.00     0.079 A 
ATOM     18  C   UNL     1       8.295 -22.872 -50.865  1.00  0.00     0.055 A 
ATOM     19  C   UNL     1      10.042 -23.955 -52.109  1.00  0.00     0.146 A 
ATOM     20  C   UNL     1       7.390 -23.121 -51.912  1.00  0.00     0.043 A 
ATOM     21  C   UNL     1       9.162 -24.210 -53.153  1.00  0.00     0.043 A 
ATOM     22  C   UNL     1       7.835 -23.792 -53.055  1.00  0.00     0.029 A 
ATOM     23  F   UNL     1      11.316 -24.364 -52.213  1.00  0.00    -0.205 F 
BRANCH  20  24
ATOM     24  N   UNL     1       6.067 -22.666 -51.732  1.00  0.00    -0.326 N 
ATOM     25  C   UNL     1       5.233 -22.895 -50.654  1.00  0.00     0.221 C 
ATOM     26  O   UNL     1       5.501 -23.523 -49.635  1.00  0.00    -0.275 OA
ATOM     27  H   UNL     1       5.692 -22.100 -52.485  1.00  0.00     0.169 HD
ATOM     28  C   UNL     1       3.885 -22.241 -50.824  1.00  0.00     0.114 C 
ENDBRANCH  20  24
ENDBRANCH  15  17
ENDBRANCH   4  13
TORSDOF 5
ENDMDL
