MODEL 1
REMARK VINA RESULT:    -7.876      0.000      0.000
REMARK INTER + INTRA:         -10.752
REMARK INTER:                  -9.488
REMARK INTRA:                  -1.264
REMARK UNBOUND:                -1.264
REMARK SMILES Cc1cc(C)c2cc([C@@H](O)c3nnnn3C3CCCC3)c(=O)[nH]c2c1
REMARK SMILES IDX 9 1 8 2 2 3 3 4 25 5 4 6 24 7 6 8 23 9 7 10 21 11 22 12 1 13
REMARK SMILES IDX 5 14 10 16 11 18 12 19 15 20 13 21 14 22 16 23 17 24 20 25
REMARK SMILES IDX 18 26 19 27
REMARK H PARENT 23 15 10 17
ROOT
ATOM      1  C   UNL     1      13.870 -25.035 -46.187  1.00  0.00     0.220 C 
ENDROOT
BRANCH   1   2
ATOM      2  C   UNL     1      13.762 -24.828 -44.692  1.00  0.00     0.054 C 
ATOM      3  C   UNL     1      13.956 -24.392 -39.618  1.00  0.00    -0.049 A 
ATOM      4  C   UNL     1      15.219 -24.844 -40.024  1.00  0.00     0.007 A 
ATOM      5  C   UNL     1      12.966 -24.185 -40.583  1.00  0.00     0.030 A 
ATOM      6  C   UNL     1      15.517 -25.071 -41.380  1.00  0.00    -0.042 A 
ATOM      7  C   UNL     1      13.251 -24.406 -41.930  1.00  0.00     0.049 A 
ATOM      8  C   UNL     1      14.518 -24.846 -42.347  1.00  0.00     0.002 A 
ATOM      9  N   UNL     1      12.250 -24.185 -42.883  1.00  0.00    -0.322 N 
ATOM     10  C   UNL     1      14.730 -25.060 -43.786  1.00  0.00     0.023 C 
ATOM     11  C   UNL     1      12.426 -24.359 -44.225  1.00  0.00     0.254 C 
ATOM     12  O   UNL     1      11.525 -24.127 -45.029  1.00  0.00    -0.269 OA
ATOM     13  C   UNL     1      13.655 -24.191 -38.162  1.00  0.00     0.044 C 
ATOM     14  C   UNL     1      16.895 -25.554 -41.747  1.00  0.00     0.045 C 
ATOM     15  H   UNL     1      11.336 -23.865 -42.591  1.00  0.00     0.170 HD
ENDBRANCH   1   2
BRANCH   1  16
ATOM     16  O   UNL     1      12.816 -25.869 -46.659  1.00  0.00    -0.380 OA
ATOM     17  H   UNL     1      12.440 -26.291 -45.857  1.00  0.00     0.212 HD
ENDBRANCH   1  16
BRANCH   1  18
ATOM     18  C   UNL     1      13.903 -23.812 -47.047  1.00  0.00     0.185 A 
ATOM     19  N   UNL     1      12.967 -23.508 -47.931  1.00  0.00    -0.111 NA
ATOM     20  N   UNL     1      14.880 -22.847 -47.130  1.00  0.00    -0.224 N 
ATOM     21  N   UNL     1      13.368 -22.365 -48.556  1.00  0.00    -0.024 NA
ATOM     22  N   UNL     1      14.532 -21.956 -48.086  1.00  0.00    -0.045 NA
BRANCH  20  23
ATOM     23  C   UNL     1      16.124 -22.621 -46.438  1.00  0.00     0.111 C 
ATOM     24  C   UNL     1      17.061 -23.818 -46.252  1.00  0.00     0.027 C 
ATOM     25  C   UNL     1      16.007 -21.946 -45.062  1.00  0.00     0.027 C 
ATOM     26  C   UNL     1      17.979 -23.358 -45.128  1.00  0.00     0.002 C 
ATOM     27  C   UNL     1      17.036 -22.642 -44.170  1.00  0.00     0.002 C 
ENDBRANCH  20  23
ENDBRANCH   1  18
TORSDOF 4
ENDMDL
MODEL 2
REMARK VINA RESULT:    -7.506      4.258      7.310
REMARK INTER + INTRA:         -10.306
REMARK INTER:                  -9.893
REMARK INTRA:                  -0.413
REMARK UNBOUND:                -1.264
REMARK SMILES Cc1cc(C)c2cc([C@@H](O)c3nnnn3C3CCCC3)c(=O)[nH]c2c1
REMARK SMILES IDX 9 1 8 2 2 3 3 4 25 5 4 6 24 7 6 8 23 9 7 10 21 11 22 12 1 13
REMARK SMILES IDX 5 14 10 16 11 18 12 19 15 20 13 21 14 22 16 23 17 24 20 25
REMARK SMILES IDX 18 26 19 27
REMARK H PARENT 23 15 10 17
ROOT
ATOM      1  C   UNL     1      12.771 -21.781 -47.431  1.00  0.00     0.220 C 
ENDROOT
BRANCH   1   2
ATOM      2  C   UNL     1      11.674 -22.278 -48.347  1.00  0.00     0.054 C 
ATOM      3  C   UNL     1       7.922 -24.427 -51.044  1.00  0.00    -0.049 A 
ATOM      4  C   UNL     1       8.033 -25.169 -49.860  1.00  0.00     0.007 A 
ATOM      5  C   UNL     1       8.791 -23.353 -51.256  1.00  0.00     0.030 A 
ATOM      6  C   UNL     1       8.981 -24.842 -48.873  1.00  0.00    -0.042 A 
ATOM      7  C   UNL     1       9.735 -23.020 -50.285  1.00  0.00     0.049 A 
ATOM      8  C   UNL     1       9.843 -23.749 -49.090  1.00  0.00     0.002 A 
ATOM      9  N   UNL     1      10.590 -21.935 -50.510  1.00  0.00    -0.322 N 
ATOM     10  C   UNL     1      10.869 -23.332 -48.123  1.00  0.00     0.023 C 
ATOM     11  C   UNL     1      11.539 -21.518 -49.623  1.00  0.00     0.254 C 
ATOM     12  O   UNL     1      12.251 -20.542 -49.851  1.00  0.00    -0.269 OA
ATOM     13  C   UNL     1       6.925 -24.820 -52.095  1.00  0.00     0.044 C 
ATOM     14  C   UNL     1       9.043 -25.679 -47.624  1.00  0.00     0.045 C 
ATOM     15  H   UNL     1      10.517 -21.403 -51.367  1.00  0.00     0.170 HD
ENDBRANCH   1   2
BRANCH   1  16
ATOM     16  O   UNL     1      12.595 -20.399 -47.134  1.00  0.00    -0.380 OA
ATOM     17  H   UNL     1      13.431 -19.966 -47.411  1.00  0.00     0.212 HD
ENDBRANCH   1  16
BRANCH   1  18
ATOM     18  C   UNL     1      12.963 -22.505 -46.137  1.00  0.00     0.185 A 
ATOM     19  N   UNL     1      11.971 -22.832 -45.323  1.00  0.00    -0.111 NA
ATOM     20  N   UNL     1      14.137 -22.901 -45.540  1.00  0.00    -0.224 N 
ATOM     21  N   UNL     1      12.533 -23.423 -44.231  1.00  0.00    -0.024 NA
ATOM     22  N   UNL     1      13.848 -23.465 -44.344  1.00  0.00    -0.045 NA
BRANCH  20  23
ATOM     23  C   UNL     1      15.525 -22.833 -45.920  1.00  0.00     0.111 C 
ATOM     24  C   UNL     1      16.254 -24.152 -46.188  1.00  0.00     0.027 C 
ATOM     25  C   UNL     1      16.432 -22.020 -44.983  1.00  0.00     0.027 C 
ATOM     26  C   UNL     1      17.720 -23.757 -46.084  1.00  0.00     0.002 C 
ATOM     27  C   UNL     1      17.746 -22.799 -44.901  1.00  0.00     0.002 C 
ENDBRANCH  20  23
ENDBRANCH   1  18
TORSDOF 4
ENDMDL
MODEL 3
REMARK VINA RESULT:    -7.395      2.412      3.900
REMARK INTER + INTRA:         -10.173
REMARK INTER:                  -9.916
REMARK INTRA:                  -0.256
REMARK UNBOUND:                -1.264
REMARK SMILES Cc1cc(C)c2cc([C@@H](O)c3nnnn3C3CCCC3)c(=O)[nH]c2c1
REMARK SMILES IDX 9 1 8 2 2 3 3 4 25 5 4 6 24 7 6 8 23 9 7 10 21 11 22 12 1 13
REMARK SMILES IDX 5 14 10 16 11 18 12 19 15 20 13 21 14 22 16 23 17 24 20 25
REMARK SMILES IDX 18 26 19 27
REMARK H PARENT 23 15 10 17
ROOT
ATOM      1  C   UNL     1      13.665 -23.602 -46.758  1.00  0.00     0.220 C 
ENDROOT
BRANCH   1   2
ATOM      2  C   UNL     1      13.623 -23.776 -45.256  1.00  0.00     0.054 C 
ATOM      3  C   UNL     1      14.096 -24.347 -40.213  1.00  0.00    -0.049 A 
ATOM      4  C   UNL     1      15.384 -24.092 -40.705  1.00  0.00     0.007 A 
ATOM      5  C   UNL     1      13.028 -24.413 -41.112  1.00  0.00     0.030 A 
ATOM      6  C   UNL     1      15.618 -23.878 -42.075  1.00  0.00    -0.042 A 
ATOM      7  C   UNL     1      13.249 -24.203 -42.473  1.00  0.00     0.049 A 
ATOM      8  C   UNL     1      14.533 -23.933 -42.971  1.00  0.00     0.002 A 
ATOM      9  N   UNL     1      12.165 -24.264 -43.356  1.00  0.00    -0.322 N 
ATOM     10  C   UNL     1      14.677 -23.729 -44.420  1.00  0.00     0.023 C 
ATOM     11  C   UNL     1      12.269 -24.062 -44.702  1.00  0.00     0.254 C 
ATOM     12  O   UNL     1      11.284 -24.099 -45.437  1.00  0.00    -0.269 OA
ATOM     13  C   UNL     1      13.880 -24.605 -38.751  1.00  0.00     0.044 C 
ATOM     14  C   UNL     1      17.026 -23.606 -42.534  1.00  0.00     0.045 C 
ATOM     15  H   UNL     1      11.236 -24.455 -43.004  1.00  0.00     0.170 HD
ENDBRANCH   1   2
BRANCH   1  16
ATOM     16  O   UNL     1      13.030 -24.697 -47.412  1.00  0.00    -0.380 OA
ATOM     17  H   UNL     1      13.154 -24.532 -48.371  1.00  0.00     0.212 HD
ENDBRANCH   1  16
BRANCH   1  18
ATOM     18  C   UNL     1      13.089 -22.340 -47.317  1.00  0.00     0.185 A 
ATOM     19  N   UNL     1      13.396 -21.132 -46.873  1.00  0.00    -0.111 NA
ATOM     20  N   UNL     1      12.142 -22.192 -48.303  1.00  0.00    -0.224 N 
ATOM     21  N   UNL     1      12.638 -20.246 -47.580  1.00  0.00    -0.024 NA
ATOM     22  N   UNL     1      11.866 -20.875 -48.447  1.00  0.00    -0.045 NA
BRANCH  20  23
ATOM     23  C   UNL     1      11.432 -23.112 -49.155  1.00  0.00     0.111 C 
ATOM     24  C   UNL     1      11.308 -22.755 -50.638  1.00  0.00     0.027 C 
ATOM     25  C   UNL     1      10.022 -23.502 -48.684  1.00  0.00     0.027 C 
ATOM     26  C   UNL     1      10.156 -23.634 -51.104  1.00  0.00     0.002 C 
ATOM     27  C   UNL     1       9.165 -23.560 -49.950  1.00  0.00     0.002 C 
ENDBRANCH  20  23
ENDBRANCH   1  18
TORSDOF 4
ENDMDL
MODEL 4
REMARK VINA RESULT:    -7.382      2.807      6.229
REMARK INTER + INTRA:         -10.156
REMARK INTER:                  -9.256
REMARK INTRA:                  -0.900
REMARK UNBOUND:                -1.264
REMARK SMILES Cc1cc(C)c2cc([C@@H](O)c3nnnn3C3CCCC3)c(=O)[nH]c2c1
REMARK SMILES IDX 9 1 8 2 2 3 3 4 25 5 4 6 24 7 6 8 23 9 7 10 21 11 22 12 1 13
REMARK SMILES IDX 5 14 10 16 11 18 12 19 15 20 13 21 14 22 16 23 17 24 20 25
REMARK SMILES IDX 18 26 19 27
REMARK H PARENT 23 15 10 17
ROOT
ATOM      1  C   UNL     1      16.460 -25.032 -44.808  1.00  0.00     0.220 C 
ENDROOT
BRANCH   1   2
ATOM      2  C   UNL     1      15.237 -24.728 -45.644  1.00  0.00     0.054 C 
ATOM      3  C   UNL     1      11.427 -23.217 -48.673  1.00  0.00    -0.049 A 
ATOM      4  C   UNL     1      12.524 -22.400 -48.981  1.00  0.00     0.007 A 
ATOM      5  C   UNL     1      11.561 -24.186 -47.675  1.00  0.00     0.030 A 
ATOM      6  C   UNL     1      13.759 -22.551 -48.324  1.00  0.00    -0.042 A 
ATOM      7  C   UNL     1      12.781 -24.344 -47.017  1.00  0.00     0.049 A 
ATOM      8  C   UNL     1      13.888 -23.539 -47.329  1.00  0.00     0.002 A 
ATOM      9  N   UNL     1      12.898 -25.326 -46.027  1.00  0.00    -0.322 N 
ATOM     10  C   UNL     1      15.134 -23.770 -46.584  1.00  0.00     0.023 C 
ATOM     11  C   UNL     1      14.047 -25.571 -45.332  1.00  0.00     0.254 C 
ATOM     12  O   UNL     1      14.112 -26.462 -44.488  1.00  0.00    -0.269 OA
ATOM     13  C   UNL     1      10.111 -23.012 -49.365  1.00  0.00     0.044 C 
ATOM     14  C   UNL     1      14.896 -21.642 -48.707  1.00  0.00     0.045 C 
ATOM     15  H   UNL     1      12.106 -25.911 -45.799  1.00  0.00     0.170 HD
ENDBRANCH   1   2
BRANCH   1  16
ATOM     16  O   UNL     1      17.584 -25.312 -45.639  1.00  0.00    -0.380 OA
ATOM     17  H   UNL     1      17.342 -24.967 -46.525  1.00  0.00     0.212 HD
ENDBRANCH   1  16
BRANCH   1  18
ATOM     18  C   UNL     1      16.879 -24.002 -43.808  1.00  0.00     0.185 A 
ATOM     19  N   UNL     1      17.804 -23.084 -44.040  1.00  0.00    -0.111 NA
ATOM     20  N   UNL     1      16.458 -23.847 -42.507  1.00  0.00    -0.224 N 
ATOM     21  N   UNL     1      17.952 -22.370 -42.888  1.00  0.00    -0.024 NA
ATOM     22  N   UNL     1      17.147 -22.827 -41.946  1.00  0.00    -0.045 NA
BRANCH  20  23
ATOM     23  C   UNL     1      15.487 -24.520 -41.683  1.00  0.00     0.111 C 
ATOM     24  C   UNL     1      14.013 -24.160 -41.885  1.00  0.00     0.027 C 
ATOM     25  C   UNL     1      15.743 -24.461 -40.169  1.00  0.00     0.027 C 
ATOM     26  C   UNL     1      13.363 -24.656 -40.600  1.00  0.00     0.002 C 
ATOM     27  C   UNL     1      14.369 -24.273 -39.524  1.00  0.00     0.002 C 
ENDBRANCH  20  23
ENDBRANCH   1  18
TORSDOF 4
ENDMDL
MODEL 5
REMARK VINA RESULT:    -7.361      3.288      5.840
REMARK INTER + INTRA:         -10.131
REMARK INTER:                  -8.882
REMARK INTRA:                  -1.249
REMARK UNBOUND:                -1.264
REMARK SMILES Cc1cc(C)c2cc([C@@H](O)c3nnnn3C3CCCC3)c(=O)[nH]c2c1
REMARK SMILES IDX 9 1 8 2 2 3 3 4 25 5 4 6 24 7 6 8 23 9 7 10 21 11 22 12 1 13
REMARK SMILES IDX 5 14 10 16 11 18 12 19 15 20 13 21 14 22 16 23 17 24 20 25
REMARK SMILES IDX 18 26 19 27
REMARK H PARENT 23 15 10 17
ROOT
ATOM      1  C   UNL     1      11.207 -22.119 -49.228  1.00  0.00     0.220 C 
ENDROOT
BRANCH   1   2
ATOM      2  C   UNL     1      12.380 -22.239 -48.280  1.00  0.00     0.054 C 
ATOM      3  C   UNL     1      15.918 -22.795 -44.655  1.00  0.00    -0.049 A 
ATOM      4  C   UNL     1      14.711 -23.241 -44.100  1.00  0.00     0.007 A 
ATOM      5  C   UNL     1      15.924 -22.307 -45.965  1.00  0.00     0.030 A 
ATOM      6  C   UNL     1      13.514 -23.230 -44.840  1.00  0.00    -0.042 A 
ATOM      7  C   UNL     1      14.744 -22.291 -46.707  1.00  0.00     0.049 A 
ATOM      8  C   UNL     1      13.533 -22.749 -46.163  1.00  0.00     0.002 A 
ATOM      9  N   UNL     1      14.772 -21.808 -48.020  1.00  0.00    -0.322 N 
ATOM     10  C   UNL     1      12.335 -22.692 -47.014  1.00  0.00     0.023 C 
ATOM     11  C   UNL     1      13.678 -21.760 -48.835  1.00  0.00     0.254 C 
ATOM     12  O   UNL     1      13.754 -21.352 -49.993  1.00  0.00    -0.269 OA
ATOM     13  C   UNL     1      17.173 -22.786 -43.833  1.00  0.00     0.044 C 
ATOM     14  C   UNL     1      12.254 -23.726 -44.183  1.00  0.00     0.045 C 
ATOM     15  H   UNL     1      15.640 -21.479 -48.420  1.00  0.00     0.170 HD
ENDBRANCH   1   2
BRANCH   1  16
ATOM     16  O   UNL     1      11.176 -20.830 -49.836  1.00  0.00    -0.380 OA
ATOM     17  H   UNL     1      11.303 -20.994 -50.795  1.00  0.00     0.212 HD
ENDBRANCH   1  16
BRANCH   1  18
ATOM     18  C   UNL     1      11.100 -23.139 -50.317  1.00  0.00     0.185 A 
ATOM     19  N   UNL     1      11.282 -22.867 -51.600  1.00  0.00    -0.111 NA
ATOM     20  N   UNL     1      10.754 -24.467 -50.219  1.00  0.00    -0.224 N 
ATOM     21  N   UNL     1      11.047 -24.022 -52.286  1.00  0.00    -0.024 NA
ATOM     22  N   UNL     1      10.718 -24.999 -51.462  1.00  0.00    -0.045 NA
BRANCH  20  23
ATOM     23  C   UNL     1      10.443 -25.340 -49.116  1.00  0.00     0.111 C 
ATOM     24  C   UNL     1       9.560 -24.784 -47.996  1.00  0.00     0.027 C 
ATOM     25  C   UNL     1      11.650 -25.999 -48.429  1.00  0.00     0.027 C 
ATOM     26  C   UNL     1       9.830 -25.741 -46.844  1.00  0.00     0.002 C 
ATOM     27  C   UNL     1      11.330 -25.989 -46.933  1.00  0.00     0.002 C 
ENDBRANCH  20  23
ENDBRANCH   1  18
TORSDOF 4
ENDMDL
MODEL 6
REMARK VINA RESULT:    -7.184      2.954      6.468
REMARK INTER + INTRA:          -9.917
REMARK INTER:                  -9.361
REMARK INTRA:                  -0.557
REMARK UNBOUND:                -1.264
REMARK SMILES Cc1cc(C)c2cc([C@@H](O)c3nnnn3C3CCCC3)c(=O)[nH]c2c1
REMARK SMILES IDX 9 1 8 2 2 3 3 4 25 5 4 6 24 7 6 8 23 9 7 10 21 11 22 12 1 13
REMARK SMILES IDX 5 14 10 16 11 18 12 19 15 20 13 21 14 22 16 23 17 24 20 25
REMARK SMILES IDX 18 26 19 27
REMARK H PARENT 23 15 10 17
ROOT
ATOM      1  C   UNL     1      16.717 -24.792 -45.148  1.00  0.00     0.220 C 
ENDROOT
BRANCH   1   2
ATOM      2  C   UNL     1      15.635 -24.289 -46.078  1.00  0.00     0.054 C 
ATOM      3  C   UNL     1      11.748 -23.160 -49.175  1.00  0.00    -0.049 A 
ATOM      4  C   UNL     1      11.496 -24.446 -48.677  1.00  0.00     0.007 A 
ATOM      5  C   UNL     1      12.916 -22.499 -48.786  1.00  0.00     0.030 A 
ATOM      6  C   UNL     1      12.379 -25.072 -47.778  1.00  0.00    -0.042 A 
ATOM      7  C   UNL     1      13.798 -23.110 -47.895  1.00  0.00     0.049 A 
ATOM      8  C   UNL     1      13.546 -24.392 -47.381  1.00  0.00     0.002 A 
ATOM      9  N   UNL     1      14.957 -22.427 -47.509  1.00  0.00    -0.322 N 
ATOM     10  C   UNL     1      14.531 -24.963 -46.452  1.00  0.00     0.023 C 
ATOM     11  C   UNL     1      15.879 -22.928 -46.636  1.00  0.00     0.254 C 
ATOM     12  O   UNL     1      16.871 -22.282 -46.304  1.00  0.00    -0.269 OA
ATOM     13  C   UNL     1      10.807 -22.530 -50.159  1.00  0.00     0.044 C 
ATOM     14  C   UNL     1      12.044 -26.453 -47.280  1.00  0.00     0.045 C 
ATOM     15  H   UNL     1      15.144 -21.503 -47.873  1.00  0.00     0.170 HD
ENDBRANCH   1   2
BRANCH   1  16
ATOM     16  O   UNL     1      17.953 -24.938 -45.842  1.00  0.00    -0.380 OA
ATOM     17  H   UNL     1      17.713 -24.964 -46.794  1.00  0.00     0.212 HD
ENDBRANCH   1  16
BRANCH   1  18
ATOM     18  C   UNL     1      16.981 -23.996 -43.910  1.00  0.00     0.185 A 
ATOM     19  N   UNL     1      18.041 -23.221 -43.746  1.00  0.00    -0.111 NA
ATOM     20  N   UNL     1      16.253 -23.955 -42.744  1.00  0.00    -0.224 N 
ATOM     21  N   UNL     1      17.967 -22.710 -42.484  1.00  0.00    -0.024 NA
ATOM     22  N   UNL     1      16.890 -23.153 -41.861  1.00  0.00    -0.045 NA
BRANCH  20  23
ATOM     23  C   UNL     1      15.021 -24.566 -42.311  1.00  0.00     0.111 C 
ATOM     24  C   UNL     1      13.719 -24.057 -42.934  1.00  0.00     0.027 C 
ATOM     25  C   UNL     1      14.791 -24.596 -40.792  1.00  0.00     0.027 C 
ATOM     26  C   UNL     1      12.661 -24.542 -41.953  1.00  0.00     0.002 C 
ATOM     27  C   UNL     1      13.303 -24.304 -40.593  1.00  0.00     0.002 C 
ENDBRANCH  20  23
ENDBRANCH   1  18
TORSDOF 4
ENDMDL
MODEL 7
REMARK VINA RESULT:    -7.088      2.423      3.432
REMARK INTER + INTRA:          -9.802
REMARK INTER:                  -9.122
REMARK INTRA:                  -0.681
REMARK UNBOUND:                -1.264
REMARK SMILES Cc1cc(C)c2cc([C@@H](O)c3nnnn3C3CCCC3)c(=O)[nH]c2c1
REMARK SMILES IDX 9 1 8 2 2 3 3 4 25 5 4 6 24 7 6 8 23 9 7 10 21 11 22 12 1 13
REMARK SMILES IDX 5 14 10 16 11 18 12 19 15 20 13 21 14 22 16 23 17 24 20 25
REMARK SMILES IDX 18 26 19 27
REMARK H PARENT 23 15 10 17
ROOT
ATOM      1  C   UNL     1      15.688 -24.408 -45.682  1.00  0.00     0.220 C 
ENDROOT
BRANCH   1   2
ATOM      2  C   UNL     1      15.424 -24.350 -44.193  1.00  0.00     0.054 C 
ATOM      3  C   UNL     1      14.026 -24.486 -39.294  1.00  0.00    -0.049 A 
ATOM      4  C   UNL     1      13.145 -25.333 -39.980  1.00  0.00     0.007 A 
ATOM      5  C   UNL     1      15.014 -23.809 -40.014  1.00  0.00     0.030 A 
ATOM      6  C   UNL     1      13.250 -25.534 -41.369  1.00  0.00    -0.042 A 
ATOM      7  C   UNL     1      15.128 -24.000 -41.390  1.00  0.00     0.049 A 
ATOM      8  C   UNL     1      14.259 -24.859 -42.082  1.00  0.00     0.002 A 
ATOM      9  N   UNL     1      16.131 -23.322 -42.092  1.00  0.00    -0.322 N 
ATOM     10  C   UNL     1      14.446 -24.999 -43.534  1.00  0.00     0.023 C 
ATOM     11  C   UNL     1      16.336 -23.447 -43.436  1.00  0.00     0.254 C 
ATOM     12  O   UNL     1      17.247 -22.850 -44.007  1.00  0.00    -0.269 OA
ATOM     13  C   UNL     1      13.869 -24.263 -37.819  1.00  0.00     0.044 C 
ATOM     14  C   UNL     1      12.273 -26.461 -42.041  1.00  0.00     0.045 C 
ATOM     15  H   UNL     1      16.762 -22.704 -41.600  1.00  0.00     0.170 HD
ENDBRANCH   1   2
BRANCH   1  16
ATOM     16  O   UNL     1      16.645 -25.419 -45.987  1.00  0.00    -0.380 OA
ATOM     17  H   UNL     1      17.508 -25.056 -45.692  1.00  0.00     0.212 HD
ENDBRANCH   1  16
BRANCH   1  18
ATOM     18  C   UNL     1      14.509 -24.610 -46.579  1.00  0.00     0.185 A 
ATOM     19  N   UNL     1      13.981 -25.795 -46.843  1.00  0.00    -0.111 NA
ATOM     20  N   UNL     1      13.816 -23.675 -47.310  1.00  0.00    -0.224 N 
ATOM     21  N   UNL     1      12.970 -25.588 -47.735  1.00  0.00    -0.024 NA
ATOM     22  N   UNL     1      12.863 -24.306 -48.034  1.00  0.00    -0.045 NA
BRANCH  20  23
ATOM     23  C   UNL     1      13.906 -22.242 -47.445  1.00  0.00     0.111 C 
ATOM     24  C   UNL     1      12.620 -21.430 -47.272  1.00  0.00     0.027 C 
ATOM     25  C   UNL     1      14.567 -21.736 -48.737  1.00  0.00     0.027 C 
ATOM     26  C   UNL     1      12.968 -20.101 -47.926  1.00  0.00     0.002 C 
ATOM     27  C   UNL     1      13.758 -20.510 -49.162  1.00  0.00     0.002 C 
ENDBRANCH  20  23
ENDBRANCH   1  18
TORSDOF 4
ENDMDL
MODEL 8
REMARK VINA RESULT:    -6.802      3.977      6.374
REMARK INTER + INTRA:          -9.457
REMARK INTER:                  -8.383
REMARK INTRA:                  -1.074
REMARK UNBOUND:                -1.264
REMARK SMILES Cc1cc(C)c2cc([C@@H](O)c3nnnn3C3CCCC3)c(=O)[nH]c2c1
REMARK SMILES IDX 9 1 8 2 2 3 3 4 25 5 4 6 24 7 6 8 23 9 7 10 21 11 22 12 1 13
REMARK SMILES IDX 5 14 10 16 11 18 12 19 15 20 13 21 14 22 16 23 17 24 20 25
REMARK SMILES IDX 18 26 19 27
REMARK H PARENT 23 15 10 17
ROOT
ATOM      1  C   UNL     1      11.547 -21.671 -49.518  1.00  0.00     0.220 C 
ENDROOT
BRANCH   1   2
ATOM      2  C   UNL     1      12.390 -22.206 -48.382  1.00  0.00     0.054 C 
ATOM      3  C   UNL     1      15.063 -24.568 -44.742  1.00  0.00    -0.049 A 
ATOM      4  C   UNL     1      14.585 -25.572 -45.596  1.00  0.00     0.007 A 
ATOM      5  C   UNL     1      14.731 -23.237 -45.007  1.00  0.00     0.030 A 
ATOM      6  C   UNL     1      13.803 -25.266 -46.725  1.00  0.00    -0.042 A 
ATOM      7  C   UNL     1      13.956 -22.922 -46.123  1.00  0.00     0.049 A 
ATOM      8  C   UNL     1      13.486 -23.920 -46.992  1.00  0.00     0.002 A 
ATOM      9  N   UNL     1      13.643 -21.582 -46.378  1.00  0.00    -0.322 N 
ATOM     10  C   UNL     1      12.671 -23.500 -48.141  1.00  0.00     0.023 C 
ATOM     11  C   UNL     1      12.902 -21.164 -47.446  1.00  0.00     0.254 C 
ATOM     12  O   UNL     1      12.674 -19.973 -47.646  1.00  0.00    -0.269 OA
ATOM     13  C   UNL     1      15.866 -24.926 -43.526  1.00  0.00     0.044 C 
ATOM     14  C   UNL     1      13.327 -26.393 -47.601  1.00  0.00     0.045 C 
ATOM     15  H   UNL     1      13.980 -20.857 -45.759  1.00  0.00     0.170 HD
ENDBRANCH   1   2
BRANCH   1  16
ATOM     16  O   UNL     1      12.231 -20.630 -50.210  1.00  0.00    -0.380 OA
ATOM     17  H   UNL     1      12.965 -20.364 -49.615  1.00  0.00     0.212 HD
ENDBRANCH   1  16
BRANCH   1  18
ATOM     18  C   UNL     1      11.067 -22.656 -50.536  1.00  0.00     0.185 A 
ATOM     19  N   UNL     1      11.534 -22.723 -51.773  1.00  0.00    -0.111 NA
ATOM     20  N   UNL     1      10.065 -23.592 -50.420  1.00  0.00    -0.224 N 
ATOM     21  N   UNL     1      10.821 -23.694 -52.413  1.00  0.00    -0.024 NA
ATOM     22  N   UNL     1       9.921 -24.225 -51.606  1.00  0.00    -0.045 NA
BRANCH  20  23
ATOM     23  C   UNL     1       9.197 -24.000 -49.344  1.00  0.00     0.111 C 
ATOM     24  C   UNL     1       9.479 -25.348 -48.676  1.00  0.00     0.027 C 
ATOM     25  C   UNL     1       7.693 -23.979 -49.659  1.00  0.00     0.027 C 
ATOM     26  C   UNL     1       8.165 -25.660 -47.974  1.00  0.00     0.002 C 
ATOM     27  C   UNL     1       7.111 -25.221 -48.981  1.00  0.00     0.002 C 
ENDBRANCH  20  23
ENDBRANCH   1  18
TORSDOF 4
ENDMDL
MODEL 9
REMARK VINA RESULT:    -6.696      2.842      4.179
REMARK INTER + INTRA:          -9.330
REMARK INTER:                  -8.344
REMARK INTRA:                  -0.986
REMARK UNBOUND:                -1.264
REMARK SMILES Cc1cc(C)c2cc([C@@H](O)c3nnnn3C3CCCC3)c(=O)[nH]c2c1
REMARK SMILES IDX 9 1 8 2 2 3 3 4 25 5 4 6 24 7 6 8 23 9 7 10 21 11 22 12 1 13
REMARK SMILES IDX 5 14 10 16 11 18 12 19 15 20 13 21 14 22 16 23 17 24 20 25
REMARK SMILES IDX 18 26 19 27
REMARK H PARENT 23 15 10 17
ROOT
ATOM      1  C   UNL     1      11.772 -25.205 -49.045  1.00  0.00     0.220 C 
ENDROOT
BRANCH   1   2
ATOM      2  C   UNL     1      12.105 -24.985 -47.586  1.00  0.00     0.054 C 
ATOM      3  C   UNL     1      13.822 -24.278 -42.839  1.00  0.00    -0.049 A 
ATOM      4  C   UNL     1      14.948 -24.255 -43.674  1.00  0.00     0.007 A 
ATOM      5  C   UNL     1      12.562 -24.492 -43.405  1.00  0.00     0.030 A 
ATOM      6  C   UNL     1      14.833 -24.418 -45.067  1.00  0.00    -0.042 A 
ATOM      7  C   UNL     1      12.437 -24.655 -44.784  1.00  0.00     0.049 A 
ATOM      8  C   UNL     1      13.558 -24.619 -45.629  1.00  0.00     0.002 A 
ATOM      9  N   UNL     1      11.165 -24.858 -45.333  1.00  0.00    -0.322 N 
ATOM     10  C   UNL     1      13.336 -24.805 -47.070  1.00  0.00     0.023 C 
ATOM     11  C   UNL     1      10.931 -25.017 -46.668  1.00  0.00     0.254 C 
ATOM     12  O   UNL     1       9.793 -25.166 -47.110  1.00  0.00    -0.269 OA
ATOM     13  C   UNL     1      13.976 -24.136 -41.354  1.00  0.00     0.044 C 
ATOM     14  C   UNL     1      16.084 -24.379 -45.904  1.00  0.00     0.045 C 
ATOM     15  H   UNL     1      10.353 -24.882 -44.732  1.00  0.00     0.170 HD
ENDBRANCH   1   2
BRANCH   1  16
ATOM     16  O   UNL     1      10.977 -26.377 -49.210  1.00  0.00    -0.380 OA
ATOM     17  H   UNL     1      10.988 -26.822 -48.336  1.00  0.00     0.212 HD
ENDBRANCH   1  16
BRANCH   1  18
ATOM     18  C   UNL     1      11.092 -24.087 -49.768  1.00  0.00     0.185 A 
ATOM     19  N   UNL     1      10.013 -24.244 -50.518  1.00  0.00    -0.111 NA
ATOM     20  N   UNL     1      11.461 -22.764 -49.845  1.00  0.00    -0.224 N 
ATOM     21  N   UNL     1       9.722 -23.025 -51.055  1.00  0.00    -0.024 NA
ATOM     22  N   UNL     1      10.597 -22.118 -50.660  1.00  0.00    -0.045 NA
BRANCH  20  23
ATOM     23  C   UNL     1      12.524 -21.986 -49.259  1.00  0.00     0.111 C 
ATOM     24  C   UNL     1      12.245 -21.298 -47.921  1.00  0.00     0.027 C 
ATOM     25  C   UNL     1      13.148 -20.920 -50.172  1.00  0.00     0.027 C 
ATOM     26  C   UNL     1      13.335 -20.237 -47.851  1.00  0.00     0.002 C 
ATOM     27  C   UNL     1      13.405 -19.707 -49.277  1.00  0.00     0.002 C 
ENDBRANCH  20  23
ENDBRANCH   1  18
TORSDOF 4
ENDMDL
