MODEL 1
REMARK VINA RESULT:    -7.818      0.000      0.000
REMARK INTER + INTRA:         -10.812
REMARK INTER:                 -10.103
REMARK INTRA:                  -0.709
REMARK UNBOUND:                -0.709
REMARK SMILES CC(C)c1n[n-]c(SCC(=O)NC(=O)Nc2ccccc2F)n1
REMARK SMILES IDX 8 1 7 2 4 3 5 4 23 5 6 6 2 7 1 8 3 9 9 10 10 11 11 12 12 13
REMARK SMILES IDX 13 14 14 15 15 16 16 19 17 20 21 21 18 22 20 23 19 24 22 25
REMARK H PARENT 12 17 15 18
ROOT
ATOM      1  S   UNL     1      15.630 -24.694 -46.185  1.00  0.00    -0.124 SA
ENDROOT
BRANCH   1   2
ATOM      2  C   UNL     1      14.220 -23.630 -46.413  1.00  0.00    -0.006 A 
ATOM      3  C   UNL     1      12.929 -22.166 -47.253  1.00  0.00     0.030 A 
ATOM      4  N   UNL     1      12.519 -22.364 -45.985  1.00  0.00    -0.267 NA
ATOM      5  N   UNL     1      14.033 -22.896 -47.526  1.00  0.00    -0.417 NA
ATOM      6  N   UNL     1      13.347 -23.314 -45.452  1.00  0.00    -0.347 NA
BRANCH   3   7
ATOM      7  C   UNL     1      12.288 -21.223 -48.212  1.00  0.00     0.028 C 
ATOM      8  C   UNL     1      11.450 -21.972 -49.249  1.00  0.00     0.014 C 
ATOM      9  C   UNL     1      13.319 -20.319 -48.890  1.00  0.00     0.014 C 
ENDBRANCH   3   7
ENDBRANCH   1   2
BRANCH   1  10
ATOM     10  C   UNL     1      16.920 -23.422 -46.172  1.00  0.00     0.174 C 
BRANCH  10  11
ATOM     11  C   UNL     1      17.145 -22.892 -44.764  1.00  0.00     0.238 C 
ATOM     12  O   UNL     1      17.458 -21.716 -44.579  1.00  0.00    -0.274 OA
ATOM     13  N   UNL     1      17.091 -23.864 -43.787  1.00  0.00    -0.277 N 
ATOM     14  C   UNL     1      16.618 -23.557 -42.529  1.00  0.00     0.325 C 
ATOM     15  O   UNL     1      17.081 -22.657 -41.835  1.00  0.00    -0.248 OA
ATOM     16  N   UNL     1      15.651 -24.462 -42.127  1.00  0.00    -0.305 N 
ATOM     17  H   UNL     1      16.690 -24.742 -44.131  1.00  0.00     0.174 HD
ATOM     18  H   UNL     1      15.316 -25.110 -42.851  1.00  0.00     0.171 HD
BRANCH  16  19
ATOM     19  C   UNL     1      14.986 -24.531 -40.884  1.00  0.00     0.078 A 
ATOM     20  C   UNL     1      13.681 -24.088 -40.667  1.00  0.00     0.029 A 
ATOM     21  C   UNL     1      15.688 -25.074 -39.800  1.00  0.00     0.146 A 
ATOM     22  C   UNL     1      13.096 -24.193 -39.397  1.00  0.00     0.002 A 
ATOM     23  C   UNL     1      15.115 -25.181 -38.535  1.00  0.00     0.041 A 
ATOM     24  C   UNL     1      13.811 -24.739 -38.333  1.00  0.00     0.003 A 
ATOM     25  F   UNL     1      16.949 -25.502 -39.964  1.00  0.00    -0.205 F 
ENDBRANCH  16  19
ENDBRANCH  10  11
ENDBRANCH   1  10
TORSDOF 5
ENDMDL
MODEL 2
REMARK VINA RESULT:    -7.751      6.887      9.485
REMARK INTER + INTRA:         -10.725
REMARK INTER:                 -10.448
REMARK INTRA:                  -0.276
REMARK UNBOUND:                -0.709
REMARK SMILES CC(C)c1n[n-]c(SCC(=O)NC(=O)Nc2ccccc2F)n1
REMARK SMILES IDX 8 1 7 2 4 3 5 4 23 5 6 6 2 7 1 8 3 9 9 10 10 11 11 12 12 13
REMARK SMILES IDX 13 14 14 15 15 16 16 19 17 20 21 21 18 22 20 23 19 24 22 25
REMARK H PARENT 12 17 15 18
ROOT
ATOM      1  S   UNL     1      14.920 -17.457 -52.607  1.00  0.00    -0.124 SA
ENDROOT
BRANCH   1   2
ATOM      2  C   UNL     1      16.510 -16.825 -53.103  1.00  0.00    -0.006 A 
ATOM      3  C   UNL     1      18.478 -16.033 -52.982  1.00  0.00     0.030 A 
ATOM      4  N   UNL     1      18.050 -15.819 -54.241  1.00  0.00    -0.267 NA
ATOM      5  N   UNL     1      17.509 -16.601 -52.230  1.00  0.00    -0.417 NA
ATOM      6  N   UNL     1      16.786 -16.338 -54.316  1.00  0.00    -0.347 NA
BRANCH   3   7
ATOM      7  C   UNL     1      19.821 -15.644 -52.468  1.00  0.00     0.028 C 
ATOM      8  C   UNL     1      20.352 -14.404 -53.188  1.00  0.00     0.014 C 
ATOM      9  C   UNL     1      20.818 -16.800 -52.561  1.00  0.00     0.014 C 
ENDBRANCH   3   7
ENDBRANCH   1   2
BRANCH   1  10
ATOM     10  C   UNL     1      15.070 -19.123 -53.301  1.00  0.00     0.174 C 
BRANCH  10  11
ATOM     11  C   UNL     1      14.037 -20.059 -52.692  1.00  0.00     0.238 C 
ATOM     12  O   UNL     1      13.455 -20.889 -53.390  1.00  0.00    -0.274 OA
ATOM     13  N   UNL     1      13.751 -19.790 -51.370  1.00  0.00    -0.277 N 
ATOM     14  C   UNL     1      13.417 -20.815 -50.510  1.00  0.00     0.325 C 
ATOM     15  O   UNL     1      12.494 -21.596 -50.718  1.00  0.00    -0.248 OA
ATOM     16  N   UNL     1      14.177 -20.761 -49.355  1.00  0.00    -0.305 N 
ATOM     17  H   UNL     1      14.434 -19.154 -50.944  1.00  0.00     0.174 HD
ATOM     18  H   UNL     1      14.961 -20.098 -49.365  1.00  0.00     0.171 HD
BRANCH  16  19
ATOM     19  C   UNL     1      14.082 -21.584 -48.211  1.00  0.00     0.078 A 
ATOM     20  C   UNL     1      15.091 -22.444 -47.778  1.00  0.00     0.029 A 
ATOM     21  C   UNL     1      12.894 -21.534 -47.472  1.00  0.00     0.146 A 
ATOM     22  C   UNL     1      14.913 -23.229 -46.630  1.00  0.00     0.002 A 
ATOM     23  C   UNL     1      12.707 -22.311 -46.330  1.00  0.00     0.041 A 
ATOM     24  C   UNL     1      13.723 -23.162 -45.907  1.00  0.00     0.003 A 
ATOM     25  F   UNL     1      11.894 -20.727 -47.861  1.00  0.00    -0.205 F 
ENDBRANCH  16  19
ENDBRANCH  10  11
ENDBRANCH   1  10
TORSDOF 5
ENDMDL
MODEL 3
REMARK VINA RESULT:    -7.521      4.009      5.431
REMARK INTER + INTRA:         -10.428
REMARK INTER:                 -10.387
REMARK INTRA:                  -0.041
REMARK UNBOUND:                -0.709
REMARK SMILES CC(C)c1n[n-]c(SCC(=O)NC(=O)Nc2ccccc2F)n1
REMARK SMILES IDX 8 1 7 2 4 3 5 4 23 5 6 6 2 7 1 8 3 9 9 10 10 11 11 12 12 13
REMARK SMILES IDX 13 14 14 15 15 16 16 19 17 20 21 21 18 22 20 23 19 24 22 25
REMARK H PARENT 12 17 15 18
ROOT
ATOM      1  S   UNL     1      12.872 -20.447 -49.081  1.00  0.00    -0.124 SA
ENDROOT
BRANCH   1   2
ATOM      2  C   UNL     1      13.391 -20.317 -50.781  1.00  0.00    -0.006 A 
ATOM      3  C   UNL     1      14.134 -19.490 -52.592  1.00  0.00     0.030 A 
ATOM      4  N   UNL     1      13.504 -20.635 -52.917  1.00  0.00    -0.267 NA
ATOM      5  N   UNL     1      14.020 -19.233 -51.270  1.00  0.00    -0.417 NA
ATOM      6  N   UNL     1      13.035 -21.168 -51.747  1.00  0.00    -0.347 NA
BRANCH   3   7
ATOM      7  C   UNL     1      14.817 -18.594 -53.566  1.00  0.00     0.028 C 
ATOM      8  C   UNL     1      16.211 -19.116 -53.917  1.00  0.00     0.014 C 
ATOM      9  C   UNL     1      14.884 -17.153 -53.058  1.00  0.00     0.014 C 
ENDBRANCH   3   7
ENDBRANCH   1   2
BRANCH   1  10
ATOM     10  C   UNL     1      12.568 -22.232 -49.034  1.00  0.00     0.174 C 
BRANCH  10  11
ATOM     11  C   UNL     1      12.033 -22.655 -47.675  1.00  0.00     0.238 C 
ATOM     12  O   UNL     1      11.056 -23.399 -47.589  1.00  0.00    -0.274 OA
ATOM     13  N   UNL     1      12.656 -22.033 -46.612  1.00  0.00    -0.277 N 
ATOM     14  C   UNL     1      12.810 -22.698 -45.414  1.00  0.00     0.325 C 
ATOM     15  O   UNL     1      11.875 -23.187 -44.788  1.00  0.00    -0.248 OA
ATOM     16  N   UNL     1      14.121 -22.630 -44.974  1.00  0.00    -0.305 N 
ATOM     17  H   UNL     1      13.521 -21.560 -46.890  1.00  0.00     0.174 HD
ATOM     18  H   UNL     1      14.800 -22.255 -45.648  1.00  0.00     0.171 HD
BRANCH  16  19
ATOM     19  C   UNL     1      14.659 -23.118 -43.764  1.00  0.00     0.078 A 
ATOM     20  C   UNL     1      14.006 -24.018 -42.921  1.00  0.00     0.029 A 
ATOM     21  C   UNL     1      15.928 -22.661 -43.387  1.00  0.00     0.146 A 
ATOM     22  C   UNL     1      14.613 -24.450 -41.734  1.00  0.00     0.002 A 
ATOM     23  C   UNL     1      16.539 -23.086 -42.208  1.00  0.00     0.041 A 
ATOM     24  C   UNL     1      15.878 -23.986 -41.378  1.00  0.00     0.003 A 
ATOM     25  F   UNL     1      16.585 -21.788 -44.164  1.00  0.00    -0.205 F 
ENDBRANCH  16  19
ENDBRANCH  10  11
ENDBRANCH   1  10
TORSDOF 5
ENDMDL
MODEL 4
REMARK VINA RESULT:    -7.389      1.192      1.602
REMARK INTER + INTRA:         -10.257
REMARK INTER:                  -9.633
REMARK INTRA:                  -0.624
REMARK UNBOUND:                -0.709
REMARK SMILES CC(C)c1n[n-]c(SCC(=O)NC(=O)Nc2ccccc2F)n1
REMARK SMILES IDX 8 1 7 2 4 3 5 4 23 5 6 6 2 7 1 8 3 9 9 10 10 11 11 12 12 13
REMARK SMILES IDX 13 14 14 15 15 16 16 19 17 20 21 21 18 22 20 23 19 24 22 25
REMARK H PARENT 12 17 15 18
ROOT
ATOM      1  S   UNL     1      15.434 -24.453 -46.279  1.00  0.00    -0.124 SA
ENDROOT
BRANCH   1   2
ATOM      2  C   UNL     1      13.897 -23.618 -46.614  1.00  0.00    -0.006 A 
ATOM      3  C   UNL     1      12.262 -22.782 -47.683  1.00  0.00     0.030 A 
ATOM      4  N   UNL     1      12.232 -22.246 -46.448  1.00  0.00    -0.267 NA
ATOM      5  N   UNL     1      13.332 -23.593 -47.836  1.00  0.00    -0.417 NA
ATOM      6  N   UNL     1      13.281 -22.794 -45.761  1.00  0.00    -0.347 NA
BRANCH   3   7
ATOM      7  C   UNL     1      11.278 -22.478 -48.761  1.00  0.00     0.028 C 
ATOM      8  C   UNL     1      10.925 -23.733 -49.559  1.00  0.00     0.014 C 
ATOM      9  C   UNL     1      11.778 -21.365 -49.683  1.00  0.00     0.014 C 
ENDBRANCH   3   7
ENDBRANCH   1   2
BRANCH   1  10
ATOM     10  C   UNL     1      16.524 -23.006 -46.278  1.00  0.00     0.174 C 
BRANCH  10  11
ATOM     11  C   UNL     1      16.928 -22.633 -44.860  1.00  0.00     0.238 C 
ATOM     12  O   UNL     1      17.330 -21.498 -44.600  1.00  0.00    -0.274 OA
ATOM     13  N   UNL     1      16.918 -23.694 -43.979  1.00  0.00    -0.277 N 
ATOM     14  C   UNL     1      16.599 -23.492 -42.653  1.00  0.00     0.325 C 
ATOM     15  O   UNL     1      17.187 -22.691 -41.932  1.00  0.00    -0.248 OA
ATOM     16  N   UNL     1      15.627 -24.384 -42.234  1.00  0.00    -0.305 N 
ATOM     17  H   UNL     1      16.430 -24.512 -44.359  1.00  0.00     0.174 HD
ATOM     18  H   UNL     1      15.179 -24.937 -42.974  1.00  0.00     0.171 HD
BRANCH  16  19
ATOM     19  C   UNL     1      15.094 -24.544 -40.937  1.00  0.00     0.078 A 
ATOM     20  C   UNL     1      15.829 -24.982 -39.835  1.00  0.00     0.029 A 
ATOM     21  C   UNL     1      13.737 -24.250 -40.752  1.00  0.00     0.146 A 
ATOM     22  C   UNL     1      15.219 -25.116 -38.580  1.00  0.00     0.002 A 
ATOM     23  C   UNL     1      13.122 -24.380 -39.508  1.00  0.00     0.041 A 
ATOM     24  C   UNL     1      13.867 -24.815 -38.416  1.00  0.00     0.003 A 
ATOM     25  F   UNL     1      12.992 -23.836 -41.788  1.00  0.00    -0.205 F 
ENDBRANCH  16  19
ENDBRANCH  10  11
ENDBRANCH   1  10
TORSDOF 5
ENDMDL
MODEL 5
REMARK VINA RESULT:    -7.299      4.200      5.921
REMARK INTER + INTRA:         -10.141
REMARK INTER:                  -9.047
REMARK INTRA:                  -1.094
REMARK UNBOUND:                -0.709
REMARK SMILES CC(C)c1n[n-]c(SCC(=O)NC(=O)Nc2ccccc2F)n1
REMARK SMILES IDX 8 1 7 2 4 3 5 4 23 5 6 6 2 7 1 8 3 9 9 10 10 11 11 12 12 13
REMARK SMILES IDX 13 14 14 15 15 16 16 19 17 20 21 21 18 22 20 23 19 24 22 25
REMARK H PARENT 12 17 15 18
ROOT
ATOM      1  S   UNL     1      10.147 -23.081 -49.829  1.00  0.00    -0.124 SA
ENDROOT
BRANCH   1   2
ATOM      2  C   UNL     1      11.379 -21.795 -49.838  1.00  0.00    -0.006 A 
ATOM      3  C   UNL     1      12.977 -20.555 -50.490  1.00  0.00     0.030 A 
ATOM      4  N   UNL     1      12.869 -20.381 -49.159  1.00  0.00    -0.267 NA
ATOM      5  N   UNL     1      12.101 -21.486 -50.931  1.00  0.00    -0.417 NA
ATOM      6  N   UNL     1      11.833 -21.175 -48.745  1.00  0.00    -0.347 NA
BRANCH   3   7
ATOM      7  C   UNL     1      13.970 -19.859 -51.356  1.00  0.00     0.028 C 
ATOM      8  C   UNL     1      14.033 -18.365 -51.035  1.00  0.00     0.014 C 
ATOM      9  C   UNL     1      13.682 -20.088 -52.840  1.00  0.00     0.014 C 
ENDBRANCH   3   7
ENDBRANCH   1   2
BRANCH   1  10
ATOM     10  C   UNL     1      11.182 -24.443 -50.425  1.00  0.00     0.174 C 
BRANCH  10  11
ATOM     11  C   UNL     1      11.862 -25.154 -49.266  1.00  0.00     0.238 C 
ATOM     12  O   UNL     1      12.298 -26.298 -49.400  1.00  0.00    -0.274 OA
ATOM     13  N   UNL     1      11.813 -24.456 -48.077  1.00  0.00    -0.277 N 
ATOM     14  C   UNL     1      12.847 -24.559 -47.170  1.00  0.00     0.325 C 
ATOM     15  O   UNL     1      13.239 -25.628 -46.712  1.00  0.00    -0.248 OA
ATOM     16  N   UNL     1      13.285 -23.308 -46.772  1.00  0.00    -0.305 N 
ATOM     17  H   UNL     1      11.529 -23.480 -48.209  1.00  0.00     0.174 HD
ATOM     18  H   UNL     1      12.911 -22.513 -47.304  1.00  0.00     0.171 HD
BRANCH  16  19
ATOM     19  C   UNL     1      14.266 -22.995 -45.807  1.00  0.00     0.078 A 
ATOM     20  C   UNL     1      14.091 -23.151 -44.431  1.00  0.00     0.029 A 
ATOM     21  C   UNL     1      15.489 -22.489 -46.264  1.00  0.00     0.146 A 
ATOM     22  C   UNL     1      15.119 -22.813 -43.540  1.00  0.00     0.002 A 
ATOM     23  C   UNL     1      16.517 -22.150 -45.386  1.00  0.00     0.041 A 
ATOM     24  C   UNL     1      16.331 -22.313 -44.017  1.00  0.00     0.003 A 
ATOM     25  F   UNL     1      15.694 -22.314 -47.579  1.00  0.00    -0.205 F 
ENDBRANCH  16  19
ENDBRANCH  10  11
ENDBRANCH   1  10
TORSDOF 5
ENDMDL
MODEL 6
REMARK VINA RESULT:    -7.229      3.207      4.144
REMARK INTER + INTRA:         -10.051
REMARK INTER:                  -9.931
REMARK INTRA:                  -0.119
REMARK UNBOUND:                -0.709
REMARK SMILES CC(C)c1n[n-]c(SCC(=O)NC(=O)Nc2ccccc2F)n1
REMARK SMILES IDX 8 1 7 2 4 3 5 4 23 5 6 6 2 7 1 8 3 9 9 10 10 11 11 12 12 13
REMARK SMILES IDX 13 14 14 15 15 16 16 19 17 20 21 21 18 22 20 23 19 24 22 25
REMARK H PARENT 12 17 15 18
ROOT
ATOM      1  S   UNL     1      11.532 -23.555 -49.407  1.00  0.00    -0.124 SA
ENDROOT
BRANCH   1   2
ATOM      2  C   UNL     1      12.121 -21.898 -49.689  1.00  0.00    -0.006 A 
ATOM      3  C   UNL     1      12.955 -20.207 -50.670  1.00  0.00     0.030 A 
ATOM      4  N   UNL     1      12.998 -19.950 -49.348  1.00  0.00    -0.267 NA
ATOM      5  N   UNL     1      12.473 -21.447 -50.908  1.00  0.00    -0.417 NA
ATOM      6  N   UNL     1      12.452 -21.037 -48.722  1.00  0.00    -0.347 NA
BRANCH   3   7
ATOM      7  C   UNL     1      13.431 -19.273 -51.729  1.00  0.00     0.028 C 
ATOM      8  C   UNL     1      14.230 -20.013 -52.802  1.00  0.00     0.014 C 
ATOM      9  C   UNL     1      14.242 -18.118 -51.141  1.00  0.00     0.014 C 
ENDBRANCH   3   7
ENDBRANCH   1   2
BRANCH   1  10
ATOM     10  C   UNL     1      12.619 -23.989 -48.025  1.00  0.00     0.174 C 
BRANCH  10  11
ATOM     11  C   UNL     1      11.908 -23.798 -46.695  1.00  0.00     0.238 C 
ATOM     12  O   UNL     1      10.717 -24.086 -46.573  1.00  0.00    -0.274 OA
ATOM     13  N   UNL     1      12.678 -23.174 -45.735  1.00  0.00    -0.277 N 
ATOM     14  C   UNL     1      12.516 -23.490 -44.403  1.00  0.00     0.325 C 
ATOM     15  O   UNL     1      11.440 -23.417 -43.818  1.00  0.00    -0.248 OA
ATOM     16  N   UNL     1      13.733 -23.779 -43.810  1.00  0.00    -0.305 N 
ATOM     17  H   UNL     1      13.669 -23.139 -45.992  1.00  0.00     0.174 HD
ATOM     18  H   UNL     1      14.531 -23.875 -44.449  1.00  0.00     0.171 HD
BRANCH  16  19
ATOM     19  C   UNL     1      13.992 -24.072 -42.454  1.00  0.00     0.078 A 
ATOM     20  C   UNL     1      13.021 -24.484 -41.540  1.00  0.00     0.029 A 
ATOM     21  C   UNL     1      15.310 -23.933 -41.999  1.00  0.00     0.146 A 
ATOM     22  C   UNL     1      13.366 -24.753 -40.208  1.00  0.00     0.002 A 
ATOM     23  C   UNL     1      15.662 -24.198 -40.677  1.00  0.00     0.041 A 
ATOM     24  C   UNL     1      14.684 -24.611 -39.777  1.00  0.00     0.003 A 
ATOM     25  F   UNL     1      16.271 -23.529 -42.844  1.00  0.00    -0.205 F 
ENDBRANCH  16  19
ENDBRANCH  10  11
ENDBRANCH   1  10
TORSDOF 5
ENDMDL
MODEL 7
REMARK VINA RESULT:    -7.177      2.545      3.159
REMARK INTER + INTRA:          -9.983
REMARK INTER:                  -9.567
REMARK INTRA:                  -0.416
REMARK UNBOUND:                -0.709
REMARK SMILES CC(C)c1n[n-]c(SCC(=O)NC(=O)Nc2ccccc2F)n1
REMARK SMILES IDX 8 1 7 2 4 3 5 4 23 5 6 6 2 7 1 8 3 9 9 10 10 11 11 12 12 13
REMARK SMILES IDX 13 14 14 15 15 16 16 19 17 20 21 21 18 22 20 23 19 24 22 25
REMARK H PARENT 12 17 15 18
ROOT
ATOM      1  S   UNL     1      13.549 -21.968 -46.898  1.00  0.00    -0.124 SA
ENDROOT
BRANCH   1   2
ATOM      2  C   UNL     1      13.043 -21.398 -48.508  1.00  0.00    -0.006 A 
ATOM      3  C   UNL     1      12.988 -20.272 -50.310  1.00  0.00     0.030 A 
ATOM      4  N   UNL     1      11.800 -20.897 -50.206  1.00  0.00    -0.267 NA
ATOM      5  N   UNL     1      13.760 -20.514 -49.227  1.00  0.00    -0.417 NA
ATOM      6  N   UNL     1      11.843 -21.628 -49.049  1.00  0.00    -0.347 NA
BRANCH   3   7
ATOM      7  C   UNL     1      13.381 -19.384 -51.439  1.00  0.00     0.028 C 
ATOM      8  C   UNL     1      13.988 -20.186 -52.591  1.00  0.00     0.014 C 
ATOM      9  C   UNL     1      14.332 -18.277 -50.982  1.00  0.00     0.014 C 
ENDBRANCH   3   7
ENDBRANCH   1   2
BRANCH   1  10
ATOM     10  C   UNL     1      15.276 -22.353 -47.286  1.00  0.00     0.174 C 
BRANCH  10  11
ATOM     11  C   UNL     1      15.801 -23.458 -46.383  1.00  0.00     0.238 C 
ATOM     12  O   UNL     1      16.922 -23.935 -46.562  1.00  0.00    -0.274 OA
ATOM     13  N   UNL     1      14.873 -23.926 -45.476  1.00  0.00    -0.277 N 
ATOM     14  C   UNL     1      15.279 -24.374 -44.237  1.00  0.00     0.325 C 
ATOM     15  O   UNL     1      16.116 -25.257 -44.079  1.00  0.00    -0.248 OA
ATOM     16  N   UNL     1      14.538 -23.783 -43.228  1.00  0.00    -0.305 N 
ATOM     17  H   UNL     1      14.056 -23.312 -45.401  1.00  0.00     0.174 HD
ATOM     18  H   UNL     1      13.929 -23.007 -43.516  1.00  0.00     0.171 HD
BRANCH  16  19
ATOM     19  C   UNL     1      14.599 -24.034 -41.841  1.00  0.00     0.078 A 
ATOM     20  C   UNL     1      15.767 -23.955 -41.080  1.00  0.00     0.029 A 
ATOM     21  C   UNL     1      13.411 -24.393 -41.192  1.00  0.00     0.146 A 
ATOM     22  C   UNL     1      15.739 -24.223 -39.705  1.00  0.00     0.002 A 
ATOM     23  C   UNL     1      13.375 -24.662 -39.825  1.00  0.00     0.041 A 
ATOM     24  C   UNL     1      14.546 -24.576 -39.077  1.00  0.00     0.003 A 
ATOM     25  F   UNL     1      12.269 -24.491 -41.889  1.00  0.00    -0.205 F 
ENDBRANCH  16  19
ENDBRANCH  10  11
ENDBRANCH   1  10
TORSDOF 5
ENDMDL
MODEL 8
REMARK VINA RESULT:    -7.090      2.504      7.234
REMARK INTER + INTRA:          -9.871
REMARK INTER:                  -9.115
REMARK INTRA:                  -0.757
REMARK UNBOUND:                -0.709
REMARK SMILES CC(C)c1n[n-]c(SCC(=O)NC(=O)Nc2ccccc2F)n1
REMARK SMILES IDX 8 1 7 2 4 3 5 4 23 5 6 6 2 7 1 8 3 9 9 10 10 11 11 12 12 13
REMARK SMILES IDX 13 14 14 15 15 16 16 19 17 20 21 21 18 22 20 23 19 24 22 25
REMARK H PARENT 12 17 15 18
ROOT
ATOM      1  S   UNL     1      17.887 -26.454 -42.557  1.00  0.00    -0.124 SA
ENDROOT
BRANCH   1   2
ATOM      2  C   UNL     1      16.924 -25.927 -41.154  1.00  0.00    -0.006 A 
ATOM      3  C   UNL     1      15.269 -25.286 -39.986  1.00  0.00     0.030 A 
ATOM      4  N   UNL     1      16.377 -25.005 -39.275  1.00  0.00    -0.267 NA
ATOM      5  N   UNL     1      15.585 -25.802 -41.195  1.00  0.00    -0.417 NA
ATOM      6  N   UNL     1      17.440 -25.428 -40.026  1.00  0.00    -0.347 NA
BRANCH   3   7
ATOM      7  C   UNL     1      13.877 -25.011 -39.528  1.00  0.00     0.028 C 
ATOM      8  C   UNL     1      13.078 -24.268 -40.599  1.00  0.00     0.014 C 
ATOM      9  C   UNL     1      13.860 -24.247 -38.203  1.00  0.00     0.014 C 
ENDBRANCH   3   7
ENDBRANCH   1   2
BRANCH   1  10
ATOM     10  C   UNL     1      18.518 -24.834 -43.066  1.00  0.00     0.174 C 
BRANCH  10  11
ATOM     11  C   UNL     1      17.389 -23.821 -43.174  1.00  0.00     0.238 C 
ATOM     12  O   UNL     1      17.418 -22.777 -42.523  1.00  0.00    -0.274 OA
ATOM     13  N   UNL     1      16.326 -24.251 -43.941  1.00  0.00    -0.277 N 
ATOM     14  C   UNL     1      15.591 -23.345 -44.676  1.00  0.00     0.325 C 
ATOM     15  O   UNL     1      15.046 -22.361 -44.185  1.00  0.00    -0.248 OA
ATOM     16  N   UNL     1      15.460 -23.761 -45.990  1.00  0.00    -0.305 N 
ATOM     17  H   UNL     1      16.556 -25.081 -44.496  1.00  0.00     0.174 HD
ATOM     18  H   UNL     1      16.039 -24.564 -46.265  1.00  0.00     0.171 HD
BRANCH  16  19
ATOM     19  C   UNL     1      14.723 -23.151 -47.027  1.00  0.00     0.078 A 
ATOM     20  C   UNL     1      15.190 -22.089 -47.803  1.00  0.00     0.029 A 
ATOM     21  C   UNL     1      13.436 -23.641 -47.285  1.00  0.00     0.146 A 
ATOM     22  C   UNL     1      14.389 -21.540 -48.814  1.00  0.00     0.002 A 
ATOM     23  C   UNL     1      12.633 -23.101 -48.288  1.00  0.00     0.041 A 
ATOM     24  C   UNL     1      13.113 -22.045 -49.057  1.00  0.00     0.003 A 
ATOM     25  F   UNL     1      12.945 -24.654 -46.555  1.00  0.00    -0.205 F 
ENDBRANCH  16  19
ENDBRANCH  10  11
ENDBRANCH   1  10
TORSDOF 5
ENDMDL
MODEL 9
REMARK VINA RESULT:    -6.984      3.372      6.980
REMARK INTER + INTRA:          -9.735
REMARK INTER:                  -8.986
REMARK INTRA:                  -0.749
REMARK UNBOUND:                -0.709
REMARK SMILES CC(C)c1n[n-]c(SCC(=O)NC(=O)Nc2ccccc2F)n1
REMARK SMILES IDX 8 1 7 2 4 3 5 4 23 5 6 6 2 7 1 8 3 9 9 10 10 11 11 12 12 13
REMARK SMILES IDX 13 14 14 15 15 16 16 19 17 20 21 21 18 22 20 23 19 24 22 25
REMARK H PARENT 12 17 15 18
ROOT
ATOM      1  S   UNL     1      15.182 -25.786 -41.036  1.00  0.00    -0.124 SA
ENDROOT
BRANCH   1   2
ATOM      2  C   UNL     1      16.016 -24.478 -41.911  1.00  0.00    -0.006 A 
ATOM      3  C   UNL     1      17.047 -23.436 -43.449  1.00  0.00     0.030 A 
ATOM      4  N   UNL     1      17.226 -22.731 -42.316  1.00  0.00    -0.267 NA
ATOM      5  N   UNL     1      16.350 -24.569 -43.212  1.00  0.00    -0.417 NA
ATOM      6  N   UNL     1      16.553 -23.401 -41.330  1.00  0.00    -0.347 NA
BRANCH   3   7
ATOM      7  C   UNL     1      17.594 -23.049 -44.781  1.00  0.00     0.028 C 
ATOM      8  C   UNL     1      18.835 -22.169 -44.635  1.00  0.00     0.014 C 
ATOM      9  C   UNL     1      16.536 -22.366 -45.648  1.00  0.00     0.014 C 
ENDBRANCH   3   7
ENDBRANCH   1   2
BRANCH   1  10
ATOM     10  C   UNL     1      14.105 -26.355 -42.376  1.00  0.00     0.174 C 
BRANCH  10  11
ATOM     11  C   UNL     1      13.079 -25.292 -42.736  1.00  0.00     0.238 C 
ATOM     12  O   UNL     1      12.599 -24.563 -41.867  1.00  0.00    -0.274 OA
ATOM     13  N   UNL     1      12.674 -25.330 -44.054  1.00  0.00    -0.277 N 
ATOM     14  C   UNL     1      12.329 -24.166 -44.708  1.00  0.00     0.325 C 
ATOM     15  O   UNL     1      11.468 -23.393 -44.298  1.00  0.00    -0.248 OA
ATOM     16  N   UNL     1      12.990 -24.062 -45.919  1.00  0.00    -0.305 N 
ATOM     17  H   UNL     1      13.285 -25.915 -44.633  1.00  0.00     0.174 HD
ATOM     18  H   UNL     1      13.735 -24.749 -46.082  1.00  0.00     0.171 HD
BRANCH  16  19
ATOM     19  C   UNL     1      12.848 -23.062 -46.905  1.00  0.00     0.078 A 
ATOM     20  C   UNL     1      13.008 -21.696 -46.665  1.00  0.00     0.029 A 
ATOM     21  C   UNL     1      12.519 -23.470 -48.203  1.00  0.00     0.146 A 
ATOM     22  C   UNL     1      12.847 -20.768 -47.703  1.00  0.00     0.002 A 
ATOM     23  C   UNL     1      12.357 -22.555 -49.241  1.00  0.00     0.041 A 
ATOM     24  C   UNL     1      12.523 -21.196 -48.990  1.00  0.00     0.003 A 
ATOM     25  F   UNL     1      12.346 -24.773 -48.473  1.00  0.00    -0.205 F 
ENDBRANCH  16  19
ENDBRANCH  10  11
ENDBRANCH   1  10
TORSDOF 5
ENDMDL
