REMARK SMILES C[C@@H](Nc1ccc(C#N)cc1)c1ccc2c(c1)CCC2
REMARK SMILES IDX 1 1 2 2 3 3 4 5 5 6 11 7 6 8 10 9 7 10 8 11 9 12 12 13 13 14
REMARK SMILES IDX 17 15 14 16 16 17 15 18 18 19 20 20 19 21
REMARK H PARENT 3 4
ROOT
ATOM      1  C   UNL     1      -0.039  -2.019   1.878  1.00  0.00     0.036 C 
ATOM      2  C   UNL     1       0.608  -1.314   0.681  1.00  0.00     0.106 C 
ENDROOT
BRANCH   2   3
ATOM      3  N   UNL     1      -0.345  -1.322  -0.434  1.00  0.00    -0.379 N 
ATOM      4  H   UNL     1      -1.239  -0.914  -0.178  1.00  0.00     0.161 HD
BRANCH   3   5
ATOM      5  C   UNL     1       0.025  -0.988  -1.737  1.00  0.00     0.035 A 
ATOM      6  C   UNL     1       1.339  -1.033  -2.215  1.00  0.00     0.027 A 
ATOM      7  C   UNL     1      -0.993  -0.718  -2.666  1.00  0.00     0.027 A 
ATOM      8  C   UNL     1       1.636  -0.752  -3.555  1.00  0.00     0.021 A 
ATOM      9  C   UNL     1      -0.707  -0.438  -4.007  1.00  0.00     0.021 A 
ATOM     10  C   UNL     1       0.614  -0.447  -4.454  1.00  0.00     0.052 A 
ATOM     11  C   UNL     1       0.916  -0.161  -5.825  1.00  0.00     0.099 C 
ATOM     12  N   UNL     1       1.161   0.071  -6.936  1.00  0.00    -0.192 NA
ENDBRANCH   3   5
ENDBRANCH   2   3
BRANCH   2  13
ATOM     13  C   UNL     1       1.028   0.100   1.055  1.00  0.00    -0.026 A 
ATOM     14  C   UNL     1       2.404   0.420   1.125  1.00  0.00     0.006 A 
ATOM     15  C   UNL     1       0.080   1.095   1.357  1.00  0.00     0.009 A 
ATOM     16  C   UNL     1       2.837   1.702   1.479  1.00  0.00     0.004 A 
ATOM     17  C   UNL     1       0.521   2.365   1.693  1.00  0.00    -0.044 A 
ATOM     18  C   UNL     1       1.884   2.665   1.753  1.00  0.00    -0.045 A 
ATOM     19  C   UNL     1      -0.303   3.555   2.077  1.00  0.00     0.036 C 
ATOM     20  C   UNL     1       2.101   4.082   2.182  1.00  0.00     0.036 C 
ATOM     21  C   UNL     1       0.718   4.690   1.910  1.00  0.00     0.010 C 
ENDBRANCH   2  13
TORSDOF 3
