MODEL 1
REMARK VINA RESULT:    -8.570      0.000      0.000
REMARK INTER + INTRA:         -13.294
REMARK INTER:                 -12.077
REMARK INTRA:                  -1.217
REMARK UNBOUND:                -1.217
REMARK SMILES N#C/C(=C\Nc1ccccc1OC(F)(F)[C@@H](F)Cl)c1nc(-c2ccc(F)cc2)cs1
REMARK SMILES IDX 6 1 7 2 8 3 9 4 10 5 11 6 5 7 4 9 1 10 2 11 3 12 19 13 20 14
REMARK SMILES IDX 30 15 21 16 29 17 22 18 23 19 28 20 24 21 27 22 25 23 26 24
REMARK SMILES IDX 12 25 13 26 14 27 15 28 16 29 17 30 18 31
REMARK H PARENT 5 8
ROOT
ATOM      1  C   UNL     1      11.620 -22.847 -48.844  1.00  0.00     0.081 A 
ATOM      2  C   UNL     1      11.372 -24.231 -48.923  1.00  0.00     0.030 A 
ATOM      3  C   UNL     1      11.075 -24.850 -50.139  1.00  0.00     0.002 A 
ATOM      4  C   UNL     1      11.037 -24.099 -51.307  1.00  0.00     0.004 A 
ATOM      5  C   UNL     1      11.288 -22.729 -51.260  1.00  0.00     0.049 A 
ATOM      6  C   UNL     1      11.564 -22.096 -50.040  1.00  0.00     0.149 A 
ENDROOT
BRANCH   1   7
ATOM      7  N   UNL     1      11.971 -22.338 -47.569  1.00  0.00    -0.357 N 
ATOM      8  H   UNL     1      12.005 -21.320 -47.541  1.00  0.00     0.166 HD
BRANCH   7   9
ATOM      9  C   UNL     1      12.560 -23.005 -46.518  1.00  0.00     0.105 C 
ATOM     10  N   UNL     1      15.660 -21.985 -47.640  1.00  0.00    -0.192 NA
ATOM     11  C   UNL     1      14.865 -22.514 -46.979  1.00  0.00     0.104 C 
ATOM     12  C   UNL     1      13.860 -23.136 -46.184  1.00  0.00     0.104 C 
BRANCH  12  13
ATOM     13  C   UNL     1      14.182 -23.963 -45.052  1.00  0.00     0.136 A 
ATOM     14  N   UNL     1      14.081 -23.603 -43.780  1.00  0.00    -0.235 NA
ATOM     15  S   UNL     1      14.744 -25.595 -45.252  1.00  0.00    -0.121 S 
ATOM     16  C   UNL     1      14.418 -24.638 -42.923  1.00  0.00     0.082 A 
ATOM     17  C   UNL     1      14.817 -25.796 -43.555  1.00  0.00     0.096 A 
BRANCH  16  18
ATOM     18  C   UNL     1      14.356 -24.457 -41.477  1.00  0.00     0.001 A 
ATOM     19  C   UNL     1      13.102 -24.348 -40.852  1.00  0.00     0.013 A 
ATOM     20  C   UNL     1      15.513 -24.406 -40.683  1.00  0.00     0.013 A 
ATOM     21  C   UNL     1      13.006 -24.182 -39.468  1.00  0.00     0.040 A 
ATOM     22  C   UNL     1      15.416 -24.242 -39.298  1.00  0.00     0.040 A 
ATOM     23  C   UNL     1      14.165 -24.129 -38.704  1.00  0.00     0.123 A 
ATOM     24  F   UNL     1      14.075 -23.972 -37.378  1.00  0.00    -0.207 F 
ENDBRANCH  16  18
ENDBRANCH  12  13
ENDBRANCH   7   9
ENDBRANCH   1   7
BRANCH   6  25
ATOM     25  O   UNL     1      11.811 -20.752 -49.974  1.00  0.00    -0.427 OA
BRANCH  25  26
ATOM     26  C   UNL     1      13.176 -20.333 -50.054  1.00  0.00     0.444 C 
ATOM     27  F   UNL     1      14.000 -21.402 -50.202  1.00  0.00    -0.159 F 
ATOM     28  F   UNL     1      13.492 -19.738 -48.870  1.00  0.00    -0.159 F 
BRANCH  26  29
ATOM     29  C   UNL     1      13.361 -19.328 -51.197  1.00  0.00     0.371 C 
ATOM     30  F   UNL     1      14.130 -18.278 -50.788  1.00  0.00    -0.219 F 
ATOM     31  Cl  UNL     1      14.145 -20.054 -52.632  1.00  0.00    -0.075 Cl
ENDBRANCH  26  29
ENDBRANCH  25  26
ENDBRANCH   6  25
TORSDOF 7
ENDMDL
MODEL 2
REMARK VINA RESULT:    -8.226      3.996      9.624
REMARK INTER + INTRA:         -12.810
REMARK INTER:                 -11.605
REMARK INTRA:                  -1.205
REMARK UNBOUND:                -1.217
REMARK SMILES N#C/C(=C\Nc1ccccc1OC(F)(F)[C@@H](F)Cl)c1nc(-c2ccc(F)cc2)cs1
REMARK SMILES IDX 6 1 7 2 8 3 9 4 10 5 11 6 5 7 4 9 1 10 2 11 3 12 19 13 20 14
REMARK SMILES IDX 30 15 21 16 29 17 22 18 23 19 28 20 24 21 27 22 25 23 26 24
REMARK SMILES IDX 12 25 13 26 14 27 15 28 16 29 17 30 18 31
REMARK H PARENT 5 8
ROOT
ATOM      1  C   UNL     1      16.260 -23.914 -45.124  1.00  0.00     0.081 A 
ATOM      2  C   UNL     1      17.230 -23.076 -45.706  1.00  0.00     0.030 A 
ATOM      3  C   UNL     1      18.340 -22.634 -44.983  1.00  0.00     0.002 A 
ATOM      4  C   UNL     1      18.511 -23.037 -43.664  1.00  0.00     0.004 A 
ATOM      5  C   UNL     1      17.571 -23.875 -43.065  1.00  0.00     0.049 A 
ATOM      6  C   UNL     1      16.443 -24.303 -43.778  1.00  0.00     0.149 A 
ENDROOT
BRANCH   1   7
ATOM      7  N   UNL     1      15.208 -24.349 -45.970  1.00  0.00    -0.357 N 
ATOM      8  H   UNL     1      15.136 -25.363 -46.028  1.00  0.00     0.166 HD
BRANCH   7   9
ATOM      9  C   UNL     1      14.530 -23.625 -46.925  1.00  0.00     0.105 C 
ATOM     10  N   UNL     1      11.929 -23.175 -44.703  1.00  0.00    -0.192 NA
ATOM     11  C   UNL     1      12.536 -23.109 -45.690  1.00  0.00     0.104 C 
ATOM     12  C   UNL     1      13.318 -23.036 -46.879  1.00  0.00     0.104 C 
BRANCH  12  13
ATOM     13  C   UNL     1      12.835 -22.399 -48.075  1.00  0.00     0.136 A 
ATOM     14  N   UNL     1      13.509 -21.526 -48.809  1.00  0.00    -0.235 NA
ATOM     15  S   UNL     1      11.254 -22.742 -48.710  1.00  0.00    -0.121 S 
ATOM     16  C   UNL     1      12.792 -21.129 -49.927  1.00  0.00     0.082 A 
ATOM     17  C   UNL     1      11.535 -21.685 -50.025  1.00  0.00     0.096 A 
BRANCH  16  18
ATOM     18  C   UNL     1      13.362 -20.183 -50.880  1.00  0.00     0.001 A 
ATOM     19  C   UNL     1      13.510 -20.568 -52.224  1.00  0.00     0.013 A 
ATOM     20  C   UNL     1      13.752 -18.889 -50.501  1.00  0.00     0.013 A 
ATOM     21  C   UNL     1      14.044 -19.684 -53.165  1.00  0.00     0.040 A 
ATOM     22  C   UNL     1      14.285 -18.004 -51.444  1.00  0.00     0.040 A 
ATOM     23  C   UNL     1      14.428 -18.411 -52.765  1.00  0.00     0.123 A 
ATOM     24  F   UNL     1      14.938 -17.562 -53.665  1.00  0.00    -0.207 F 
ENDBRANCH  16  18
ENDBRANCH  12  13
ENDBRANCH   7   9
ENDBRANCH   1   7
BRANCH   6  25
ATOM     25  O   UNL     1      15.509 -25.124 -43.207  1.00  0.00    -0.427 OA
BRANCH  25  26
ATOM     26  C   UNL     1      14.524 -24.511 -42.372  1.00  0.00     0.444 C 
ATOM     27  F   UNL     1      13.283 -24.972 -42.671  1.00  0.00    -0.159 F 
ATOM     28  F   UNL     1      14.536 -23.175 -42.638  1.00  0.00    -0.159 F 
BRANCH  26  29
ATOM     29  C   UNL     1      14.859 -24.740 -40.893  1.00  0.00     0.371 C 
ATOM     30  F   UNL     1      15.605 -23.706 -40.408  1.00  0.00    -0.219 F 
ATOM     31  Cl  UNL     1      13.397 -24.886 -39.871  1.00  0.00    -0.075 Cl
ENDBRANCH  26  29
ENDBRANCH  25  26
ENDBRANCH   6  25
TORSDOF 7
ENDMDL
MODEL 3
REMARK VINA RESULT:    -7.858      4.389      8.743
REMARK INTER + INTRA:         -12.291
REMARK INTER:                 -11.446
REMARK INTRA:                  -0.846
REMARK UNBOUND:                -1.217
REMARK SMILES N#C/C(=C\Nc1ccccc1OC(F)(F)[C@@H](F)Cl)c1nc(-c2ccc(F)cc2)cs1
REMARK SMILES IDX 6 1 7 2 8 3 9 4 10 5 11 6 5 7 4 9 1 10 2 11 3 12 19 13 20 14
REMARK SMILES IDX 30 15 21 16 29 17 22 18 23 19 28 20 24 21 27 22 25 23 26 24
REMARK SMILES IDX 12 25 13 26 14 27 15 28 16 29 17 30 18 31
REMARK H PARENT 5 8
ROOT
ATOM      1  C   UNL     1      14.404 -23.123 -43.888  1.00  0.00     0.081 A 
ATOM      2  C   UNL     1      13.484 -23.956 -43.224  1.00  0.00     0.030 A 
ATOM      3  C   UNL     1      13.775 -24.518 -41.979  1.00  0.00     0.002 A 
ATOM      4  C   UNL     1      14.989 -24.242 -41.362  1.00  0.00     0.004 A 
ATOM      5  C   UNL     1      15.915 -23.411 -41.992  1.00  0.00     0.049 A 
ATOM      6  C   UNL     1      15.640 -22.863 -43.252  1.00  0.00     0.149 A 
ENDROOT
BRANCH   1   7
ATOM      7  N   UNL     1      13.978 -22.561 -45.117  1.00  0.00    -0.357 N 
ATOM      8  H   UNL     1      14.133 -21.556 -45.172  1.00  0.00     0.166 HD
BRANCH   7   9
ATOM      9  C   UNL     1      13.130 -23.107 -46.054  1.00  0.00     0.105 C 
ATOM     10  N   UNL     1      12.784 -20.001 -47.517  1.00  0.00    -0.192 NA
ATOM     11  C   UNL     1      12.630 -21.137 -47.333  1.00  0.00     0.104 C 
ATOM     12  C   UNL     1      12.477 -22.531 -47.084  1.00  0.00     0.104 C 
BRANCH  12  13
ATOM     13  C   UNL     1      11.593 -23.356 -47.864  1.00  0.00     0.136 A 
ATOM     14  N   UNL     1      10.352 -23.046 -48.209  1.00  0.00    -0.235 NA
ATOM     15  S   UNL     1      12.097 -24.905 -48.470  1.00  0.00    -0.121 S 
ATOM     16  C   UNL     1       9.776 -24.025 -49.001  1.00  0.00     0.082 A 
ATOM     17  C   UNL     1      10.582 -25.118 -49.235  1.00  0.00     0.096 A 
BRANCH  16  18
ATOM     18  C   UNL     1       8.416 -23.870 -49.506  1.00  0.00     0.001 A 
ATOM     19  C   UNL     1       7.353 -24.469 -48.809  1.00  0.00     0.013 A 
ATOM     20  C   UNL     1       8.131 -23.122 -50.660  1.00  0.00     0.013 A 
ATOM     21  C   UNL     1       6.037 -24.334 -49.260  1.00  0.00     0.040 A 
ATOM     22  C   UNL     1       6.814 -22.985 -51.109  1.00  0.00     0.040 A 
ATOM     23  C   UNL     1       5.781 -23.594 -50.407  1.00  0.00     0.123 A 
ATOM     24  F   UNL     1       4.521 -23.461 -50.839  1.00  0.00    -0.207 F 
ENDBRANCH  16  18
ENDBRANCH  12  13
ENDBRANCH   7   9
ENDBRANCH   1   7
BRANCH   6  25
ATOM     25  O   UNL     1      16.537 -22.048 -43.886  1.00  0.00    -0.427 OA
BRANCH  25  26
ATOM     26  C   UNL     1      17.705 -22.663 -44.434  1.00  0.00     0.444 C 
ATOM     27  F   UNL     1      18.500 -23.153 -43.448  1.00  0.00    -0.159 F 
ATOM     28  F   UNL     1      18.412 -21.695 -45.082  1.00  0.00    -0.159 F 
BRANCH  26  29
ATOM     29  C   UNL     1      17.314 -23.762 -45.429  1.00  0.00     0.371 C 
ATOM     30  F   UNL     1      18.081 -23.679 -46.555  1.00  0.00    -0.219 F 
ATOM     31  Cl  UNL     1      17.512 -25.406 -44.751  1.00  0.00    -0.075 Cl
ENDBRANCH  26  29
ENDBRANCH  25  26
ENDBRANCH   6  25
TORSDOF 7
ENDMDL
MODEL 4
REMARK VINA RESULT:    -7.691      4.742      9.272
REMARK INTER + INTRA:         -12.055
REMARK INTER:                 -11.025
REMARK INTRA:                  -1.030
REMARK UNBOUND:                -1.217
REMARK SMILES N#C/C(=C\Nc1ccccc1OC(F)(F)[C@@H](F)Cl)c1nc(-c2ccc(F)cc2)cs1
REMARK SMILES IDX 6 1 7 2 8 3 9 4 10 5 11 6 5 7 4 9 1 10 2 11 3 12 19 13 20 14
REMARK SMILES IDX 30 15 21 16 29 17 22 18 23 19 28 20 24 21 27 22 25 23 26 24
REMARK SMILES IDX 12 25 13 26 14 27 15 28 16 29 17 30 18 31
REMARK H PARENT 5 8
ROOT
ATOM      1  C   UNL     1      15.118 -22.953 -44.764  1.00  0.00     0.081 A 
ATOM      2  C   UNL     1      16.044 -22.191 -45.501  1.00  0.00     0.030 A 
ATOM      3  C   UNL     1      17.419 -22.418 -45.402  1.00  0.00     0.002 A 
ATOM      4  C   UNL     1      17.895 -23.426 -44.574  1.00  0.00     0.004 A 
ATOM      5  C   UNL     1      17.000 -24.203 -43.839  1.00  0.00     0.049 A 
ATOM      6  C   UNL     1      15.621 -23.966 -43.916  1.00  0.00     0.149 A 
ENDROOT
BRANCH   1   7
ATOM      7  N   UNL     1      13.747 -22.675 -44.989  1.00  0.00    -0.357 N 
ATOM      8  H   UNL     1      13.296 -22.219 -44.197  1.00  0.00     0.166 HD
BRANCH   7   9
ATOM      9  C   UNL     1      12.916 -23.209 -45.949  1.00  0.00     0.105 C 
ATOM     10  N   UNL     1      12.861 -20.160 -47.564  1.00  0.00    -0.192 NA
ATOM     11  C   UNL     1      12.620 -21.274 -47.340  1.00  0.00     0.104 C 
ATOM     12  C   UNL     1      12.361 -22.642 -47.039  1.00  0.00     0.104 C 
BRANCH  12  13
ATOM     13  C   UNL     1      11.467 -23.444 -47.831  1.00  0.00     0.136 A 
ATOM     14  N   UNL     1      10.235 -23.106 -48.183  1.00  0.00    -0.235 NA
ATOM     15  S   UNL     1      11.945 -24.998 -48.444  1.00  0.00    -0.121 S 
ATOM     16  C   UNL     1       9.646 -24.069 -48.987  1.00  0.00     0.082 A 
ATOM     17  C   UNL     1      10.432 -25.175 -49.222  1.00  0.00     0.096 A 
BRANCH  16  18
ATOM     18  C   UNL     1       8.293 -23.883 -49.501  1.00  0.00     0.001 A 
ATOM     19  C   UNL     1       7.215 -24.483 -48.828  1.00  0.00     0.013 A 
ATOM     20  C   UNL     1       8.030 -23.106 -50.641  1.00  0.00     0.013 A 
ATOM     21  C   UNL     1       5.906 -24.319 -49.288  1.00  0.00     0.040 A 
ATOM     22  C   UNL     1       6.719 -22.941 -51.100  1.00  0.00     0.040 A 
ATOM     23  C   UNL     1       5.671 -23.550 -50.421  1.00  0.00     0.123 A 
ATOM     24  F   UNL     1       4.418 -23.391 -50.862  1.00  0.00    -0.207 F 
ENDBRANCH  16  18
ENDBRANCH  12  13
ENDBRANCH   7   9
ENDBRANCH   1   7
BRANCH   6  25
ATOM     25  O   UNL     1      14.728 -24.716 -43.201  1.00  0.00    -0.427 OA
BRANCH  25  26
ATOM     26  C   UNL     1      14.693 -24.518 -41.786  1.00  0.00     0.444 C 
ATOM     27  F   UNL     1      15.463 -23.459 -41.428  1.00  0.00    -0.159 F 
ATOM     28  F   UNL     1      15.231 -25.626 -41.204  1.00  0.00    -0.159 F 
BRANCH  26  29
ATOM     29  C   UNL     1      13.247 -24.340 -41.306  1.00  0.00     0.371 C 
ATOM     30  F   UNL     1      12.485 -25.405 -41.688  1.00  0.00    -0.219 F 
ATOM     31  Cl  UNL     1      13.126 -24.190 -39.527  1.00  0.00    -0.075 Cl
ENDBRANCH  26  29
ENDBRANCH  25  26
ENDBRANCH   6  25
TORSDOF 7
ENDMDL
MODEL 5
REMARK VINA RESULT:    -7.620      1.700      2.051
REMARK INTER + INTRA:         -11.955
REMARK INTER:                 -10.779
REMARK INTRA:                  -1.176
REMARK UNBOUND:                -1.217
REMARK SMILES N#C/C(=C\Nc1ccccc1OC(F)(F)[C@@H](F)Cl)c1nc(-c2ccc(F)cc2)cs1
REMARK SMILES IDX 6 1 7 2 8 3 9 4 10 5 11 6 5 7 4 9 1 10 2 11 3 12 19 13 20 14
REMARK SMILES IDX 30 15 21 16 29 17 22 18 23 19 28 20 24 21 27 22 25 23 26 24
REMARK SMILES IDX 12 25 13 26 14 27 15 28 16 29 17 30 18 31
REMARK H PARENT 5 8
ROOT
ATOM      1  C   UNL     1      11.533 -24.621 -48.015  1.00  0.00     0.081 A 
ATOM      2  C   UNL     1      10.662 -25.356 -47.189  1.00  0.00     0.030 A 
ATOM      3  C   UNL     1       9.276 -25.272 -47.334  1.00  0.00     0.002 A 
ATOM      4  C   UNL     1       8.731 -24.461 -48.322  1.00  0.00     0.004 A 
ATOM      5  C   UNL     1       9.570 -23.728 -49.160  1.00  0.00     0.049 A 
ATOM      6  C   UNL     1      10.962 -23.790 -49.005  1.00  0.00     0.149 A 
ENDROOT
BRANCH   1   7
ATOM      7  N   UNL     1      12.921 -24.830 -47.817  1.00  0.00    -0.357 N 
ATOM      8  H   UNL     1      13.367 -25.310 -48.597  1.00  0.00     0.166 HD
BRANCH   7   9
ATOM      9  C   UNL     1      13.632 -24.772 -46.640  1.00  0.00     0.105 C 
ATOM     10  N   UNL     1      15.359 -22.037 -47.844  1.00  0.00    -0.192 NA
ATOM     11  C   UNL     1      15.038 -22.884 -47.117  1.00  0.00     0.104 C 
ATOM     12  C   UNL     1      14.607 -23.927 -46.247  1.00  0.00     0.104 C 
BRANCH  12  13
ATOM     13  C   UNL     1      15.221 -24.158 -44.967  1.00  0.00     0.136 A 
ATOM     14  N   UNL     1      14.617 -24.051 -43.792  1.00  0.00    -0.235 NA
ATOM     15  S   UNL     1      16.885 -24.638 -44.832  1.00  0.00    -0.121 S 
ATOM     16  C   UNL     1      15.461 -24.385 -42.746  1.00  0.00     0.082 A 
ATOM     17  C   UNL     1      16.742 -24.719 -43.130  1.00  0.00     0.096 A 
BRANCH  16  18
ATOM     18  C   UNL     1      14.987 -24.352 -41.366  1.00  0.00     0.001 A 
ATOM     19  C   UNL     1      13.607 -24.266 -41.117  1.00  0.00     0.013 A 
ATOM     20  C   UNL     1      15.868 -24.422 -40.275  1.00  0.00     0.013 A 
ATOM     21  C   UNL     1      13.118 -24.240 -39.809  1.00  0.00     0.040 A 
ATOM     22  C   UNL     1      15.377 -24.398 -38.965  1.00  0.00     0.040 A 
ATOM     23  C   UNL     1      14.009 -24.305 -38.745  1.00  0.00     0.123 A 
ATOM     24  F   UNL     1      13.542 -24.283 -37.491  1.00  0.00    -0.207 F 
ENDBRANCH  16  18
ENDBRANCH  12  13
ENDBRANCH   7   9
ENDBRANCH   1   7
BRANCH   6  25
ATOM     25  O   UNL     1      11.802 -23.077 -49.817  1.00  0.00    -0.427 OA
BRANCH  25  26
ATOM     26  C   UNL     1      11.908 -21.672 -49.574  1.00  0.00     0.444 C 
ATOM     27  F   UNL     1      11.907 -21.412 -48.242  1.00  0.00    -0.159 F 
ATOM     28  F   UNL     1      10.801 -21.080 -50.105  1.00  0.00    -0.159 F 
BRANCH  26  29
ATOM     29  C   UNL     1      13.163 -21.106 -50.249  1.00  0.00     0.371 C 
ATOM     30  F   UNL     1      13.021 -21.120 -51.606  1.00  0.00    -0.219 F 
ATOM     31  Cl  UNL     1      13.512 -19.423 -49.752  1.00  0.00    -0.075 Cl
ENDBRANCH  26  29
ENDBRANCH  25  26
ENDBRANCH   6  25
TORSDOF 7
ENDMDL
MODEL 6
REMARK VINA RESULT:    -7.502      2.368      3.423
REMARK INTER + INTRA:         -11.790
REMARK INTER:                 -10.475
REMARK INTRA:                  -1.315
REMARK UNBOUND:                -1.217
REMARK SMILES N#C/C(=C\Nc1ccccc1OC(F)(F)[C@@H](F)Cl)c1nc(-c2ccc(F)cc2)cs1
REMARK SMILES IDX 6 1 7 2 8 3 9 4 10 5 11 6 5 7 4 9 1 10 2 11 3 12 19 13 20 14
REMARK SMILES IDX 30 15 21 16 29 17 22 18 23 19 28 20 24 21 27 22 25 23 26 24
REMARK SMILES IDX 12 25 13 26 14 27 15 28 16 29 17 30 18 31
REMARK H PARENT 5 8
ROOT
ATOM      1  C   UNL     1      12.643 -21.322 -48.727  1.00  0.00     0.081 A 
ATOM      2  C   UNL     1      13.254 -20.055 -48.654  1.00  0.00     0.030 A 
ATOM      3  C   UNL     1      13.608 -19.350 -49.806  1.00  0.00     0.002 A 
ATOM      4  C   UNL     1      13.341 -19.890 -51.058  1.00  0.00     0.004 A 
ATOM      5  C   UNL     1      12.728 -21.138 -51.160  1.00  0.00     0.049 A 
ATOM      6  C   UNL     1      12.391 -21.862 -50.008  1.00  0.00     0.149 A 
ENDROOT
BRANCH   1   7
ATOM      7  N   UNL     1      12.273 -21.918 -47.496  1.00  0.00    -0.357 N 
ATOM      8  H   UNL     1      11.322 -21.689 -47.210  1.00  0.00     0.166 HD
BRANCH   7   9
ATOM      9  C   UNL     1      13.093 -22.461 -46.532  1.00  0.00     0.105 C 
ATOM     10  N   UNL     1      12.634 -25.582 -47.931  1.00  0.00    -0.192 NA
ATOM     11  C   UNL     1      13.016 -24.767 -47.197  1.00  0.00     0.104 C 
ATOM     12  C   UNL     1      13.475 -23.738 -46.326  1.00  0.00     0.104 C 
BRANCH  12  13
ATOM     13  C   UNL     1      14.297 -24.015 -45.178  1.00  0.00     0.136 A 
ATOM     14  N   UNL     1      13.913 -23.921 -43.913  1.00  0.00    -0.235 NA
ATOM     15  S   UNL     1      15.944 -24.543 -45.349  1.00  0.00    -0.121 S 
ATOM     16  C   UNL     1      14.918 -24.302 -43.039  1.00  0.00     0.082 A 
ATOM     17  C   UNL     1      16.100 -24.660 -43.650  1.00  0.00     0.096 A 
BRANCH  16  18
ATOM     18  C   UNL     1      14.695 -24.289 -41.597  1.00  0.00     0.001 A 
ATOM     19  C   UNL     1      13.378 -24.271 -41.106  1.00  0.00     0.013 A 
ATOM     20  C   UNL     1      15.758 -24.313 -40.680  1.00  0.00     0.013 A 
ATOM     21  C   UNL     1      13.129 -24.266 -39.732  1.00  0.00     0.040 A 
ATOM     22  C   UNL     1      15.507 -24.311 -39.304  1.00  0.00     0.040 A 
ATOM     23  C   UNL     1      14.196 -24.285 -38.844  1.00  0.00     0.123 A 
ATOM     24  F   UNL     1      13.959 -24.282 -37.526  1.00  0.00    -0.207 F 
ENDBRANCH  16  18
ENDBRANCH  12  13
ENDBRANCH   7   9
ENDBRANCH   1   7
BRANCH   6  25
ATOM     25  O   UNL     1      11.790 -23.089 -50.089  1.00  0.00    -0.427 OA
BRANCH  25  26
ATOM     26  C   UNL     1      10.491 -23.143 -50.683  1.00  0.00     0.444 C 
ATOM     27  F   UNL     1      10.582 -23.329 -52.024  1.00  0.00    -0.159 F 
ATOM     28  F   UNL     1       9.898 -21.934 -50.480  1.00  0.00    -0.159 F 
BRANCH  26  29
ATOM     29  C   UNL     1       9.648 -24.242 -50.026  1.00  0.00     0.371 C 
ATOM     30  F   UNL     1      10.255 -25.456 -50.167  1.00  0.00    -0.219 F 
ATOM     31  Cl  UNL     1       9.390 -23.959 -48.278  1.00  0.00    -0.075 Cl
ENDBRANCH  26  29
ENDBRANCH  25  26
ENDBRANCH   6  25
TORSDOF 7
ENDMDL
MODEL 7
REMARK VINA RESULT:    -7.432      3.976      5.118
REMARK INTER + INTRA:         -11.691
REMARK INTER:                 -10.668
REMARK INTRA:                  -1.023
REMARK UNBOUND:                -1.217
REMARK SMILES N#C/C(=C\Nc1ccccc1OC(F)(F)[C@@H](F)Cl)c1nc(-c2ccc(F)cc2)cs1
REMARK SMILES IDX 6 1 7 2 8 3 9 4 10 5 11 6 5 7 4 9 1 10 2 11 3 12 19 13 20 14
REMARK SMILES IDX 30 15 21 16 29 17 22 18 23 19 28 20 24 21 27 22 25 23 26 24
REMARK SMILES IDX 12 25 13 26 14 27 15 28 16 29 17 30 18 31
REMARK H PARENT 5 8
ROOT
ATOM      1  C   UNL     1       9.844 -23.154 -50.888  1.00  0.00     0.081 A 
ATOM      2  C   UNL     1      11.000 -23.490 -51.617  1.00  0.00     0.030 A 
ATOM      3  C   UNL     1      10.923 -24.175 -52.831  1.00  0.00     0.002 A 
ATOM      4  C   UNL     1       9.682 -24.524 -53.351  1.00  0.00     0.004 A 
ATOM      5  C   UNL     1       8.520 -24.196 -52.655  1.00  0.00     0.049 A 
ATOM      6  C   UNL     1       8.591 -23.528 -51.425  1.00  0.00     0.149 A 
ENDROOT
BRANCH   1   7
ATOM      7  N   UNL     1      10.039 -22.406 -49.700  1.00  0.00    -0.357 N 
ATOM      8  H   UNL     1       9.468 -21.563 -49.660  1.00  0.00     0.166 HD
BRANCH   7   9
ATOM      9  C   UNL     1      11.079 -22.490 -48.801  1.00  0.00     0.105 C 
ATOM     10  N   UNL     1      12.744 -20.013 -50.534  1.00  0.00    -0.192 NA
ATOM     11  C   UNL     1      12.538 -20.823 -49.727  1.00  0.00     0.104 C 
ATOM     12  C   UNL     1      12.244 -21.813 -48.747  1.00  0.00     0.104 C 
BRANCH  12  13
ATOM     13  C   UNL     1      13.180 -22.172 -47.715  1.00  0.00     0.136 A 
ATOM     14  N   UNL     1      12.865 -22.584 -46.496  1.00  0.00    -0.235 NA
ATOM     15  S   UNL     1      14.896 -22.112 -47.987  1.00  0.00    -0.121 S 
ATOM     16  C   UNL     1      13.989 -22.899 -45.750  1.00  0.00     0.082 A 
ATOM     17  C   UNL     1      15.184 -22.690 -46.403  1.00  0.00     0.096 A 
BRANCH  16  18
ATOM     18  C   UNL     1      13.861 -23.392 -44.383  1.00  0.00     0.001 A 
ATOM     19  C   UNL     1      14.976 -23.343 -43.529  1.00  0.00     0.013 A 
ATOM     20  C   UNL     1      12.650 -23.898 -43.885  1.00  0.00     0.013 A 
ATOM     21  C   UNL     1      14.887 -23.798 -42.211  1.00  0.00     0.040 A 
ATOM     22  C   UNL     1      12.561 -24.352 -42.564  1.00  0.00     0.040 A 
ATOM     23  C   UNL     1      13.679 -24.300 -41.742  1.00  0.00     0.123 A 
ATOM     24  F   UNL     1      13.592 -24.735 -40.479  1.00  0.00    -0.207 F 
ENDBRANCH  16  18
ENDBRANCH  12  13
ENDBRANCH   7   9
ENDBRANCH   1   7
BRANCH   6  25
ATOM     25  O   UNL     1       7.461 -23.199 -50.726  1.00  0.00    -0.427 OA
BRANCH  25  26
ATOM     26  C   UNL     1       6.966 -24.162 -49.793  1.00  0.00     0.444 C 
ATOM     27  F   UNL     1       7.491 -23.951 -48.559  1.00  0.00    -0.159 F 
ATOM     28  F   UNL     1       7.387 -25.389 -50.208  1.00  0.00    -0.159 F 
BRANCH  26  29
ATOM     29  C   UNL     1       5.434 -24.133 -49.756  1.00  0.00     0.371 C 
ATOM     30  F   UNL     1       4.994 -23.800 -48.508  1.00  0.00    -0.219 F 
ATOM     31  Cl  UNL     1       4.740 -22.958 -50.913  1.00  0.00    -0.075 Cl
ENDBRANCH  26  29
ENDBRANCH  25  26
ENDBRANCH   6  25
TORSDOF 7
ENDMDL
MODEL 8
REMARK VINA RESULT:    -7.174      2.625      3.397
REMARK INTER + INTRA:         -11.327
REMARK INTER:                 -10.295
REMARK INTRA:                  -1.032
REMARK UNBOUND:                -1.217
REMARK SMILES N#C/C(=C\Nc1ccccc1OC(F)(F)[C@@H](F)Cl)c1nc(-c2ccc(F)cc2)cs1
REMARK SMILES IDX 6 1 7 2 8 3 9 4 10 5 11 6 5 7 4 9 1 10 2 11 3 12 19 13 20 14
REMARK SMILES IDX 30 15 21 16 29 17 22 18 23 19 28 20 24 21 27 22 25 23 26 24
REMARK SMILES IDX 12 25 13 26 14 27 15 28 16 29 17 30 18 31
REMARK H PARENT 5 8
ROOT
ATOM      1  C   UNL     1      10.815 -24.501 -48.746  1.00  0.00     0.081 A 
ATOM      2  C   UNL     1      10.015 -24.757 -47.616  1.00  0.00     0.030 A 
ATOM      3  C   UNL     1       8.890 -25.580 -47.690  1.00  0.00     0.002 A 
ATOM      4  C   UNL     1       8.551 -26.181 -48.896  1.00  0.00     0.004 A 
ATOM      5  C   UNL     1       9.330 -25.954 -50.029  1.00  0.00     0.049 A 
ATOM      6  C   UNL     1      10.447 -25.110 -49.968  1.00  0.00     0.149 A 
ENDROOT
BRANCH   1   7
ATOM      7  N   UNL     1      11.966 -23.699 -48.541  1.00  0.00    -0.357 N 
ATOM      8  H   UNL     1      12.347 -23.319 -49.405  1.00  0.00     0.166 HD
BRANCH   7   9
ATOM      9  C   UNL     1      12.779 -23.645 -47.431  1.00  0.00     0.105 C 
ATOM     10  N   UNL     1      12.682 -20.198 -47.557  1.00  0.00    -0.192 NA
ATOM     11  C   UNL     1      12.965 -21.263 -47.190  1.00  0.00     0.104 C 
ATOM     12  C   UNL     1      13.277 -22.585 -46.763  1.00  0.00     0.104 C 
BRANCH  12  13
ATOM     13  C   UNL     1      14.168 -22.844 -45.663  1.00  0.00     0.136 A 
ATOM     14  N   UNL     1      13.801 -23.198 -44.440  1.00  0.00    -0.235 NA
ATOM     15  S   UNL     1      15.893 -22.728 -45.846  1.00  0.00    -0.121 S 
ATOM     16  C   UNL     1      14.894 -23.422 -43.618  1.00  0.00     0.082 A 
ATOM     17  C   UNL     1      16.114 -23.201 -44.218  1.00  0.00     0.096 A 
BRANCH  16  18
ATOM     18  C   UNL     1      14.709 -23.840 -42.232  1.00  0.00     0.001 A 
ATOM     19  C   UNL     1      15.818 -23.862 -41.369  1.00  0.00     0.013 A 
ATOM     20  C   UNL     1      13.451 -24.204 -41.726  1.00  0.00     0.013 A 
ATOM     21  C   UNL     1      15.676 -24.248 -40.034  1.00  0.00     0.040 A 
ATOM     22  C   UNL     1      13.309 -24.589 -40.389  1.00  0.00     0.040 A 
ATOM     23  C   UNL     1      14.422 -24.609 -39.557  1.00  0.00     0.123 A 
ATOM     24  F   UNL     1      14.284 -24.978 -38.278  1.00  0.00    -0.207 F 
ENDBRANCH  16  18
ENDBRANCH  12  13
ENDBRANCH   7   9
ENDBRANCH   1   7
BRANCH   6  25
ATOM     25  O   UNL     1      11.223 -24.874 -51.070  1.00  0.00    -0.427 OA
BRANCH  25  26
ATOM     26  C   UNL     1      10.853 -23.774 -51.906  1.00  0.00     0.444 C 
ATOM     27  F   UNL     1      11.614 -22.684 -51.633  1.00  0.00    -0.159 F 
ATOM     28  F   UNL     1       9.562 -23.453 -51.611  1.00  0.00    -0.159 F 
BRANCH  26  29
ATOM     29  C   UNL     1      10.958 -24.167 -53.384  1.00  0.00     0.371 C 
ATOM     30  F   UNL     1      12.142 -23.739 -53.908  1.00  0.00    -0.219 F 
ATOM     31  Cl  UNL     1      10.856 -25.936 -53.634  1.00  0.00    -0.075 Cl
ENDBRANCH  26  29
ENDBRANCH  25  26
ENDBRANCH   6  25
TORSDOF 7
ENDMDL
MODEL 9
REMARK VINA RESULT:    -7.078      4.257      8.947
REMARK INTER + INTRA:         -11.191
REMARK INTER:                 -10.122
REMARK INTRA:                  -1.070
REMARK UNBOUND:                -1.217
REMARK SMILES N#C/C(=C\Nc1ccccc1OC(F)(F)[C@@H](F)Cl)c1nc(-c2ccc(F)cc2)cs1
REMARK SMILES IDX 6 1 7 2 8 3 9 4 10 5 11 6 5 7 4 9 1 10 2 11 3 12 19 13 20 14
REMARK SMILES IDX 30 15 21 16 29 17 22 18 23 19 28 20 24 21 27 22 25 23 26 24
REMARK SMILES IDX 12 25 13 26 14 27 15 28 16 29 17 30 18 31
REMARK H PARENT 5 8
ROOT
ATOM      1  C   UNL     1      13.942 -25.131 -43.326  1.00  0.00     0.081 A 
ATOM      2  C   UNL     1      12.779 -25.414 -42.584  1.00  0.00     0.030 A 
ATOM      3  C   UNL     1      12.753 -25.289 -41.194  1.00  0.00     0.002 A 
ATOM      4  C   UNL     1      13.887 -24.861 -40.516  1.00  0.00     0.004 A 
ATOM      5  C   UNL     1      15.050 -24.564 -41.226  1.00  0.00     0.049 A 
ATOM      6  C   UNL     1      15.090 -24.709 -42.619  1.00  0.00     0.149 A 
ENDROOT
BRANCH   1   7
ATOM      7  N   UNL     1      13.835 -25.234 -44.735  1.00  0.00    -0.357 N 
ATOM      8  H   UNL     1      14.678 -24.935 -45.223  1.00  0.00     0.166 HD
BRANCH   7   9
ATOM      9  C   UNL     1      12.694 -25.361 -45.496  1.00  0.00     0.105 C 
ATOM     10  N   UNL     1      12.744 -21.963 -46.096  1.00  0.00    -0.192 NA
ATOM     11  C   UNL     1      12.380 -23.065 -46.127  1.00  0.00     0.104 C 
ATOM     12  C   UNL     1      11.974 -24.431 -46.154  1.00  0.00     0.104 C 
BRANCH  12  13
ATOM     13  C   UNL     1      10.771 -24.859 -46.818  1.00  0.00     0.136 A 
ATOM     14  N   UNL     1      10.043 -24.124 -47.645  1.00  0.00    -0.235 NA
ATOM     15  S   UNL     1      10.137 -26.462 -46.600  1.00  0.00    -0.121 S 
ATOM     16  C   UNL     1       8.971 -24.834 -48.160  1.00  0.00     0.082 A 
ATOM     17  C   UNL     1       8.862 -26.124 -47.688  1.00  0.00     0.096 A 
BRANCH  16  18
ATOM     18  C   UNL     1       8.052 -24.213 -49.108  1.00  0.00     0.001 A 
ATOM     19  C   UNL     1       8.573 -23.466 -50.179  1.00  0.00     0.013 A 
ATOM     20  C   UNL     1       6.660 -24.355 -48.996  1.00  0.00     0.013 A 
ATOM     21  C   UNL     1       7.721 -22.865 -51.110  1.00  0.00     0.040 A 
ATOM     22  C   UNL     1       5.809 -23.754 -49.930  1.00  0.00     0.040 A 
ATOM     23  C   UNL     1       6.347 -23.014 -50.975  1.00  0.00     0.123 A 
ATOM     24  F   UNL     1       5.531 -22.440 -51.867  1.00  0.00    -0.207 F 
ENDBRANCH  16  18
ENDBRANCH  12  13
ENDBRANCH   7   9
ENDBRANCH   1   7
BRANCH   6  25
ATOM     25  O   UNL     1      16.223 -24.424 -43.332  1.00  0.00    -0.427 OA
BRANCH  25  26
ATOM     26  C   UNL     1      16.617 -23.052 -43.413  1.00  0.00     0.444 C 
ATOM     27  F   UNL     1      17.454 -22.731 -42.393  1.00  0.00    -0.159 F 
ATOM     28  F   UNL     1      15.494 -22.294 -43.270  1.00  0.00    -0.159 F 
BRANCH  26  29
ATOM     29  C   UNL     1      17.262 -22.760 -44.773  1.00  0.00     0.371 C 
ATOM     30  F   UNL     1      16.500 -21.876 -45.480  1.00  0.00    -0.219 F 
ATOM     31  Cl  UNL     1      18.905 -22.067 -44.620  1.00  0.00    -0.075 Cl
ENDBRANCH  26  29
ENDBRANCH  25  26
ENDBRANCH   6  25
TORSDOF 7
ENDMDL
