REMARK SMILES O=C(CNC(=O)c1ccco1)NCC(=O)OCCCn1c(=O)[nH]c2ccccc21
REMARK SMILES IDX 14 1 15 2 13 3 12 4 1 5 2 6 3 8 4 9 5 10 6 11 7 13 8 14
REMARK SMILES IDX 11 15 9 16 10 17 16 18 17 19 18 20 19 21 20 22 21 23 29 24
REMARK SMILES IDX 22 25 23 26 28 27 24 28 27 29 25 30 26 31
REMARK H PARENT 12 7 4 12 23 32
ROOT
ATOM      1  C   UNL     1       0.890  -1.515   2.210  1.00  0.00     0.325 C 
ATOM      2  O   UNL     1       0.593  -2.635   1.814  1.00  0.00    -0.250 OA
ENDROOT
BRANCH   1   3
ATOM      3  C   UNL     1      -0.065  -0.329   2.300  1.00  0.00     0.238 C 
BRANCH   3   4
ATOM      4  N   UNL     1      -1.278  -0.572   1.536  1.00  0.00    -0.344 N 
ATOM      5  O   UNL     1      -2.450  -1.360   3.343  1.00  0.00    -0.273 OA
ATOM      6  C   UNL     1      -2.377  -1.150   2.134  1.00  0.00     0.239 C 
ATOM      7  H   UNL     1      -1.159  -0.772   0.544  1.00  0.00     0.164 HD
BRANCH   6   8
ATOM      8  C   UNL     1      -3.463  -1.623   1.162  1.00  0.00     0.216 C 
BRANCH   8   9
ATOM      9  N   UNL     1      -3.807  -0.630   0.159  1.00  0.00    -0.340 N 
ATOM     10  C   UNL     1      -3.117  -0.481  -1.020  1.00  0.00     0.287 C 
ATOM     11  O   UNL     1      -2.121  -1.153  -1.277  1.00  0.00    -0.266 OA
ATOM     12  H   UNL     1      -4.552   0.031   0.351  1.00  0.00     0.164 HD
BRANCH  10  13
ATOM     13  C   UNL     1      -3.639   0.550  -1.890  1.00  0.00     0.191 A 
ATOM     14  C   UNL     1      -3.249   0.960  -3.151  1.00  0.00     0.056 A 
ATOM     15  O   UNL     1      -4.706   1.307  -1.475  1.00  0.00    -0.459 OA
ATOM     16  C   UNL     1      -4.116   2.016  -3.523  1.00  0.00     0.043 A 
ATOM     17  C   UNL     1      -4.983   2.188  -2.471  1.00  0.00     0.196 A 
ENDBRANCH  10  13
ENDBRANCH   8   9
ENDBRANCH   6   8
ENDBRANCH   3   4
ENDBRANCH   1   3
BRANCH   1  18
ATOM     18  O   UNL     1       2.133  -1.134   2.624  1.00  0.00    -0.464 OA
BRANCH  18  19
ATOM     19  C   UNL     1       3.156  -2.139   2.552  1.00  0.00     0.235 C 
BRANCH  19  20
ATOM     20  C   UNL     1       3.629  -2.398   1.120  1.00  0.00     0.064 C 
BRANCH  20  21
ATOM     21  C   UNL     1       4.441  -1.255   0.505  1.00  0.00     0.131 C 
BRANCH  21  22
ATOM     22  N   UNL     1       3.758   0.009   0.426  1.00  0.00    -0.292 N 
ATOM     23  C   UNL     1       4.063   1.138   1.217  1.00  0.00     0.326 C 
ATOM     24  C   UNL     1       2.686   0.330  -0.419  1.00  0.00     0.069 A 
ATOM     25  O   UNL     1       4.927   1.243   2.071  1.00  0.00    -0.248 OA
ATOM     26  N   UNL     1       3.164   2.146   0.835  1.00  0.00    -0.306 N 
ATOM     27  C   UNL     1       2.010  -0.425  -1.352  1.00  0.00     0.028 A 
ATOM     28  C   UNL     1       2.325   1.653  -0.156  1.00  0.00     0.066 A 
ATOM     29  C   UNL     1       0.940   0.188  -2.014  1.00  0.00     0.002 A 
ATOM     30  C   UNL     1       1.285   2.281  -0.800  1.00  0.00     0.028 A 
ATOM     31  C   UNL     1       0.582   1.526  -1.743  1.00  0.00     0.002 A 
ATOM     32  H   UNL     1       3.154   3.065   1.245  1.00  0.00     0.171 HD
ENDBRANCH  21  22
ENDBRANCH  20  21
ENDBRANCH  19  20
ENDBRANCH  18  19
ENDBRANCH   1  18
TORSDOF 10
