MODEL 1
REMARK VINA RESULT:    -7.410      0.000      0.000
REMARK INTER + INTRA:         -12.944
REMARK INTER:                 -11.743
REMARK INTRA:                  -1.201
REMARK UNBOUND:                -1.201
REMARK SMILES CCOC(=O)CN(C(=O)Cn1cc([N+](=O)[O-])cc(C(N)=O)c1=O)c1ccccc1
REMARK SMILES IDX 7 1 6 2 4 3 5 4 3 5 2 6 1 7 8 8 9 9 10 10 11 11 12 12 22 13
REMARK SMILES IDX 13 14 18 15 23 16 17 17 14 18 15 19 16 20 19 21 20 22 21 23
REMARK SMILES IDX 24 26 25 27 29 28 26 29 28 30 27 31
REMARK H PARENT 20 24 20 25
ROOT
ATOM      1  N   UNL     1      12.646 -21.049 -49.493  1.00  0.00    -0.300 N 
ENDROOT
BRANCH   1   2
ATOM      2  C   UNL     1      11.556 -21.975 -49.850  1.00  0.00     0.248 C 
BRANCH   2   3
ATOM      3  C   UNL     1      11.430 -23.207 -48.960  1.00  0.00     0.326 C 
ATOM      4  O   UNL     1      12.174 -24.176 -49.068  1.00  0.00    -0.250 OA
BRANCH   3   5
ATOM      5  O   UNL     1      10.424 -23.101 -48.053  1.00  0.00    -0.465 OA
BRANCH   5   6
ATOM      6  C   UNL     1       9.428 -24.136 -48.080  1.00  0.00     0.229 C 
ATOM      7  C   UNL     1       8.421 -23.878 -49.183  1.00  0.00     0.049 C 
ENDBRANCH   5   6
ENDBRANCH   3   5
ENDBRANCH   2   3
ENDBRANCH   1   2
BRANCH   1   8
ATOM      8  C   UNL     1      13.186 -20.954 -48.200  1.00  0.00     0.247 C 
ATOM      9  O   UNL     1      12.823 -20.090 -47.388  1.00  0.00    -0.272 OA
BRANCH   8  10
ATOM     10  C   UNL     1      14.388 -21.830 -47.769  1.00  0.00     0.226 C 
BRANCH  10  11
ATOM     11  N   UNL     1      14.557 -22.250 -46.376  1.00  0.00    -0.299 N 
ATOM     12  C   UNL     1      13.469 -22.767 -45.677  1.00  0.00     0.175 C 
ATOM     13  C   UNL     1      15.868 -22.364 -45.892  1.00  0.00     0.264 C 
ATOM     14  C   UNL     1      13.624 -23.287 -44.450  1.00  0.00     0.286 C 
ATOM     15  C   UNL     1      16.024 -22.908 -44.502  1.00  0.00     0.111 C 
ATOM     16  O   UNL     1      16.847 -22.010 -46.545  1.00  0.00    -0.268 OA
ATOM     17  C   UNL     1      14.931 -23.334 -43.838  1.00  0.00     0.107 C 
BRANCH  14  18
ATOM     18  N   UNL     1      12.437 -23.817 -43.774  1.00  0.00     0.064 N 
ATOM     19  O   UNL     1      12.624 -24.624 -42.855  1.00  0.00    -0.258 OA
ATOM     20  O   UNL     1      11.324 -23.441 -44.166  1.00  0.00    -0.258 OA
ENDBRANCH  14  18
BRANCH  15  21
ATOM     21  C   UNL     1      17.335 -23.012 -43.799  1.00  0.00     0.254 C 
ATOM     22  N   UNL     1      18.413 -23.324 -44.561  1.00  0.00    -0.365 N 
ATOM     23  O   UNL     1      17.453 -22.824 -42.593  1.00  0.00    -0.269 OA
ATOM     24  H   UNL     1      18.340 -23.510 -45.560  1.00  0.00     0.159 HD
ATOM     25  H   UNL     1      19.314 -23.421 -44.114  1.00  0.00     0.159 HD
ENDBRANCH  15  21
ENDBRANCH  10  11
ENDBRANCH   8  10
ENDBRANCH   1   8
BRANCH   1  26
ATOM     26  C   UNL     1      13.216 -20.275 -50.569  1.00  0.00     0.044 A 
ATOM     27  C   UNL     1      13.691 -18.974 -50.351  1.00  0.00     0.026 A 
ATOM     28  C   UNL     1      13.340 -20.805 -51.864  1.00  0.00     0.026 A 
ATOM     29  C   UNL     1      14.276 -18.231 -51.383  1.00  0.00     0.002 A 
ATOM     30  C   UNL     1      13.922 -20.063 -52.898  1.00  0.00     0.002 A 
ATOM     31  C   UNL     1      14.393 -18.777 -52.657  1.00  0.00     0.000 A 
ENDBRANCH   1  26
TORSDOF 10
ENDMDL
MODEL 2
REMARK VINA RESULT:    -7.386      2.489      4.520
REMARK INTER + INTRA:         -12.905
REMARK INTER:                 -11.011
REMARK INTRA:                  -1.894
REMARK UNBOUND:                -1.201
REMARK SMILES CCOC(=O)CN(C(=O)Cn1cc([N+](=O)[O-])cc(C(N)=O)c1=O)c1ccccc1
REMARK SMILES IDX 7 1 6 2 4 3 5 4 3 5 2 6 1 7 8 8 9 9 10 10 11 11 12 12 22 13
REMARK SMILES IDX 13 14 18 15 23 16 17 17 14 18 15 19 16 20 19 21 20 22 21 23
REMARK SMILES IDX 24 26 25 27 29 28 26 29 28 30 27 31
REMARK H PARENT 20 24 20 25
ROOT
ATOM      1  N   UNL     1      12.097 -24.053 -46.273  1.00  0.00    -0.300 N 
ENDROOT
BRANCH   1   2
ATOM      2  C   UNL     1      11.419 -25.071 -47.095  1.00  0.00     0.248 C 
BRANCH   2   3
ATOM      3  C   UNL     1      10.330 -24.540 -48.022  1.00  0.00     0.326 C 
ATOM      4  O   UNL     1       9.399 -23.853 -47.616  1.00  0.00    -0.250 OA
BRANCH   3   5
ATOM      5  O   UNL     1      10.516 -24.906 -49.317  1.00  0.00    -0.465 OA
BRANCH   5   6
ATOM      6  C   UNL     1      10.176 -23.926 -50.311  1.00  0.00     0.229 C 
ATOM      7  C   UNL     1      11.305 -22.929 -50.484  1.00  0.00     0.049 C 
ENDBRANCH   5   6
ENDBRANCH   3   5
ENDBRANCH   2   3
ENDBRANCH   1   2
BRANCH   1   8
ATOM      8  C   UNL     1      12.129 -24.089 -44.870  1.00  0.00     0.247 C 
ATOM      9  O   UNL     1      11.530 -23.261 -44.168  1.00  0.00    -0.272 OA
BRANCH   8  10
ATOM     10  C   UNL     1      13.054 -25.076 -44.116  1.00  0.00     0.226 C 
BRANCH  10  11
ATOM     11  N   UNL     1      14.248 -24.606 -43.411  1.00  0.00    -0.299 N 
ATOM     12  C   UNL     1      15.181 -23.821 -44.085  1.00  0.00     0.175 C 
ATOM     13  C   UNL     1      14.269 -24.743 -42.016  1.00  0.00     0.264 C 
ATOM     14  C   UNL     1      16.211 -23.263 -43.433  1.00  0.00     0.286 C 
ATOM     15  C   UNL     1      15.449 -24.150 -41.302  1.00  0.00     0.111 C 
ATOM     16  O   UNL     1      13.393 -25.343 -41.398  1.00  0.00    -0.268 OA
ATOM     17  C   UNL     1      16.362 -23.455 -42.009  1.00  0.00     0.107 C 
BRANCH  14  18
ATOM     18  N   UNL     1      17.150 -22.445 -44.203  1.00  0.00     0.064 N 
ATOM     19  O   UNL     1      16.739 -21.961 -45.265  1.00  0.00    -0.258 OA
ATOM     20  O   UNL     1      18.297 -22.295 -43.758  1.00  0.00    -0.258 OA
ENDBRANCH  14  18
BRANCH  15  21
ATOM     21  C   UNL     1      15.676 -24.282 -39.834  1.00  0.00     0.254 C 
ATOM     22  N   UNL     1      14.616 -24.024 -39.027  1.00  0.00    -0.365 N 
ATOM     23  O   UNL     1      16.759 -24.609 -39.361  1.00  0.00    -0.269 OA
ATOM     24  H   UNL     1      13.712 -23.725 -39.391  1.00  0.00     0.159 HD
ATOM     25  H   UNL     1      14.740 -24.085 -38.026  1.00  0.00     0.159 HD
ENDBRANCH  15  21
ENDBRANCH  10  11
ENDBRANCH   8  10
ENDBRANCH   1   8
BRANCH   1  26
ATOM     26  C   UNL     1      12.823 -23.027 -46.984  1.00  0.00     0.044 A 
ATOM     27  C   UNL     1      14.072 -23.295 -47.564  1.00  0.00     0.026 A 
ATOM     28  C   UNL     1      12.296 -21.735 -47.141  1.00  0.00     0.026 A 
ATOM     29  C   UNL     1      14.766 -22.314 -48.282  1.00  0.00     0.002 A 
ATOM     30  C   UNL     1      12.989 -20.752 -47.857  1.00  0.00     0.002 A 
ATOM     31  C   UNL     1      14.222 -21.043 -48.430  1.00  0.00     0.000 A 
ENDBRANCH   1  26
TORSDOF 10
ENDMDL
MODEL 3
REMARK VINA RESULT:    -7.268      3.024      8.724
REMARK INTER + INTRA:         -12.719
REMARK INTER:                 -11.178
REMARK INTRA:                  -1.541
REMARK UNBOUND:                -1.201
REMARK SMILES CCOC(=O)CN(C(=O)Cn1cc([N+](=O)[O-])cc(C(N)=O)c1=O)c1ccccc1
REMARK SMILES IDX 7 1 6 2 4 3 5 4 3 5 2 6 1 7 8 8 9 9 10 10 11 11 12 12 22 13
REMARK SMILES IDX 13 14 18 15 23 16 17 17 14 18 15 19 16 20 19 21 20 22 21 23
REMARK SMILES IDX 24 26 25 27 29 28 26 29 28 30 27 31
REMARK H PARENT 20 24 20 25
ROOT
ATOM      1  N   UNL     1      14.535 -24.643 -42.669  1.00  0.00    -0.300 N 
ENDROOT
BRANCH   1   2
ATOM      2  C   UNL     1      15.862 -24.383 -43.255  1.00  0.00     0.248 C 
BRANCH   2   3
ATOM      3  C   UNL     1      16.376 -22.956 -43.096  1.00  0.00     0.326 C 
ATOM      4  O   UNL     1      15.666 -21.975 -43.295  1.00  0.00    -0.250 OA
BRANCH   3   5
ATOM      5  O   UNL     1      17.678 -22.904 -42.710  1.00  0.00    -0.465 OA
BRANCH   5   6
ATOM      6  C   UNL     1      18.651 -23.268 -43.702  1.00  0.00     0.229 C 
ATOM      7  C   UNL     1      19.033 -22.064 -44.541  1.00  0.00     0.049 C 
ENDBRANCH   5   6
ENDBRANCH   3   5
ENDBRANCH   2   3
ENDBRANCH   1   2
BRANCH   1   8
ATOM      8  C   UNL     1      13.414 -25.014 -43.430  1.00  0.00     0.247 C 
ATOM      9  O   UNL     1      13.191 -26.188 -43.760  1.00  0.00    -0.272 OA
BRANCH   8  10
ATOM     10  C   UNL     1      12.474 -23.945 -44.040  1.00  0.00     0.226 C 
BRANCH  10  11
ATOM     11  N   UNL     1      12.566 -23.576 -45.455  1.00  0.00    -0.299 N 
ATOM     12  C   UNL     1      13.749 -23.031 -45.948  1.00  0.00     0.175 C 
ATOM     13  C   UNL     1      11.552 -24.035 -46.308  1.00  0.00     0.264 C 
ATOM     14  C   UNL     1      13.911 -22.812 -47.262  1.00  0.00     0.286 C 
ATOM     15  C   UNL     1      11.726 -23.746 -47.771  1.00  0.00     0.111 C 
ATOM     16  O   UNL     1      10.552 -24.615 -45.893  1.00  0.00    -0.268 OA
ATOM     17  C   UNL     1      12.861 -23.154 -48.192  1.00  0.00     0.107 C 
BRANCH  14  18
ATOM     18  N   UNL     1      15.182 -22.240 -47.711  1.00  0.00     0.064 N 
ATOM     19  O   UNL     1      15.189 -21.669 -48.809  1.00  0.00    -0.258 OA
ATOM     20  O   UNL     1      16.174 -22.371 -46.980  1.00  0.00    -0.258 OA
ENDBRANCH  14  18
BRANCH  15  21
ATOM     21  C   UNL     1      10.704 -24.081 -48.804  1.00  0.00     0.254 C 
ATOM     22  N   UNL     1       9.479 -23.518 -48.656  1.00  0.00    -0.365 N 
ATOM     23  O   UNL     1      10.942 -24.825 -49.749  1.00  0.00    -0.269 OA
ATOM     24  H   UNL     1       9.246 -22.917 -47.867  1.00  0.00     0.159 HD
ATOM     25  H   UNL     1       8.757 -23.738 -49.328  1.00  0.00     0.159 HD
ENDBRANCH  15  21
ENDBRANCH  10  11
ENDBRANCH   8  10
ENDBRANCH   1   8
BRANCH   1  26
ATOM     26  C   UNL     1      14.440 -24.583 -41.230  1.00  0.00     0.044 A 
ATOM     27  C   UNL     1      13.255 -24.176 -40.600  1.00  0.00     0.026 A 
ATOM     28  C   UNL     1      15.519 -24.954 -40.411  1.00  0.00     0.026 A 
ATOM     29  C   UNL     1      13.146 -24.148 -39.205  1.00  0.00     0.002 A 
ATOM     30  C   UNL     1      15.413 -24.924 -39.015  1.00  0.00     0.002 A 
ATOM     31  C   UNL     1      14.225 -24.525 -38.413  1.00  0.00     0.000 A 
ENDBRANCH   1  26
TORSDOF 10
ENDMDL
MODEL 4
REMARK VINA RESULT:    -7.090      2.416      7.174
REMARK INTER + INTRA:         -12.437
REMARK INTER:                 -11.188
REMARK INTRA:                  -1.248
REMARK UNBOUND:                -1.201
REMARK SMILES CCOC(=O)CN(C(=O)Cn1cc([N+](=O)[O-])cc(C(N)=O)c1=O)c1ccccc1
REMARK SMILES IDX 7 1 6 2 4 3 5 4 3 5 2 6 1 7 8 8 9 9 10 10 11 11 12 12 22 13
REMARK SMILES IDX 13 14 18 15 23 16 17 17 14 18 15 19 16 20 19 21 20 22 21 23
REMARK SMILES IDX 24 26 25 27 29 28 26 29 28 30 27 31
REMARK H PARENT 20 24 20 25
ROOT
ATOM      1  N   UNL     1      13.803 -23.816 -43.781  1.00  0.00    -0.300 N 
ENDROOT
BRANCH   1   2
ATOM      2  C   UNL     1      13.631 -23.937 -42.322  1.00  0.00     0.248 C 
BRANCH   2   3
ATOM      3  C   UNL     1      13.529 -25.365 -41.795  1.00  0.00     0.326 C 
ATOM      4  O   UNL     1      13.490 -26.339 -42.539  1.00  0.00    -0.250 OA
BRANCH   3   5
ATOM      5  O   UNL     1      13.495 -25.424 -40.438  1.00  0.00    -0.465 OA
BRANCH   5   6
ATOM      6  C   UNL     1      13.368 -24.170 -39.748  1.00  0.00     0.229 C 
ATOM      7  C   UNL     1      13.629 -24.349 -38.266  1.00  0.00     0.049 C 
ENDBRANCH   5   6
ENDBRANCH   3   5
ENDBRANCH   2   3
ENDBRANCH   1   2
BRANCH   1   8
ATOM      8  C   UNL     1      12.731 -23.814 -44.688  1.00  0.00     0.247 C 
ATOM      9  O   UNL     1      11.601 -23.406 -44.383  1.00  0.00    -0.272 OA
BRANCH   8  10
ATOM     10  C   UNL     1      12.861 -24.478 -46.081  1.00  0.00     0.226 C 
BRANCH  10  11
ATOM     11  N   UNL     1      12.322 -23.832 -47.279  1.00  0.00    -0.299 N 
ATOM     12  C   UNL     1      11.007 -24.085 -47.665  1.00  0.00     0.175 C 
ATOM     13  C   UNL     1      13.066 -22.782 -47.836  1.00  0.00     0.264 C 
ATOM     14  C   UNL     1      10.444 -23.406 -48.675  1.00  0.00     0.286 C 
ATOM     15  C   UNL     1      12.440 -22.057 -48.992  1.00  0.00     0.111 C 
ATOM     16  O   UNL     1      14.186 -22.478 -47.432  1.00  0.00    -0.268 OA
ATOM     17  C   UNL     1      11.189 -22.384 -49.372  1.00  0.00     0.107 C 
BRANCH  14  18
ATOM     18  N   UNL     1       9.056 -23.719 -49.023  1.00  0.00     0.064 N 
ATOM     19  O   UNL     1       8.817 -23.987 -50.208  1.00  0.00    -0.258 OA
ATOM     20  O   UNL     1       8.205 -23.687 -48.123  1.00  0.00    -0.258 OA
ENDBRANCH  14  18
BRANCH  15  21
ATOM     21  C   UNL     1      13.127 -20.978 -49.758  1.00  0.00     0.254 C 
ATOM     22  N   UNL     1      14.484 -21.002 -49.763  1.00  0.00    -0.365 N 
ATOM     23  O   UNL     1      12.515 -20.104 -50.362  1.00  0.00    -0.269 OA
ATOM     24  H   UNL     1      15.020 -21.701 -49.249  1.00  0.00     0.159 HD
ATOM     25  H   UNL     1      14.983 -20.274 -50.256  1.00  0.00     0.159 HD
ENDBRANCH  15  21
ENDBRANCH  10  11
ENDBRANCH   8  10
ENDBRANCH   1   8
BRANCH   1  26
ATOM     26  C   UNL     1      15.150 -23.609 -44.259  1.00  0.00     0.044 A 
ATOM     27  C   UNL     1      15.950 -24.691 -44.655  1.00  0.00     0.026 A 
ATOM     28  C   UNL     1      15.696 -22.320 -44.367  1.00  0.00     0.026 A 
ATOM     29  C   UNL     1      17.245 -24.494 -45.151  1.00  0.00     0.002 A 
ATOM     30  C   UNL     1      16.991 -22.121 -44.860  1.00  0.00     0.002 A 
ATOM     31  C   UNL     1      17.764 -23.208 -45.255  1.00  0.00     0.000 A 
ENDBRANCH   1  26
TORSDOF 10
ENDMDL
MODEL 5
REMARK VINA RESULT:    -7.067      2.315      7.975
REMARK INTER + INTRA:         -12.400
REMARK INTER:                 -11.306
REMARK INTRA:                  -1.093
REMARK UNBOUND:                -1.201
REMARK SMILES CCOC(=O)CN(C(=O)Cn1cc([N+](=O)[O-])cc(C(N)=O)c1=O)c1ccccc1
REMARK SMILES IDX 7 1 6 2 4 3 5 4 3 5 2 6 1 7 8 8 9 9 10 10 11 11 12 12 22 13
REMARK SMILES IDX 13 14 18 15 23 16 17 17 14 18 15 19 16 20 19 21 20 22 21 23
REMARK SMILES IDX 24 26 25 27 29 28 26 29 28 30 27 31
REMARK H PARENT 20 24 20 25
ROOT
ATOM      1  N   UNL     1      14.719 -24.134 -44.297  1.00  0.00    -0.300 N 
ENDROOT
BRANCH   1   2
ATOM      2  C   UNL     1      16.160 -24.429 -44.385  1.00  0.00     0.248 C 
BRANCH   2   3
ATOM      3  C   UNL     1      17.024 -23.789 -43.304  1.00  0.00     0.326 C 
ATOM      4  O   UNL     1      17.472 -24.426 -42.357  1.00  0.00    -0.250 OA
BRANCH   3   5
ATOM      5  O   UNL     1      17.236 -22.463 -43.516  1.00  0.00    -0.465 OA
BRANCH   5   6
ATOM      6  C   UNL     1      17.892 -22.111 -44.744  1.00  0.00     0.229 C 
ATOM      7  C   UNL     1      19.385 -21.964 -44.527  1.00  0.00     0.049 C 
ENDBRANCH   5   6
ENDBRANCH   3   5
ENDBRANCH   2   3
ENDBRANCH   1   2
BRANCH   1   8
ATOM      8  C   UNL     1      14.005 -23.458 -45.301  1.00  0.00     0.247 C 
ATOM      9  O   UNL     1      13.048 -22.712 -45.050  1.00  0.00    -0.272 OA
BRANCH   8  10
ATOM     10  C   UNL     1      14.277 -23.737 -46.799  1.00  0.00     0.226 C 
BRANCH  10  11
ATOM     11  N   UNL     1      13.395 -23.203 -47.840  1.00  0.00    -0.299 N 
ATOM     12  C   UNL     1      12.059 -23.596 -47.877  1.00  0.00     0.175 C 
ATOM     13  C   UNL     1      13.866 -22.117 -48.590  1.00  0.00     0.264 C 
ATOM     14  C   UNL     1      11.196 -23.022 -48.729  1.00  0.00     0.286 C 
ATOM     15  C   UNL     1      12.904 -21.510 -49.569  1.00  0.00     0.111 C 
ATOM     16  O   UNL     1      15.015 -21.691 -48.487  1.00  0.00    -0.268 OA
ATOM     17  C   UNL     1      11.638 -21.971 -49.615  1.00  0.00     0.107 C 
BRANCH  14  18
ATOM     18  N   UNL     1       9.805 -23.480 -48.710  1.00  0.00     0.064 N 
ATOM     19  O   UNL     1       9.349 -23.858 -47.624  1.00  0.00    -0.258 OA
ATOM     20  O   UNL     1       9.173 -23.475 -49.776  1.00  0.00    -0.258 OA
ENDBRANCH  14  18
BRANCH  15  21
ATOM     21  C   UNL     1      13.266 -20.411 -50.508  1.00  0.00     0.254 C 
ATOM     22  N   UNL     1      13.807 -19.293 -49.960  1.00  0.00    -0.365 N 
ATOM     23  O   UNL     1      13.095 -20.494 -51.720  1.00  0.00    -0.269 OA
ATOM     24  H   UNL     1      13.937 -19.186 -48.955  1.00  0.00     0.159 HD
ATOM     25  H   UNL     1      14.046 -18.520 -50.566  1.00  0.00     0.159 HD
ENDBRANCH  15  21
ENDBRANCH  10  11
ENDBRANCH   8  10
ENDBRANCH   1   8
BRANCH   1  26
ATOM     26  C   UNL     1      14.022 -24.652 -43.143  1.00  0.00     0.044 A 
ATOM     27  C   UNL     1      13.437 -25.927 -43.164  1.00  0.00     0.026 A 
ATOM     28  C   UNL     1      13.926 -23.911 -41.955  1.00  0.00     0.026 A 
ATOM     29  C   UNL     1      12.789 -26.448 -42.038  1.00  0.00     0.002 A 
ATOM     30  C   UNL     1      13.276 -24.429 -40.828  1.00  0.00     0.002 A 
ATOM     31  C   UNL     1      12.711 -25.699 -40.869  1.00  0.00     0.000 A 
ENDBRANCH   1  26
TORSDOF 10
ENDMDL
MODEL 6
REMARK VINA RESULT:    -7.061      2.768      7.610
REMARK INTER + INTRA:         -12.390
REMARK INTER:                 -10.916
REMARK INTRA:                  -1.475
REMARK UNBOUND:                -1.201
REMARK SMILES CCOC(=O)CN(C(=O)Cn1cc([N+](=O)[O-])cc(C(N)=O)c1=O)c1ccccc1
REMARK SMILES IDX 7 1 6 2 4 3 5 4 3 5 2 6 1 7 8 8 9 9 10 10 11 11 12 12 22 13
REMARK SMILES IDX 13 14 18 15 23 16 17 17 14 18 15 19 16 20 19 21 20 22 21 23
REMARK SMILES IDX 24 26 25 27 29 28 26 29 28 30 27 31
REMARK H PARENT 20 24 20 25
ROOT
ATOM      1  N   UNL     1      13.566 -24.523 -44.173  1.00  0.00    -0.300 N 
ENDROOT
BRANCH   1   2
ATOM      2  C   UNL     1      13.759 -25.645 -43.237  1.00  0.00     0.248 C 
BRANCH   2   3
ATOM      3  C   UNL     1      13.098 -25.476 -41.872  1.00  0.00     0.326 C 
ATOM      4  O   UNL     1      12.292 -26.287 -41.428  1.00  0.00    -0.250 OA
BRANCH   3   5
ATOM      5  O   UNL     1      13.505 -24.353 -41.225  1.00  0.00    -0.465 OA
BRANCH   5   6
ATOM      6  C   UNL     1      14.207 -24.550 -39.987  1.00  0.00     0.229 C 
ATOM      7  C   UNL     1      13.365 -24.083 -38.817  1.00  0.00     0.049 C 
ENDBRANCH   5   6
ENDBRANCH   3   5
ENDBRANCH   2   3
ENDBRANCH   1   2
BRANCH   1   8
ATOM      8  C   UNL     1      12.304 -24.096 -44.618  1.00  0.00     0.247 C 
ATOM      9  O   UNL     1      11.547 -23.409 -43.917  1.00  0.00    -0.272 OA
BRANCH   8  10
ATOM     10  C   UNL     1      11.718 -24.600 -45.960  1.00  0.00     0.226 C 
BRANCH  10  11
ATOM     11  N   UNL     1      11.516 -23.687 -47.087  1.00  0.00    -0.299 N 
ATOM     12  C   UNL     1      12.434 -22.665 -47.317  1.00  0.00     0.175 C 
ATOM     13  C   UNL     1      10.554 -24.046 -48.042  1.00  0.00     0.264 C 
ATOM     14  C   UNL     1      12.352 -21.902 -48.417  1.00  0.00     0.286 C 
ATOM     15  C   UNL     1      10.445 -23.159 -49.249  1.00  0.00     0.111 C 
ATOM     16  O   UNL     1       9.809 -25.012 -47.900  1.00  0.00    -0.268 OA
ATOM     17  C   UNL     1      11.315 -22.139 -49.394  1.00  0.00     0.107 C 
BRANCH  14  18
ATOM     18  N   UNL     1      13.354 -20.848 -48.598  1.00  0.00     0.064 N 
ATOM     19  O   UNL     1      13.000 -19.686 -48.363  1.00  0.00    -0.258 OA
ATOM     20  O   UNL     1      14.484 -21.176 -48.986  1.00  0.00    -0.258 OA
ENDBRANCH  14  18
BRANCH  15  21
ATOM     21  C   UNL     1       9.419 -23.340 -50.315  1.00  0.00     0.254 C 
ATOM     22  N   UNL     1       8.127 -23.433 -49.910  1.00  0.00    -0.365 N 
ATOM     23  O   UNL     1       9.708 -23.401 -51.505  1.00  0.00    -0.269 OA
ATOM     24  H   UNL     1       7.861 -23.411 -48.926  1.00  0.00     0.159 HD
ATOM     25  H   UNL     1       7.408 -23.576 -50.605  1.00  0.00     0.159 HD
ENDBRANCH  15  21
ENDBRANCH  10  11
ENDBRANCH   8  10
ENDBRANCH   1   8
BRANCH   1  26
ATOM     26  C   UNL     1      14.751 -23.799 -44.567  1.00  0.00     0.044 A 
ATOM     27  C   UNL     1      15.221 -22.714 -43.812  1.00  0.00     0.026 A 
ATOM     28  C   UNL     1      15.489 -24.170 -45.703  1.00  0.00     0.026 A 
ATOM     29  C   UNL     1      16.387 -22.029 -44.171  1.00  0.00     0.002 A 
ATOM     30  C   UNL     1      16.655 -23.485 -46.065  1.00  0.00     0.002 A 
ATOM     31  C   UNL     1      17.106 -22.417 -45.297  1.00  0.00     0.000 A 
ENDBRANCH   1  26
TORSDOF 10
ENDMDL
MODEL 7
REMARK VINA RESULT:    -7.020      3.401      7.893
REMARK INTER + INTRA:         -12.325
REMARK INTER:                 -10.908
REMARK INTRA:                  -1.417
REMARK UNBOUND:                -1.201
REMARK SMILES CCOC(=O)CN(C(=O)Cn1cc([N+](=O)[O-])cc(C(N)=O)c1=O)c1ccccc1
REMARK SMILES IDX 7 1 6 2 4 3 5 4 3 5 2 6 1 7 8 8 9 9 10 10 11 11 12 12 22 13
REMARK SMILES IDX 13 14 18 15 23 16 17 17 14 18 15 19 16 20 19 21 20 22 21 23
REMARK SMILES IDX 24 26 25 27 29 28 26 29 28 30 27 31
REMARK H PARENT 20 24 20 25
ROOT
ATOM      1  N   UNL     1      13.706 -24.636 -44.238  1.00  0.00    -0.300 N 
ENDROOT
BRANCH   1   2
ATOM      2  C   UNL     1      13.959 -25.698 -43.248  1.00  0.00     0.248 C 
BRANCH   2   3
ATOM      3  C   UNL     1      13.281 -25.503 -41.896  1.00  0.00     0.326 C 
ATOM      4  O   UNL     1      12.337 -26.194 -41.528  1.00  0.00    -0.250 OA
BRANCH   3   5
ATOM      5  O   UNL     1      13.840 -24.503 -41.166  1.00  0.00    -0.465 OA
BRANCH   5   6
ATOM      6  C   UNL     1      13.218 -24.211 -39.904  1.00  0.00     0.229 C 
ATOM      7  C   UNL     1      14.174 -24.495 -38.762  1.00  0.00     0.049 C 
ENDBRANCH   5   6
ENDBRANCH   3   5
ENDBRANCH   2   3
ENDBRANCH   1   2
BRANCH   1   8
ATOM      8  C   UNL     1      12.428 -24.335 -44.738  1.00  0.00     0.247 C 
ATOM      9  O   UNL     1      11.677 -23.512 -44.194  1.00  0.00    -0.272 OA
BRANCH   8  10
ATOM     10  C   UNL     1      11.819 -25.139 -45.913  1.00  0.00     0.226 C 
BRANCH  10  11
ATOM     11  N   UNL     1      10.980 -24.487 -46.921  1.00  0.00    -0.299 N 
ATOM     12  C   UNL     1      11.521 -23.487 -47.725  1.00  0.00     0.175 C 
ATOM     13  C   UNL     1       9.744 -25.083 -47.213  1.00  0.00     0.264 C 
ATOM     14  C   UNL     1      10.821 -22.970 -48.745  1.00  0.00     0.286 C 
ATOM     15  C   UNL     1       8.952 -24.467 -48.330  1.00  0.00     0.111 C 
ATOM     16  O   UNL     1       9.304 -26.037 -46.577  1.00  0.00    -0.268 OA
ATOM     17  C   UNL     1       9.492 -23.455 -49.037  1.00  0.00     0.107 C 
BRANCH  14  18
ATOM     18  N   UNL     1      11.454 -21.925 -49.553  1.00  0.00     0.064 N 
ATOM     19  O   UNL     1      11.868 -20.923 -48.957  1.00  0.00    -0.258 OA
ATOM     20  O   UNL     1      11.526 -22.096 -50.778  1.00  0.00    -0.258 OA
ENDBRANCH  14  18
BRANCH  15  21
ATOM     21  C   UNL     1       7.583 -24.916 -48.713  1.00  0.00     0.254 C 
ATOM     22  N   UNL     1       7.434 -26.229 -49.020  1.00  0.00    -0.365 N 
ATOM     23  O   UNL     1       6.625 -24.151 -48.753  1.00  0.00    -0.269 OA
ATOM     24  H   UNL     1       8.216 -26.882 -49.020  1.00  0.00     0.159 HD
ATOM     25  H   UNL     1       6.523 -26.563 -49.303  1.00  0.00     0.159 HD
ENDBRANCH  15  21
ENDBRANCH  10  11
ENDBRANCH   8  10
ENDBRANCH   1   8
BRANCH   1  26
ATOM     26  C   UNL     1      14.840 -23.833 -44.631  1.00  0.00     0.044 A 
ATOM     27  C   UNL     1      15.240 -22.726 -43.868  1.00  0.00     0.026 A 
ATOM     28  C   UNL     1      15.596 -24.146 -45.772  1.00  0.00     0.026 A 
ATOM     29  C   UNL     1      16.358 -21.964 -44.225  1.00  0.00     0.002 A 
ATOM     30  C   UNL     1      16.713 -23.384 -46.132  1.00  0.00     0.002 A 
ATOM     31  C   UNL     1      17.096 -22.295 -45.356  1.00  0.00     0.000 A 
ENDBRANCH   1  26
TORSDOF 10
ENDMDL
MODEL 8
REMARK VINA RESULT:    -6.928      2.736      8.280
REMARK INTER + INTRA:         -12.180
REMARK INTER:                 -10.641
REMARK INTRA:                  -1.539
REMARK UNBOUND:                -1.201
REMARK SMILES CCOC(=O)CN(C(=O)Cn1cc([N+](=O)[O-])cc(C(N)=O)c1=O)c1ccccc1
REMARK SMILES IDX 7 1 6 2 4 3 5 4 3 5 2 6 1 7 8 8 9 9 10 10 11 11 12 12 22 13
REMARK SMILES IDX 13 14 18 15 23 16 17 17 14 18 15 19 16 20 19 21 20 22 21 23
REMARK SMILES IDX 24 26 25 27 29 28 26 29 28 30 27 31
REMARK H PARENT 20 24 20 25
ROOT
ATOM      1  N   UNL     1      14.342 -24.246 -42.716  1.00  0.00    -0.300 N 
ENDROOT
BRANCH   1   2
ATOM      2  C   UNL     1      15.145 -23.050 -43.027  1.00  0.00     0.248 C 
BRANCH   2   3
ATOM      3  C   UNL     1      16.601 -23.107 -42.575  1.00  0.00     0.326 C 
ATOM      4  O   UNL     1      16.978 -22.627 -41.511  1.00  0.00    -0.250 OA
BRANCH   3   5
ATOM      5  O   UNL     1      17.405 -23.742 -43.467  1.00  0.00    -0.465 OA
BRANCH   5   6
ATOM      6  C   UNL     1      17.865 -25.050 -43.091  1.00  0.00     0.229 C 
ATOM      7  C   UNL     1      17.803 -25.996 -44.274  1.00  0.00     0.049 C 
ENDBRANCH   5   6
ENDBRANCH   3   5
ENDBRANCH   2   3
ENDBRANCH   1   2
BRANCH   1   8
ATOM      8  C   UNL     1      13.781 -25.077 -43.700  1.00  0.00     0.247 C 
ATOM      9  O   UNL     1      12.975 -25.979 -43.431  1.00  0.00    -0.272 OA
BRANCH   8  10
ATOM     10  C   UNL     1      14.266 -25.015 -45.170  1.00  0.00     0.226 C 
BRANCH  10  11
ATOM     11  N   UNL     1      13.465 -24.355 -46.203  1.00  0.00    -0.299 N 
ATOM     12  C   UNL     1      12.151 -24.764 -46.421  1.00  0.00     0.175 C 
ATOM     13  C   UNL     1      13.968 -23.164 -46.746  1.00  0.00     0.264 C 
ATOM     14  C   UNL     1      11.352 -24.091 -47.261  1.00  0.00     0.286 C 
ATOM     15  C   UNL     1      13.079 -22.443 -47.718  1.00  0.00     0.111 C 
ATOM     16  O   UNL     1      15.088 -22.736 -46.477  1.00  0.00    -0.268 OA
ATOM     17  C   UNL     1      11.838 -22.916 -47.946  1.00  0.00     0.107 C 
BRANCH  14  18
ATOM     18  N   UNL     1       9.980 -24.573 -47.438  1.00  0.00     0.064 N 
ATOM     19  O   UNL     1       9.153 -23.771 -47.890  1.00  0.00    -0.258 OA
ATOM     20  O   UNL     1       9.724 -25.741 -47.116  1.00  0.00    -0.258 OA
ENDBRANCH  14  18
BRANCH  15  21
ATOM     21  C   UNL     1      13.490 -21.214 -48.455  1.00  0.00     0.254 C 
ATOM     22  N   UNL     1      14.627 -21.295 -49.191  1.00  0.00    -0.365 N 
ATOM     23  O   UNL     1      12.844 -20.173 -48.414  1.00  0.00    -0.269 OA
ATOM     24  H   UNL     1      15.197 -22.140 -49.224  1.00  0.00     0.159 HD
ATOM     25  H   UNL     1      14.945 -20.475 -49.689  1.00  0.00     0.159 HD
ENDBRANCH  15  21
ENDBRANCH  10  11
ENDBRANCH   8  10
ENDBRANCH   1   8
BRANCH   1  26
ATOM     26  C   UNL     1      14.215 -24.596 -41.322  1.00  0.00     0.044 A 
ATOM     27  C   UNL     1      15.036 -25.577 -40.745  1.00  0.00     0.026 A 
ATOM     28  C   UNL     1      13.286 -23.952 -40.489  1.00  0.00     0.026 A 
ATOM     29  C   UNL     1      14.940 -25.897 -39.386  1.00  0.00     0.002 A 
ATOM     30  C   UNL     1      13.187 -24.273 -39.130  1.00  0.00     0.002 A 
ATOM     31  C   UNL     1      14.016 -25.242 -38.578  1.00  0.00     0.000 A 
ENDBRANCH   1  26
TORSDOF 10
ENDMDL
MODEL 9
REMARK VINA RESULT:    -6.916      2.462      7.995
REMARK INTER + INTRA:         -12.160
REMARK INTER:                 -10.487
REMARK INTRA:                  -1.673
REMARK UNBOUND:                -1.201
REMARK SMILES CCOC(=O)CN(C(=O)Cn1cc([N+](=O)[O-])cc(C(N)=O)c1=O)c1ccccc1
REMARK SMILES IDX 7 1 6 2 4 3 5 4 3 5 2 6 1 7 8 8 9 9 10 10 11 11 12 12 22 13
REMARK SMILES IDX 13 14 18 15 23 16 17 17 14 18 15 19 16 20 19 21 20 22 21 23
REMARK SMILES IDX 24 26 25 27 29 28 26 29 28 30 27 31
REMARK H PARENT 20 24 20 25
ROOT
ATOM      1  N   UNL     1      14.561 -23.638 -43.622  1.00  0.00    -0.300 N 
ENDROOT
BRANCH   1   2
ATOM      2  C   UNL     1      15.621 -22.729 -44.091  1.00  0.00     0.248 C 
BRANCH   2   3
ATOM      3  C   UNL     1      16.523 -23.290 -45.185  1.00  0.00     0.326 C 
ATOM      4  O   UNL     1      16.245 -23.200 -46.377  1.00  0.00    -0.250 OA
BRANCH   3   5
ATOM      5  O   UNL     1      17.645 -23.878 -44.694  1.00  0.00    -0.465 OA
BRANCH   5   6
ATOM      6  C   UNL     1      18.410 -23.106 -43.754  1.00  0.00     0.229 C 
ATOM      7  C   UNL     1      19.273 -22.091 -44.477  1.00  0.00     0.049 C 
ENDBRANCH   5   6
ENDBRANCH   3   5
ENDBRANCH   2   3
ENDBRANCH   1   2
BRANCH   1   8
ATOM      8  C   UNL     1      13.644 -24.266 -44.481  1.00  0.00     0.247 C 
ATOM      9  O   UNL     1      13.799 -25.427 -44.887  1.00  0.00    -0.272 OA
BRANCH   8  10
ATOM     10  C   UNL     1      12.464 -23.479 -45.103  1.00  0.00     0.226 C 
BRANCH  10  11
ATOM     11  N   UNL     1      12.269 -23.429 -46.553  1.00  0.00    -0.299 N 
ATOM     12  C   UNL     1      11.407 -24.338 -47.164  1.00  0.00     0.175 C 
ATOM     13  C   UNL     1      12.751 -22.299 -47.230  1.00  0.00     0.264 C 
ATOM     14  C   UNL     1      11.103 -24.230 -48.465  1.00  0.00     0.286 C 
ATOM     15  C   UNL     1      12.438 -22.212 -48.695  1.00  0.00     0.111 C 
ATOM     16  O   UNL     1      13.424 -21.434 -46.675  1.00  0.00    -0.268 OA
ATOM     17  C   UNL     1      11.654 -23.154 -49.256  1.00  0.00     0.107 C 
BRANCH  14  18
ATOM     18  N   UNL     1      10.186 -25.216 -49.040  1.00  0.00     0.064 N 
ATOM     19  O   UNL     1      10.014 -26.266 -48.407  1.00  0.00    -0.258 OA
ATOM     20  O   UNL     1       9.648 -24.954 -50.125  1.00  0.00    -0.258 OA
ENDBRANCH  14  18
BRANCH  15  21
ATOM     21  C   UNL     1      12.948 -21.129 -49.584  1.00  0.00     0.254 C 
ATOM     22  N   UNL     1      14.276 -20.858 -49.517  1.00  0.00    -0.365 N 
ATOM     23  O   UNL     1      12.219 -20.504 -50.347  1.00  0.00    -0.269 OA
ATOM     24  H   UNL     1      14.900 -21.344 -48.875  1.00  0.00     0.159 HD
ATOM     25  H   UNL     1      14.652 -20.117 -50.092  1.00  0.00     0.159 HD
ENDBRANCH  15  21
ENDBRANCH  10  11
ENDBRANCH   8  10
ENDBRANCH   1   8
BRANCH   1  26
ATOM     26  C   UNL     1      14.545 -23.939 -42.210  1.00  0.00     0.044 A 
ATOM     27  C   UNL     1      15.724 -23.907 -41.450  1.00  0.00     0.026 A 
ATOM     28  C   UNL     1      13.349 -24.249 -41.542  1.00  0.00     0.026 A 
ATOM     29  C   UNL     1      15.710 -24.166 -40.075  1.00  0.00     0.002 A 
ATOM     30  C   UNL     1      13.333 -24.509 -40.167  1.00  0.00     0.002 A 
ATOM     31  C   UNL     1      14.513 -24.464 -39.433  1.00  0.00     0.000 A 
ENDBRANCH   1  26
TORSDOF 10
ENDMDL
