MODEL 1
REMARK VINA RESULT:    -9.262      0.000      0.000
REMARK INTER + INTRA:         -14.748
REMARK INTER:                 -14.135
REMARK INTRA:                  -0.613
REMARK UNBOUND:                -0.613
REMARK SMILES CC(=O)Nc1cccc(-n2c(SCCC(=O)NC(=O)NCc3ccco3)nnc2C2CC2)c1
REMARK SMILES IDX 12 1 11 2 10 3 29 4 27 5 28 6 9 7 5 8 6 9 33 10 7 11 8 12
REMARK SMILES IDX 4 13 2 14 3 15 1 16 30 18 31 19 32 20 13 21 14 22 15 23
REMARK SMILES IDX 16 24 17 25 18 26 19 27 20 28 21 31 22 32 23 33 26 34 24 35
REMARK SMILES IDX 25 36
REMARK H PARENT 4 17 17 29 20 30
ROOT
ATOM      1  S   UNL     1      12.936 -22.759 -46.336  1.00  0.00    -0.085 SA
ENDROOT
BRANCH   1   2
ATOM      2  C   UNL     1      14.540 -22.712 -45.669  1.00  0.00     0.195 A 
ATOM      3  N   UNL     1      14.943 -23.336 -44.497  1.00  0.00    -0.274 N 
ATOM      4  C   UNL     1      16.244 -22.881 -44.324  1.00  0.00     0.141 A 
ATOM      5  N   UNL     1      15.510 -21.965 -46.146  1.00  0.00    -0.123 NA
ATOM      6  N   UNL     1      16.579 -22.067 -45.301  1.00  0.00    -0.134 NA
BRANCH   3   7
ATOM      7  C   UNL     1      14.239 -24.240 -43.654  1.00  0.00     0.051 A 
ATOM      8  C   UNL     1      13.333 -24.795 -41.454  1.00  0.00     0.043 A 
ATOM      9  C   UNL     1      12.898 -26.019 -41.960  1.00  0.00     0.026 A 
ATOM     10  C   UNL     1      14.006 -23.909 -42.309  1.00  0.00     0.052 A 
ATOM     11  C   UNL     1      13.127 -26.355 -43.296  1.00  0.00     0.004 A 
ATOM     12  C   UNL     1      13.795 -25.472 -44.144  1.00  0.00     0.027 A 
BRANCH   8  13
ATOM     13  N   UNL     1      13.129 -24.376 -40.122  1.00  0.00    -0.326 N 
ATOM     14  C   UNL     1      14.016 -24.476 -39.064  1.00  0.00     0.221 C 
ATOM     15  O   UNL     1      15.159 -24.916 -39.097  1.00  0.00    -0.275 OA
ATOM     16  C   UNL     1      13.437 -23.931 -37.782  1.00  0.00     0.114 C 
ATOM     17  H   UNL     1      12.236 -23.946 -39.921  1.00  0.00     0.169 HD
ENDBRANCH   8  13
ENDBRANCH   3   7
BRANCH   4  18
ATOM     18  C   UNL     1      17.278 -23.301 -43.233  1.00  0.00     0.058 C 
ATOM     19  C   UNL     1      18.655 -23.723 -43.683  1.00  0.00     0.012 C 
ATOM     20  C   UNL     1      17.708 -24.741 -43.121  1.00  0.00     0.012 C 
ENDBRANCH   4  18
ENDBRANCH   1   2
BRANCH   1  21
ATOM     21  C   UNL     1      12.921 -21.266 -47.381  1.00  0.00     0.088 C 
BRANCH  21  22
ATOM     22  C   UNL     1      13.530 -21.528 -48.754  1.00  0.00     0.112 C 
BRANCH  22  23
ATOM     23  C   UNL     1      12.879 -20.658 -49.811  1.00  0.00     0.228 C 
ATOM     24  O   UNL     1      11.712 -20.802 -50.160  1.00  0.00    -0.275 OA
ATOM     25  N   UNL     1      13.714 -19.647 -50.245  1.00  0.00    -0.278 N 
ATOM     26  C   UNL     1      13.759 -19.250 -51.561  1.00  0.00     0.321 C 
ATOM     27  O   UNL     1      13.186 -19.795 -52.494  1.00  0.00    -0.248 OA
ATOM     28  N   UNL     1      14.609 -18.173 -51.717  1.00  0.00    -0.331 N 
ATOM     29  H   UNL     1      14.601 -19.548 -49.776  1.00  0.00     0.174 HD
ATOM     30  H   UNL     1      14.631 -17.531 -50.936  1.00  0.00     0.165 HD
BRANCH  28  31
ATOM     31  C   UNL     1      14.728 -17.536 -53.012  1.00  0.00     0.193 C 
BRANCH  31  32
ATOM     32  C   UNL     1      16.166 -17.315 -53.301  1.00  0.00     0.122 A 
ATOM     33  C   UNL     1      17.212 -18.165 -53.597  1.00  0.00     0.047 A 
ATOM     34  O   UNL     1      16.598 -16.021 -53.314  1.00  0.00    -0.467 OA
ATOM     35  C   UNL     1      18.349 -17.345 -53.791  1.00  0.00     0.042 A 
ATOM     36  C   UNL     1      17.924 -16.051 -53.607  1.00  0.00     0.195 A 
ENDBRANCH  31  32
ENDBRANCH  28  31
ENDBRANCH  22  23
ENDBRANCH  21  22
ENDBRANCH   1  21
TORSDOF 9
ENDMDL
MODEL 2
REMARK VINA RESULT:    -8.717      2.090      3.816
REMARK INTER + INTRA:         -13.917
REMARK INTER:                 -13.748
REMARK INTRA:                  -0.169
REMARK UNBOUND:                -0.613
REMARK SMILES CC(=O)Nc1cccc(-n2c(SCCC(=O)NC(=O)NCc3ccco3)nnc2C2CC2)c1
REMARK SMILES IDX 12 1 11 2 10 3 29 4 27 5 28 6 9 7 5 8 6 9 33 10 7 11 8 12
REMARK SMILES IDX 4 13 2 14 3 15 1 16 30 18 31 19 32 20 13 21 14 22 15 23
REMARK SMILES IDX 16 24 17 25 18 26 19 27 20 28 21 31 22 32 23 33 26 34 24 35
REMARK SMILES IDX 25 36
REMARK H PARENT 4 17 17 29 20 30
ROOT
ATOM      1  S   UNL     1      14.666 -22.514 -46.704  1.00  0.00    -0.085 SA
ENDROOT
BRANCH   1   2
ATOM      2  C   UNL     1      13.679 -23.035 -45.372  1.00  0.00     0.195 A 
ATOM      3  N   UNL     1      14.066 -23.928 -44.384  1.00  0.00    -0.274 N 
ATOM      4  C   UNL     1      12.899 -24.127 -43.657  1.00  0.00     0.141 A 
ATOM      5  N   UNL     1      12.407 -22.730 -45.241  1.00  0.00    -0.123 NA
ATOM      6  N   UNL     1      11.916 -23.417 -44.167  1.00  0.00    -0.134 NA
BRANCH   3   7
ATOM      7  C   UNL     1      15.337 -24.511 -44.126  1.00  0.00     0.051 A 
ATOM      8  C   UNL     1      17.723 -24.242 -43.673  1.00  0.00     0.043 A 
ATOM      9  C   UNL     1      17.861 -25.629 -43.663  1.00  0.00     0.026 A 
ATOM     10  C   UNL     1      16.455 -23.689 -43.907  1.00  0.00     0.052 A 
ATOM     11  C   UNL     1      16.754 -26.452 -43.880  1.00  0.00     0.004 A 
ATOM     12  C   UNL     1      15.495 -25.899 -44.112  1.00  0.00     0.027 A 
BRANCH   8  13
ATOM     13  N   UNL     1      18.788 -23.343 -43.449  1.00  0.00    -0.326 N 
ATOM     14  C   UNL     1      19.358 -22.470 -44.359  1.00  0.00     0.221 C 
ATOM     15  O   UNL     1      19.018 -22.291 -45.523  1.00  0.00    -0.275 OA
ATOM     16  C   UNL     1      20.488 -21.675 -43.755  1.00  0.00     0.114 C 
ATOM     17  H   UNL     1      19.171 -23.330 -42.512  1.00  0.00     0.169 HD
ENDBRANCH   8  13
ENDBRANCH   3   7
BRANCH   4  18
ATOM     18  C   UNL     1      12.703 -24.953 -42.348  1.00  0.00     0.058 C 
ATOM     19  C   UNL     1      13.019 -24.289 -41.032  1.00  0.00     0.012 C 
ATOM     20  C   UNL     1      13.903 -25.385 -41.547  1.00  0.00     0.012 C 
ENDBRANCH   4  18
ENDBRANCH   1   2
BRANCH   1  21
ATOM     21  C   UNL     1      13.503 -21.477 -47.650  1.00  0.00     0.088 C 
BRANCH  21  22
ATOM     22  C   UNL     1      13.425 -21.902 -49.112  1.00  0.00     0.112 C 
BRANCH  22  23
ATOM     23  C   UNL     1      12.820 -20.804 -49.964  1.00  0.00     0.228 C 
ATOM     24  O   UNL     1      11.622 -20.744 -50.214  1.00  0.00    -0.275 OA
ATOM     25  N   UNL     1      13.752 -19.851 -50.329  1.00  0.00    -0.278 N 
ATOM     26  C   UNL     1      13.748 -19.263 -51.572  1.00  0.00     0.321 C 
ATOM     27  O   UNL     1      13.034 -19.580 -52.513  1.00  0.00    -0.248 OA
ATOM     28  N   UNL     1      14.725 -18.291 -51.654  1.00  0.00    -0.331 N 
ATOM     29  H   UNL     1      14.678 -19.938 -49.939  1.00  0.00     0.174 HD
ATOM     30  H   UNL     1      14.897 -17.786 -50.796  1.00  0.00     0.165 HD
BRANCH  28  31
ATOM     31  C   UNL     1      14.831 -17.481 -52.850  1.00  0.00     0.193 C 
BRANCH  31  32
ATOM     32  C   UNL     1      16.238 -17.036 -52.999  1.00  0.00     0.122 A 
ATOM     33  C   UNL     1      17.093 -16.950 -54.079  1.00  0.00     0.047 A 
ATOM     34  O   UNL     1      16.862 -16.585 -51.873  1.00  0.00    -0.467 OA
ATOM     35  C   UNL     1      18.311 -16.428 -53.582  1.00  0.00     0.042 A 
ATOM     36  C   UNL     1      18.119 -16.224 -52.236  1.00  0.00     0.195 A 
ENDBRANCH  31  32
ENDBRANCH  28  31
ENDBRANCH  22  23
ENDBRANCH  21  22
ENDBRANCH   1  21
TORSDOF 9
ENDMDL
MODEL 3
REMARK VINA RESULT:    -8.204      3.983      6.291
REMARK INTER + INTRA:         -13.133
REMARK INTER:                 -12.258
REMARK INTRA:                  -0.875
REMARK UNBOUND:                -0.613
REMARK SMILES CC(=O)Nc1cccc(-n2c(SCCC(=O)NC(=O)NCc3ccco3)nnc2C2CC2)c1
REMARK SMILES IDX 12 1 11 2 10 3 29 4 27 5 28 6 9 7 5 8 6 9 33 10 7 11 8 12
REMARK SMILES IDX 4 13 2 14 3 15 1 16 30 18 31 19 32 20 13 21 14 22 15 23
REMARK SMILES IDX 16 24 17 25 18 26 19 27 20 28 21 31 22 32 23 33 26 34 24 35
REMARK SMILES IDX 25 36
REMARK H PARENT 4 17 17 29 20 30
ROOT
ATOM      1  S   UNL     1      11.834 -21.510 -49.725  1.00  0.00    -0.085 SA
ENDROOT
BRANCH   1   2
ATOM      2  C   UNL     1      12.097 -22.160 -48.135  1.00  0.00     0.195 A 
ATOM      3  N   UNL     1      11.553 -23.338 -47.646  1.00  0.00    -0.274 N 
ATOM      4  C   UNL     1      11.934 -23.337 -46.311  1.00  0.00     0.141 A 
ATOM      5  N   UNL     1      12.742 -21.524 -47.183  1.00  0.00    -0.123 NA
ATOM      6  N   UNL     1      12.637 -22.259 -46.036  1.00  0.00    -0.134 NA
BRANCH   3   7
ATOM      7  C   UNL     1      10.799 -24.342 -48.314  1.00  0.00     0.051 A 
ATOM      8  C   UNL     1       8.630 -25.268 -48.954  1.00  0.00     0.043 A 
ATOM      9  C   UNL     1       9.285 -26.328 -49.580  1.00  0.00     0.026 A 
ATOM     10  C   UNL     1       9.395 -24.277 -48.321  1.00  0.00     0.052 A 
ATOM     11  C   UNL     1      10.681 -26.399 -49.576  1.00  0.00     0.004 A 
ATOM     12  C   UNL     1      11.438 -25.412 -48.946  1.00  0.00     0.027 A 
BRANCH   8  13
ATOM     13  N   UNL     1       7.227 -25.117 -48.925  1.00  0.00    -0.326 N 
ATOM     14  C   UNL     1       6.479 -24.100 -49.491  1.00  0.00     0.221 C 
ATOM     15  O   UNL     1       6.896 -23.157 -50.155  1.00  0.00    -0.275 OA
ATOM     16  C   UNL     1       5.001 -24.270 -49.239  1.00  0.00     0.114 C 
ATOM     17  H   UNL     1       6.710 -25.841 -48.443  1.00  0.00     0.169 HD
ENDBRANCH   8  13
ENDBRANCH   3   7
BRANCH   4  18
ATOM     18  C   UNL     1      11.713 -24.450 -45.240  1.00  0.00     0.058 C 
ATOM     19  C   UNL     1      12.868 -24.812 -44.340  1.00  0.00     0.012 C 
ATOM     20  C   UNL     1      12.405 -25.780 -45.387  1.00  0.00     0.012 C 
ENDBRANCH   4  18
ENDBRANCH   1   2
BRANCH   1  21
ATOM     21  C   UNL     1      13.478 -20.837 -50.133  1.00  0.00     0.088 C 
BRANCH  21  22
ATOM     22  C   UNL     1      13.404 -19.371 -50.543  1.00  0.00     0.112 C 
BRANCH  22  23
ATOM     23  C   UNL     1      13.795 -19.194 -51.998  1.00  0.00     0.228 C 
ATOM     24  O   UNL     1      13.303 -19.862 -52.901  1.00  0.00    -0.275 OA
ATOM     25  N   UNL     1      14.675 -18.146 -52.181  1.00  0.00    -0.278 N 
ATOM     26  C   UNL     1      15.709 -18.209 -53.085  1.00  0.00     0.321 C 
ATOM     27  O   UNL     1      16.044 -19.196 -53.724  1.00  0.00    -0.248 OA
ATOM     28  N   UNL     1      16.387 -17.007 -53.133  1.00  0.00    -0.331 N 
ATOM     29  H   UNL     1      14.893 -17.580 -51.375  1.00  0.00     0.174 HD
ATOM     30  H   UNL     1      15.813 -16.187 -52.995  1.00  0.00     0.165 HD
BRANCH  28  31
ATOM     31  C   UNL     1      17.457 -16.826 -54.094  1.00  0.00     0.193 C 
BRANCH  31  32
ATOM     32  C   UNL     1      18.490 -15.948 -53.493  1.00  0.00     0.122 A 
ATOM     33  C   UNL     1      19.736 -16.189 -52.951  1.00  0.00     0.047 A 
ATOM     34  O   UNL     1      18.219 -14.611 -53.464  1.00  0.00    -0.467 OA
ATOM     35  C   UNL     1      20.250 -14.930 -52.558  1.00  0.00     0.042 A 
ATOM     36  C   UNL     1      19.290 -14.004 -52.891  1.00  0.00     0.195 A 
ENDBRANCH  31  32
ENDBRANCH  28  31
ENDBRANCH  22  23
ENDBRANCH  21  22
ENDBRANCH   1  21
TORSDOF 9
ENDMDL
MODEL 4
REMARK VINA RESULT:    -8.036      2.033      3.554
REMARK INTER + INTRA:         -12.877
REMARK INTER:                 -12.331
REMARK INTRA:                  -0.546
REMARK UNBOUND:                -0.613
REMARK SMILES CC(=O)Nc1cccc(-n2c(SCCC(=O)NC(=O)NCc3ccco3)nnc2C2CC2)c1
REMARK SMILES IDX 12 1 11 2 10 3 29 4 27 5 28 6 9 7 5 8 6 9 33 10 7 11 8 12
REMARK SMILES IDX 4 13 2 14 3 15 1 16 30 18 31 19 32 20 13 21 14 22 15 23
REMARK SMILES IDX 16 24 17 25 18 26 19 27 20 28 21 31 22 32 23 33 26 34 24 35
REMARK SMILES IDX 25 36
REMARK H PARENT 4 17 17 29 20 30
ROOT
ATOM      1  S   UNL     1      12.668 -20.817 -47.527  1.00  0.00    -0.085 SA
ENDROOT
BRANCH   1   2
ATOM      2  C   UNL     1      12.289 -22.490 -47.250  1.00  0.00     0.195 A 
ATOM      3  N   UNL     1      13.137 -23.423 -46.672  1.00  0.00    -0.274 N 
ATOM      4  C   UNL     1      12.442 -24.617 -46.811  1.00  0.00     0.141 A 
ATOM      5  N   UNL     1      11.195 -23.075 -47.685  1.00  0.00    -0.123 NA
ATOM      6  N   UNL     1      11.291 -24.410 -47.414  1.00  0.00    -0.134 NA
BRANCH   3   7
ATOM      7  C   UNL     1      14.408 -23.246 -46.059  1.00  0.00     0.051 A 
ATOM      8  C   UNL     1      15.758 -23.056 -44.031  1.00  0.00     0.043 A 
ATOM      9  C   UNL     1      16.888 -22.853 -44.822  1.00  0.00     0.026 A 
ATOM     10  C   UNL     1      14.518 -23.251 -44.658  1.00  0.00     0.052 A 
ATOM     11  C   UNL     1      16.785 -22.846 -46.215  1.00  0.00     0.004 A 
ATOM     12  C   UNL     1      15.552 -23.041 -46.835  1.00  0.00     0.027 A 
BRANCH   8  13
ATOM     13  N   UNL     1      15.780 -23.091 -42.620  1.00  0.00    -0.326 N 
ATOM     14  C   UNL     1      15.849 -24.209 -41.807  1.00  0.00     0.221 C 
ATOM     15  O   UNL     1      15.939 -25.377 -42.165  1.00  0.00    -0.275 OA
ATOM     16  C   UNL     1      15.837 -23.850 -40.342  1.00  0.00     0.114 C 
ATOM     17  H   UNL     1      15.751 -22.195 -42.151  1.00  0.00     0.169 HD
ENDBRANCH   8  13
ENDBRANCH   3   7
BRANCH   4  18
ATOM     18  C   UNL     1      12.825 -26.029 -46.268  1.00  0.00     0.058 C 
ATOM     19  C   UNL     1      12.451 -26.370 -44.847  1.00  0.00     0.012 C 
ATOM     20  C   UNL     1      13.890 -26.162 -45.211  1.00  0.00     0.012 C 
ENDBRANCH   4  18
ENDBRANCH   1   2
BRANCH   1  21
ATOM     21  C   UNL     1      12.470 -20.681 -49.334  1.00  0.00     0.088 C 
BRANCH  21  22
ATOM     22  C   UNL     1      13.800 -20.836 -50.063  1.00  0.00     0.112 C 
BRANCH  22  23
ATOM     23  C   UNL     1      13.704 -20.313 -51.483  1.00  0.00     0.228 C 
ATOM     24  O   UNL     1      13.194 -20.958 -52.393  1.00  0.00    -0.275 OA
ATOM     25  N   UNL     1      14.160 -19.015 -51.595  1.00  0.00    -0.278 N 
ATOM     26  C   UNL     1      14.876 -18.583 -52.687  1.00  0.00     0.321 C 
ATOM     27  O   UNL     1      15.288 -19.287 -53.598  1.00  0.00    -0.248 OA
ATOM     28  N   UNL     1      15.140 -17.231 -52.593  1.00  0.00    -0.331 N 
ATOM     29  H   UNL     1      14.422 -18.542 -50.744  1.00  0.00     0.174 HD
ATOM     30  H   UNL     1      14.417 -16.685 -52.145  1.00  0.00     0.165 HD
BRANCH  28  31
ATOM     31  C   UNL     1      15.803 -16.553 -53.689  1.00  0.00     0.193 C 
BRANCH  31  32
ATOM     32  C   UNL     1      17.205 -16.272 -53.294  1.00  0.00     0.122 A 
ATOM     33  C   UNL     1      18.312 -17.074 -53.106  1.00  0.00     0.047 A 
ATOM     34  O   UNL     1      17.533 -14.965 -53.083  1.00  0.00    -0.467 OA
ATOM     35  C   UNL     1      19.374 -16.209 -52.749  1.00  0.00     0.042 A 
ATOM     36  C   UNL     1      18.849 -14.938 -52.748  1.00  0.00     0.195 A 
ENDBRANCH  31  32
ENDBRANCH  28  31
ENDBRANCH  22  23
ENDBRANCH  21  22
ENDBRANCH   1  21
TORSDOF 9
ENDMDL
MODEL 5
REMARK VINA RESULT:    -8.029      3.817      5.938
REMARK INTER + INTRA:         -12.866
REMARK INTER:                 -11.669
REMARK INTRA:                  -1.197
REMARK UNBOUND:                -0.613
REMARK SMILES CC(=O)Nc1cccc(-n2c(SCCC(=O)NC(=O)NCc3ccco3)nnc2C2CC2)c1
REMARK SMILES IDX 12 1 11 2 10 3 29 4 27 5 28 6 9 7 5 8 6 9 33 10 7 11 8 12
REMARK SMILES IDX 4 13 2 14 3 15 1 16 30 18 31 19 32 20 13 21 14 22 15 23
REMARK SMILES IDX 16 24 17 25 18 26 19 27 20 28 21 31 22 32 23 33 26 34 24 35
REMARK SMILES IDX 25 36
REMARK H PARENT 4 17 17 29 20 30
ROOT
ATOM      1  S   UNL     1      12.893 -20.893 -48.160  1.00  0.00    -0.085 SA
ENDROOT
BRANCH   1   2
ATOM      2  C   UNL     1      13.893 -22.187 -47.571  1.00  0.00     0.195 A 
ATOM      3  N   UNL     1      13.486 -23.501 -47.389  1.00  0.00    -0.274 N 
ATOM      4  C   UNL     1      14.581 -24.093 -46.773  1.00  0.00     0.141 A 
ATOM      5  N   UNL     1      15.113 -22.018 -47.112  1.00  0.00    -0.123 NA
ATOM      6  N   UNL     1      15.544 -23.212 -46.607  1.00  0.00    -0.134 NA
BRANCH   3   7
ATOM      7  C   UNL     1      12.264 -24.136 -47.746  1.00  0.00     0.051 A 
ATOM      8  C   UNL     1      10.771 -25.008 -49.472  1.00  0.00     0.043 A 
ATOM      9  C   UNL     1       9.849 -25.344 -48.482  1.00  0.00     0.026 A 
ATOM     10  C   UNL     1      11.979 -24.401 -49.095  1.00  0.00     0.052 A 
ATOM     11  C   UNL     1      10.127 -25.083 -47.138  1.00  0.00     0.004 A 
ATOM     12  C   UNL     1      11.328 -24.481 -46.767  1.00  0.00     0.027 A 
BRANCH   8  13
ATOM     13  N   UNL     1      10.572 -25.250 -50.848  1.00  0.00    -0.326 N 
ATOM     14  C   UNL     1      10.557 -24.320 -51.873  1.00  0.00     0.221 C 
ATOM     15  O   UNL     1      10.750 -23.113 -51.777  1.00  0.00    -0.275 OA
ATOM     16  C   UNL     1      10.301 -24.956 -53.216  1.00  0.00     0.114 C 
ATOM     17  H   UNL     1      10.434 -26.216 -51.115  1.00  0.00     0.169 HD
ENDBRANCH   8  13
ENDBRANCH   3   7
BRANCH   4  18
ATOM     18  C   UNL     1      14.786 -25.593 -46.397  1.00  0.00     0.058 C 
ATOM     19  C   UNL     1      14.261 -26.073 -45.067  1.00  0.00     0.012 C 
ATOM     20  C   UNL     1      15.739 -25.967 -45.292  1.00  0.00     0.012 C 
ENDBRANCH   4  18
ENDBRANCH   1   2
BRANCH   1  21
ATOM     21  C   UNL     1      13.392 -20.800 -49.910  1.00  0.00     0.088 C 
BRANCH  21  22
ATOM     22  C   UNL     1      13.403 -19.364 -50.420  1.00  0.00     0.112 C 
BRANCH  22  23
ATOM     23  C   UNL     1      13.797 -19.311 -51.884  1.00  0.00     0.228 C 
ATOM     24  O   UNL     1      13.368 -20.104 -52.714  1.00  0.00    -0.275 OA
ATOM     25  N   UNL     1      14.600 -18.224 -52.171  1.00  0.00    -0.278 N 
ATOM     26  C   UNL     1      15.647 -18.304 -53.059  1.00  0.00     0.321 C 
ATOM     27  O   UNL     1      16.062 -19.324 -53.589  1.00  0.00    -0.248 OA
ATOM     28  N   UNL     1      16.236 -17.066 -53.230  1.00  0.00    -0.331 N 
ATOM     29  H   UNL     1      14.766 -17.563 -51.428  1.00  0.00     0.174 HD
ATOM     30  H   UNL     1      15.601 -16.282 -53.181  1.00  0.00     0.165 HD
BRANCH  28  31
ATOM     31  C   UNL     1      17.301 -16.908 -54.199  1.00  0.00     0.193 C 
BRANCH  31  32
ATOM     32  C   UNL     1      18.369 -16.072 -53.597  1.00  0.00     0.122 A 
ATOM     33  C   UNL     1      19.641 -16.350 -53.141  1.00  0.00     0.047 A 
ATOM     34  O   UNL     1      18.105 -14.740 -53.465  1.00  0.00    -0.467 OA
ATOM     35  C   UNL     1      20.180 -15.120 -52.693  1.00  0.00     0.042 A 
ATOM     36  C   UNL     1      19.207 -14.173 -52.911  1.00  0.00     0.195 A 
ENDBRANCH  31  32
ENDBRANCH  28  31
ENDBRANCH  22  23
ENDBRANCH  21  22
ENDBRANCH   1  21
TORSDOF 9
ENDMDL
MODEL 6
REMARK VINA RESULT:    -7.997      2.772      4.667
REMARK INTER + INTRA:         -12.818
REMARK INTER:                 -12.276
REMARK INTRA:                  -0.543
REMARK UNBOUND:                -0.613
REMARK SMILES CC(=O)Nc1cccc(-n2c(SCCC(=O)NC(=O)NCc3ccco3)nnc2C2CC2)c1
REMARK SMILES IDX 12 1 11 2 10 3 29 4 27 5 28 6 9 7 5 8 6 9 33 10 7 11 8 12
REMARK SMILES IDX 4 13 2 14 3 15 1 16 30 18 31 19 32 20 13 21 14 22 15 23
REMARK SMILES IDX 16 24 17 25 18 26 19 27 20 28 21 31 22 32 23 33 26 34 24 35
REMARK SMILES IDX 25 36
REMARK H PARENT 4 17 17 29 20 30
ROOT
ATOM      1  S   UNL     1      13.305 -21.179 -48.146  1.00  0.00    -0.085 SA
ENDROOT
BRANCH   1   2
ATOM      2  C   UNL     1      12.373 -22.633 -48.335  1.00  0.00     0.195 A 
ATOM      3  N   UNL     1      12.282 -23.658 -47.404  1.00  0.00    -0.274 N 
ATOM      4  C   UNL     1      11.557 -24.635 -48.074  1.00  0.00     0.141 A 
ATOM      5  N   UNL     1      11.757 -22.969 -49.446  1.00  0.00    -0.123 NA
ATOM      6  N   UNL     1      11.248 -24.227 -49.285  1.00  0.00    -0.134 NA
BRANCH   3   7
ATOM      7  C   UNL     1      12.778 -23.730 -46.073  1.00  0.00     0.051 A 
ATOM      8  C   UNL     1      14.673 -23.858 -44.537  1.00  0.00     0.043 A 
ATOM      9  C   UNL     1      13.782 -23.918 -43.467  1.00  0.00     0.026 A 
ATOM     10  C   UNL     1      14.163 -23.765 -45.841  1.00  0.00     0.052 A 
ATOM     11  C   UNL     1      12.404 -23.883 -43.691  1.00  0.00     0.004 A 
ATOM     12  C   UNL     1      11.899 -23.789 -44.987  1.00  0.00     0.027 A 
BRANCH   8  13
ATOM     13  N   UNL     1      16.078 -23.874 -44.394  1.00  0.00    -0.326 N 
ATOM     14  C   UNL     1      16.924 -22.785 -44.278  1.00  0.00     0.221 C 
ATOM     15  O   UNL     1      16.605 -21.602 -44.243  1.00  0.00    -0.275 OA
ATOM     16  C   UNL     1      18.370 -23.197 -44.156  1.00  0.00     0.114 C 
ATOM     17  H   UNL     1      16.513 -24.787 -44.364  1.00  0.00     0.169 HD
ENDBRANCH   8  13
ENDBRANCH   3   7
BRANCH   4  18
ATOM     18  C   UNL     1      11.036 -26.000 -47.525  1.00  0.00     0.058 C 
ATOM     19  C   UNL     1       9.665 -26.462 -47.951  1.00  0.00     0.012 C 
ATOM     20  C   UNL     1       9.899 -26.025 -46.537  1.00  0.00     0.012 C 
ENDBRANCH   4  18
ENDBRANCH   1   2
BRANCH   1  21
ATOM     21  C   UNL     1      13.831 -20.846 -49.860  1.00  0.00     0.088 C 
BRANCH  21  22
ATOM     22  C   UNL     1      13.461 -19.434 -50.301  1.00  0.00     0.112 C 
BRANCH  22  23
ATOM     23  C   UNL     1      13.743 -19.237 -51.778  1.00  0.00     0.228 C 
ATOM     24  O   UNL     1      13.174 -19.882 -52.652  1.00  0.00    -0.275 OA
ATOM     25  N   UNL     1      14.623 -18.198 -52.010  1.00  0.00    -0.278 N 
ATOM     26  C   UNL     1      15.584 -18.260 -52.991  1.00  0.00     0.321 C 
ATOM     27  O   UNL     1      15.854 -19.241 -53.671  1.00  0.00    -0.248 OA
ATOM     28  N   UNL     1      16.276 -17.068 -53.072  1.00  0.00    -0.331 N 
ATOM     29  H   UNL     1      14.911 -17.651 -51.214  1.00  0.00     0.174 HD
ATOM     30  H   UNL     1      15.727 -16.242 -52.876  1.00  0.00     0.165 HD
BRANCH  28  31
ATOM     31  C   UNL     1      17.272 -16.886 -54.108  1.00  0.00     0.193 C 
BRANCH  31  32
ATOM     32  C   UNL     1      18.357 -16.025 -53.576  1.00  0.00     0.122 A 
ATOM     33  C   UNL     1      19.679 -16.259 -53.259  1.00  0.00     0.047 A 
ATOM     34  O   UNL     1      18.049 -14.714 -53.359  1.00  0.00    -0.467 OA
ATOM     35  C   UNL     1      20.206 -15.024 -52.812  1.00  0.00     0.042 A 
ATOM     36  C   UNL     1      19.176 -14.117 -52.891  1.00  0.00     0.195 A 
ENDBRANCH  31  32
ENDBRANCH  28  31
ENDBRANCH  22  23
ENDBRANCH  21  22
ENDBRANCH   1  21
TORSDOF 9
ENDMDL
MODEL 7
REMARK VINA RESULT:    -7.970      2.347     10.000
REMARK INTER + INTRA:         -12.776
REMARK INTER:                 -11.730
REMARK INTRA:                  -1.045
REMARK UNBOUND:                -0.613
REMARK SMILES CC(=O)Nc1cccc(-n2c(SCCC(=O)NC(=O)NCc3ccco3)nnc2C2CC2)c1
REMARK SMILES IDX 12 1 11 2 10 3 29 4 27 5 28 6 9 7 5 8 6 9 33 10 7 11 8 12
REMARK SMILES IDX 4 13 2 14 3 15 1 16 30 18 31 19 32 20 13 21 14 22 15 23
REMARK SMILES IDX 16 24 17 25 18 26 19 27 20 28 21 31 22 32 23 33 26 34 24 35
REMARK SMILES IDX 25 36
REMARK H PARENT 4 17 17 29 20 30
ROOT
ATOM      1  S   UNL     1      12.673 -25.237 -48.225  1.00  0.00    -0.085 SA
ENDROOT
BRANCH   1   2
ATOM      2  C   UNL     1      14.011 -24.726 -47.241  1.00  0.00     0.195 A 
ATOM      3  N   UNL     1      14.506 -23.433 -47.164  1.00  0.00    -0.274 N 
ATOM      4  C   UNL     1      15.643 -23.572 -46.378  1.00  0.00     0.141 A 
ATOM      5  N   UNL     1      14.777 -25.551 -46.563  1.00  0.00    -0.123 NA
ATOM      6  N   UNL     1      15.804 -24.828 -46.024  1.00  0.00    -0.134 NA
BRANCH   3   7
ATOM      7  C   UNL     1      14.000 -22.226 -47.720  1.00  0.00     0.051 A 
ATOM      8  C   UNL     1      13.722 -20.752 -49.649  1.00  0.00     0.043 A 
ATOM      9  C   UNL     1      13.057 -19.837 -48.834  1.00  0.00     0.026 A 
ATOM     10  C   UNL     1      14.193 -21.946 -49.083  1.00  0.00     0.052 A 
ATOM     11  C   UNL     1      12.862 -20.109 -47.477  1.00  0.00     0.004 A 
ATOM     12  C   UNL     1      13.331 -21.297 -46.919  1.00  0.00     0.027 A 
BRANCH   8  13
ATOM     13  N   UNL     1      13.946 -20.559 -51.029  1.00  0.00    -0.326 N 
ATOM     14  C   UNL     1      14.051 -19.355 -51.704  1.00  0.00     0.221 C 
ATOM     15  O   UNL     1      14.003 -18.230 -51.219  1.00  0.00    -0.275 OA
ATOM     16  C   UNL     1      14.279 -19.548 -53.182  1.00  0.00     0.114 C 
ATOM     17  H   UNL     1      14.052 -21.397 -51.586  1.00  0.00     0.169 HD
ENDBRANCH   8  13
ENDBRANCH   3   7
BRANCH   4  18
ATOM     18  C   UNL     1      16.592 -22.455 -45.842  1.00  0.00     0.058 C 
ATOM     19  C   UNL     1      18.000 -22.839 -45.460  1.00  0.00     0.012 C 
ATOM     20  C   UNL     1      17.015 -22.460 -44.396  1.00  0.00     0.012 C 
ENDBRANCH   4  18
ENDBRANCH   1   2
BRANCH   1  21
ATOM     21  C   UNL     1      11.257 -24.500 -47.345  1.00  0.00     0.088 C 
BRANCH  21  22
ATOM     22  C   UNL     1      10.970 -25.219 -46.032  1.00  0.00     0.112 C 
BRANCH  22  23
ATOM     23  C   UNL     1      11.567 -24.464 -44.860  1.00  0.00     0.228 C 
ATOM     24  O   UNL     1      11.489 -23.246 -44.749  1.00  0.00    -0.275 OA
ATOM     25  N   UNL     1      12.104 -25.311 -43.910  1.00  0.00    -0.278 N 
ATOM     26  C   UNL     1      13.265 -25.011 -43.237  1.00  0.00     0.321 C 
ATOM     27  O   UNL     1      14.003 -24.063 -43.466  1.00  0.00    -0.248 OA
ATOM     28  N   UNL     1      13.542 -25.976 -42.288  1.00  0.00    -0.331 N 
ATOM     29  H   UNL     1      11.977 -26.301 -44.049  1.00  0.00     0.174 HD
ATOM     30  H   UNL     1      12.729 -26.388 -41.850  1.00  0.00     0.165 HD
BRANCH  28  31
ATOM     31  C   UNL     1      14.672 -25.803 -41.399  1.00  0.00     0.193 C 
BRANCH  31  32
ATOM     32  C   UNL     1      14.217 -25.072 -40.191  1.00  0.00     0.122 A 
ATOM     33  C   UNL     1      13.080 -24.349 -39.896  1.00  0.00     0.047 A 
ATOM     34  O   UNL     1      15.043 -25.108 -39.105  1.00  0.00    -0.467 OA
ATOM     35  C   UNL     1      13.224 -23.908 -38.559  1.00  0.00     0.042 A 
ATOM     36  C   UNL     1      14.433 -24.395 -38.123  1.00  0.00     0.195 A 
ENDBRANCH  31  32
ENDBRANCH  28  31
ENDBRANCH  22  23
ENDBRANCH  21  22
ENDBRANCH   1  21
TORSDOF 9
ENDMDL
MODEL 8
REMARK VINA RESULT:    -7.857      4.234     10.538
REMARK INTER + INTRA:         -12.603
REMARK INTER:                 -10.755
REMARK INTRA:                  -1.849
REMARK UNBOUND:                -0.613
REMARK SMILES CC(=O)Nc1cccc(-n2c(SCCC(=O)NC(=O)NCc3ccco3)nnc2C2CC2)c1
REMARK SMILES IDX 12 1 11 2 10 3 29 4 27 5 28 6 9 7 5 8 6 9 33 10 7 11 8 12
REMARK SMILES IDX 4 13 2 14 3 15 1 16 30 18 31 19 32 20 13 21 14 22 15 23
REMARK SMILES IDX 16 24 17 25 18 26 19 27 20 28 21 31 22 32 23 33 26 34 24 35
REMARK SMILES IDX 25 36
REMARK H PARENT 4 17 17 29 20 30
ROOT
ATOM      1  S   UNL     1      11.126 -25.545 -45.981  1.00  0.00    -0.085 SA
ENDROOT
BRANCH   1   2
ATOM      2  C   UNL     1      11.560 -23.935 -46.471  1.00  0.00     0.195 A 
ATOM      3  N   UNL     1      11.436 -23.423 -47.754  1.00  0.00    -0.274 N 
ATOM      4  C   UNL     1      12.044 -22.178 -47.662  1.00  0.00     0.141 A 
ATOM      5  N   UNL     1      12.177 -23.074 -45.692  1.00  0.00    -0.123 NA
ATOM      6  N   UNL     1      12.484 -21.973 -46.440  1.00  0.00    -0.134 NA
BRANCH   3   7
ATOM      7  C   UNL     1      10.828 -23.989 -48.909  1.00  0.00     0.051 A 
ATOM      8  C   UNL     1       8.830 -24.374 -50.261  1.00  0.00     0.043 A 
ATOM      9  C   UNL     1       9.595 -25.130 -51.148  1.00  0.00     0.026 A 
ATOM     10  C   UNL     1       9.455 -23.806 -49.140  1.00  0.00     0.052 A 
ATOM     11  C   UNL     1      10.961 -25.316 -50.923  1.00  0.00     0.004 A 
ATOM     12  C   UNL     1      11.579 -24.750 -49.809  1.00  0.00     0.027 A 
BRANCH   8  13
ATOM     13  N   UNL     1       7.450 -24.128 -50.424  1.00  0.00    -0.326 N 
ATOM     14  C   UNL     1       6.851 -22.980 -50.914  1.00  0.00     0.221 C 
ATOM     15  O   UNL     1       7.414 -21.975 -51.332  1.00  0.00    -0.275 OA
ATOM     16  C   UNL     1       5.347 -23.082 -50.927  1.00  0.00     0.114 C 
ATOM     17  H   UNL     1       6.828 -24.881 -50.160  1.00  0.00     0.169 HD
ENDBRANCH   8  13
ENDBRANCH   3   7
BRANCH   4  18
ATOM     18  C   UNL     1      12.140 -21.065 -48.752  1.00  0.00     0.058 C 
ATOM     19  C   UNL     1      13.174 -21.221 -49.839  1.00  0.00     0.012 C 
ATOM     20  C   UNL     1      13.343 -20.159 -48.795  1.00  0.00     0.012 C 
ENDBRANCH   4  18
ENDBRANCH   1   2
BRANCH   1  21
ATOM     21  C   UNL     1      12.751 -26.264 -45.574  1.00  0.00     0.088 C 
BRANCH  21  22
ATOM     22  C   UNL     1      13.827 -25.827 -46.561  1.00  0.00     0.112 C 
BRANCH  22  23
ATOM     23  C   UNL     1      14.945 -25.087 -45.852  1.00  0.00     0.228 C 
ATOM     24  O   UNL     1      15.987 -24.766 -46.414  1.00  0.00    -0.275 OA
ATOM     25  N   UNL     1      14.607 -24.740 -44.559  1.00  0.00    -0.278 N 
ATOM     26  C   UNL     1      15.514 -24.792 -43.527  1.00  0.00     0.321 C 
ATOM     27  O   UNL     1      16.648 -25.245 -43.591  1.00  0.00    -0.248 OA
ATOM     28  N   UNL     1      14.951 -24.320 -42.358  1.00  0.00    -0.331 N 
ATOM     29  H   UNL     1      13.664 -24.935 -44.260  1.00  0.00     0.174 HD
ATOM     30  H   UNL     1      14.281 -23.572 -42.479  1.00  0.00     0.165 HD
BRANCH  28  31
ATOM     31  C   UNL     1      15.767 -24.197 -41.168  1.00  0.00     0.193 C 
BRANCH  31  32
ATOM     32  C   UNL     1      14.951 -24.587 -39.991  1.00  0.00     0.122 A 
ATOM     33  C   UNL     1      14.165 -23.875 -39.109  1.00  0.00     0.047 A 
ATOM     34  O   UNL     1      14.912 -25.915 -39.685  1.00  0.00    -0.467 OA
ATOM     35  C   UNL     1      13.625 -24.820 -38.205  1.00  0.00     0.042 A 
ATOM     36  C   UNL     1      14.109 -26.045 -38.597  1.00  0.00     0.195 A 
ENDBRANCH  31  32
ENDBRANCH  28  31
ENDBRANCH  22  23
ENDBRANCH  21  22
ENDBRANCH   1  21
TORSDOF 9
ENDMDL
MODEL 9
REMARK VINA RESULT:    -7.819      2.391     10.392
REMARK INTER + INTRA:         -12.546
REMARK INTER:                 -11.921
REMARK INTRA:                  -0.625
REMARK UNBOUND:                -0.613
REMARK SMILES CC(=O)Nc1cccc(-n2c(SCCC(=O)NC(=O)NCc3ccco3)nnc2C2CC2)c1
REMARK SMILES IDX 12 1 11 2 10 3 29 4 27 5 28 6 9 7 5 8 6 9 33 10 7 11 8 12
REMARK SMILES IDX 4 13 2 14 3 15 1 16 30 18 31 19 32 20 13 21 14 22 15 23
REMARK SMILES IDX 16 24 17 25 18 26 19 27 20 28 21 31 22 32 23 33 26 34 24 35
REMARK SMILES IDX 25 36
REMARK H PARENT 4 17 17 29 20 30
ROOT
ATOM      1  S   UNL     1      15.433 -22.480 -47.089  1.00  0.00    -0.085 SA
ENDROOT
BRANCH   1   2
ATOM      2  C   UNL     1      14.350 -23.806 -46.789  1.00  0.00     0.195 A 
ATOM      3  N   UNL     1      13.160 -24.042 -47.462  1.00  0.00    -0.274 N 
ATOM      4  C   UNL     1      12.605 -25.109 -46.765  1.00  0.00     0.141 A 
ATOM      5  N   UNL     1      14.489 -24.653 -45.794  1.00  0.00    -0.123 NA
ATOM      6  N   UNL     1      13.393 -25.469 -45.776  1.00  0.00    -0.134 NA
BRANCH   3   7
ATOM      7  C   UNL     1      12.610 -23.392 -48.600  1.00  0.00     0.051 A 
ATOM      8  C   UNL     1      12.501 -21.434 -50.057  1.00  0.00     0.043 A 
ATOM      9  C   UNL     1      11.511 -22.066 -50.808  1.00  0.00     0.026 A 
ATOM     10  C   UNL     1      13.046 -22.104 -48.952  1.00  0.00     0.052 A 
ATOM     11  C   UNL     1      11.072 -23.347 -50.463  1.00  0.00     0.004 A 
ATOM     12  C   UNL     1      11.617 -24.011 -49.364  1.00  0.00     0.027 A 
BRANCH   8  13
ATOM     13  N   UNL     1      13.008 -20.149 -50.347  1.00  0.00    -0.326 N 
ATOM     14  C   UNL     1      13.777 -19.773 -51.436  1.00  0.00     0.221 C 
ATOM     15  O   UNL     1      14.130 -20.483 -52.370  1.00  0.00    -0.275 OA
ATOM     16  C   UNL     1      14.143 -18.310 -51.398  1.00  0.00     0.114 C 
ATOM     17  H   UNL     1      12.774 -19.417 -49.688  1.00  0.00     0.169 HD
ENDBRANCH   8  13
ENDBRANCH   3   7
BRANCH   4  18
ATOM     18  C   UNL     1      11.306 -25.908 -47.094  1.00  0.00     0.058 C 
ATOM     19  C   UNL     1       9.978 -25.270 -46.773  1.00  0.00     0.012 C 
ATOM     20  C   UNL     1      10.454 -26.447 -45.976  1.00  0.00     0.012 C 
ENDBRANCH   4  18
ENDBRANCH   1   2
BRANCH   1  21
ATOM     21  C   UNL     1      16.888 -22.953 -46.099  1.00  0.00     0.088 C 
BRANCH  21  22
ATOM     22  C   UNL     1      17.150 -21.963 -44.970  1.00  0.00     0.112 C 
BRANCH  22  23
ATOM     23  C   UNL     1      16.902 -22.604 -43.618  1.00  0.00     0.228 C 
ATOM     24  O   UNL     1      17.789 -22.755 -42.785  1.00  0.00    -0.275 OA
ATOM     25  N   UNL     1      15.568 -22.895 -43.413  1.00  0.00    -0.278 N 
ATOM     26  C   UNL     1      15.160 -24.038 -42.767  1.00  0.00     0.321 C 
ATOM     27  O   UNL     1      15.883 -24.960 -42.416  1.00  0.00    -0.248 OA
ATOM     28  N   UNL     1      13.787 -24.052 -42.619  1.00  0.00    -0.331 N 
ATOM     29  H   UNL     1      14.915 -22.590 -44.118  1.00  0.00     0.174 HD
ATOM     30  H   UNL     1      13.365 -23.145 -42.474  1.00  0.00     0.165 HD
BRANCH  28  31
ATOM     31  C   UNL     1      13.157 -25.124 -41.878  1.00  0.00     0.193 C 
BRANCH  31  32
ATOM     32  C   UNL     1      13.399 -24.906 -40.430  1.00  0.00     0.122 A 
ATOM     33  C   UNL     1      13.033 -23.909 -39.551  1.00  0.00     0.047 A 
ATOM     34  O   UNL     1      14.105 -25.872 -39.774  1.00  0.00    -0.467 OA
ATOM     35  C   UNL     1      13.555 -24.280 -38.288  1.00  0.00     0.042 A 
ATOM     36  C   UNL     1      14.197 -25.481 -38.477  1.00  0.00     0.195 A 
ENDBRANCH  31  32
ENDBRANCH  28  31
ENDBRANCH  22  23
ENDBRANCH  21  22
ENDBRANCH   1  21
TORSDOF 9
ENDMDL
