REMARK SMILES [H]/N=c1\c(N)nc(Nc2cccc(Cl)c2C)nn1-c1ccccc1
REMARK SMILES IDX 1 1 2 2 3 3 4 4 5 5 6 6 7 7 8 8 17 9 18 10 19 14 20 15 24 16
REMARK SMILES IDX 21 17 23 18 22 19 9 20 10 21 15 22 11 23 13 24 12 25 16 26
REMARK SMILES IDX 14 27
REMARK H PARENT 5 11 5 12 8 13
ROOT
ATOM      1  H   UNL     1      -2.946  -2.988  -3.098  1.00  0.00     0.190 HD
ATOM      2  N   UNL     1      -2.958  -2.134  -2.526  1.00  0.00    -0.280 NA
ATOM      3  C   UNL     1      -1.736  -1.785  -2.260  1.00  0.00     0.189 C 
ATOM      4  C   UNL     1      -0.643  -2.622  -2.925  1.00  0.00     0.172 C 
ATOM      5  N   UNL     1      -0.976  -3.430  -3.991  1.00  0.00    -0.380 N 
ATOM      6  N   UNL     1       0.581  -2.553  -2.516  1.00  0.00    -0.191 NA
ATOM      7  C   UNL     1       0.896  -1.688  -1.496  1.00  0.00     0.247 C 
ATOM      8  N   UNL     1       2.195  -1.803  -1.074  1.00  0.00    -0.323 N 
ATOM      9  N   UNL     1       0.066  -0.809  -1.015  1.00  0.00    -0.127 NA
ATOM     10  N   UNL     1      -1.239  -0.773  -1.456  1.00  0.00    -0.209 N 
ATOM     11  H   UNL     1      -1.614  -2.993  -4.650  1.00  0.00     0.158 HD
ATOM     12  H   UNL     1      -0.144  -3.768  -4.466  1.00  0.00     0.158 HD
ATOM     13  H   UNL     1       2.706  -2.507  -1.587  1.00  0.00     0.170 HD
ENDROOT
BRANCH  10  14
ATOM     14  C   UNL     1      -2.025   0.294  -0.903  1.00  0.00     0.067 A 
ATOM     15  C   UNL     1      -3.349   0.555  -1.297  1.00  0.00     0.028 A 
ATOM     16  C   UNL     1      -1.478   1.167   0.063  1.00  0.00     0.028 A 
ATOM     17  C   UNL     1      -4.091   1.610  -0.748  1.00  0.00     0.002 A 
ATOM     18  C   UNL     1      -2.214   2.223   0.615  1.00  0.00     0.002 A 
ATOM     19  C   UNL     1      -3.524   2.443   0.209  1.00  0.00     0.000 A 
ENDBRANCH  10  14
BRANCH   8  20
ATOM     20  C   UNL     1       2.795  -1.403   0.137  1.00  0.00     0.045 A 
ATOM     21  C   UNL     1       2.027  -1.040   1.257  1.00  0.00     0.026 A 
ATOM     22  C   UNL     1       4.209  -1.303   0.226  1.00  0.00    -0.009 A 
ATOM     23  C   UNL     1       2.621  -0.640   2.454  1.00  0.00     0.004 A 
ATOM     24  C   UNL     1       4.793  -0.926   1.454  1.00  0.00     0.046 A 
ATOM     25  C   UNL     1       4.004  -0.593   2.556  1.00  0.00     0.021 A 
ATOM     26  C   UNL     1       5.083  -1.637  -0.959  1.00  0.00     0.048 C 
ATOM     27  Cl  UNL     1       6.509  -0.866   1.675  1.00  0.00    -0.084 Cl
ENDBRANCH   8  20
TORSDOF 2
