MODEL 1
REMARK VINA RESULT:    -8.054      0.000      0.000
REMARK INTER + INTRA:         -13.469
REMARK INTER:                 -11.821
REMARK INTRA:                  -1.648
REMARK UNBOUND:                -1.648
REMARK SMILES COc1ccc(CCN2C(=O)c3[nH]nc(-c4cc(Cl)c(C)cc4O)c3[C@H]2c2cccc(O)c2)cc1OC
REMARK SMILES IDX 8 1 7 2 6 3 3 4 4 5 35 6 5 7 34 8 2 9 1 10 36 11 37 12 9 13
REMARK SMILES IDX 10 14 26 15 11 16 12 17 25 18 13 19 15 20 14 21 27 23 28 24
REMARK SMILES IDX 33 25 29 26 31 27 30 28 32 29 16 31 17 32 23 33 18 34 22 35
REMARK SMILES IDX 20 36 19 37 21 38 24 39
REMARK H PARENT 13 22 32 30 24 40
ROOT
ATOM      1  C   UNL     1      12.701 -21.859 -47.701  1.00  0.00     0.125 C 
ENDROOT
BRANCH   1   2
ATOM      2  C   UNL     1      12.718 -22.075 -49.223  1.00  0.00     0.057 C 
BRANCH   2   3
ATOM      3  C   UNL     1      13.142 -20.848 -49.992  1.00  0.00    -0.042 A 
ATOM      4  C   UNL     1      14.067 -18.605 -51.415  1.00  0.00     0.160 A 
ATOM      5  C   UNL     1      13.855 -18.530 -50.036  1.00  0.00     0.051 A 
ATOM      6  C   UNL     1      13.797 -19.810 -52.096  1.00  0.00     0.160 A 
ATOM      7  C   UNL     1      13.400 -19.645 -49.328  1.00  0.00     0.008 A 
ATOM      8  C   UNL     1      13.330 -20.917 -51.380  1.00  0.00     0.054 A 
BRANCH   4   9
ATOM      9  O   UNL     1      14.562 -17.581 -52.183  1.00  0.00    -0.493 OA
ATOM     10  C   UNL     1      15.936 -17.248 -52.028  1.00  0.00     0.278 C 
ENDBRANCH   4   9
BRANCH   6  11
ATOM     11  O   UNL     1      14.061 -19.813 -53.444  1.00  0.00    -0.493 OA
ATOM     12  C   UNL     1      15.327 -20.302 -53.862  1.00  0.00     0.278 C 
ENDBRANCH   6  11
ENDBRANCH   2   3
ENDBRANCH   1   2
BRANCH   1  13
ATOM     13  N   UNL     1      12.726 -23.074 -46.899  1.00  0.00    -0.326 N 
ATOM     14  C   UNL     1      11.772 -24.097 -47.038  1.00  0.00     0.273 C 
ATOM     15  C   UNL     1      13.395 -23.088 -45.564  1.00  0.00     0.151 C 
ATOM     16  O   UNL     1      10.965 -24.268 -47.934  1.00  0.00    -0.267 OA
ATOM     17  C   UNL     1      11.937 -24.875 -45.869  1.00  0.00     0.129 A 
ATOM     18  C   UNL     1      12.865 -24.352 -45.019  1.00  0.00     0.038 A 
ATOM     19  N   UNL     1      11.428 -25.978 -45.299  1.00  0.00    -0.272 N 
ATOM     20  C   UNL     1      12.891 -25.222 -43.919  1.00  0.00     0.102 A 
ATOM     21  N   UNL     1      11.966 -26.198 -44.074  1.00  0.00    -0.174 NA
ATOM     22  H   UNL     1      10.713 -26.610 -45.646  1.00  0.00     0.190 HD
BRANCH  15  23
ATOM     23  C   UNL     1      14.900 -23.154 -45.605  1.00  0.00    -0.017 A 
ATOM     24  C   UNL     1      15.518 -24.118 -46.424  1.00  0.00     0.006 A 
ATOM     25  C   UNL     1      15.720 -22.284 -44.866  1.00  0.00     0.052 A 
ATOM     26  C   UNL     1      16.910 -24.208 -46.504  1.00  0.00     0.004 A 
ATOM     27  C   UNL     1      17.107 -22.383 -44.952  1.00  0.00     0.115 A 
ATOM     28  C   UNL     1      17.705 -23.336 -45.765  1.00  0.00     0.046 A 
BRANCH  27  29
ATOM     29  O   UNL     1      17.927 -21.545 -44.256  1.00  0.00    -0.508 OA
ATOM     30  H   UNL     1      18.325 -22.038 -43.515  1.00  0.00     0.293 HD
ENDBRANCH  27  29
ENDBRANCH  15  23
BRANCH  20  31
ATOM     31  C   UNL     1      13.701 -25.125 -42.716  1.00  0.00     0.046 A 
ATOM     32  C   UNL     1      13.128 -24.613 -41.547  1.00  0.00     0.035 A 
ATOM     33  C   UNL     1      15.047 -25.504 -42.707  1.00  0.00     0.125 A 
ATOM     34  C   UNL     1      13.902 -24.463 -40.393  1.00  0.00     0.044 A 
ATOM     35  C   UNL     1      15.824 -25.354 -41.557  1.00  0.00     0.051 A 
ATOM     36  C   UNL     1      15.258 -24.827 -40.384  1.00  0.00    -0.029 A 
ATOM     37  Cl  UNL     1      13.136 -23.809 -38.988  1.00  0.00    -0.084 Cl
ATOM     38  C   UNL     1      16.112 -24.681 -39.155  1.00  0.00     0.046 C 
BRANCH  33  39
ATOM     39  O   UNL     1      15.605 -26.049 -43.829  1.00  0.00    -0.507 OA
ATOM     40  H   UNL     1      16.431 -25.584 -44.043  1.00  0.00     0.293 HD
ENDBRANCH  33  39
ENDBRANCH  20  31
ENDBRANCH   1  13
TORSDOF 9
ENDMDL
MODEL 2
REMARK VINA RESULT:    -7.871      4.895      7.302
REMARK INTER + INTRA:         -13.200
REMARK INTER:                 -11.602
REMARK INTRA:                  -1.598
REMARK UNBOUND:                -1.648
REMARK SMILES COc1ccc(CCN2C(=O)c3[nH]nc(-c4cc(Cl)c(C)cc4O)c3[C@H]2c2cccc(O)c2)cc1OC
REMARK SMILES IDX 8 1 7 2 6 3 3 4 4 5 35 6 5 7 34 8 2 9 1 10 36 11 37 12 9 13
REMARK SMILES IDX 10 14 26 15 11 16 12 17 25 18 13 19 15 20 14 21 27 23 28 24
REMARK SMILES IDX 33 25 29 26 31 27 30 28 32 29 16 31 17 32 23 33 18 34 22 35
REMARK SMILES IDX 20 36 19 37 21 38 24 39
REMARK H PARENT 13 22 32 30 24 40
ROOT
ATOM      1  C   UNL     1       9.017 -22.646 -50.941  1.00  0.00     0.125 C 
ENDROOT
BRANCH   1   2
ATOM      2  C   UNL     1       7.908 -23.407 -51.686  1.00  0.00     0.057 C 
BRANCH   2   3
ATOM      3  C   UNL     1       6.610 -23.465 -50.918  1.00  0.00    -0.042 A 
ATOM      4  C   UNL     1       4.232 -23.455 -49.416  1.00  0.00     0.160 A 
ATOM      5  C   UNL     1       5.315 -24.249 -49.024  1.00  0.00     0.051 A 
ATOM      6  C   UNL     1       4.332 -22.670 -50.582  1.00  0.00     0.160 A 
ATOM      7  C   UNL     1       6.497 -24.250 -49.768  1.00  0.00     0.008 A 
ATOM      8  C   UNL     1       5.516 -22.688 -51.327  1.00  0.00     0.054 A 
BRANCH   4   9
ATOM      9  O   UNL     1       3.054 -23.350 -48.720  1.00  0.00    -0.493 OA
ATOM     10  C   UNL     1       2.245 -24.514 -48.617  1.00  0.00     0.278 C 
ENDBRANCH   4   9
BRANCH   6  11
ATOM     11  O   UNL     1       3.239 -21.895 -50.882  1.00  0.00    -0.493 OA
ATOM     12  C   UNL     1       2.734 -21.960 -52.209  1.00  0.00     0.278 C 
ENDBRANCH   6  11
ENDBRANCH   2   3
ENDBRANCH   1   2
BRANCH   1  13
ATOM     13  N   UNL     1      10.076 -23.476 -50.384  1.00  0.00    -0.326 N 
ATOM     14  C   UNL     1      10.177 -24.855 -50.640  1.00  0.00     0.273 C 
ATOM     15  C   UNL     1      10.777 -23.071 -49.130  1.00  0.00     0.151 C 
ATOM     16  O   UNL     1       9.604 -25.514 -51.489  1.00  0.00    -0.267 OA
ATOM     17  C   UNL     1      11.077 -25.317 -49.654  1.00  0.00     0.129 A 
ATOM     18  C   UNL     1      11.462 -24.334 -48.793  1.00  0.00     0.038 A 
ATOM     19  N   UNL     1      11.661 -26.461 -49.264  1.00  0.00    -0.272 N 
ATOM     20  C   UNL     1      12.325 -24.957 -47.880  1.00  0.00     0.102 A 
ATOM     21  N   UNL     1      12.407 -26.282 -48.146  1.00  0.00    -0.174 NA
ATOM     22  H   UNL     1      11.592 -27.390 -49.668  1.00  0.00     0.190 HD
BRANCH  15  23
ATOM     23  C   UNL     1      11.801 -21.977 -49.295  1.00  0.00    -0.017 A 
ATOM     24  C   UNL     1      12.106 -21.156 -48.192  1.00  0.00     0.006 A 
ATOM     25  C   UNL     1      12.477 -21.745 -50.506  1.00  0.00     0.052 A 
ATOM     26  C   UNL     1      13.057 -20.138 -48.296  1.00  0.00     0.004 A 
ATOM     27  C   UNL     1      13.423 -20.726 -50.597  1.00  0.00     0.115 A 
ATOM     28  C   UNL     1      13.717 -19.925 -49.502  1.00  0.00     0.046 A 
BRANCH  27  29
ATOM     29  O   UNL     1      14.103 -20.486 -51.754  1.00  0.00    -0.508 OA
ATOM     30  H   UNL     1      13.881 -21.182 -52.400  1.00  0.00     0.293 HD
ENDBRANCH  27  29
ENDBRANCH  15  23
BRANCH  20  31
ATOM     31  C   UNL     1      13.012 -24.364 -46.745  1.00  0.00     0.046 A 
ATOM     32  C   UNL     1      14.230 -23.708 -46.951  1.00  0.00     0.035 A 
ATOM     33  C   UNL     1      12.498 -24.459 -45.447  1.00  0.00     0.125 A 
ATOM     34  C   UNL     1      14.933 -23.175 -45.866  1.00  0.00     0.044 A 
ATOM     35  C   UNL     1      13.198 -23.928 -44.362  1.00  0.00     0.051 A 
ATOM     36  C   UNL     1      14.429 -23.282 -44.560  1.00  0.00    -0.029 A 
ATOM     37  Cl  UNL     1      16.439 -22.391 -46.189  1.00  0.00    -0.084 Cl
ATOM     38  C   UNL     1      15.162 -22.712 -43.377  1.00  0.00     0.046 C 
BRANCH  33  39
ATOM     39  O   UNL     1      11.287 -25.056 -45.240  1.00  0.00    -0.507 OA
ATOM     40  H   UNL     1      10.846 -24.647 -44.477  1.00  0.00     0.293 HD
ENDBRANCH  33  39
ENDBRANCH  20  31
ENDBRANCH   1  13
TORSDOF 9
ENDMDL
MODEL 3
REMARK VINA RESULT:    -7.850      5.263      7.220
REMARK INTER + INTRA:         -13.169
REMARK INTER:                 -11.341
REMARK INTRA:                  -1.828
REMARK UNBOUND:                -1.648
REMARK SMILES COc1ccc(CCN2C(=O)c3[nH]nc(-c4cc(Cl)c(C)cc4O)c3[C@H]2c2cccc(O)c2)cc1OC
REMARK SMILES IDX 8 1 7 2 6 3 3 4 4 5 35 6 5 7 34 8 2 9 1 10 36 11 37 12 9 13
REMARK SMILES IDX 10 14 26 15 11 16 12 17 25 18 13 19 15 20 14 21 27 23 28 24
REMARK SMILES IDX 33 25 29 26 31 27 30 28 32 29 16 31 17 32 23 33 18 34 22 35
REMARK SMILES IDX 20 36 19 37 21 38 24 39
REMARK H PARENT 13 22 32 30 24 40
ROOT
ATOM      1  C   UNL     1       8.975 -22.923 -50.644  1.00  0.00     0.125 C 
ENDROOT
BRANCH   1   2
ATOM      2  C   UNL     1       7.612 -23.477 -50.202  1.00  0.00     0.057 C 
BRANCH   2   3
ATOM      3  C   UNL     1       6.600 -23.526 -51.321  1.00  0.00    -0.042 A 
ATOM      4  C   UNL     1       4.623 -23.681 -53.315  1.00  0.00     0.160 A 
ATOM      5  C   UNL     1       5.609 -24.667 -53.218  1.00  0.00     0.051 A 
ATOM      6  C   UNL     1       4.633 -22.596 -52.416  1.00  0.00     0.160 A 
ATOM      7  C   UNL     1       6.588 -24.592 -52.224  1.00  0.00     0.008 A 
ATOM      8  C   UNL     1       5.626 -22.523 -51.433  1.00  0.00     0.054 A 
BRANCH   4   9
ATOM      9  O   UNL     1       3.592 -23.700 -54.221  1.00  0.00    -0.493 OA
ATOM     10  C   UNL     1       2.559 -24.657 -54.023  1.00  0.00     0.278 C 
ENDBRANCH   4   9
BRANCH   6  11
ATOM     11  O   UNL     1       3.613 -21.687 -52.556  1.00  0.00    -0.493 OA
ATOM     12  C   UNL     1       2.593 -21.690 -51.568  1.00  0.00     0.278 C 
ENDBRANCH   6  11
ENDBRANCH   2   3
ENDBRANCH   1   2
BRANCH   1  13
ATOM     13  N   UNL     1      10.135 -23.644 -50.140  1.00  0.00    -0.326 N 
ATOM     14  C   UNL     1      10.364 -25.003 -50.414  1.00  0.00     0.273 C 
ATOM     15  C   UNL     1      10.843 -23.177 -48.910  1.00  0.00     0.151 C 
ATOM     16  O   UNL     1       9.827 -25.712 -51.246  1.00  0.00    -0.267 OA
ATOM     17  C   UNL     1      11.347 -25.378 -49.470  1.00  0.00     0.129 A 
ATOM     18  C   UNL     1      11.665 -24.367 -48.615  1.00  0.00     0.038 A 
ATOM     19  N   UNL     1      12.060 -26.459 -49.117  1.00  0.00    -0.272 N 
ATOM     20  C   UNL     1      12.625 -24.905 -47.745  1.00  0.00     0.102 A 
ATOM     21  N   UNL     1      12.830 -26.213 -48.028  1.00  0.00    -0.174 NA
ATOM     22  H   UNL     1      12.068 -27.388 -49.527  1.00  0.00     0.190 HD
BRANCH  15  23
ATOM     23  C   UNL     1      11.743 -21.984 -49.106  1.00  0.00    -0.017 A 
ATOM     24  C   UNL     1      12.176 -21.264 -47.976  1.00  0.00     0.006 A 
ATOM     25  C   UNL     1      12.181 -21.561 -50.373  1.00  0.00     0.052 A 
ATOM     26  C   UNL     1      13.020 -20.160 -48.108  1.00  0.00     0.004 A 
ATOM     27  C   UNL     1      13.022 -20.457 -50.492  1.00  0.00     0.115 A 
ATOM     28  C   UNL     1      13.445 -19.757 -49.370  1.00  0.00     0.046 A 
BRANCH  27  29
ATOM     29  O   UNL     1      13.472 -20.031 -51.707  1.00  0.00    -0.508 OA
ATOM     30  H   UNL     1      13.984 -19.211 -51.582  1.00  0.00     0.293 HD
ENDBRANCH  27  29
ENDBRANCH  15  23
BRANCH  20  31
ATOM     31  C   UNL     1      13.294 -24.252 -46.632  1.00  0.00     0.046 A 
ATOM     32  C   UNL     1      14.640 -23.892 -46.762  1.00  0.00     0.035 A 
ATOM     33  C   UNL     1      12.633 -24.001 -45.425  1.00  0.00     0.125 A 
ATOM     34  C   UNL     1      15.318 -23.310 -45.687  1.00  0.00     0.044 A 
ATOM     35  C   UNL     1      13.308 -23.421 -44.349  1.00  0.00     0.051 A 
ATOM     36  C   UNL     1      14.663 -23.071 -44.468  1.00  0.00    -0.029 A 
ATOM     37  Cl  UNL     1      16.983 -22.904 -45.909  1.00  0.00    -0.084 Cl
ATOM     38  C   UNL     1      15.367 -22.441 -43.298  1.00  0.00     0.046 C 
BRANCH  33  39
ATOM     39  O   UNL     1      11.307 -24.306 -45.303  1.00  0.00    -0.507 OA
ATOM     40  H   UNL     1      10.885 -23.689 -44.682  1.00  0.00     0.293 HD
ENDBRANCH  33  39
ENDBRANCH  20  31
ENDBRANCH   1  13
TORSDOF 9
ENDMDL
MODEL 4
REMARK VINA RESULT:    -7.645      1.630      2.093
REMARK INTER + INTRA:         -12.869
REMARK INTER:                 -11.815
REMARK INTRA:                  -1.053
REMARK UNBOUND:                -1.648
REMARK SMILES COc1ccc(CCN2C(=O)c3[nH]nc(-c4cc(Cl)c(C)cc4O)c3[C@H]2c2cccc(O)c2)cc1OC
REMARK SMILES IDX 8 1 7 2 6 3 3 4 4 5 35 6 5 7 34 8 2 9 1 10 36 11 37 12 9 13
REMARK SMILES IDX 10 14 26 15 11 16 12 17 25 18 13 19 15 20 14 21 27 23 28 24
REMARK SMILES IDX 33 25 29 26 31 27 30 28 32 29 16 31 17 32 23 33 18 34 22 35
REMARK SMILES IDX 20 36 19 37 21 38 24 39
REMARK H PARENT 13 22 32 30 24 40
ROOT
ATOM      1  C   UNL     1      13.766 -21.329 -48.530  1.00  0.00     0.125 C 
ENDROOT
BRANCH   1   2
ATOM      2  C   UNL     1      12.974 -21.176 -49.838  1.00  0.00     0.057 C 
BRANCH   2   3
ATOM      3  C   UNL     1      13.549 -20.131 -50.763  1.00  0.00    -0.042 A 
ATOM      4  C   UNL     1      14.752 -18.211 -52.428  1.00  0.00     0.160 A 
ATOM      5  C   UNL     1      14.153 -17.828 -51.224  1.00  0.00     0.051 A 
ATOM      6  C   UNL     1      14.735 -19.566 -52.814  1.00  0.00     0.160 A 
ATOM      7  C   UNL     1      13.560 -18.783 -50.395  1.00  0.00     0.008 A 
ATOM      8  C   UNL     1      14.127 -20.512 -51.983  1.00  0.00     0.054 A 
BRANCH   4   9
ATOM      9  O   UNL     1      15.404 -17.353 -53.279  1.00  0.00    -0.493 OA
ATOM     10  C   UNL     1      16.586 -16.725 -52.800  1.00  0.00     0.278 C 
ENDBRANCH   4   9
BRANCH   6  11
ATOM     11  O   UNL     1      15.371 -19.866 -53.994  1.00  0.00    -0.493 OA
ATOM     12  C   UNL     1      16.772 -20.095 -53.942  1.00  0.00     0.278 C 
ENDBRANCH   6  11
ENDBRANCH   2   3
ENDBRANCH   1   2
BRANCH   1  13
ATOM     13  N   UNL     1      13.579 -22.592 -47.831  1.00  0.00    -0.326 N 
ATOM     14  C   UNL     1      12.783 -23.633 -48.341  1.00  0.00     0.273 C 
ATOM     15  C   UNL     1      13.753 -22.673 -46.350  1.00  0.00     0.151 C 
ATOM     16  O   UNL     1      12.339 -23.769 -49.467  1.00  0.00    -0.267 OA
ATOM     17  C   UNL     1      12.580 -24.480 -47.228  1.00  0.00     0.129 A 
ATOM     18  C   UNL     1      13.135 -23.987 -46.086  1.00  0.00     0.038 A 
ATOM     19  N   UNL     1      11.965 -25.634 -46.925  1.00  0.00    -0.272 N 
ATOM     20  C   UNL     1      12.830 -24.926 -45.090  1.00  0.00     0.102 A 
ATOM     21  N   UNL     1      12.064 -25.918 -45.603  1.00  0.00    -0.174 NA
ATOM     22  H   UNL     1      11.444 -26.263 -47.528  1.00  0.00     0.190 HD
BRANCH  15  23
ATOM     23  C   UNL     1      15.184 -22.690 -45.877  1.00  0.00    -0.017 A 
ATOM     24  C   UNL     1      15.497 -22.110 -44.632  1.00  0.00     0.006 A 
ATOM     25  C   UNL     1      16.225 -23.273 -46.620  1.00  0.00     0.052 A 
ATOM     26  C   UNL     1      16.806 -22.113 -44.147  1.00  0.00     0.004 A 
ATOM     27  C   UNL     1      17.527 -23.270 -46.126  1.00  0.00     0.115 A 
ATOM     28  C   UNL     1      17.824 -22.696 -44.897  1.00  0.00     0.046 A 
BRANCH  27  29
ATOM     29  O   UNL     1      18.555 -23.838 -46.820  1.00  0.00    -0.508 OA
ATOM     30  H   UNL     1      19.218 -23.151 -47.018  1.00  0.00     0.293 HD
ENDBRANCH  27  29
ENDBRANCH  15  23
BRANCH  20  31
ATOM     31  C   UNL     1      13.176 -24.883 -43.679  1.00  0.00     0.046 A 
ATOM     32  C   UNL     1      14.311 -25.569 -43.234  1.00  0.00     0.035 A 
ATOM     33  C   UNL     1      12.386 -24.197 -42.752  1.00  0.00     0.125 A 
ATOM     34  C   UNL     1      14.635 -25.583 -41.874  1.00  0.00     0.044 A 
ATOM     35  C   UNL     1      12.705 -24.211 -41.392  1.00  0.00     0.051 A 
ATOM     36  C   UNL     1      13.835 -24.910 -40.937  1.00  0.00    -0.029 A 
ATOM     37  Cl  UNL     1      16.042 -26.462 -41.391  1.00  0.00    -0.084 Cl
ATOM     38  C   UNL     1      14.164 -24.905 -39.470  1.00  0.00     0.046 C 
BRANCH  33  39
ATOM     39  O   UNL     1      11.301 -23.486 -43.181  1.00  0.00    -0.507 OA
ATOM     40  H   UNL     1      11.561 -22.898 -43.910  1.00  0.00     0.293 HD
ENDBRANCH  33  39
ENDBRANCH  20  31
ENDBRANCH   1  13
TORSDOF 9
ENDMDL
MODEL 5
REMARK VINA RESULT:    -7.236      3.838      8.649
REMARK INTER + INTRA:         -12.268
REMARK INTER:                  -9.228
REMARK INTRA:                  -3.039
REMARK UNBOUND:                -1.648
REMARK SMILES COc1ccc(CCN2C(=O)c3[nH]nc(-c4cc(Cl)c(C)cc4O)c3[C@H]2c2cccc(O)c2)cc1OC
REMARK SMILES IDX 8 1 7 2 6 3 3 4 4 5 35 6 5 7 34 8 2 9 1 10 36 11 37 12 9 13
REMARK SMILES IDX 10 14 26 15 11 16 12 17 25 18 13 19 15 20 14 21 27 23 28 24
REMARK SMILES IDX 33 25 29 26 31 27 30 28 32 29 16 31 17 32 23 33 18 34 22 35
REMARK SMILES IDX 20 36 19 37 21 38 24 39
REMARK H PARENT 13 22 32 30 24 40
ROOT
ATOM      1  C   UNL     1      13.467 -21.143 -47.220  1.00  0.00     0.125 C 
ENDROOT
BRANCH   1   2
ATOM      2  C   UNL     1      14.792 -21.685 -46.659  1.00  0.00     0.057 C 
BRANCH   2   3
ATOM      3  C   UNL     1      14.621 -22.454 -45.372  1.00  0.00    -0.042 A 
ATOM      4  C   UNL     1      14.331 -24.009 -43.047  1.00  0.00     0.160 A 
ATOM      5  C   UNL     1      13.211 -23.654 -43.806  1.00  0.00     0.051 A 
ATOM      6  C   UNL     1      15.609 -23.569 -43.445  1.00  0.00     0.160 A 
ATOM      7  C   UNL     1      13.356 -22.886 -44.963  1.00  0.00     0.008 A 
ATOM      8  C   UNL     1      15.742 -22.789 -44.598  1.00  0.00     0.054 A 
BRANCH   4   9
ATOM      9  O   UNL     1      14.291 -24.805 -41.929  1.00  0.00    -0.493 OA
ATOM     10  C   UNL     1      13.308 -24.508 -40.946  1.00  0.00     0.278 C 
ENDBRANCH   4   9
BRANCH   6  11
ATOM     11  O   UNL     1      16.660 -23.986 -42.666  1.00  0.00    -0.493 OA
ATOM     12  C   UNL     1      17.805 -24.500 -43.332  1.00  0.00     0.278 C 
ENDBRANCH   6  11
ENDBRANCH   2   3
ENDBRANCH   1   2
BRANCH   1  13
ATOM     13  N   UNL     1      12.984 -21.801 -48.425  1.00  0.00    -0.326 N 
ATOM     14  C   UNL     1      13.359 -21.393 -49.717  1.00  0.00     0.273 C 
ATOM     15  C   UNL     1      11.699 -22.561 -48.412  1.00  0.00     0.151 C 
ATOM     16  O   UNL     1      14.262 -20.645 -50.046  1.00  0.00    -0.267 OA
ATOM     17  C   UNL     1      12.416 -22.025 -50.559  1.00  0.00     0.129 A 
ATOM     18  C   UNL     1      11.473 -22.718 -49.862  1.00  0.00     0.038 A 
ATOM     19  N   UNL     1      12.128 -22.132 -51.866  1.00  0.00    -0.272 N 
ATOM     20  C   UNL     1      10.618 -23.260 -50.833  1.00  0.00     0.102 A 
ATOM     21  N   UNL     1      10.998 -22.855 -52.068  1.00  0.00    -0.174 NA
ATOM     22  H   UNL     1      12.611 -21.737 -52.666  1.00  0.00     0.190 HD
BRANCH  15  23
ATOM     23  C   UNL     1      11.769 -23.921 -47.768  1.00  0.00    -0.017 A 
ATOM     24  C   UNL     1      12.957 -24.669 -47.879  1.00  0.00     0.006 A 
ATOM     25  C   UNL     1      10.698 -24.477 -47.046  1.00  0.00     0.052 A 
ATOM     26  C   UNL     1      13.072 -25.929 -47.287  1.00  0.00     0.004 A 
ATOM     27  C   UNL     1      10.823 -25.735 -46.461  1.00  0.00     0.115 A 
ATOM     28  C   UNL     1      12.001 -26.462 -46.575  1.00  0.00     0.046 A 
BRANCH  27  29
ATOM     29  O   UNL     1       9.806 -26.294 -45.745  1.00  0.00    -0.508 OA
ATOM     30  H   UNL     1      10.114 -27.140 -45.370  1.00  0.00     0.293 HD
ENDBRANCH  27  29
ENDBRANCH  15  23
BRANCH  20  31
ATOM     31  C   UNL     1       9.435 -24.080 -50.631  1.00  0.00     0.046 A 
ATOM     32  C   UNL     1       8.175 -23.473 -50.634  1.00  0.00     0.035 A 
ATOM     33  C   UNL     1       9.529 -25.457 -50.405  1.00  0.00     0.125 A 
ATOM     34  C   UNL     1       7.028 -24.234 -50.391  1.00  0.00     0.044 A 
ATOM     35  C   UNL     1       8.385 -26.220 -50.161  1.00  0.00     0.051 A 
ATOM     36  C   UNL     1       7.119 -25.613 -50.147  1.00  0.00    -0.029 A 
ATOM     37  Cl  UNL     1       5.505 -23.417 -50.394  1.00  0.00    -0.084 Cl
ATOM     38  C   UNL     1       5.900 -26.456 -49.889  1.00  0.00     0.046 C 
BRANCH  33  39
ATOM     39  O   UNL     1      10.750 -26.069 -50.446  1.00  0.00    -0.507 OA
ATOM     40  H   UNL     1      10.635 -27.033 -50.396  1.00  0.00     0.293 HD
ENDBRANCH  33  39
ENDBRANCH  20  31
ENDBRANCH   1  13
TORSDOF 9
ENDMDL
MODEL 6
REMARK VINA RESULT:    -6.775      5.164      6.871
REMARK INTER + INTRA:         -11.591
REMARK INTER:                  -9.971
REMARK INTRA:                  -1.620
REMARK UNBOUND:                -1.648
REMARK SMILES COc1ccc(CCN2C(=O)c3[nH]nc(-c4cc(Cl)c(C)cc4O)c3[C@H]2c2cccc(O)c2)cc1OC
REMARK SMILES IDX 8 1 7 2 6 3 3 4 4 5 35 6 5 7 34 8 2 9 1 10 36 11 37 12 9 13
REMARK SMILES IDX 10 14 26 15 11 16 12 17 25 18 13 19 15 20 14 21 27 23 28 24
REMARK SMILES IDX 33 25 29 26 31 27 30 28 32 29 16 31 17 32 23 33 18 34 22 35
REMARK SMILES IDX 20 36 19 37 21 38 24 39
REMARK H PARENT 13 22 32 30 24 40
ROOT
ATOM      1  C   UNL     1       8.922 -22.986 -50.170  1.00  0.00     0.125 C 
ENDROOT
BRANCH   1   2
ATOM      2  C   UNL     1       8.645 -22.996 -51.682  1.00  0.00     0.057 C 
BRANCH   2   3
ATOM      3  C   UNL     1       7.181 -23.148 -52.016  1.00  0.00    -0.042 A 
ATOM      4  C   UNL     1       4.474 -23.343 -52.750  1.00  0.00     0.160 A 
ATOM      5  C   UNL     1       4.880 -22.420 -51.782  1.00  0.00     0.051 A 
ATOM      6  C   UNL     1       5.428 -24.191 -53.347  1.00  0.00     0.160 A 
ATOM      7  C   UNL     1       6.225 -22.320 -51.421  1.00  0.00     0.008 A 
ATOM      8  C   UNL     1       6.771 -24.092 -52.969  1.00  0.00     0.054 A 
BRANCH   4   9
ATOM      9  O   UNL     1       3.186 -23.475 -53.207  1.00  0.00    -0.493 OA
ATOM     10  C   UNL     1       2.206 -23.937 -52.286  1.00  0.00     0.278 C 
ENDBRANCH   4   9
BRANCH   6  11
ATOM     11  O   UNL     1       4.956 -25.047 -54.311  1.00  0.00    -0.493 OA
ATOM     12  C   UNL     1       4.965 -26.437 -54.015  1.00  0.00     0.278 C 
ENDBRANCH   6  11
ENDBRANCH   2   3
ENDBRANCH   1   2
BRANCH   1  13
ATOM     13  N   UNL     1      10.131 -23.682 -49.753  1.00  0.00    -0.326 N 
ATOM     14  C   UNL     1      10.391 -25.022 -50.088  1.00  0.00     0.273 C 
ATOM     15  C   UNL     1      10.887 -23.233 -48.546  1.00  0.00     0.151 C 
ATOM     16  O   UNL     1       9.834 -25.721 -50.915  1.00  0.00    -0.267 OA
ATOM     17  C   UNL     1      11.434 -25.394 -49.210  1.00  0.00     0.129 A 
ATOM     18  C   UNL     1      11.764 -24.402 -48.337  1.00  0.00     0.038 A 
ATOM     19  N   UNL     1      12.201 -26.461 -48.933  1.00  0.00    -0.272 N 
ATOM     20  C   UNL     1      12.786 -24.934 -47.538  1.00  0.00     0.102 A 
ATOM     21  N   UNL     1      13.019 -26.224 -47.878  1.00  0.00    -0.174 NA
ATOM     22  H   UNL     1      12.219 -27.373 -49.377  1.00  0.00     0.190 HD
BRANCH  15  23
ATOM     23  C   UNL     1      11.734 -22.003 -48.745  1.00  0.00    -0.017 A 
ATOM     24  C   UNL     1      12.226 -21.714 -50.034  1.00  0.00     0.006 A 
ATOM     25  C   UNL     1      12.050 -21.118 -47.699  1.00  0.00     0.052 A 
ATOM     26  C   UNL     1      13.004 -20.579 -50.268  1.00  0.00     0.004 A 
ATOM     27  C   UNL     1      12.828 -19.989 -47.945  1.00  0.00     0.115 A 
ATOM     28  C   UNL     1      13.305 -19.714 -49.220  1.00  0.00     0.046 A 
BRANCH  27  29
ATOM     29  O   UNL     1      13.139 -19.107 -46.953  1.00  0.00    -0.508 OA
ATOM     30  H   UNL     1      12.326 -18.885 -46.464  1.00  0.00     0.293 HD
ENDBRANCH  27  29
ENDBRANCH  15  23
BRANCH  20  31
ATOM     31  C   UNL     1      13.491 -24.297 -46.439  1.00  0.00     0.046 A 
ATOM     32  C   UNL     1      14.848 -23.989 -46.586  1.00  0.00     0.035 A 
ATOM     33  C   UNL     1      12.853 -24.009 -45.228  1.00  0.00     0.125 A 
ATOM     34  C   UNL     1      15.559 -23.422 -45.524  1.00  0.00     0.044 A 
ATOM     35  C   UNL     1      13.560 -23.445 -44.165  1.00  0.00     0.051 A 
ATOM     36  C   UNL     1      14.926 -23.147 -44.301  1.00  0.00    -0.029 A 
ATOM     37  Cl  UNL     1      17.235 -23.082 -45.768  1.00  0.00    -0.084 Cl
ATOM     38  C   UNL     1      15.666 -22.533 -43.145  1.00  0.00     0.046 C 
BRANCH  33  39
ATOM     39  O   UNL     1      11.518 -24.262 -45.089  1.00  0.00    -0.507 OA
ATOM     40  H   UNL     1      11.195 -24.756 -45.862  1.00  0.00     0.293 HD
ENDBRANCH  33  39
ENDBRANCH  20  31
ENDBRANCH   1  13
TORSDOF 9
ENDMDL
MODEL 7
REMARK VINA RESULT:    -6.293      3.672      6.250
REMARK INTER + INTRA:         -10.883
REMARK INTER:                  -9.402
REMARK INTRA:                  -1.481
REMARK UNBOUND:                -1.648
REMARK SMILES COc1ccc(CCN2C(=O)c3[nH]nc(-c4cc(Cl)c(C)cc4O)c3[C@H]2c2cccc(O)c2)cc1OC
REMARK SMILES IDX 8 1 7 2 6 3 3 4 4 5 35 6 5 7 34 8 2 9 1 10 36 11 37 12 9 13
REMARK SMILES IDX 10 14 26 15 11 16 12 17 25 18 13 19 15 20 14 21 27 23 28 24
REMARK SMILES IDX 33 25 29 26 31 27 30 28 32 29 16 31 17 32 23 33 18 34 22 35
REMARK SMILES IDX 20 36 19 37 21 38 24 39
REMARK H PARENT 13 22 32 30 24 40
ROOT
ATOM      1  C   UNL     1      13.664 -20.693 -52.453  1.00  0.00     0.125 C 
ENDROOT
BRANCH   1   2
ATOM      2  C   UNL     1      13.524 -19.417 -53.299  1.00  0.00     0.057 C 
BRANCH   2   3
ATOM      3  C   UNL     1      14.842 -18.731 -53.562  1.00  0.00    -0.042 A 
ATOM      4  C   UNL     1      17.331 -17.470 -53.913  1.00  0.00     0.160 A 
ATOM      5  C   UNL     1      16.179 -16.711 -53.687  1.00  0.00     0.051 A 
ATOM      6  C   UNL     1      17.238 -18.875 -53.981  1.00  0.00     0.160 A 
ATOM      7  C   UNL     1      14.944 -17.338 -53.508  1.00  0.00     0.008 A 
ATOM      8  C   UNL     1      15.994 -19.492 -53.814  1.00  0.00     0.054 A 
BRANCH   4   9
ATOM      9  O   UNL     1      18.593 -16.946 -54.045  1.00  0.00    -0.493 OA
ATOM     10  C   UNL     1      19.069 -16.107 -53.001  1.00  0.00     0.278 C 
ENDBRANCH   4   9
BRANCH   6  11
ATOM     11  O   UNL     1      18.418 -19.549 -54.174  1.00  0.00    -0.493 OA
ATOM     12  C   UNL     1      18.541 -20.836 -53.584  1.00  0.00     0.278 C 
ENDBRANCH   6  11
ENDBRANCH   2   3
ENDBRANCH   1   2
BRANCH   1  13
ATOM     13  N   UNL     1      13.203 -20.582 -51.077  1.00  0.00    -0.326 N 
ATOM     14  C   UNL     1      13.433 -19.441 -50.287  1.00  0.00     0.273 C 
ATOM     15  C   UNL     1      12.948 -21.805 -50.260  1.00  0.00     0.151 C 
ATOM     16  O   UNL     1      13.808 -18.337 -50.637  1.00  0.00    -0.267 OA
ATOM     17  C   UNL     1      13.164 -19.881 -48.971  1.00  0.00     0.129 A 
ATOM     18  C   UNL     1      12.861 -21.208 -48.913  1.00  0.00     0.038 A 
ATOM     19  N   UNL     1      13.148 -19.399 -47.718  1.00  0.00    -0.272 N 
ATOM     20  C   UNL     1      12.643 -21.481 -47.555  1.00  0.00     0.102 A 
ATOM     21  N   UNL     1      12.870 -20.371 -46.814  1.00  0.00    -0.174 NA
ATOM     22  H   UNL     1      13.334 -18.457 -47.389  1.00  0.00     0.190 HD
BRANCH  15  23
ATOM     23  C   UNL     1      11.661 -22.524 -50.572  1.00  0.00    -0.017 A 
ATOM     24  C   UNL     1      11.707 -23.890 -50.913  1.00  0.00     0.006 A 
ATOM     25  C   UNL     1      10.406 -21.891 -50.528  1.00  0.00     0.052 A 
ATOM     26  C   UNL     1      10.539 -24.599 -51.198  1.00  0.00     0.004 A 
ATOM     27  C   UNL     1       9.247 -22.609 -50.815  1.00  0.00     0.115 A 
ATOM     28  C   UNL     1       9.305 -23.956 -51.148  1.00  0.00     0.046 A 
BRANCH  27  29
ATOM     29  O   UNL     1       8.016 -22.025 -50.768  1.00  0.00    -0.508 OA
ATOM     30  H   UNL     1       8.053 -21.263 -50.162  1.00  0.00     0.293 HD
ENDBRANCH  27  29
ENDBRANCH  15  23
BRANCH  20  31
ATOM     31  C   UNL     1      12.299 -22.751 -46.938  1.00  0.00     0.046 A 
ATOM     32  C   UNL     1      11.225 -23.488 -47.448  1.00  0.00     0.035 A 
ATOM     33  C   UNL     1      12.997 -23.239 -45.829  1.00  0.00     0.125 A 
ATOM     34  C   UNL     1      10.844 -24.687 -46.838  1.00  0.00     0.044 A 
ATOM     35  C   UNL     1      12.618 -24.436 -45.216  1.00  0.00     0.051 A 
ATOM     36  C   UNL     1      11.532 -25.173 -45.714  1.00  0.00    -0.029 A 
ATOM     37  Cl  UNL     1       9.499 -25.540 -47.510  1.00  0.00    -0.084 Cl
ATOM     38  C   UNL     1      11.146 -26.462 -45.044  1.00  0.00     0.046 C 
BRANCH  33  39
ATOM     39  O   UNL     1      14.076 -22.551 -45.351  1.00  0.00    -0.507 OA
ATOM     40  H   UNL     1      14.225 -22.781 -44.418  1.00  0.00     0.293 HD
ENDBRANCH  33  39
ENDBRANCH  20  31
ENDBRANCH   1  13
TORSDOF 9
ENDMDL
MODEL 8
REMARK VINA RESULT:    -6.148      4.198      6.658
REMARK INTER + INTRA:         -10.671
REMARK INTER:                  -8.875
REMARK INTRA:                  -1.796
REMARK UNBOUND:                -1.648
REMARK SMILES COc1ccc(CCN2C(=O)c3[nH]nc(-c4cc(Cl)c(C)cc4O)c3[C@H]2c2cccc(O)c2)cc1OC
REMARK SMILES IDX 8 1 7 2 6 3 3 4 4 5 35 6 5 7 34 8 2 9 1 10 36 11 37 12 9 13
REMARK SMILES IDX 10 14 26 15 11 16 12 17 25 18 13 19 15 20 14 21 27 23 28 24
REMARK SMILES IDX 33 25 29 26 31 27 30 28 32 29 16 31 17 32 23 33 18 34 22 35
REMARK SMILES IDX 20 36 19 37 21 38 24 39
REMARK H PARENT 13 22 32 30 24 40
ROOT
ATOM      1  C   UNL     1      11.172 -24.503 -50.593  1.00  0.00     0.125 C 
ENDROOT
BRANCH   1   2
ATOM      2  C   UNL     1      10.122 -25.532 -50.146  1.00  0.00     0.057 C 
BRANCH   2   3
ATOM      3  C   UNL     1       8.703 -25.065 -50.361  1.00  0.00    -0.042 A 
ATOM      4  C   UNL     1       6.110 -24.060 -50.782  1.00  0.00     0.160 A 
ATOM      5  C   UNL     1       6.613 -24.199 -49.485  1.00  0.00     0.051 A 
ATOM      6  C   UNL     1       6.904 -24.443 -51.881  1.00  0.00     0.160 A 
ATOM      7  C   UNL     1       7.903 -24.694 -49.276  1.00  0.00     0.008 A 
ATOM      8  C   UNL     1       8.189 -24.949 -51.661  1.00  0.00     0.054 A 
BRANCH   4   9
ATOM      9  O   UNL     1       4.879 -23.534 -51.085  1.00  0.00    -0.493 OA
ATOM     10  C   UNL     1       4.222 -22.776 -50.077  1.00  0.00     0.278 C 
ENDBRANCH   4   9
BRANCH   6  11
ATOM     11  O   UNL     1       6.351 -24.246 -53.122  1.00  0.00    -0.493 OA
ATOM     12  C   UNL     1       5.950 -25.398 -53.851  1.00  0.00     0.278 C 
ENDBRANCH   6  11
ENDBRANCH   2   3
ENDBRANCH   1   2
BRANCH   1  13
ATOM     13  N   UNL     1      11.567 -23.535 -49.579  1.00  0.00    -0.326 N 
ATOM     14  C   UNL     1      11.398 -22.149 -49.744  1.00  0.00     0.273 C 
ATOM     15  C   UNL     1      12.624 -23.872 -48.580  1.00  0.00     0.151 C 
ATOM     16  O   UNL     1      10.731 -21.557 -50.573  1.00  0.00    -0.267 OA
ATOM     17  C   UNL     1      12.218 -21.586 -48.739  1.00  0.00     0.129 A 
ATOM     18  C   UNL     1      12.911 -22.528 -48.040  1.00  0.00     0.038 A 
ATOM     19  N   UNL     1      12.567 -20.380 -48.267  1.00  0.00    -0.272 N 
ATOM     20  C   UNL     1      13.677 -21.811 -47.110  1.00  0.00     0.102 A 
ATOM     21  N   UNL     1      13.499 -20.480 -47.286  1.00  0.00    -0.174 NA
ATOM     22  H   UNL     1      12.254 -19.459 -48.558  1.00  0.00     0.190 HD
BRANCH  15  23
ATOM     23  C   UNL     1      12.179 -24.775 -47.460  1.00  0.00    -0.017 A 
ATOM     24  C   UNL     1      13.154 -25.409 -46.665  1.00  0.00     0.006 A 
ATOM     25  C   UNL     1      10.824 -25.008 -47.162  1.00  0.00     0.052 A 
ATOM     26  C   UNL     1      12.788 -26.245 -45.608  1.00  0.00     0.004 A 
ATOM     27  C   UNL     1      10.471 -25.845 -46.106  1.00  0.00     0.115 A 
ATOM     28  C   UNL     1      11.442 -26.462 -45.328  1.00  0.00     0.046 A 
BRANCH  27  29
ATOM     29  O   UNL     1       9.167 -26.080 -45.787  1.00  0.00    -0.508 OA
ATOM     30  H   UNL     1       8.815 -26.763 -46.386  1.00  0.00     0.293 HD
ENDBRANCH  27  29
ENDBRANCH  15  23
BRANCH  20  31
ATOM     31  C   UNL     1      14.607 -22.330 -46.121  1.00  0.00     0.046 A 
ATOM     32  C   UNL     1      15.969 -22.398 -46.434  1.00  0.00     0.035 A 
ATOM     33  C   UNL     1      14.169 -22.790 -44.875  1.00  0.00     0.125 A 
ATOM     34  C   UNL     1      16.874 -22.940 -45.517  1.00  0.00     0.044 A 
ATOM     35  C   UNL     1      15.070 -23.334 -43.958  1.00  0.00     0.051 A 
ATOM     36  C   UNL     1      16.436 -23.419 -44.272  1.00  0.00    -0.029 A 
ATOM     37  Cl  UNL     1      18.539 -23.008 -45.974  1.00  0.00    -0.084 Cl
ATOM     38  C   UNL     1      17.390 -24.002 -43.266  1.00  0.00     0.046 C 
BRANCH  33  39
ATOM     39  O   UNL     1      12.848 -22.686 -44.540  1.00  0.00    -0.507 OA
ATOM     40  H   UNL     1      12.508 -23.557 -44.274  1.00  0.00     0.293 HD
ENDBRANCH  33  39
ENDBRANCH  20  31
ENDBRANCH   1  13
TORSDOF 9
ENDMDL
MODEL 9
REMARK VINA RESULT:    -6.098     25.174     26.995
REMARK INTER + INTRA:         -10.597
REMARK INTER:                  -8.015
REMARK INTRA:                  -2.582
REMARK UNBOUND:                -1.648
REMARK SMILES COc1ccc(CCN2C(=O)c3[nH]nc(-c4cc(Cl)c(C)cc4O)c3[C@H]2c2cccc(O)c2)cc1OC
REMARK SMILES IDX 8 1 7 2 6 3 3 4 4 5 35 6 5 7 34 8 2 9 1 10 36 11 37 12 9 13
REMARK SMILES IDX 10 14 26 15 11 16 12 17 25 18 13 19 15 20 14 21 27 23 28 24
REMARK SMILES IDX 33 25 29 26 31 27 30 28 32 29 16 31 17 32 23 33 18 34 22 35
REMARK SMILES IDX 20 36 19 37 21 38 24 39
REMARK H PARENT 13 22 32 30 24 40
ROOT
ATOM      1  C   UNL     1       1.818  -7.878 -32.928  1.00  0.00     0.125 C 
ENDROOT
BRANCH   1   2
ATOM      2  C   UNL     1       2.768  -6.917 -33.661  1.00  0.00     0.057 C 
BRANCH   2   3
ATOM      3  C   UNL     1       3.401  -5.897 -32.747  1.00  0.00    -0.042 A 
ATOM      4  C   UNL     1       4.480  -3.900 -31.086  1.00  0.00     0.160 A 
ATOM      5  C   UNL     1       5.002  -4.116 -32.365  1.00  0.00     0.051 A 
ATOM      6  C   UNL     1       3.417  -4.702 -30.624  1.00  0.00     0.160 A 
ATOM      7  C   UNL     1       4.463  -5.104 -33.191  1.00  0.00     0.008 A 
ATOM      8  C   UNL     1       2.893  -5.698 -31.455  1.00  0.00     0.054 A 
BRANCH   4   9
ATOM      9  O   UNL     1       4.909  -2.919 -30.227  1.00  0.00    -0.493 OA
ATOM     10  C   UNL     1       5.465  -1.742 -30.799  1.00  0.00     0.278 C 
ENDBRANCH   4   9
BRANCH   6  11
ATOM     11  O   UNL     1       2.939  -4.408 -29.371  1.00  0.00    -0.493 OA
ATOM     12  C   UNL     1       1.672  -3.771 -29.286  1.00  0.00     0.278 C 
ENDBRANCH   6  11
ENDBRANCH   2   3
ENDBRANCH   1   2
BRANCH   1  13
ATOM     13  N   UNL     1       0.413  -7.496 -32.940  1.00  0.00    -0.326 N 
ATOM     14  C   UNL     1      -0.571  -8.192 -32.217  1.00  0.00     0.273 C 
ATOM     15  C   UNL     1      -0.154  -6.722 -34.085  1.00  0.00     0.151 C 
ATOM     16  O   UNL     1      -0.424  -9.016 -31.331  1.00  0.00    -0.267 OA
ATOM     17  C   UNL     1      -1.787  -7.743 -32.780  1.00  0.00     0.129 A 
ATOM     18  C   UNL     1      -1.597  -6.889 -33.825  1.00  0.00     0.038 A 
ATOM     19  N   UNL     1      -3.108  -7.925 -32.629  1.00  0.00    -0.272 N 
ATOM     20  C   UNL     1      -2.884  -6.559 -34.273  1.00  0.00     0.102 A 
ATOM     21  N   UNL     1      -3.814  -7.240 -33.563  1.00  0.00    -0.174 NA
ATOM     22  H   UNL     1      -3.606  -8.500 -31.958  1.00  0.00     0.190 HD
BRANCH  15  23
ATOM     23  C   UNL     1       0.186  -5.254 -34.093  1.00  0.00    -0.017 A 
ATOM     24  C   UNL     1       0.699  -4.679 -35.273  1.00  0.00     0.006 A 
ATOM     25  C   UNL     1       0.002  -4.424 -32.974  1.00  0.00     0.052 A 
ATOM     26  C   UNL     1       1.015  -3.321 -35.331  1.00  0.00     0.004 A 
ATOM     27  C   UNL     1       0.323  -3.071 -33.043  1.00  0.00     0.115 A 
ATOM     28  C   UNL     1       0.825  -2.515 -34.212  1.00  0.00     0.046 A 
BRANCH  27  29
ATOM     29  O   UNL     1       0.144  -2.239 -31.977  1.00  0.00    -0.508 OA
ATOM     30  H   UNL     1      -0.291  -2.736 -31.260  1.00  0.00     0.293 HD
ENDBRANCH  27  29
ENDBRANCH  15  23
BRANCH  20  31
ATOM     31  C   UNL     1      -3.255  -5.688 -35.375  1.00  0.00     0.046 A 
ATOM     32  C   UNL     1      -3.557  -6.251 -36.619  1.00  0.00     0.035 A 
ATOM     33  C   UNL     1      -3.289  -4.297 -35.229  1.00  0.00     0.125 A 
ATOM     34  C   UNL     1      -3.867  -5.429 -37.707  1.00  0.00     0.044 A 
ATOM     35  C   UNL     1      -3.596  -3.472 -36.314  1.00  0.00     0.051 A 
ATOM     36  C   UNL     1      -3.886  -4.032 -37.569  1.00  0.00    -0.029 A 
ATOM     37  Cl  UNL     1      -4.215  -6.190 -39.218  1.00  0.00    -0.084 Cl
ATOM     38  C   UNL     1      -4.222  -3.125 -38.721  1.00  0.00     0.046 C 
BRANCH  33  39
ATOM     39  O   UNL     1      -3.041  -3.738 -34.008  1.00  0.00    -0.507 OA
ATOM     40  H   UNL     1      -3.389  -4.314 -33.307  1.00  0.00     0.293 HD
ENDBRANCH  33  39
ENDBRANCH  20  31
ENDBRANCH   1  13
TORSDOF 9
ENDMDL
