REMARK SMILES NC(=O)Cn1cc(/C=N/NS(=O)(=O)c2ccc(Cl)cc2)c2ccccc21
REMARK SMILES IDX 8 1 9 2 7 3 5 4 6 5 26 6 25 7 21 8 24 9 22 10 23 11 4 12
REMARK SMILES IDX 2 13 1 14 3 15 10 18 11 20 12 21 13 22 14 23 15 24 20 25
REMARK SMILES IDX 16 26 19 27 17 28 18 29
REMARK H PARENT 1 16 1 17 10 19
ROOT
ATOM      1  C   UNL     1       1.105   0.130  -0.270  1.00  0.00     0.144 C 
ATOM      2  N   UNL     1       0.777   1.341  -0.600  1.00  0.00    -0.173 NA
ENDROOT
BRANCH   1   3
ATOM      3  C   UNL     1       0.137  -0.712   0.398  1.00  0.00     0.020 A 
ATOM      4  N   UNL     1      -1.754  -1.422   1.351  1.00  0.00    -0.337 N 
ATOM      5  C   UNL     1      -1.154  -0.354   0.738  1.00  0.00     0.097 A 
ATOM      6  C   UNL     1      -0.881  -2.488   1.411  1.00  0.00     0.049 A 
ATOM      7  C   UNL     1      -1.041  -3.781   1.935  1.00  0.00     0.027 A 
ATOM      8  C   UNL     1       0.316  -2.067   0.821  1.00  0.00     0.008 A 
ATOM      9  C   UNL     1       0.040  -4.662   1.855  1.00  0.00     0.002 A 
ATOM     10  C   UNL     1       1.391  -2.980   0.753  1.00  0.00     0.011 A 
ATOM     11  C   UNL     1       1.241  -4.270   1.272  1.00  0.00     0.001 A 
BRANCH   4  12
ATOM     12  C   UNL     1      -3.120  -1.420   1.857  1.00  0.00     0.221 C 
BRANCH  12  13
ATOM     13  C   UNL     1      -3.198  -1.472   3.369  1.00  0.00     0.237 C 
ATOM     14  N   UNL     1      -2.371  -0.639   4.070  1.00  0.00    -0.368 N 
ATOM     15  O   UNL     1      -4.016  -2.169   3.964  1.00  0.00    -0.273 OA
ATOM     16  H   UNL     1      -2.379  -0.759   5.075  1.00  0.00     0.159 HD
ATOM     17  H   UNL     1      -1.504  -0.307   3.663  1.00  0.00     0.159 HD
ENDBRANCH  12  13
ENDBRANCH   4  12
ENDBRANCH   1   3
BRANCH   2  18
ATOM     18  N   UNL     1       1.861   2.064  -1.331  1.00  0.00    -0.200 N 
ATOM     19  H   UNL     1       1.886   3.079  -1.196  1.00  0.00     0.204 HD
BRANCH  18  20
ATOM     20  S   UNL     1       2.153   1.686  -2.976  1.00  0.00     0.276 S 
ATOM     21  O   UNL     1       2.828   2.828  -3.555  1.00  0.00    -0.200 OA
ATOM     22  O   UNL     1       2.717   0.354  -3.039  1.00  0.00    -0.200 OA
BRANCH  20  23
ATOM     23  C   UNL     1       0.509   1.623  -3.655  1.00  0.00     0.089 A 
ATOM     24  C   UNL     1      -0.094   2.802  -4.109  1.00  0.00     0.024 A 
ATOM     25  C   UNL     1      -0.147   0.393  -3.773  1.00  0.00     0.024 A 
ATOM     26  C   UNL     1      -1.377   2.749  -4.658  1.00  0.00     0.022 A 
ATOM     27  C   UNL     1      -1.431   0.348  -4.322  1.00  0.00     0.022 A 
ATOM     28  C   UNL     1      -2.041   1.525  -4.758  1.00  0.00     0.041 A 
ATOM     29  Cl  UNL     1      -3.623   1.466  -5.431  1.00  0.00    -0.084 Cl
ENDBRANCH  20  23
ENDBRANCH  18  20
ENDBRANCH   2  18
TORSDOF 6
