REMARK SMILES Cc1ccc(-c2nc(C(=O)[N-]c3c(C(=O)N4CCOCC4)sc4nc(C)cc(C)c34)cs2)cc1
REMARK SMILES IDX 9 1 10 2 8 3 6 4 7 5 32 6 31 7 5 8 2 9 3 10 34 11 4 12 33 13
REMARK SMILES IDX 1 14 11 15 12 16 13 17 30 18 22 19 28 20 23 21 27 22 24 23
REMARK SMILES IDX 25 24 29 25 26 26 14 27 15 28 16 29 17 30 21 31 18 32 20 33
REMARK SMILES IDX 19 34
REMARK H PARENT
ROOT
ATOM      1  C   UNL     1       0.788  -0.382   0.201  1.00  0.00     0.105 C 
ATOM      2  O   UNL     1       1.642  -0.213  -0.666  1.00  0.00    -0.313 OA
ENDROOT
BRANCH   1   3
ATOM      3  C   UNL     1      -0.216  -1.464   0.069  1.00  0.00     0.100 A 
ATOM      4  C   UNL     1      -1.323  -3.060  -1.065  1.00  0.00     0.124 A 
ATOM      5  N   UNL     1      -0.368  -2.157  -1.138  1.00  0.00    -0.235 NA
ATOM      6  S   UNL     1      -2.095  -3.148   0.473  1.00  0.00    -0.122 S 
ATOM      7  C   UNL     1      -1.090  -1.896   1.055  1.00  0.00     0.097 A 
BRANCH   4   8
ATOM      8  C   UNL     1      -1.706  -3.934  -2.194  1.00  0.00     0.010 A 
ATOM      9  C   UNL     1      -2.337  -5.560  -4.434  1.00  0.00    -0.051 A 
ATOM     10  C   UNL     1      -3.108  -5.620  -3.269  1.00  0.00     0.004 A 
ATOM     11  C   UNL     1      -1.263  -4.669  -4.485  1.00  0.00     0.004 A 
ATOM     12  C   UNL     1      -2.794  -4.821  -2.162  1.00  0.00     0.011 A 
ATOM     13  C   UNL     1      -0.951  -3.872  -3.378  1.00  0.00     0.011 A 
ATOM     14  C   UNL     1      -2.695  -6.390  -5.630  1.00  0.00     0.044 C 
ENDBRANCH   4   8
ENDBRANCH   1   3
BRANCH   1  15
ATOM     15  N   UNL     1       0.615   0.307   1.342  1.00  0.00    -0.619 NA
BRANCH  15  16
ATOM     16  C   UNL     1       1.164   1.575   1.449  1.00  0.00    -0.100 A 
ATOM     17  C   UNL     1       1.083   2.565   0.468  1.00  0.00     0.080 A 
ATOM     18  C   UNL     1       1.842   2.044   2.645  1.00  0.00     0.000 A 
ATOM     19  S   UNL     1       1.910   3.991   0.951  1.00  0.00    -0.112 S 
ATOM     20  C   UNL     1       2.134   1.431   3.896  1.00  0.00    -0.040 A 
ATOM     21  C   UNL     1       2.287   3.352   2.476  1.00  0.00     0.123 A 
ATOM     22  C   UNL     1       2.832   2.197   4.843  1.00  0.00     0.027 A 
ATOM     23  N   UNL     1       2.953   4.114   3.375  1.00  0.00    -0.242 NA
ATOM     24  C   UNL     1       3.210   3.501   4.544  1.00  0.00     0.039 A 
ATOM     25  C   UNL     1       1.746   0.019   4.236  1.00  0.00     0.045 C 
ATOM     26  C   UNL     1       3.959   4.301   5.569  1.00  0.00     0.067 C 
BRANCH  17  27
ATOM     27  C   UNL     1       0.451   2.600  -0.852  1.00  0.00     0.262 C 
ATOM     28  O   UNL     1       1.030   3.015  -1.863  1.00  0.00    -0.268 OA
ATOM     29  N   UNL     1      -0.895   2.232  -0.944  1.00  0.00    -0.333 N 
ATOM     30  C   UNL     1      -1.819   2.131   0.184  1.00  0.00     0.148 C 
ATOM     31  C   UNL     1      -1.469   1.994  -2.260  1.00  0.00     0.148 C 
ATOM     32  C   UNL     1      -3.230   2.546  -0.250  1.00  0.00     0.181 C 
ATOM     33  C   UNL     1      -2.746   1.159  -2.155  1.00  0.00     0.181 C 
ATOM     34  O   UNL     1      -3.762   1.779  -1.346  1.00  0.00    -0.378 OA
ENDBRANCH  17  27
ENDBRANCH  15  16
ENDBRANCH   1  15
TORSDOF 5
