MODEL 1
REMARK VINA RESULT:    -7.312      0.000      0.000
REMARK INTER + INTRA:          -9.940
REMARK INTER:                  -9.236
REMARK INTRA:                  -0.703
REMARK UNBOUND:                -0.703
REMARK SMILES [H]/N=c1\c(C(=O)N2CCN(CC)CC2)cc2c(=O)n3ccccc3nc2n1CCO
REMARK SMILES IDX 1 1 2 2 3 3 4 4 15 5 16 6 17 7 18 8 19 9 20 10 21 11 22 12
REMARK SMILES IDX 23 13 24 14 25 15 26 16 27 17 5 18 6 19 7 20 8 21 14 22 9 23
REMARK SMILES IDX 13 24 10 25 11 26 12 27 28 28 29 29 30 30
REMARK H PARENT 30 31
ROOT
ATOM      1  H   UNL     1       9.931 -21.697 -50.009  1.00  0.00     0.189 HD
ATOM      2  N   UNL     1      10.847 -21.274 -49.785  1.00  0.00    -0.284 NA
ATOM      3  C   UNL     1      11.546 -22.077 -49.027  1.00  0.00     0.139 C 
ATOM      4  C   UNL     1      10.983 -23.392 -48.570  1.00  0.00     0.083 C 
ATOM      5  C   UNL     1      11.766 -24.134 -47.771  1.00  0.00     0.035 C 
ATOM      6  C   UNL     1      13.070 -23.676 -47.314  1.00  0.00     0.084 C 
ATOM      7  C   UNL     1      13.849 -24.520 -46.364  1.00  0.00     0.267 C 
ATOM      8  O   UNL     1      13.378 -25.586 -45.960  1.00  0.00    -0.268 OA
ATOM      9  N   UNL     1      15.083 -24.024 -45.984  1.00  0.00    -0.267 N 
ATOM     10  C   UNL     1      15.877 -24.760 -45.109  1.00  0.00     0.096 C 
ATOM     11  C   UNL     1      17.074 -24.317 -44.702  1.00  0.00     0.019 C 
ATOM     12  C   UNL     1      17.564 -23.049 -45.169  1.00  0.00     0.005 C 
ATOM     13  C   UNL     1      16.832 -22.307 -46.009  1.00  0.00     0.048 C 
ATOM     14  C   UNL     1      15.500 -22.798 -46.466  1.00  0.00     0.142 C 
ATOM     15  N   UNL     1      14.815 -22.059 -47.278  1.00  0.00    -0.212 NA
ATOM     16  C   UNL     1      13.588 -22.494 -47.723  1.00  0.00     0.149 C 
ATOM     17  N   UNL     1      12.832 -21.700 -48.622  1.00  0.00    -0.308 N 
ENDROOT
BRANCH   4  18
ATOM     18  C   UNL     1       9.660 -23.941 -48.957  1.00  0.00     0.257 C 
ATOM     19  O   UNL     1       8.643 -23.551 -48.385  1.00  0.00    -0.269 OA
ATOM     20  N   UNL     1       9.648 -24.919 -49.948  1.00  0.00    -0.336 N 
ATOM     21  C   UNL     1       8.356 -25.522 -50.275  1.00  0.00     0.135 C 
ATOM     22  C   UNL     1      10.535 -24.847 -51.119  1.00  0.00     0.135 C 
ATOM     23  C   UNL     1       7.668 -24.752 -51.419  1.00  0.00     0.106 C 
ATOM     24  C   UNL     1       9.845 -24.093 -52.281  1.00  0.00     0.106 C 
ATOM     25  N   UNL     1       8.527 -24.674 -52.629  1.00  0.00    -0.300 NA
BRANCH  25  26
ATOM     26  C   UNL     1       7.839 -23.905 -53.679  1.00  0.00     0.081 C 
ATOM     27  C   UNL     1       6.379 -24.305 -53.851  1.00  0.00     0.021 C 
ENDBRANCH  25  26
ENDBRANCH   4  18
BRANCH  17  28
ATOM     28  C   UNL     1      13.392 -20.422 -49.112  1.00  0.00     0.154 C 
BRANCH  28  29
ATOM     29  C   UNL     1      13.769 -20.525 -50.596  1.00  0.00     0.178 C 
BRANCH  29  30
ATOM     30  O   UNL     1      12.962 -19.694 -51.432  1.00  0.00    -0.395 OA
ATOM     31  H   UNL     1      12.366 -20.292 -51.942  1.00  0.00     0.210 HD
ENDBRANCH  29  30
ENDBRANCH  28  29
ENDBRANCH  17  28
TORSDOF 5
ENDMDL
MODEL 2
REMARK VINA RESULT:    -7.242      2.907      4.570
REMARK INTER + INTRA:          -9.851
REMARK INTER:                  -9.119
REMARK INTRA:                  -0.732
REMARK UNBOUND:                -0.703
REMARK SMILES [H]/N=c1\c(C(=O)N2CCN(CC)CC2)cc2c(=O)n3ccccc3nc2n1CCO
REMARK SMILES IDX 1 1 2 2 3 3 4 4 15 5 16 6 17 7 18 8 19 9 20 10 21 11 22 12
REMARK SMILES IDX 23 13 24 14 25 15 26 16 27 17 5 18 6 19 7 20 8 21 14 22 9 23
REMARK SMILES IDX 13 24 10 25 11 26 12 27 28 28 29 29 30 30
REMARK H PARENT 30 31
ROOT
ATOM      1  H   UNL     1      14.261 -21.910 -48.440  1.00  0.00     0.189 HD
ATOM      2  N   UNL     1      15.013 -22.036 -47.744  1.00  0.00    -0.284 NA
ATOM      3  C   UNL     1      14.530 -22.524 -46.632  1.00  0.00     0.139 C 
ATOM      4  C   UNL     1      13.059 -22.790 -46.481  1.00  0.00     0.083 C 
ATOM      5  C   UNL     1      12.655 -23.265 -45.293  1.00  0.00     0.035 C 
ATOM      6  C   UNL     1      13.571 -23.460 -44.179  1.00  0.00     0.084 C 
ATOM      7  C   UNL     1      13.037 -23.915 -42.864  1.00  0.00     0.267 C 
ATOM      8  O   UNL     1      11.826 -24.104 -42.725  1.00  0.00    -0.268 OA
ATOM      9  N   UNL     1      13.969 -24.089 -41.857  1.00  0.00    -0.267 N 
ATOM     10  C   UNL     1      13.551 -24.525 -40.604  1.00  0.00     0.096 C 
ATOM     11  C   UNL     1      14.413 -24.697 -39.594  1.00  0.00     0.019 C 
ATOM     12  C   UNL     1      15.811 -24.425 -39.792  1.00  0.00     0.005 C 
ATOM     13  C   UNL     1      16.256 -24.001 -40.980  1.00  0.00     0.048 C 
ATOM     14  C   UNL     1      15.299 -23.811 -42.108  1.00  0.00     0.142 C 
ATOM     15  N   UNL     1      15.760 -23.400 -43.246  1.00  0.00    -0.212 NA
ATOM     16  C   UNL     1      14.899 -23.227 -44.305  1.00  0.00     0.149 C 
ATOM     17  N   UNL     1      15.391 -22.789 -45.560  1.00  0.00    -0.308 N 
ENDROOT
BRANCH   4  18
ATOM     18  C   UNL     1      12.040 -22.603 -47.543  1.00  0.00     0.257 C 
ATOM     19  O   UNL     1      11.983 -21.539 -48.158  1.00  0.00    -0.269 OA
ATOM     20  N   UNL     1      11.159 -23.658 -47.764  1.00  0.00    -0.336 N 
ATOM     21  C   UNL     1      10.100 -23.449 -48.752  1.00  0.00     0.135 C 
ATOM     22  C   UNL     1      11.602 -25.061 -47.721  1.00  0.00     0.135 C 
ATOM     23  C   UNL     1      10.560 -23.907 -50.150  1.00  0.00     0.106 C 
ATOM     24  C   UNL     1      12.046 -25.537 -49.125  1.00  0.00     0.106 C 
ATOM     25  N   UNL     1      10.998 -25.327 -50.151  1.00  0.00    -0.300 NA
BRANCH  25  26
ATOM     26  C   UNL     1      11.454 -25.705 -51.498  1.00  0.00     0.081 C 
ATOM     27  C   UNL     1      11.071 -24.687 -52.565  1.00  0.00     0.021 C 
ENDBRANCH  25  26
ENDBRANCH   4  18
BRANCH  17  28
ATOM     28  C   UNL     1      16.842 -22.562 -45.735  1.00  0.00     0.154 C 
BRANCH  28  29
ATOM     29  C   UNL     1      17.544 -23.847 -46.190  1.00  0.00     0.178 C 
BRANCH  29  30
ATOM     30  O   UNL     1      18.028 -24.631 -45.098  1.00  0.00    -0.395 OA
ATOM     31  H   UNL     1      19.012 -24.576 -45.118  1.00  0.00     0.210 HD
ENDBRANCH  29  30
ENDBRANCH  28  29
ENDBRANCH  17  28
TORSDOF 5
ENDMDL
MODEL 3
REMARK VINA RESULT:    -6.891      3.006      8.213
REMARK INTER + INTRA:          -9.408
REMARK INTER:                  -9.379
REMARK INTRA:                  -0.029
REMARK UNBOUND:                -0.703
REMARK SMILES [H]/N=c1\c(C(=O)N2CCN(CC)CC2)cc2c(=O)n3ccccc3nc2n1CCO
REMARK SMILES IDX 1 1 2 2 3 3 4 4 15 5 16 6 17 7 18 8 19 9 20 10 21 11 22 12
REMARK SMILES IDX 23 13 24 14 25 15 26 16 27 17 5 18 6 19 7 20 8 21 14 22 9 23
REMARK SMILES IDX 13 24 10 25 11 26 12 27 28 28 29 29 30 30
REMARK H PARENT 30 31
ROOT
ATOM      1  H   UNL     1      15.767 -22.109 -45.286  1.00  0.00     0.189 HD
ATOM      2  N   UNL     1      15.067 -21.770 -45.966  1.00  0.00    -0.284 NA
ATOM      3  C   UNL     1      14.073 -22.613 -46.055  1.00  0.00     0.139 C 
ATOM      4  C   UNL     1      14.069 -23.888 -45.261  1.00  0.00     0.083 C 
ATOM      5  C   UNL     1      13.017 -24.703 -45.441  1.00  0.00     0.035 C 
ATOM      6  C   UNL     1      11.958 -24.409 -46.396  1.00  0.00     0.084 C 
ATOM      7  C   UNL     1      10.862 -25.400 -46.598  1.00  0.00     0.267 C 
ATOM      8  O   UNL     1      10.871 -26.462 -45.973  1.00  0.00    -0.268 OA
ATOM      9  N   UNL     1       9.886 -25.045 -47.513  1.00  0.00    -0.267 N 
ATOM     10  C   UNL     1       8.822 -25.911 -47.749  1.00  0.00     0.096 C 
ATOM     11  C   UNL     1       7.860 -25.619 -48.632  1.00  0.00     0.019 C 
ATOM     12  C   UNL     1       7.914 -24.384 -49.368  1.00  0.00     0.005 C 
ATOM     13  C   UNL     1       8.921 -23.524 -49.174  1.00  0.00     0.048 C 
ATOM     14  C   UNL     1       9.993 -23.845 -48.189  1.00  0.00     0.142 C 
ATOM     15  N   UNL     1      10.954 -22.994 -48.023  1.00  0.00    -0.212 NA
ATOM     16  C   UNL     1      11.950 -23.262 -47.113  1.00  0.00     0.149 C 
ATOM     17  N   UNL     1      13.002 -22.333 -46.912  1.00  0.00    -0.308 N 
ENDROOT
BRANCH   4  18
ATOM     18  C   UNL     1      15.107 -24.293 -44.281  1.00  0.00     0.257 C 
ATOM     19  O   UNL     1      16.225 -23.781 -44.326  1.00  0.00    -0.269 OA
ATOM     20  N   UNL     1      14.760 -25.283 -43.366  1.00  0.00    -0.336 N 
ATOM     21  C   UNL     1      15.804 -25.744 -42.452  1.00  0.00     0.135 C 
ATOM     22  C   UNL     1      13.425 -25.332 -42.748  1.00  0.00     0.135 C 
ATOM     23  C   UNL     1      15.790 -24.924 -41.147  1.00  0.00     0.106 C 
ATOM     24  C   UNL     1      13.407 -24.528 -41.425  1.00  0.00     0.106 C 
ATOM     25  N   UNL     1      14.462 -24.965 -40.482  1.00  0.00    -0.300 NA
BRANCH  25  26
ATOM     26  C   UNL     1      14.492 -24.144 -39.261  1.00  0.00     0.081 C 
ATOM     27  C   UNL     1      13.138 -24.061 -38.566  1.00  0.00     0.021 C 
ENDBRANCH  25  26
ENDBRANCH   4  18
BRANCH  17  28
ATOM     28  C   UNL     1      12.998 -21.054 -47.657  1.00  0.00     0.154 C 
BRANCH  28  29
ATOM     29  C   UNL     1      13.542 -21.249 -49.078  1.00  0.00     0.178 C 
BRANCH  29  30
ATOM     30  O   UNL     1      14.942 -21.530 -49.102  1.00  0.00    -0.395 OA
ATOM     31  H   UNL     1      15.335 -21.102 -48.306  1.00  0.00     0.210 HD
ENDBRANCH  29  30
ENDBRANCH  28  29
ENDBRANCH  17  28
TORSDOF 5
ENDMDL
MODEL 4
REMARK VINA RESULT:    -6.714      1.879      7.388
REMARK INTER + INTRA:          -9.184
REMARK INTER:                  -9.072
REMARK INTRA:                  -0.111
REMARK UNBOUND:                -0.703
REMARK SMILES [H]/N=c1\c(C(=O)N2CCN(CC)CC2)cc2c(=O)n3ccccc3nc2n1CCO
REMARK SMILES IDX 1 1 2 2 3 3 4 4 15 5 16 6 17 7 18 8 19 9 20 10 21 11 22 12
REMARK SMILES IDX 23 13 24 14 25 15 26 16 27 17 5 18 6 19 7 20 8 21 14 22 9 23
REMARK SMILES IDX 13 24 10 25 11 26 12 27 28 28 29 29 30 30
REMARK H PARENT 30 31
ROOT
ATOM      1  H   UNL     1      15.825 -21.735 -48.183  1.00  0.00     0.189 HD
ATOM      2  N   UNL     1      15.165 -21.553 -48.956  1.00  0.00    -0.284 NA
ATOM      3  C   UNL     1      13.994 -22.064 -48.686  1.00  0.00     0.139 C 
ATOM      4  C   UNL     1      13.759 -22.827 -47.414  1.00  0.00     0.083 C 
ATOM      5  C   UNL     1      12.530 -23.337 -47.238  1.00  0.00     0.035 C 
ATOM      6  C   UNL     1      11.486 -23.218 -48.246  1.00  0.00     0.084 C 
ATOM      7  C   UNL     1      10.170 -23.879 -48.015  1.00  0.00     0.267 C 
ATOM      8  O   UNL     1       9.983 -24.533 -46.987  1.00  0.00    -0.268 OA
ATOM      9  N   UNL     1       9.224 -23.711 -49.011  1.00  0.00    -0.267 N 
ATOM     10  C   UNL     1       7.966 -24.287 -48.864  1.00  0.00     0.096 C 
ATOM     11  C   UNL     1       7.021 -24.164 -49.805  1.00  0.00     0.019 C 
ATOM     12  C   UNL     1       7.300 -23.424 -51.006  1.00  0.00     0.005 C 
ATOM     13  C   UNL     1       8.498 -22.856 -51.190  1.00  0.00     0.048 C 
ATOM     14  C   UNL     1       9.551 -22.989 -50.143  1.00  0.00     0.142 C 
ATOM     15  N   UNL     1      10.700 -22.430 -50.349  1.00  0.00    -0.212 NA
ATOM     16  C   UNL     1      11.686 -22.529 -49.394  1.00  0.00     0.149 C 
ATOM     17  N   UNL     1      12.944 -21.911 -49.600  1.00  0.00    -0.308 N 
ENDROOT
BRANCH   4  18
ATOM     18  C   UNL     1      14.759 -23.026 -46.335  1.00  0.00     0.257 C 
ATOM     19  O   UNL     1      15.261 -22.051 -45.778  1.00  0.00    -0.269 OA
ATOM     20  N   UNL     1      15.109 -24.339 -46.034  1.00  0.00    -0.336 N 
ATOM     21  C   UNL     1      16.154 -24.539 -45.030  1.00  0.00     0.135 C 
ATOM     22  C   UNL     1      14.112 -25.421 -46.014  1.00  0.00     0.135 C 
ATOM     23  C   UNL     1      15.540 -24.674 -43.623  1.00  0.00     0.106 C 
ATOM     24  C   UNL     1      13.505 -25.579 -44.599  1.00  0.00     0.106 C 
ATOM     25  N   UNL     1      14.541 -25.771 -43.557  1.00  0.00    -0.300 NA
BRANCH  25  26
ATOM     26  C   UNL     1      13.964 -25.839 -42.205  1.00  0.00     0.081 C 
ATOM     27  C   UNL     1      13.057 -24.657 -41.884  1.00  0.00     0.021 C 
ENDBRANCH  25  26
ENDBRANCH   4  18
BRANCH  17  28
ATOM     28  C   UNL     1      13.176 -21.122 -50.830  1.00  0.00     0.154 C 
BRANCH  28  29
ATOM     29  C   UNL     1      13.125 -19.618 -50.531  1.00  0.00     0.178 C 
BRANCH  29  30
ATOM     30  O   UNL     1      14.354 -18.953 -50.826  1.00  0.00    -0.395 OA
ATOM     31  H   UNL     1      14.395 -18.844 -51.804  1.00  0.00     0.210 HD
ENDBRANCH  29  30
ENDBRANCH  28  29
ENDBRANCH  17  28
TORSDOF 5
ENDMDL
MODEL 5
REMARK VINA RESULT:    -6.696      2.076      7.378
REMARK INTER + INTRA:          -9.161
REMARK INTER:                  -8.455
REMARK INTRA:                  -0.706
REMARK UNBOUND:                -0.703
REMARK SMILES [H]/N=c1\c(C(=O)N2CCN(CC)CC2)cc2c(=O)n3ccccc3nc2n1CCO
REMARK SMILES IDX 1 1 2 2 3 3 4 4 15 5 16 6 17 7 18 8 19 9 20 10 21 11 22 12
REMARK SMILES IDX 23 13 24 14 25 15 26 16 27 17 5 18 6 19 7 20 8 21 14 22 9 23
REMARK SMILES IDX 13 24 10 25 11 26 12 27 28 28 29 29 30 30
REMARK H PARENT 30 31
ROOT
ATOM      1  H   UNL     1      13.270 -20.734 -46.203  1.00  0.00     0.189 HD
ATOM      2  N   UNL     1      13.030 -20.603 -47.198  1.00  0.00    -0.284 NA
ATOM      3  C   UNL     1      12.584 -21.719 -47.711  1.00  0.00     0.139 C 
ATOM      4  C   UNL     1      12.512 -22.972 -46.886  1.00  0.00     0.083 C 
ATOM      5  C   UNL     1      12.067 -24.075 -47.509  1.00  0.00     0.035 C 
ATOM      6  C   UNL     1      11.726 -24.087 -48.924  1.00  0.00     0.084 C 
ATOM      7  C   UNL     1      11.315 -25.368 -49.566  1.00  0.00     0.267 C 
ATOM      8  O   UNL     1      11.284 -26.406 -48.901  1.00  0.00    -0.268 OA
ATOM      9  N   UNL     1      10.996 -25.298 -50.910  1.00  0.00    -0.267 N 
ATOM     10  C   UNL     1      10.589 -26.449 -51.578  1.00  0.00     0.096 C 
ATOM     11  C   UNL     1      10.281 -26.435 -52.881  1.00  0.00     0.019 C 
ATOM     12  C   UNL     1      10.371 -25.208 -53.625  1.00  0.00     0.005 C 
ATOM     13  C   UNL     1      10.760 -24.078 -53.023  1.00  0.00     0.048 C 
ATOM     14  C   UNL     1      11.101 -24.089 -51.571  1.00  0.00     0.142 C 
ATOM     15  N   UNL     1      11.474 -22.981 -51.016  1.00  0.00    -0.212 NA
ATOM     16  C   UNL     1      11.785 -22.963 -49.675  1.00  0.00     0.149 C 
ATOM     17  N   UNL     1      12.183 -21.753 -49.052  1.00  0.00    -0.308 N 
ENDROOT
BRANCH   4  18
ATOM     18  C   UNL     1      12.856 -23.073 -45.446  1.00  0.00     0.257 C 
ATOM     19  O   UNL     1      11.966 -23.243 -44.614  1.00  0.00    -0.269 OA
ATOM     20  N   UNL     1      14.198 -22.930 -45.107  1.00  0.00    -0.336 N 
ATOM     21  C   UNL     1      14.533 -22.946 -43.683  1.00  0.00     0.135 C 
ATOM     22  C   UNL     1      15.272 -23.506 -45.931  1.00  0.00     0.135 C 
ATOM     23  C   UNL     1      14.856 -24.379 -43.214  1.00  0.00     0.106 C 
ATOM     24  C   UNL     1      15.618 -24.937 -45.455  1.00  0.00     0.106 C 
ATOM     25  N   UNL     1      15.951 -24.989 -44.012  1.00  0.00    -0.300 NA
BRANCH  25  26
ATOM     26  C   UNL     1      16.200 -26.362 -43.547  1.00  0.00     0.081 C 
ATOM     27  C   UNL     1      16.379 -26.457 -42.036  1.00  0.00     0.021 C 
ENDBRANCH  25  26
ENDBRANCH   4  18
BRANCH  17  28
ATOM     28  C   UNL     1      12.220 -20.503 -49.842  1.00  0.00     0.154 C 
BRANCH  28  29
ATOM     29  C   UNL     1      13.494 -20.435 -50.695  1.00  0.00     0.178 C 
BRANCH  29  30
ATOM     30  O   UNL     1      13.257 -20.738 -52.070  1.00  0.00    -0.395 OA
ATOM     31  H   UNL     1      12.497 -20.183 -52.361  1.00  0.00     0.210 HD
ENDBRANCH  29  30
ENDBRANCH  28  29
ENDBRANCH  17  28
TORSDOF 5
ENDMDL
MODEL 6
REMARK VINA RESULT:    -6.161      1.729      7.807
REMARK INTER + INTRA:          -8.486
REMARK INTER:                  -7.690
REMARK INTRA:                  -0.796
REMARK UNBOUND:                -0.703
REMARK SMILES [H]/N=c1\c(C(=O)N2CCN(CC)CC2)cc2c(=O)n3ccccc3nc2n1CCO
REMARK SMILES IDX 1 1 2 2 3 3 4 4 15 5 16 6 17 7 18 8 19 9 20 10 21 11 22 12
REMARK SMILES IDX 23 13 24 14 25 15 26 16 27 17 5 18 6 19 7 20 8 21 14 22 9 23
REMARK SMILES IDX 13 24 10 25 11 26 12 27 28 28 29 29 30 30
REMARK H PARENT 30 31
ROOT
ATOM      1  H   UNL     1      15.117 -22.958 -46.740  1.00  0.00     0.189 HD
ATOM      2  N   UNL     1      14.505 -22.396 -47.354  1.00  0.00    -0.284 NA
ATOM      3  C   UNL     1      13.444 -23.079 -47.689  1.00  0.00     0.139 C 
ATOM      4  C   UNL     1      13.258 -24.495 -47.223  1.00  0.00     0.083 C 
ATOM      5  C   UNL     1      12.149 -25.124 -47.643  1.00  0.00     0.035 C 
ATOM      6  C   UNL     1      11.197 -24.501 -48.551  1.00  0.00     0.084 C 
ATOM      7  C   UNL     1      10.028 -25.290 -49.037  1.00  0.00     0.267 C 
ATOM      8  O   UNL     1       9.889 -26.462 -48.683  1.00  0.00    -0.268 OA
ATOM      9  N   UNL     1       9.161 -24.627 -49.888  1.00  0.00    -0.267 N 
ATOM     10  C   UNL     1       8.039 -25.291 -50.375  1.00  0.00     0.096 C 
ATOM     11  C   UNL     1       7.177 -24.697 -51.210  1.00  0.00     0.019 C 
ATOM     12  C   UNL     1       7.404 -23.340 -51.626  1.00  0.00     0.005 C 
ATOM     13  C   UNL     1       8.472 -22.665 -51.185  1.00  0.00     0.048 C 
ATOM     14  C   UNL     1       9.433 -23.323 -50.253  1.00  0.00     0.142 C 
ATOM     15  N   UNL     1      10.457 -22.645 -49.842  1.00  0.00    -0.212 NA
ATOM     16  C   UNL     1      11.352 -23.225 -48.974  1.00  0.00     0.149 C 
ATOM     17  N   UNL     1      12.471 -22.491 -48.507  1.00  0.00    -0.308 N 
ENDROOT
BRANCH   4  18
ATOM     18  C   UNL     1      14.178 -25.228 -46.318  1.00  0.00     0.257 C 
ATOM     19  O   UNL     1      15.159 -25.808 -46.781  1.00  0.00    -0.269 OA
ATOM     20  N   UNL     1      13.848 -25.250 -44.966  1.00  0.00    -0.336 N 
ATOM     21  C   UNL     1      14.705 -26.040 -44.082  1.00  0.00     0.135 C 
ATOM     22  C   UNL     1      13.293 -24.070 -44.285  1.00  0.00     0.135 C 
ATOM     23  C   UNL     1      15.841 -25.173 -43.505  1.00  0.00     0.106 C 
ATOM     24  C   UNL     1      14.426 -23.203 -43.683  1.00  0.00     0.106 C 
ATOM     25  N   UNL     1      15.319 -23.979 -42.791  1.00  0.00    -0.300 NA
BRANCH  25  26
ATOM     26  C   UNL     1      16.440 -23.170 -42.287  1.00  0.00     0.081 C 
ATOM     27  C   UNL     1      17.684 -23.266 -43.162  1.00  0.00     0.021 C 
ENDBRANCH  25  26
ENDBRANCH   4  18
BRANCH  17  28
ATOM     28  C   UNL     1      12.645 -21.082 -48.925  1.00  0.00     0.154 C 
BRANCH  28  29
ATOM     29  C   UNL     1      13.418 -20.997 -50.247  1.00  0.00     0.178 C 
BRANCH  29  30
ATOM     30  O   UNL     1      12.572 -21.106 -51.393  1.00  0.00    -0.395 OA
ATOM     31  H   UNL     1      12.868 -20.421 -52.036  1.00  0.00     0.210 HD
ENDBRANCH  29  30
ENDBRANCH  28  29
ENDBRANCH  17  28
TORSDOF 5
ENDMDL
MODEL 7
REMARK VINA RESULT:    -6.154      2.157      2.704
REMARK INTER + INTRA:          -8.477
REMARK INTER:                  -7.862
REMARK INTRA:                  -0.615
REMARK UNBOUND:                -0.703
REMARK SMILES [H]/N=c1\c(C(=O)N2CCN(CC)CC2)cc2c(=O)n3ccccc3nc2n1CCO
REMARK SMILES IDX 1 1 2 2 3 3 4 4 15 5 16 6 17 7 18 8 19 9 20 10 21 11 22 12
REMARK SMILES IDX 23 13 24 14 25 15 26 16 27 17 5 18 6 19 7 20 8 21 14 22 9 23
REMARK SMILES IDX 13 24 10 25 11 26 12 27 28 28 29 29 30 30
REMARK H PARENT 30 31
ROOT
ATOM      1  H   UNL     1      11.540 -22.288 -51.812  1.00  0.00     0.189 HD
ATOM      2  N   UNL     1      12.150 -21.914 -51.068  1.00  0.00    -0.284 NA
ATOM      3  C   UNL     1      12.119 -22.690 -50.018  1.00  0.00     0.139 C 
ATOM      4  C   UNL     1      11.250 -23.914 -49.989  1.00  0.00     0.083 C 
ATOM      5  C   UNL     1      11.264 -24.634 -48.855  1.00  0.00     0.035 C 
ATOM      6  C   UNL     1      12.031 -24.229 -47.685  1.00  0.00     0.084 C 
ATOM      7  C   UNL     1      11.936 -25.035 -46.435  1.00  0.00     0.267 C 
ATOM      8  O   UNL     1      11.199 -26.023 -46.396  1.00  0.00    -0.268 OA
ATOM      9  N   UNL     1      12.702 -24.595 -45.370  1.00  0.00    -0.267 N 
ATOM     10  C   UNL     1      12.679 -25.302 -44.172  1.00  0.00     0.096 C 
ATOM     11  C   UNL     1      13.392 -24.910 -43.109  1.00  0.00     0.019 C 
ATOM     12  C   UNL     1      14.207 -23.728 -43.191  1.00  0.00     0.005 C 
ATOM     13  C   UNL     1      14.257 -23.017 -44.323  1.00  0.00     0.048 C 
ATOM     14  C   UNL     1      13.465 -23.452 -45.509  1.00  0.00     0.142 C 
ATOM     15  N   UNL     1      13.534 -22.744 -46.591  1.00  0.00    -0.212 NA
ATOM     16  C   UNL     1      12.821 -23.130 -47.703  1.00  0.00     0.149 C 
ATOM     17  N   UNL     1      12.896 -22.370 -48.897  1.00  0.00    -0.308 N 
ENDROOT
BRANCH   4  18
ATOM     18  C   UNL     1      10.414 -24.401 -51.114  1.00  0.00     0.257 C 
ATOM     19  O   UNL     1      10.656 -25.492 -51.629  1.00  0.00    -0.269 OA
ATOM     20  N   UNL     1       9.401 -23.557 -51.559  1.00  0.00    -0.336 N 
ATOM     21  C   UNL     1       8.628 -23.995 -52.721  1.00  0.00     0.135 C 
ATOM     22  C   UNL     1       8.588 -22.762 -50.625  1.00  0.00     0.135 C 
ATOM     23  C   UNL     1       7.386 -24.795 -52.281  1.00  0.00     0.106 C 
ATOM     24  C   UNL     1       7.327 -23.549 -50.193  1.00  0.00     0.106 C 
ATOM     25  N   UNL     1       6.528 -24.018 -51.350  1.00  0.00    -0.300 NA
BRANCH  25  26
ATOM     26  C   UNL     1       5.376 -24.834 -50.936  1.00  0.00     0.081 C 
ATOM     27  C   UNL     1       4.960 -24.589 -49.490  1.00  0.00     0.021 C 
ENDBRANCH  25  26
ENDBRANCH   4  18
BRANCH  17  28
ATOM     28  C   UNL     1      13.780 -21.186 -48.954  1.00  0.00     0.154 C 
BRANCH  28  29
ATOM     29  C   UNL     1      13.014 -19.915 -48.564  1.00  0.00     0.178 C 
BRANCH  29  30
ATOM     30  O   UNL     1      12.711 -19.855 -47.169  1.00  0.00    -0.395 OA
ATOM     31  H   UNL     1      11.877 -19.339 -47.078  1.00  0.00     0.210 HD
ENDBRANCH  29  30
ENDBRANCH  28  29
ENDBRANCH  17  28
TORSDOF 5
ENDMDL
MODEL 8
REMARK VINA RESULT:    -6.137      2.586      5.702
REMARK INTER + INTRA:          -8.455
REMARK INTER:                  -7.793
REMARK INTRA:                  -0.663
REMARK UNBOUND:                -0.703
REMARK SMILES [H]/N=c1\c(C(=O)N2CCN(CC)CC2)cc2c(=O)n3ccccc3nc2n1CCO
REMARK SMILES IDX 1 1 2 2 3 3 4 4 15 5 16 6 17 7 18 8 19 9 20 10 21 11 22 12
REMARK SMILES IDX 23 13 24 14 25 15 26 16 27 17 5 18 6 19 7 20 8 21 14 22 9 23
REMARK SMILES IDX 13 24 10 25 11 26 12 27 28 28 29 29 30 30
REMARK H PARENT 30 31
ROOT
ATOM      1  H   UNL     1      11.162 -20.315 -50.717  1.00  0.00     0.189 HD
ATOM      2  N   UNL     1      10.950 -21.183 -50.198  1.00  0.00    -0.284 NA
ATOM      3  C   UNL     1      11.967 -21.529 -49.454  1.00  0.00     0.139 C 
ATOM      4  C   UNL     1      13.235 -20.724 -49.458  1.00  0.00     0.083 C 
ATOM      5  C   UNL     1      14.233 -21.175 -48.681  1.00  0.00     0.035 C 
ATOM      6  C   UNL     1      14.129 -22.409 -47.916  1.00  0.00     0.084 C 
ATOM      7  C   UNL     1      15.307 -22.888 -47.138  1.00  0.00     0.267 C 
ATOM      8  O   UNL     1      16.361 -22.249 -47.163  1.00  0.00    -0.268 OA
ATOM      9  N   UNL     1      15.128 -24.062 -46.428  1.00  0.00    -0.267 N 
ATOM     10  C   UNL     1      16.177 -24.568 -45.666  1.00  0.00     0.096 C 
ATOM     11  C   UNL     1      16.058 -25.706 -44.971  1.00  0.00     0.019 C 
ATOM     12  C   UNL     1      14.821 -26.438 -45.005  1.00  0.00     0.005 C 
ATOM     13  C   UNL     1      13.787 -25.990 -45.727  1.00  0.00     0.048 C 
ATOM     14  C   UNL     1      13.916 -24.721 -46.500  1.00  0.00     0.142 C 
ATOM     15  N   UNL     1      12.899 -24.312 -47.189  1.00  0.00    -0.212 NA
ATOM     16  C   UNL     1      12.989 -23.139 -47.903  1.00  0.00     0.149 C 
ATOM     17  N   UNL     1      11.880 -22.673 -48.652  1.00  0.00    -0.308 N 
ENDROOT
BRANCH   4  18
ATOM     18  C   UNL     1      13.453 -19.468 -50.217  1.00  0.00     0.257 C 
ATOM     19  O   UNL     1      13.661 -18.416 -49.614  1.00  0.00    -0.269 OA
ATOM     20  N   UNL     1      13.370 -19.547 -51.604  1.00  0.00    -0.336 N 
ATOM     21  C   UNL     1      13.501 -18.297 -52.353  1.00  0.00     0.135 C 
ATOM     22  C   UNL     1      13.910 -20.695 -52.349  1.00  0.00     0.135 C 
ATOM     23  C   UNL     1      14.973 -18.041 -52.735  1.00  0.00     0.106 C 
ATOM     24  C   UNL     1      15.381 -20.439 -52.755  1.00  0.00     0.106 C 
ATOM     25  N   UNL     1      15.550 -19.173 -53.506  1.00  0.00    -0.300 NA
BRANCH  25  26
ATOM     26  C   UNL     1      16.960 -18.894 -53.819  1.00  0.00     0.081 C 
ATOM     27  C   UNL     1      17.428 -17.538 -53.305  1.00  0.00     0.021 C 
ENDBRANCH  25  26
ENDBRANCH   4  18
BRANCH  17  28
ATOM     28  C   UNL     1      10.611 -23.434 -48.625  1.00  0.00     0.154 C 
BRANCH  28  29
ATOM     29  C   UNL     1      10.624 -24.553 -49.674  1.00  0.00     0.178 C 
BRANCH  29  30
ATOM     30  O   UNL     1      10.211 -24.106 -50.967  1.00  0.00    -0.395 OA
ATOM     31  H   UNL     1      10.112 -24.908 -51.531  1.00  0.00     0.210 HD
ENDBRANCH  29  30
ENDBRANCH  28  29
ENDBRANCH  17  28
TORSDOF 5
ENDMDL
MODEL 9
REMARK VINA RESULT:    -6.108      2.555      4.922
REMARK INTER + INTRA:          -8.418
REMARK INTER:                  -7.554
REMARK INTRA:                  -0.865
REMARK UNBOUND:                -0.703
REMARK SMILES [H]/N=c1\c(C(=O)N2CCN(CC)CC2)cc2c(=O)n3ccccc3nc2n1CCO
REMARK SMILES IDX 1 1 2 2 3 3 4 4 15 5 16 6 17 7 18 8 19 9 20 10 21 11 22 12
REMARK SMILES IDX 23 13 24 14 25 15 26 16 27 17 5 18 6 19 7 20 8 21 14 22 9 23
REMARK SMILES IDX 13 24 10 25 11 26 12 27 28 28 29 29 30 30
REMARK H PARENT 30 31
ROOT
ATOM      1  H   UNL     1       7.350 -25.987 -50.801  1.00  0.00     0.189 HD
ATOM      2  N   UNL     1       8.073 -26.195 -50.094  1.00  0.00    -0.284 NA
ATOM      3  C   UNL     1       8.934 -25.215 -50.020  1.00  0.00     0.139 C 
ATOM      4  C   UNL     1       8.816 -24.014 -50.914  1.00  0.00     0.083 C 
ATOM      5  C   UNL     1       9.763 -23.073 -50.782  1.00  0.00     0.035 C 
ATOM      6  C   UNL     1      10.886 -23.220 -49.867  1.00  0.00     0.084 C 
ATOM      7  C   UNL     1      11.943 -22.168 -49.832  1.00  0.00     0.267 C 
ATOM      8  O   UNL     1      11.867 -21.197 -50.587  1.00  0.00    -0.268 OA
ATOM      9  N   UNL     1      12.971 -22.372 -48.930  1.00  0.00    -0.267 N 
ATOM     10  C   UNL     1      13.989 -21.429 -48.828  1.00  0.00     0.096 C 
ATOM     11  C   UNL     1      15.013 -21.587 -47.979  1.00  0.00     0.019 C 
ATOM     12  C   UNL     1      15.078 -22.757 -47.146  1.00  0.00     0.005 C 
ATOM     13  C   UNL     1      14.122 -23.691 -47.214  1.00  0.00     0.048 C 
ATOM     14  C   UNL     1      12.979 -23.518 -48.157  1.00  0.00     0.142 C 
ATOM     15  N   UNL     1      12.070 -24.438 -48.200  1.00  0.00    -0.212 NA
ATOM     16  C   UNL     1      11.000 -24.296 -49.054  1.00  0.00     0.149 C 
ATOM     17  N   UNL     1       9.990 -25.290 -49.103  1.00  0.00    -0.308 N 
ENDROOT
BRANCH   4  18
ATOM     18  C   UNL     1       7.727 -23.778 -51.894  1.00  0.00     0.257 C 
ATOM     19  O   UNL     1       7.829 -24.212 -53.040  1.00  0.00    -0.269 OA
ATOM     20  N   UNL     1       6.639 -23.026 -51.459  1.00  0.00    -0.336 N 
ATOM     21  C   UNL     1       5.602 -22.720 -52.444  1.00  0.00     0.135 C 
ATOM     22  C   UNL     1       6.084 -23.177 -50.105  1.00  0.00     0.135 C 
ATOM     23  C   UNL     1       4.503 -23.801 -52.435  1.00  0.00     0.106 C 
ATOM     24  C   UNL     1       4.965 -24.246 -50.089  1.00  0.00     0.106 C 
ATOM     25  N   UNL     1       3.904 -23.970 -51.085  1.00  0.00    -0.300 NA
BRANCH  25  26
ATOM     26  C   UNL     1       2.885 -25.031 -51.122  1.00  0.00     0.081 C 
ATOM     27  C   UNL     1       2.879 -25.895 -49.866  1.00  0.00     0.021 C 
ENDBRANCH  25  26
ENDBRANCH   4  18
BRANCH  17  28
ATOM     28  C   UNL     1      10.072 -26.457 -48.199  1.00  0.00     0.154 C 
BRANCH  28  29
ATOM     29  C   UNL     1       9.449 -26.136 -46.835  1.00  0.00     0.178 C 
BRANCH  29  30
ATOM     30  O   UNL     1      10.415 -25.717 -45.869  1.00  0.00    -0.395 OA
ATOM     31  H   UNL     1      10.070 -24.892 -45.455  1.00  0.00     0.210 HD
ENDBRANCH  29  30
ENDBRANCH  28  29
ENDBRANCH  17  28
TORSDOF 5
ENDMDL
