MODEL 1
REMARK VINA RESULT:    -7.739      0.000      0.000
REMARK INTER + INTRA:         -11.681
REMARK INTER:                 -10.680
REMARK INTRA:                  -1.002
REMARK UNBOUND:                -1.002
REMARK SMILES Cc1cc(C(=O)CSc2nc(=O)cc(N)[nH]2)c(C)n1Cc1ccccc1Cl
REMARK SMILES IDX 5 1 6 2 4 3 2 4 3 5 19 6 17 7 1 8 18 9 20 10 21 11 22 12
REMARK SMILES IDX 26 13 23 14 25 15 24 16 27 17 7 18 8 19 9 20 10 21 16 22
REMARK SMILES IDX 11 23 14 24 12 25 13 26 15 28
REMARK H PARENT 16 27 15 29 15 30
ROOT
ATOM      1  C   UNL     1      13.310 -23.051 -45.905  1.00  0.00     0.175 C 
ATOM      2  O   UNL     1      12.290 -22.360 -45.844  1.00  0.00    -0.293 OA
ENDROOT
BRANCH   1   3
ATOM      3  C   UNL     1      14.074 -23.414 -44.698  1.00  0.00     0.039 A 
ATOM      4  C   UNL     1      15.636 -23.423 -43.037  1.00  0.00     0.016 A 
ATOM      5  C   UNL     1      15.230 -22.766 -44.179  1.00  0.00     0.035 A 
ATOM      6  N   UNL     1      14.816 -24.525 -42.882  1.00  0.00    -0.344 N 
ATOM      7  C   UNL     1      13.785 -24.452 -43.812  1.00  0.00     0.026 A 
ATOM      8  C   UNL     1      16.760 -23.068 -42.128  1.00  0.00     0.064 C 
ATOM      9  C   UNL     1      12.627 -25.399 -43.810  1.00  0.00     0.065 C 
BRANCH   6  10
ATOM     10  C   UNL     1      14.948 -25.557 -41.844  1.00  0.00     0.159 C 
BRANCH  10  11
ATOM     11  C   UNL     1      14.548 -25.113 -40.454  1.00  0.00    -0.010 A 
ATOM     12  C   UNL     1      13.371 -24.351 -40.303  1.00  0.00     0.007 A 
ATOM     13  C   UNL     1      15.265 -25.457 -39.297  1.00  0.00     0.046 A 
ATOM     14  C   UNL     1      12.949 -23.917 -39.045  1.00  0.00     0.000 A 
ATOM     15  C   UNL     1      14.838 -25.020 -38.038  1.00  0.00     0.021 A 
ATOM     16  C   UNL     1      13.684 -24.248 -37.912  1.00  0.00     0.002 A 
ATOM     17  Cl  UNL     1      16.672 -26.454 -39.344  1.00  0.00    -0.084 Cl
ENDBRANCH  10  11
ENDBRANCH   6  10
ENDBRANCH   1   3
BRANCH   1  18
ATOM     18  C   UNL     1      13.822 -23.515 -47.259  1.00  0.00     0.159 C 
BRANCH  18  19
ATOM     19  S   UNL     1      14.990 -22.293 -47.930  1.00  0.00    -0.080 SA
BRANCH  19  20
ATOM     20  C   UNL     1      13.916 -21.548 -49.091  1.00  0.00     0.171 C 
ATOM     21  N   UNL     1      12.776 -22.100 -49.326  1.00  0.00    -0.185 NA
ATOM     22  N   UNL     1      14.382 -20.418 -49.683  1.00  0.00    -0.321 N 
ATOM     23  C   UNL     1      11.961 -21.489 -50.254  1.00  0.00     0.275 C 
ATOM     24  C   UNL     1      13.652 -19.749 -50.618  1.00  0.00     0.108 C 
ATOM     25  O   UNL     1      10.851 -21.917 -50.557  1.00  0.00    -0.267 OA
ATOM     26  C   UNL     1      12.447 -20.253 -50.930  1.00  0.00     0.118 C 
ATOM     27  H   UNL     1      15.326 -20.113 -49.504  1.00  0.00     0.170 HD
BRANCH  24  28
ATOM     28  N   UNL     1      14.147 -18.608 -51.199  1.00  0.00    -0.385 N 
ATOM     29  H   UNL     1      14.089 -17.789 -50.596  1.00  0.00     0.158 HD
ATOM     30  H   UNL     1      15.095 -18.735 -51.544  1.00  0.00     0.158 HD
ENDBRANCH  24  28
ENDBRANCH  19  20
ENDBRANCH  18  19
ENDBRANCH   1  18
TORSDOF 7
ENDMDL
MODEL 2
REMARK VINA RESULT:    -7.509      1.947      2.415
REMARK INTER + INTRA:         -11.364
REMARK INTER:                 -10.375
REMARK INTRA:                  -0.990
REMARK UNBOUND:                -1.002
REMARK SMILES Cc1cc(C(=O)CSc2nc(=O)cc(N)[nH]2)c(C)n1Cc1ccccc1Cl
REMARK SMILES IDX 5 1 6 2 4 3 2 4 3 5 19 6 17 7 1 8 18 9 20 10 21 11 22 12
REMARK SMILES IDX 26 13 23 14 25 15 24 16 27 17 7 18 8 19 9 20 10 21 16 22
REMARK SMILES IDX 11 23 14 24 12 25 13 26 15 28
REMARK H PARENT 16 27 15 29 15 30
ROOT
ATOM      1  C   UNL     1      13.345 -22.635 -46.255  1.00  0.00     0.175 C 
ATOM      2  O   UNL     1      12.271 -22.049 -46.101  1.00  0.00    -0.293 OA
ENDROOT
BRANCH   1   3
ATOM      3  C   UNL     1      14.135 -23.120 -45.108  1.00  0.00     0.039 A 
ATOM      4  C   UNL     1      15.769 -23.340 -43.534  1.00  0.00     0.016 A 
ATOM      5  C   UNL     1      15.363 -22.593 -44.620  1.00  0.00     0.035 A 
ATOM      6  N   UNL     1      14.871 -24.380 -43.390  1.00  0.00    -0.344 N 
ATOM      7  C   UNL     1      13.806 -24.177 -44.259  1.00  0.00     0.026 A 
ATOM      8  C   UNL     1      16.961 -23.122 -42.669  1.00  0.00     0.064 C 
ATOM      9  C   UNL     1      12.576 -25.030 -44.243  1.00  0.00     0.065 C 
BRANCH   6  10
ATOM     10  C   UNL     1      14.970 -25.472 -42.411  1.00  0.00     0.159 C 
BRANCH  10  11
ATOM     11  C   UNL     1      14.631 -25.082 -40.990  1.00  0.00    -0.010 A 
ATOM     12  C   UNL     1      13.403 -24.434 -40.743  1.00  0.00     0.007 A 
ATOM     13  C   UNL     1      15.457 -25.371 -39.892  1.00  0.00     0.046 A 
ATOM     14  C   UNL     1      13.033 -24.055 -39.452  1.00  0.00     0.000 A 
ATOM     15  C   UNL     1      15.083 -24.989 -38.598  1.00  0.00     0.021 A 
ATOM     16  C   UNL     1      13.875 -24.328 -38.379  1.00  0.00     0.002 A 
ATOM     17  Cl  UNL     1      16.942 -26.234 -40.055  1.00  0.00    -0.084 Cl
ENDBRANCH  10  11
ENDBRANCH   6  10
ENDBRANCH   1   3
BRANCH   1  18
ATOM     18  C   UNL     1      13.897 -22.836 -47.657  1.00  0.00     0.159 C 
BRANCH  18  19
ATOM     19  S   UNL     1      13.102 -21.671 -48.806  1.00  0.00    -0.080 SA
BRANCH  19  20
ATOM     20  C   UNL     1      11.882 -22.753 -49.438  1.00  0.00     0.171 C 
ATOM     21  N   UNL     1      12.100 -24.022 -49.407  1.00  0.00    -0.185 NA
ATOM     22  N   UNL     1      10.769 -22.156 -49.937  1.00  0.00    -0.321 N 
ATOM     23  C   UNL     1      11.120 -24.841 -49.921  1.00  0.00     0.275 C 
ATOM     24  C   UNL     1       9.751 -22.882 -50.474  1.00  0.00     0.108 C 
ATOM     25  O   UNL     1      11.212 -26.065 -49.942  1.00  0.00    -0.267 OA
ATOM     26  C   UNL     1       9.891 -24.218 -50.488  1.00  0.00     0.118 C 
ATOM     27  H   UNL     1      10.728 -21.151 -50.003  1.00  0.00     0.170 HD
BRANCH  24  28
ATOM     28  N   UNL     1       8.636 -22.253 -50.972  1.00  0.00    -0.385 N 
ATOM     29  H   UNL     1       7.981 -22.889 -51.423  1.00  0.00     0.158 HD
ATOM     30  H   UNL     1       8.165 -21.694 -50.265  1.00  0.00     0.158 HD
ENDBRANCH  24  28
ENDBRANCH  19  20
ENDBRANCH  18  19
ENDBRANCH   1  18
TORSDOF 7
ENDMDL
MODEL 3
REMARK VINA RESULT:    -7.498      2.300      2.532
REMARK INTER + INTRA:         -11.349
REMARK INTER:                 -10.259
REMARK INTRA:                  -1.090
REMARK UNBOUND:                -1.002
REMARK SMILES Cc1cc(C(=O)CSc2nc(=O)cc(N)[nH]2)c(C)n1Cc1ccccc1Cl
REMARK SMILES IDX 5 1 6 2 4 3 2 4 3 5 19 6 17 7 1 8 18 9 20 10 21 11 22 12
REMARK SMILES IDX 26 13 23 14 25 15 24 16 27 17 7 18 8 19 9 20 10 21 16 22
REMARK SMILES IDX 11 23 14 24 12 25 13 26 15 28
REMARK H PARENT 16 27 15 29 15 30
ROOT
ATOM      1  C   UNL     1      13.292 -22.918 -46.105  1.00  0.00     0.175 C 
ATOM      2  O   UNL     1      12.357 -22.116 -46.045  1.00  0.00    -0.293 OA
ENDROOT
BRANCH   1   3
ATOM      3  C   UNL     1      14.040 -23.327 -44.903  1.00  0.00     0.039 A 
ATOM      4  C   UNL     1      15.605 -23.426 -43.247  1.00  0.00     0.016 A 
ATOM      5  C   UNL     1      15.228 -22.741 -44.383  1.00  0.00     0.035 A 
ATOM      6  N   UNL     1      14.732 -24.487 -43.098  1.00  0.00    -0.344 N 
ATOM      7  C   UNL     1      13.703 -24.356 -44.023  1.00  0.00     0.026 A 
ATOM      8  C   UNL     1      16.747 -23.133 -42.339  1.00  0.00     0.064 C 
ATOM      9  C   UNL     1      12.500 -25.246 -44.026  1.00  0.00     0.065 C 
BRANCH   6  10
ATOM     10  C   UNL     1      14.817 -25.533 -42.068  1.00  0.00     0.159 C 
BRANCH  10  11
ATOM     11  C   UNL     1      14.453 -25.078 -40.672  1.00  0.00    -0.010 A 
ATOM     12  C   UNL     1      13.272 -24.329 -40.493  1.00  0.00     0.007 A 
ATOM     13  C   UNL     1      15.209 -25.399 -39.533  1.00  0.00     0.046 A 
ATOM     14  C   UNL     1      12.882 -23.886 -39.228  1.00  0.00     0.000 A 
ATOM     15  C   UNL     1      14.815 -24.952 -38.267  1.00  0.00     0.021 A 
ATOM     16  C   UNL     1      13.656 -24.194 -38.115  1.00  0.00     0.002 A 
ATOM     17  Cl  UNL     1      16.628 -26.379 -39.612  1.00  0.00    -0.084 Cl
ENDBRANCH  10  11
ENDBRANCH   6  10
ENDBRANCH   1   3
BRANCH   1  18
ATOM     18  C   UNL     1      13.715 -23.479 -47.453  1.00  0.00     0.159 C 
BRANCH  18  19
ATOM     19  S   UNL     1      12.866 -25.058 -47.760  1.00  0.00    -0.080 SA
BRANCH  19  20
ATOM     20  C   UNL     1      11.446 -24.417 -48.552  1.00  0.00     0.171 C 
ATOM     21  N   UNL     1      10.358 -24.293 -47.873  1.00  0.00    -0.185 NA
ATOM     22  N   UNL     1      11.597 -24.099 -49.864  1.00  0.00    -0.321 N 
ATOM     23  C   UNL     1       9.258 -23.793 -48.533  1.00  0.00     0.275 C 
ATOM     24  C   UNL     1      10.564 -23.606 -50.601  1.00  0.00     0.108 C 
ATOM     25  O   UNL     1       8.169 -23.624 -47.991  1.00  0.00    -0.267 OA
ATOM     26  C   UNL     1       9.387 -23.444 -49.977  1.00  0.00     0.118 C 
ATOM     27  H   UNL     1      12.461 -24.318 -50.334  1.00  0.00     0.170 HD
BRANCH  24  28
ATOM     28  N   UNL     1      10.746 -23.291 -51.926  1.00  0.00    -0.385 N 
ATOM     29  H   UNL     1      10.526 -24.060 -52.557  1.00  0.00     0.158 HD
ATOM     30  H   UNL     1      10.240 -22.450 -52.192  1.00  0.00     0.158 HD
ENDBRANCH  24  28
ENDBRANCH  19  20
ENDBRANCH  18  19
ENDBRANCH   1  18
TORSDOF 7
ENDMDL
MODEL 4
REMARK VINA RESULT:    -7.384      2.854      4.449
REMARK INTER + INTRA:         -11.191
REMARK INTER:                 -10.139
REMARK INTRA:                  -1.052
REMARK UNBOUND:                -1.002
REMARK SMILES Cc1cc(C(=O)CSc2nc(=O)cc(N)[nH]2)c(C)n1Cc1ccccc1Cl
REMARK SMILES IDX 5 1 6 2 4 3 2 4 3 5 19 6 17 7 1 8 18 9 20 10 21 11 22 12
REMARK SMILES IDX 26 13 23 14 25 15 24 16 27 17 7 18 8 19 9 20 10 21 16 22
REMARK SMILES IDX 11 23 14 24 12 25 13 26 15 28
REMARK H PARENT 16 27 15 29 15 30
ROOT
ATOM      1  C   UNL     1      13.370 -20.974 -48.498  1.00  0.00     0.175 C 
ATOM      2  O   UNL     1      12.813 -20.024 -47.942  1.00  0.00    -0.293 OA
ENDROOT
BRANCH   1   3
ATOM      3  C   UNL     1      13.357 -22.328 -47.916  1.00  0.00     0.039 A 
ATOM      4  C   UNL     1      12.729 -24.449 -47.365  1.00  0.00     0.016 A 
ATOM      5  C   UNL     1      12.360 -23.330 -48.081  1.00  0.00     0.035 A 
ATOM      6  N   UNL     1      13.888 -24.136 -46.680  1.00  0.00    -0.344 N 
ATOM      7  C   UNL     1      14.345 -22.897 -47.112  1.00  0.00     0.026 A 
ATOM      8  C   UNL     1      12.027 -25.759 -47.290  1.00  0.00     0.064 C 
ATOM      9  C   UNL     1      15.666 -22.332 -46.695  1.00  0.00     0.065 C 
BRANCH   6  10
ATOM     10  C   UNL     1      14.584 -25.009 -45.723  1.00  0.00     0.159 C 
BRANCH  10  11
ATOM     11  C   UNL     1      14.291 -24.716 -44.269  1.00  0.00    -0.010 A 
ATOM     12  C   UNL     1      12.976 -24.902 -43.796  1.00  0.00     0.007 A 
ATOM     13  C   UNL     1      15.271 -24.309 -43.350  1.00  0.00     0.046 A 
ATOM     14  C   UNL     1      12.646 -24.653 -42.462  1.00  0.00     0.000 A 
ATOM     15  C   UNL     1      14.936 -24.060 -42.014  1.00  0.00     0.021 A 
ATOM     16  C   UNL     1      13.625 -24.227 -41.572  1.00  0.00     0.002 A 
ATOM     17  Cl  UNL     1      16.931 -24.128 -43.788  1.00  0.00    -0.084 Cl
ENDBRANCH  10  11
ENDBRANCH   6  10
ENDBRANCH   1   3
BRANCH   1  18
ATOM     18  C   UNL     1      14.123 -20.746 -49.799  1.00  0.00     0.159 C 
BRANCH  18  19
ATOM     19  S   UNL     1      12.984 -20.114 -51.069  1.00  0.00    -0.080 SA
BRANCH  19  20
ATOM     20  C   UNL     1      14.185 -19.546 -52.206  1.00  0.00     0.171 C 
ATOM     21  N   UNL     1      15.049 -20.384 -52.668  1.00  0.00    -0.185 NA
ATOM     22  N   UNL     1      14.122 -18.226 -52.518  1.00  0.00    -0.321 N 
ATOM     23  C   UNL     1      15.983 -19.897 -53.554  1.00  0.00     0.275 C 
ATOM     24  C   UNL     1      15.008 -17.653 -53.378  1.00  0.00     0.108 C 
ATOM     25  O   UNL     1      16.852 -20.599 -54.064  1.00  0.00    -0.267 OA
ATOM     26  C   UNL     1      15.949 -18.450 -53.909  1.00  0.00     0.118 C 
ATOM     27  H   UNL     1      13.468 -17.629 -52.035  1.00  0.00     0.170 HD
BRANCH  24  28
ATOM     28  N   UNL     1      14.920 -16.316 -53.677  1.00  0.00    -0.385 N 
ATOM     29  H   UNL     1      13.966 -15.961 -53.664  1.00  0.00     0.158 HD
ATOM     30  H   UNL     1      15.523 -15.751 -53.084  1.00  0.00     0.158 HD
ENDBRANCH  24  28
ENDBRANCH  19  20
ENDBRANCH  18  19
ENDBRANCH   1  18
TORSDOF 7
ENDMDL
MODEL 5
REMARK VINA RESULT:    -7.291      2.004      2.347
REMARK INTER + INTRA:         -11.064
REMARK INTER:                 -10.055
REMARK INTRA:                  -1.008
REMARK UNBOUND:                -1.002
REMARK SMILES Cc1cc(C(=O)CSc2nc(=O)cc(N)[nH]2)c(C)n1Cc1ccccc1Cl
REMARK SMILES IDX 5 1 6 2 4 3 2 4 3 5 19 6 17 7 1 8 18 9 20 10 21 11 22 12
REMARK SMILES IDX 26 13 23 14 25 15 24 16 27 17 7 18 8 19 9 20 10 21 16 22
REMARK SMILES IDX 11 23 14 24 12 25 13 26 15 28
REMARK H PARENT 16 27 15 29 15 30
ROOT
ATOM      1  C   UNL     1      13.321 -22.038 -47.116  1.00  0.00     0.175 C 
ATOM      2  O   UNL     1      12.617 -21.059 -46.855  1.00  0.00    -0.293 OA
ENDROOT
BRANCH   1   3
ATOM      3  C   UNL     1      14.170 -22.677 -46.094  1.00  0.00     0.039 A 
ATOM      4  C   UNL     1      15.927 -23.167 -44.728  1.00  0.00     0.016 A 
ATOM      5  C   UNL     1      15.492 -22.311 -45.717  1.00  0.00     0.035 A 
ATOM      6  N   UNL     1      14.943 -24.119 -44.544  1.00  0.00    -0.344 N 
ATOM      7  C   UNL     1      13.820 -23.751 -45.275  1.00  0.00     0.026 A 
ATOM      8  C   UNL     1      17.220 -23.130 -43.990  1.00  0.00     0.064 C 
ATOM      9  C   UNL     1      12.514 -24.475 -45.170  1.00  0.00     0.065 C 
BRANCH   6  10
ATOM     10  C   UNL     1      15.026 -25.280 -43.646  1.00  0.00     0.159 C 
BRANCH  10  11
ATOM     11  C   UNL     1      14.822 -24.964 -42.181  1.00  0.00    -0.010 A 
ATOM     12  C   UNL     1      13.559 -24.498 -41.761  1.00  0.00     0.007 A 
ATOM     13  C   UNL     1      15.814 -25.152 -41.205  1.00  0.00     0.046 A 
ATOM     14  C   UNL     1      13.310 -24.195 -40.421  1.00  0.00     0.000 A 
ATOM     15  C   UNL     1      15.560 -24.846 -39.862  1.00  0.00     0.021 A 
ATOM     16  C   UNL     1      14.312 -24.365 -39.472  1.00  0.00     0.002 A 
ATOM     17  Cl  UNL     1      17.370 -25.795 -41.581  1.00  0.00    -0.084 Cl
ENDBRANCH  10  11
ENDBRANCH   6  10
ENDBRANCH   1   3
BRANCH   1  18
ATOM     18  C   UNL     1      13.348 -22.587 -48.534  1.00  0.00     0.159 C 
BRANCH  18  19
ATOM     19  S   UNL     1      11.898 -21.990 -49.455  1.00  0.00    -0.080 SA
BRANCH  19  20
ATOM     20  C   UNL     1      12.733 -20.899 -50.536  1.00  0.00     0.171 C 
ATOM     21  N   UNL     1      13.181 -19.785 -50.071  1.00  0.00    -0.185 NA
ATOM     22  N   UNL     1      12.839 -21.316 -51.824  1.00  0.00    -0.321 N 
ATOM     23  C   UNL     1      13.825 -18.948 -50.955  1.00  0.00     0.275 C 
ATOM     24  C   UNL     1      13.452 -20.553 -52.772  1.00  0.00     0.108 C 
ATOM     25  O   UNL     1      14.298 -17.863 -50.628  1.00  0.00    -0.267 OA
ATOM     26  C   UNL     1      13.950 -19.370 -52.379  1.00  0.00     0.118 C 
ATOM     27  H   UNL     1      12.376 -22.162 -52.116  1.00  0.00     0.170 HD
BRANCH  24  28
ATOM     28  N   UNL     1      13.547 -21.000 -54.067  1.00  0.00    -0.385 N 
ATOM     29  H   UNL     1      14.159 -20.428 -54.647  1.00  0.00     0.158 HD
ATOM     30  H   UNL     1      13.816 -21.979 -54.115  1.00  0.00     0.158 HD
ENDBRANCH  24  28
ENDBRANCH  19  20
ENDBRANCH  18  19
ENDBRANCH   1  18
TORSDOF 7
ENDMDL
MODEL 6
REMARK VINA RESULT:    -7.225      1.731      2.066
REMARK INTER + INTRA:         -10.972
REMARK INTER:                 -10.296
REMARK INTRA:                  -0.676
REMARK UNBOUND:                -1.002
REMARK SMILES Cc1cc(C(=O)CSc2nc(=O)cc(N)[nH]2)c(C)n1Cc1ccccc1Cl
REMARK SMILES IDX 5 1 6 2 4 3 2 4 3 5 19 6 17 7 1 8 18 9 20 10 21 11 22 12
REMARK SMILES IDX 26 13 23 14 25 15 24 16 27 17 7 18 8 19 9 20 10 21 16 22
REMARK SMILES IDX 11 23 14 24 12 25 13 26 15 28
REMARK H PARENT 16 27 15 29 15 30
ROOT
ATOM      1  C   UNL     1      11.975 -24.554 -45.933  1.00  0.00     0.175 C 
ATOM      2  O   UNL     1      10.820 -24.152 -45.777  1.00  0.00    -0.293 OA
ENDROOT
BRANCH   1   3
ATOM      3  C   UNL     1      13.027 -24.299 -44.932  1.00  0.00     0.039 A 
ATOM      4  C   UNL     1      14.698 -23.303 -43.744  1.00  0.00     0.016 A 
ATOM      5  C   UNL     1      13.837 -23.136 -44.808  1.00  0.00     0.035 A 
ATOM      6  N   UNL     1      14.509 -24.583 -43.259  1.00  0.00    -0.344 N 
ATOM      7  C   UNL     1      13.407 -25.145 -43.891  1.00  0.00     0.026 A 
ATOM      8  C   UNL     1      15.684 -22.327 -43.203  1.00  0.00     0.064 C 
ATOM      9  C   UNL     1      12.825 -26.462 -43.482  1.00  0.00     0.065 C 
BRANCH   6  10
ATOM     10  C   UNL     1      15.282 -25.217 -42.181  1.00  0.00     0.159 C 
BRANCH  10  11
ATOM     11  C   UNL     1      14.778 -24.928 -40.784  1.00  0.00    -0.010 A 
ATOM     12  C   UNL     1      13.557 -24.239 -40.638  1.00  0.00     0.007 A 
ATOM     13  C   UNL     1      15.441 -25.349 -39.621  1.00  0.00     0.046 A 
ATOM     14  C   UNL     1      13.038 -23.948 -39.375  1.00  0.00     0.000 A 
ATOM     15  C   UNL     1      14.918 -25.055 -38.356  1.00  0.00     0.021 A 
ATOM     16  C   UNL     1      13.721 -24.352 -38.233  1.00  0.00     0.002 A 
ATOM     17  Cl  UNL     1      16.899 -26.272 -39.671  1.00  0.00    -0.084 Cl
ENDBRANCH  10  11
ENDBRANCH   6  10
ENDBRANCH   1   3
BRANCH   1  18
ATOM     18  C   UNL     1      12.344 -25.302 -47.204  1.00  0.00     0.159 C 
BRANCH  18  19
ATOM     19  S   UNL     1      11.518 -24.538 -48.633  1.00  0.00    -0.080 SA
BRANCH  19  20
ATOM     20  C   UNL     1      12.608 -23.188 -48.845  1.00  0.00     0.171 C 
ATOM     21  N   UNL     1      13.694 -23.150 -48.153  1.00  0.00    -0.185 NA
ATOM     22  N   UNL     1      12.212 -22.248 -49.742  1.00  0.00    -0.321 N 
ATOM     23  C   UNL     1      14.523 -22.067 -48.341  1.00  0.00     0.275 C 
ATOM     24  C   UNL     1      12.962 -21.138 -49.990  1.00  0.00     0.108 C 
ATOM     25  O   UNL     1      15.585 -21.923 -47.743  1.00  0.00    -0.267 OA
ATOM     26  C   UNL     1      14.113 -21.011 -49.311  1.00  0.00     0.118 C 
ATOM     27  H   UNL     1      11.302 -22.316 -50.169  1.00  0.00     0.170 HD
BRANCH  24  28
ATOM     28  N   UNL     1      12.538 -20.204 -50.903  1.00  0.00    -0.385 N 
ATOM     29  H   UNL     1      11.531 -20.055 -50.891  1.00  0.00     0.158 HD
ATOM     30  H   UNL     1      13.035 -19.322 -50.806  1.00  0.00     0.158 HD
ENDBRANCH  24  28
ENDBRANCH  19  20
ENDBRANCH  18  19
ENDBRANCH   1  18
TORSDOF 7
ENDMDL
MODEL 7
REMARK VINA RESULT:    -7.077      2.445      3.642
REMARK INTER + INTRA:         -10.767
REMARK INTER:                  -9.744
REMARK INTRA:                  -1.024
REMARK UNBOUND:                -1.002
REMARK SMILES Cc1cc(C(=O)CSc2nc(=O)cc(N)[nH]2)c(C)n1Cc1ccccc1Cl
REMARK SMILES IDX 5 1 6 2 4 3 2 4 3 5 19 6 17 7 1 8 18 9 20 10 21 11 22 12
REMARK SMILES IDX 26 13 23 14 25 15 24 16 27 17 7 18 8 19 9 20 10 21 16 22
REMARK SMILES IDX 11 23 14 24 12 25 13 26 15 28
REMARK H PARENT 16 27 15 29 15 30
ROOT
ATOM      1  C   UNL     1      14.242 -22.038 -48.151  1.00  0.00     0.175 C 
ATOM      2  O   UNL     1      15.271 -21.815 -48.794  1.00  0.00    -0.293 OA
ENDROOT
BRANCH   1   3
ATOM      3  C   UNL     1      14.066 -23.281 -47.378  1.00  0.00     0.039 A 
ATOM      4  C   UNL     1      13.211 -25.236 -46.574  1.00  0.00     0.016 A 
ATOM      5  C   UNL     1      12.997 -24.215 -47.476  1.00  0.00     0.035 A 
ATOM      6  N   UNL     1      14.342 -24.913 -45.848  1.00  0.00    -0.344 N 
ATOM      7  C   UNL     1      14.939 -23.795 -46.419  1.00  0.00     0.026 A 
ATOM      8  C   UNL     1      12.390 -26.459 -46.365  1.00  0.00     0.064 C 
ATOM      9  C   UNL     1      16.272 -23.277 -45.980  1.00  0.00     0.065 C 
BRANCH   6  10
ATOM     10  C   UNL     1      14.886 -25.679 -44.717  1.00  0.00     0.159 C 
BRANCH  10  11
ATOM     11  C   UNL     1      14.461 -25.184 -43.353  1.00  0.00    -0.010 A 
ATOM     12  C   UNL     1      13.105 -25.301 -42.986  1.00  0.00     0.007 A 
ATOM     13  C   UNL     1      15.356 -24.651 -42.411  1.00  0.00     0.046 A 
ATOM     14  C   UNL     1      12.654 -24.866 -41.738  1.00  0.00     0.000 A 
ATOM     15  C   UNL     1      14.900 -24.216 -41.161  1.00  0.00     0.021 A 
ATOM     16  C   UNL     1      13.551 -24.320 -40.827  1.00  0.00     0.002 A 
ATOM     17  Cl  UNL     1      17.051 -24.535 -42.710  1.00  0.00    -0.084 Cl
ENDBRANCH  10  11
ENDBRANCH   6  10
ENDBRANCH   1   3
BRANCH   1  18
ATOM     18  C   UNL     1      13.106 -21.029 -48.178  1.00  0.00     0.159 C 
BRANCH  18  19
ATOM     19  S   UNL     1      12.019 -21.360 -49.599  1.00  0.00    -0.080 SA
BRANCH  19  20
ATOM     20  C   UNL     1      12.919 -20.466 -50.802  1.00  0.00     0.171 C 
ATOM     21  N   UNL     1      13.408 -19.316 -50.486  1.00  0.00    -0.185 NA
ATOM     22  N   UNL     1      13.030 -21.063 -52.017  1.00  0.00    -0.321 N 
ATOM     23  C   UNL     1      14.103 -18.639 -51.463  1.00  0.00     0.275 C 
ATOM     24  C   UNL     1      13.692 -20.467 -53.047  1.00  0.00     0.108 C 
ATOM     25  O   UNL     1      14.617 -17.539 -51.280  1.00  0.00    -0.267 OA
ATOM     26  C   UNL     1      14.234 -19.261 -52.811  1.00  0.00     0.118 C 
ATOM     27  H   UNL     1      12.536 -21.922 -52.199  1.00  0.00     0.170 HD
BRANCH  24  28
ATOM     28  N   UNL     1      13.790 -21.094 -54.265  1.00  0.00    -0.385 N 
ATOM     29  H   UNL     1      14.686 -21.555 -54.410  1.00  0.00     0.158 HD
ATOM     30  H   UNL     1      13.021 -21.740 -54.425  1.00  0.00     0.158 HD
ENDBRANCH  24  28
ENDBRANCH  19  20
ENDBRANCH  18  19
ENDBRANCH   1  18
TORSDOF 7
ENDMDL
MODEL 8
REMARK VINA RESULT:    -7.032      3.347      5.337
REMARK INTER + INTRA:         -10.706
REMARK INTER:                 -10.019
REMARK INTRA:                  -0.687
REMARK UNBOUND:                -1.002
REMARK SMILES Cc1cc(C(=O)CSc2nc(=O)cc(N)[nH]2)c(C)n1Cc1ccccc1Cl
REMARK SMILES IDX 5 1 6 2 4 3 2 4 3 5 19 6 17 7 1 8 18 9 20 10 21 11 22 12
REMARK SMILES IDX 26 13 23 14 25 15 24 16 27 17 7 18 8 19 9 20 10 21 16 22
REMARK SMILES IDX 11 23 14 24 12 25 13 26 15 28
REMARK H PARENT 16 27 15 29 15 30
ROOT
ATOM      1  C   UNL     1      13.442 -20.736 -49.201  1.00  0.00     0.175 C 
ATOM      2  O   UNL     1      13.027 -19.763 -48.566  1.00  0.00    -0.293 OA
ENDROOT
BRANCH   1   3
ATOM      3  C   UNL     1      13.373 -22.104 -48.657  1.00  0.00     0.039 A 
ATOM      4  C   UNL     1      12.657 -24.211 -48.163  1.00  0.00     0.016 A 
ATOM      5  C   UNL     1      12.334 -23.058 -48.847  1.00  0.00     0.035 A 
ATOM      6  N   UNL     1      13.830 -23.967 -47.474  1.00  0.00    -0.344 N 
ATOM      7  C   UNL     1      14.337 -22.736 -47.873  1.00  0.00     0.026 A 
ATOM      8  C   UNL     1      11.900 -25.492 -48.123  1.00  0.00     0.064 C 
ATOM      9  C   UNL     1      15.682 -22.239 -47.444  1.00  0.00     0.065 C 
BRANCH   6  10
ATOM     10  C   UNL     1      14.490 -24.894 -46.543  1.00  0.00     0.159 C 
BRANCH  10  11
ATOM     11  C   UNL     1      14.265 -24.591 -45.079  1.00  0.00    -0.010 A 
ATOM     12  C   UNL     1      15.093 -23.637 -44.453  1.00  0.00     0.007 A 
ATOM     13  C   UNL     1      13.242 -25.179 -44.317  1.00  0.00     0.046 A 
ATOM     14  C   UNL     1      14.929 -23.312 -43.105  1.00  0.00     0.000 A 
ATOM     15  C   UNL     1      13.082 -24.850 -42.966  1.00  0.00     0.021 A 
ATOM     16  C   UNL     1      13.926 -23.922 -42.360  1.00  0.00     0.002 A 
ATOM     17  Cl  UNL     1      12.113 -26.296 -44.991  1.00  0.00    -0.084 Cl
ENDBRANCH  10  11
ENDBRANCH   6  10
ENDBRANCH   1   3
BRANCH   1  18
ATOM     18  C   UNL     1      14.076 -20.525 -50.567  1.00  0.00     0.159 C 
BRANCH  18  19
ATOM     19  S   UNL     1      13.166 -19.240 -51.479  1.00  0.00    -0.080 SA
BRANCH  19  20
ATOM     20  C   UNL     1      14.455 -18.752 -52.555  1.00  0.00     0.171 C 
ATOM     21  N   UNL     1      14.476 -17.540 -52.990  1.00  0.00    -0.185 NA
ATOM     22  N   UNL     1      15.356 -19.718 -52.869  1.00  0.00    -0.321 N 
ATOM     23  C   UNL     1      15.501 -17.195 -53.842  1.00  0.00     0.275 C 
ATOM     24  C   UNL     1      16.399 -19.474 -53.709  1.00  0.00     0.108 C 
ATOM     25  O   UNL     1      15.629 -16.070 -54.316  1.00  0.00    -0.267 OA
ATOM     26  C   UNL     1      16.501 -18.235 -54.216  1.00  0.00     0.118 C 
ATOM     27  H   UNL     1      15.206 -20.663 -52.554  1.00  0.00     0.170 HD
BRANCH  24  28
ATOM     28  N   UNL     1      17.297 -20.469 -54.009  1.00  0.00    -0.385 N 
ATOM     29  H   UNL     1      17.607 -20.455 -54.978  1.00  0.00     0.158 HD
ATOM     30  H   UNL     1      18.093 -20.469 -53.376  1.00  0.00     0.158 HD
ENDBRANCH  24  28
ENDBRANCH  19  20
ENDBRANCH  18  19
ENDBRANCH   1  18
TORSDOF 7
ENDMDL
MODEL 9
REMARK VINA RESULT:    -6.964      2.614      3.264
REMARK INTER + INTRA:         -10.612
REMARK INTER:                 -10.073
REMARK INTRA:                  -0.540
REMARK UNBOUND:                -1.002
REMARK SMILES Cc1cc(C(=O)CSc2nc(=O)cc(N)[nH]2)c(C)n1Cc1ccccc1Cl
REMARK SMILES IDX 5 1 6 2 4 3 2 4 3 5 19 6 17 7 1 8 18 9 20 10 21 11 22 12
REMARK SMILES IDX 26 13 23 14 25 15 24 16 27 17 7 18 8 19 9 20 10 21 16 22
REMARK SMILES IDX 11 23 14 24 12 25 13 26 15 28
REMARK H PARENT 16 27 15 29 15 30
ROOT
ATOM      1  C   UNL     1      14.414 -22.204 -47.142  1.00  0.00     0.175 C 
ATOM      2  O   UNL     1      15.078 -22.296 -48.177  1.00  0.00    -0.293 OA
ENDROOT
BRANCH   1   3
ATOM      3  C   UNL     1      14.903 -22.736 -45.857  1.00  0.00     0.039 A 
ATOM      4  C   UNL     1      16.057 -22.983 -43.907  1.00  0.00     0.016 A 
ATOM      5  C   UNL     1      15.891 -22.167 -45.006  1.00  0.00     0.035 A 
ATOM      6  N   UNL     1      15.262 -24.097 -44.097  1.00  0.00    -0.344 N 
ATOM      7  C   UNL     1      14.461 -23.893 -45.214  1.00  0.00     0.026 A 
ATOM      8  C   UNL     1      16.937 -22.760 -42.727  1.00  0.00     0.064 C 
ATOM      9  C   UNL     1      13.366 -24.834 -45.607  1.00  0.00     0.065 C 
BRANCH   6  10
ATOM     10  C   UNL     1      15.197 -25.269 -43.212  1.00  0.00     0.159 C 
BRANCH  10  11
ATOM     11  C   UNL     1      14.892 -24.954 -41.764  1.00  0.00    -0.010 A 
ATOM     12  C   UNL     1      15.923 -25.089 -40.813  1.00  0.00     0.007 A 
ATOM     13  C   UNL     1      13.642 -24.491 -41.322  1.00  0.00     0.046 A 
ATOM     14  C   UNL     1      15.703 -24.807 -39.463  1.00  0.00     0.000 A 
ATOM     15  C   UNL     1      13.425 -24.210 -39.968  1.00  0.00     0.021 A 
ATOM     16  C   UNL     1      14.452 -24.372 -39.040  1.00  0.00     0.002 A 
ATOM     17  Cl  UNL     1      12.327 -24.205 -42.402  1.00  0.00    -0.084 Cl
ENDBRANCH  10  11
ENDBRANCH   6  10
ENDBRANCH   1   3
BRANCH   1  18
ATOM     18  C   UNL     1      13.038 -21.558 -47.188  1.00  0.00     0.159 C 
BRANCH  18  19
ATOM     19  S   UNL     1      12.563 -21.239 -48.914  1.00  0.00    -0.080 SA
BRANCH  19  20
ATOM     20  C   UNL     1      11.193 -22.322 -48.990  1.00  0.00     0.171 C 
ATOM     21  N   UNL     1      10.947 -23.085 -47.981  1.00  0.00    -0.185 NA
ATOM     22  N   UNL     1      10.477 -22.284 -50.143  1.00  0.00    -0.321 N 
ATOM     23  C   UNL     1       9.865 -23.930 -48.082  1.00  0.00     0.275 C 
ATOM     24  C   UNL     1       9.396 -23.088 -50.338  1.00  0.00     0.108 C 
ATOM     25  O   UNL     1       9.529 -24.699 -47.186  1.00  0.00    -0.267 OA
ATOM     26  C   UNL     1       9.064 -23.922 -49.339  1.00  0.00     0.118 C 
ATOM     27  H   UNL     1      10.800 -21.721 -50.914  1.00  0.00     0.170 HD
BRANCH  24  28
ATOM     28  N   UNL     1       8.688 -23.029 -51.514  1.00  0.00    -0.385 N 
ATOM     29  H   UNL     1       8.005 -22.274 -51.536  1.00  0.00     0.158 HD
ATOM     30  H   UNL     1       9.299 -22.987 -52.326  1.00  0.00     0.158 HD
ENDBRANCH  24  28
ENDBRANCH  19  20
ENDBRANCH  18  19
ENDBRANCH   1  18
TORSDOF 7
ENDMDL
