REMARK SMILES NC(=S)/N=N/C=c1/cc/c(=C/c2sc(=O)[nH]c2[O-])o1
REMARK SMILES IDX 6 1 7 2 8 3 9 4 10 5 11 6 19 7 5 8 4 9 2 10 1 11 3 12 12 15
REMARK SMILES IDX 13 16 17 17 14 18 16 19 15 20 18 21
REMARK H PARENT 1 13 1 14 16 22
ROOT
ATOM      1  C   UNL     1      -0.641   2.964   0.731  1.00  0.00     0.182 C 
ATOM      2  C   UNL     1       0.371   2.111   0.922  1.00  0.00     0.147 C 
ATOM      3  C   UNL     1       1.778   2.386   1.044  1.00  0.00     0.052 C 
ATOM      4  C   UNL     1       2.424   1.216   1.123  1.00  0.00     0.051 C 
ATOM      5  C   UNL     1       1.452   0.152   1.063  1.00  0.00     0.129 C 
ATOM      6  C   UNL     1       1.684  -1.166   1.078  1.00  0.00     0.067 C 
ATOM      7  O   UNL     1       0.200   0.736   0.985  1.00  0.00    -0.456 OA
ENDROOT
BRANCH   1   8
ATOM      8  N   UNL     1      -1.936   2.549   0.577  1.00  0.00    -0.152 NA
ATOM      9  N   UNL     1      -2.205   2.231  -0.604  1.00  0.00    -0.121 NA
BRANCH   9  10
ATOM     10  C   UNL     1      -3.357   1.487  -0.666  1.00  0.00     0.211 C 
ATOM     11  N   UNL     1      -3.170   0.139  -0.625  1.00  0.00    -0.373 N 
ATOM     12  S   UNL     1      -4.917   2.084  -0.849  1.00  0.00    -0.037 S 
ATOM     13  H   UNL     1      -3.927  -0.516  -0.722  1.00  0.00     0.159 HD
ATOM     14  H   UNL     1      -2.227  -0.284  -0.591  1.00  0.00     0.159 HD
ENDBRANCH   9  10
ENDBRANCH   1   8
BRANCH   6  15
ATOM     15  C   UNL     1       0.683  -2.208   1.020  1.00  0.00     0.045 C 
ATOM     16  S   UNL     1       0.830  -3.580   2.111  1.00  0.00    -0.075 SA
ATOM     17  C   UNL     1      -0.364  -2.354   0.178  1.00  0.00    -0.018 C 
ATOM     18  C   UNL     1      -0.598  -4.336   1.401  1.00  0.00     0.304 C 
ATOM     19  N   UNL     1      -1.049  -3.511   0.412  1.00  0.00    -0.326 N 
ATOM     20  O   UNL     1      -1.059  -5.410   1.756  1.00  0.00    -0.257 OA
ATOM     21  O   UNL     1      -0.890  -1.740  -0.778  1.00  0.00    -0.859 OA
ATOM     22  H   UNL     1      -1.840  -3.719  -0.171  1.00  0.00     0.169 HD
ENDBRANCH   6  15
TORSDOF 3
