MODEL 1
REMARK VINA RESULT:    -6.954      0.000      0.000
REMARK INTER + INTRA:          -8.655
REMARK INTER:                  -8.376
REMARK INTRA:                  -0.279
REMARK UNBOUND:                -0.279
REMARK SMILES Cc1ccc(C)c(-c2nc3cccc(C)n3c2CC[NH3+])c1
REMARK SMILES IDX 18 1 17 2 8 3 9 4 10 5 16 6 11 7 14 8 12 9 13 10 15 11 7 12
REMARK SMILES IDX 2 13 3 14 21 15 4 16 5 17 1 18 6 19 19 20 20 21
REMARK H PARENT 20 22 20 23 20 24
ROOT
ATOM      1  C   UNL     1      15.798 -22.750 -45.852  1.00  0.00     0.118 C 
ENDROOT
BRANCH   1   2
ATOM      2  C   UNL     1      14.460 -22.983 -45.215  1.00  0.00     0.056 A 
ATOM      3  C   UNL     1      13.193 -22.873 -45.781  1.00  0.00     0.093 A 
ATOM      4  N   UNL     1      12.230 -23.316 -44.934  1.00  0.00    -0.228 NA
ATOM      5  C   UNL     1      12.843 -23.602 -43.811  1.00  0.00     0.137 A 
ATOM      6  N   UNL     1      14.229 -23.403 -43.896  1.00  0.00    -0.300 N 
ATOM      7  C   UNL     1      12.298 -24.079 -42.590  1.00  0.00     0.048 C 
ATOM      8  C   UNL     1      15.088 -23.655 -42.792  1.00  0.00     0.021 C 
ATOM      9  C   UNL     1      13.108 -24.327 -41.549  1.00  0.00     0.006 C 
ATOM     10  C   UNL     1      14.536 -24.109 -41.645  1.00  0.00     0.022 C 
ATOM     11  C   UNL     1      16.565 -23.415 -42.841  1.00  0.00     0.065 C 
BRANCH   3  12
ATOM     12  C   UNL     1      12.893 -22.474 -47.149  1.00  0.00     0.005 A 
ATOM     13  C   UNL     1      13.064 -20.783 -48.908  1.00  0.00    -0.050 A 
ATOM     14  C   UNL     1      12.446 -21.664 -49.797  1.00  0.00     0.004 A 
ATOM     15  C   UNL     1      13.262 -21.188 -47.582  1.00  0.00     0.014 A 
ATOM     16  C   UNL     1      12.036 -22.929 -49.371  1.00  0.00     0.004 A 
ATOM     17  C   UNL     1      12.253 -23.352 -48.050  1.00  0.00    -0.042 A 
ATOM     18  C   UNL     1      13.416 -19.390 -49.341  1.00  0.00     0.044 C 
ATOM     19  C   UNL     1      11.715 -24.696 -47.631  1.00  0.00     0.045 C 
ENDBRANCH   3  12
ENDBRANCH   1   2
BRANCH   1  20
ATOM     20  C   UNL     1      16.371 -24.016 -46.499  1.00  0.00     0.265 C 
BRANCH  20  21
ATOM     21  N   UNL     1      17.831 -24.135 -46.251  1.00  0.00    -0.357 N 
ATOM     22  H   UNL     1      18.325 -23.289 -46.570  1.00  0.00     0.344 HD
ATOM     23  H   UNL     1      18.247 -24.934 -46.744  1.00  0.00     0.344 HD
ATOM     24  H   UNL     1      18.053 -24.232 -45.248  1.00  0.00     0.344 HD
ENDBRANCH  20  21
ENDBRANCH   1  20
TORSDOF 4
ENDMDL
MODEL 2
REMARK VINA RESULT:    -6.932      2.349      4.013
REMARK INTER + INTRA:          -8.629
REMARK INTER:                  -7.785
REMARK INTRA:                  -0.844
REMARK UNBOUND:                -0.279
REMARK SMILES Cc1ccc(C)c(-c2nc3cccc(C)n3c2CC[NH3+])c1
REMARK SMILES IDX 18 1 17 2 8 3 9 4 10 5 16 6 11 7 14 8 12 9 13 10 15 11 7 12
REMARK SMILES IDX 2 13 3 14 21 15 4 16 5 17 1 18 6 19 19 20 20 21
REMARK H PARENT 20 22 20 23 20 24
ROOT
ATOM      1  C   UNL     1      16.693 -25.843 -42.934  1.00  0.00     0.118 C 
ENDROOT
BRANCH   1   2
ATOM      2  C   UNL     1      15.529 -25.101 -42.346  1.00  0.00     0.056 A 
ATOM      3  C   UNL     1      14.584 -24.308 -42.992  1.00  0.00     0.093 A 
ATOM      4  N   UNL     1      13.592 -23.930 -42.147  1.00  0.00    -0.228 NA
ATOM      5  C   UNL     1      13.940 -24.373 -40.963  1.00  0.00     0.137 A 
ATOM      6  N   UNL     1      15.144 -25.094 -40.997  1.00  0.00    -0.300 N 
ATOM      7  C   UNL     1      13.270 -24.227 -39.720  1.00  0.00     0.048 C 
ATOM      8  C   UNL     1      15.705 -25.664 -39.823  1.00  0.00     0.021 C 
ATOM      9  C   UNL     1      13.793 -24.774 -38.612  1.00  0.00     0.006 C 
ATOM     10  C   UNL     1      15.040 -25.508 -38.658  1.00  0.00     0.022 C 
ATOM     11  C   UNL     1      17.005 -26.405 -39.822  1.00  0.00     0.065 C 
BRANCH   3  12
ATOM     12  C   UNL     1      14.540 -24.008 -44.416  1.00  0.00     0.005 A 
ATOM     13  C   UNL     1      13.693 -24.581 -46.638  1.00  0.00    -0.050 A 
ATOM     14  C   UNL     1      14.319 -23.445 -47.156  1.00  0.00     0.004 A 
ATOM     15  C   UNL     1      13.828 -24.865 -45.274  1.00  0.00     0.014 A 
ATOM     16  C   UNL     1      15.064 -22.607 -46.325  1.00  0.00     0.004 A 
ATOM     17  C   UNL     1      15.184 -22.872 -44.951  1.00  0.00    -0.042 A 
ATOM     18  C   UNL     1      12.973 -25.532 -47.549  1.00  0.00     0.044 C 
ATOM     19  C   UNL     1      16.069 -21.975 -44.123  1.00  0.00     0.045 C 
ENDBRANCH   3  12
ENDBRANCH   1   2
BRANCH   1  20
ATOM     20  C   UNL     1      17.934 -24.959 -43.097  1.00  0.00     0.265 C 
BRANCH  20  21
ATOM     21  N   UNL     1      18.266 -24.754 -44.531  1.00  0.00    -0.357 N 
ATOM     22  H   UNL     1      19.113 -24.176 -44.630  1.00  0.00     0.344 HD
ATOM     23  H   UNL     1      17.513 -24.280 -45.042  1.00  0.00     0.344 HD
ATOM     24  H   UNL     1      18.469 -25.641 -45.017  1.00  0.00     0.344 HD
ENDBRANCH  20  21
ENDBRANCH   1  20
TORSDOF 4
ENDMDL
MODEL 3
REMARK VINA RESULT:    -6.869      2.592      7.192
REMARK INTER + INTRA:          -8.553
REMARK INTER:                  -7.776
REMARK INTRA:                  -0.777
REMARK UNBOUND:                -0.279
REMARK SMILES Cc1ccc(C)c(-c2nc3cccc(C)n3c2CC[NH3+])c1
REMARK SMILES IDX 18 1 17 2 8 3 9 4 10 5 16 6 11 7 14 8 12 9 13 10 15 11 7 12
REMARK SMILES IDX 2 13 3 14 21 15 4 16 5 17 1 18 6 19 19 20 20 21
REMARK H PARENT 20 22 20 23 20 24
ROOT
ATOM      1  C   UNL     1      14.082 -26.141 -43.683  1.00  0.00     0.118 C 
ENDROOT
BRANCH   1   2
ATOM      2  C   UNL     1      14.818 -24.834 -43.670  1.00  0.00     0.056 A 
ATOM      3  C   UNL     1      15.421 -24.184 -42.597  1.00  0.00     0.093 A 
ATOM      4  N   UNL     1      16.124 -23.098 -43.006  1.00  0.00    -0.228 NA
ATOM      5  C   UNL     1      15.894 -22.984 -44.291  1.00  0.00     0.137 A 
ATOM      6  N   UNL     1      15.074 -24.013 -44.778  1.00  0.00    -0.300 N 
ATOM      7  C   UNL     1      16.366 -22.001 -45.202  1.00  0.00     0.048 C 
ATOM      8  C   UNL     1      14.699 -24.083 -46.147  1.00  0.00     0.021 C 
ATOM      9  C   UNL     1      16.021 -22.072 -46.496  1.00  0.00     0.006 C 
ATOM     10  C   UNL     1      15.166 -23.132 -46.986  1.00  0.00     0.022 C 
ATOM     11  C   UNL     1      13.794 -25.146 -46.687  1.00  0.00     0.065 C 
BRANCH   3  12
ATOM     12  C   UNL     1      15.445 -24.642 -41.215  1.00  0.00     0.005 A 
ATOM     13  C   UNL     1      14.395 -24.646 -39.006  1.00  0.00    -0.050 A 
ATOM     14  C   UNL     1      15.357 -25.557 -38.565  1.00  0.00     0.004 A 
ATOM     15  C   UNL     1      14.461 -24.178 -40.324  1.00  0.00     0.014 A 
ATOM     16  C   UNL     1      16.364 -25.996 -39.425  1.00  0.00     0.004 A 
ATOM     17  C   UNL     1      16.423 -25.550 -40.756  1.00  0.00    -0.042 A 
ATOM     18  C   UNL     1      13.371 -24.103 -38.054  1.00  0.00     0.044 C 
ATOM     19  C   UNL     1      17.581 -25.997 -41.610  1.00  0.00     0.045 C 
ENDBRANCH   3  12
ENDBRANCH   1   2
BRANCH   1  20
ATOM     20  C   UNL     1      12.592 -25.981 -43.358  1.00  0.00     0.265 C 
BRANCH  20  21
ATOM     21  N   UNL     1      12.285 -26.462 -41.986  1.00  0.00    -0.357 N 
ATOM     22  H   UNL     1      12.562 -27.447 -41.873  1.00  0.00     0.344 HD
ATOM     23  H   UNL     1      11.285 -26.400 -41.765  1.00  0.00     0.344 HD
ATOM     24  H   UNL     1      12.801 -25.938 -41.262  1.00  0.00     0.344 HD
ENDBRANCH  20  21
ENDBRANCH   1  20
TORSDOF 4
ENDMDL
MODEL 4
REMARK VINA RESULT:    -6.828      0.812      2.054
REMARK INTER + INTRA:          -8.504
REMARK INTER:                  -8.017
REMARK INTRA:                  -0.488
REMARK UNBOUND:                -0.279
REMARK SMILES Cc1ccc(C)c(-c2nc3cccc(C)n3c2CC[NH3+])c1
REMARK SMILES IDX 18 1 17 2 8 3 9 4 10 5 16 6 11 7 14 8 12 9 13 10 15 11 7 12
REMARK SMILES IDX 2 13 3 14 21 15 4 16 5 17 1 18 6 19 19 20 20 21
REMARK H PARENT 20 22 20 23 20 24
ROOT
ATOM      1  C   UNL     1      15.450 -22.887 -46.182  1.00  0.00     0.118 C 
ENDROOT
BRANCH   1   2
ATOM      2  C   UNL     1      14.173 -23.171 -45.448  1.00  0.00     0.056 A 
ATOM      3  C   UNL     1      12.876 -23.242 -45.949  1.00  0.00     0.093 A 
ATOM      4  N   UNL     1      12.002 -23.675 -45.006  1.00  0.00    -0.228 NA
ATOM      5  C   UNL     1      12.692 -23.777 -43.896  1.00  0.00     0.137 A 
ATOM      6  N   UNL     1      14.047 -23.462 -44.081  1.00  0.00    -0.300 N 
ATOM      7  C   UNL     1      12.254 -24.164 -42.602  1.00  0.00     0.048 C 
ATOM      8  C   UNL     1      14.977 -23.509 -43.008  1.00  0.00     0.021 C 
ATOM      9  C   UNL     1      13.133 -24.219 -41.590  1.00  0.00     0.006 C 
ATOM     10  C   UNL     1      14.526 -23.882 -41.790  1.00  0.00     0.022 C 
ATOM     11  C   UNL     1      16.419 -23.141 -43.166  1.00  0.00     0.065 C 
BRANCH   3  12
ATOM     12  C   UNL     1      12.475 -23.025 -47.332  1.00  0.00     0.005 A 
ATOM     13  C   UNL     1      11.685 -23.977 -49.442  1.00  0.00    -0.050 A 
ATOM     14  C   UNL     1      11.591 -22.689 -49.973  1.00  0.00     0.004 A 
ATOM     15  C   UNL     1      12.149 -24.136 -48.131  1.00  0.00     0.014 A 
ATOM     16  C   UNL     1      11.950 -21.579 -49.207  1.00  0.00     0.004 A 
ATOM     17  C   UNL     1      12.393 -21.728 -47.882  1.00  0.00    -0.042 A 
ATOM     18  C   UNL     1      11.391 -25.174 -50.298  1.00  0.00     0.044 C 
ATOM     19  C   UNL     1      12.843 -20.499 -47.135  1.00  0.00     0.045 C 
ENDBRANCH   3  12
ENDBRANCH   1   2
BRANCH   1  20
ATOM     20  C   UNL     1      16.266 -24.156 -46.457  1.00  0.00     0.265 C 
BRANCH  20  21
ATOM     21  N   UNL     1      17.725 -23.883 -46.396  1.00  0.00    -0.357 N 
ATOM     22  H   UNL     1      18.236 -24.708 -46.048  1.00  0.00     0.344 HD
ATOM     23  H   UNL     1      17.950 -23.101 -45.771  1.00  0.00     0.344 HD
ATOM     24  H   UNL     1      18.124 -23.672 -47.323  1.00  0.00     0.344 HD
ENDBRANCH  20  21
ENDBRANCH   1  20
TORSDOF 4
ENDMDL
MODEL 5
REMARK VINA RESULT:    -6.820      1.438      3.727
REMARK INTER + INTRA:          -8.494
REMARK INTER:                  -7.751
REMARK INTRA:                  -0.744
REMARK UNBOUND:                -0.279
REMARK SMILES Cc1ccc(C)c(-c2nc3cccc(C)n3c2CC[NH3+])c1
REMARK SMILES IDX 18 1 17 2 8 3 9 4 10 5 16 6 11 7 14 8 12 9 13 10 15 11 7 12
REMARK SMILES IDX 2 13 3 14 21 15 4 16 5 17 1 18 6 19 19 20 20 21
REMARK H PARENT 20 22 20 23 20 24
ROOT
ATOM      1  C   UNL     1      12.765 -23.489 -44.575  1.00  0.00     0.118 C 
ENDROOT
BRANCH   1   2
ATOM      2  C   UNL     1      14.049 -23.215 -45.300  1.00  0.00     0.056 A 
ATOM      3  C   UNL     1      14.250 -22.965 -46.654  1.00  0.00     0.093 A 
ATOM      4  N   UNL     1      15.534 -22.608 -46.909  1.00  0.00    -0.228 NA
ATOM      5  C   UNL     1      16.173 -22.730 -45.771  1.00  0.00     0.137 A 
ATOM      6  N   UNL     1      15.326 -23.124 -44.724  1.00  0.00    -0.300 N 
ATOM      7  C   UNL     1      17.547 -22.508 -45.486  1.00  0.00     0.048 C 
ATOM      8  C   UNL     1      15.811 -23.314 -43.402  1.00  0.00     0.021 C 
ATOM      9  C   UNL     1      18.005 -22.678 -44.237  1.00  0.00     0.006 C 
ATOM     10  C   UNL     1      17.123 -23.093 -43.167  1.00  0.00     0.022 C 
ATOM     11  C   UNL     1      14.939 -23.771 -42.275  1.00  0.00     0.065 C 
BRANCH   3  12
ATOM     12  C   UNL     1      13.223 -22.937 -47.687  1.00  0.00     0.005 A 
ATOM     13  C   UNL     1      11.831 -24.176 -49.271  1.00  0.00    -0.050 A 
ATOM     14  C   UNL     1      11.182 -22.988 -49.610  1.00  0.00     0.004 A 
ATOM     15  C   UNL     1      12.864 -24.137 -48.326  1.00  0.00     0.014 A 
ATOM     16  C   UNL     1      11.555 -21.782 -49.014  1.00  0.00     0.004 A 
ATOM     17  C   UNL     1      12.573 -21.737 -48.048  1.00  0.00    -0.042 A 
ATOM     18  C   UNL     1      11.495 -25.454 -49.981  1.00  0.00     0.044 C 
ATOM     19  C   UNL     1      12.984 -20.394 -47.502  1.00  0.00     0.045 C 
ENDBRANCH   3  12
ENDBRANCH   1   2
BRANCH   1  20
ATOM     20  C   UNL     1      12.380 -24.972 -44.597  1.00  0.00     0.265 C 
BRANCH  20  21
ATOM     21  N   UNL     1      11.157 -25.200 -45.409  1.00  0.00    -0.357 N 
ATOM     22  H   UNL     1      10.389 -24.591 -45.092  1.00  0.00     0.344 HD
ATOM     23  H   UNL     1      10.822 -26.169 -45.347  1.00  0.00     0.344 HD
ATOM     24  H   UNL     1      11.301 -24.980 -46.406  1.00  0.00     0.344 HD
ENDBRANCH  20  21
ENDBRANCH   1  20
TORSDOF 4
ENDMDL
MODEL 6
REMARK VINA RESULT:    -6.815      2.191      6.544
REMARK INTER + INTRA:          -8.488
REMARK INTER:                  -7.687
REMARK INTRA:                  -0.801
REMARK UNBOUND:                -0.279
REMARK SMILES Cc1ccc(C)c(-c2nc3cccc(C)n3c2CC[NH3+])c1
REMARK SMILES IDX 18 1 17 2 8 3 9 4 10 5 16 6 11 7 14 8 12 9 13 10 15 11 7 12
REMARK SMILES IDX 2 13 3 14 21 15 4 16 5 17 1 18 6 19 19 20 20 21
REMARK H PARENT 20 22 20 23 20 24
ROOT
ATOM      1  C   UNL     1      15.918 -22.682 -43.458  1.00  0.00     0.118 C 
ENDROOT
BRANCH   1   2
ATOM      2  C   UNL     1      14.997 -23.813 -43.808  1.00  0.00     0.056 A 
ATOM      3  C   UNL     1      14.506 -24.824 -42.986  1.00  0.00     0.093 A 
ATOM      4  N   UNL     1      13.574 -25.575 -43.625  1.00  0.00    -0.228 NA
ATOM      5  C   UNL     1      13.541 -25.133 -44.859  1.00  0.00     0.137 A 
ATOM      6  N   UNL     1      14.412 -24.051 -45.060  1.00  0.00    -0.300 N 
ATOM      7  C   UNL     1      12.758 -25.588 -45.953  1.00  0.00     0.048 C 
ATOM      8  C   UNL     1      14.533 -23.417 -46.326  1.00  0.00     0.021 C 
ATOM      9  C   UNL     1      12.864 -24.984 -47.146  1.00  0.00     0.006 C 
ATOM     10  C   UNL     1      13.773 -23.874 -47.344  1.00  0.00     0.022 C 
ATOM     11  C   UNL     1      15.481 -22.287 -46.580  1.00  0.00     0.065 C 
BRANCH   3  12
ATOM     12  C   UNL     1      14.813 -25.012 -41.575  1.00  0.00     0.005 A 
ATOM     13  C   UNL     1      14.225 -24.574 -39.242  1.00  0.00    -0.050 A 
ATOM     14  C   UNL     1      15.271 -25.405 -38.835  1.00  0.00     0.004 A 
ATOM     15  C   UNL     1      14.019 -24.366 -40.611  1.00  0.00     0.014 A 
ATOM     16  C   UNL     1      16.094 -26.021 -39.780  1.00  0.00     0.004 A 
ATOM     17  C   UNL     1      15.879 -25.837 -41.156  1.00  0.00    -0.042 A 
ATOM     18  C   UNL     1      13.402 -23.837 -38.226  1.00  0.00     0.044 C 
ATOM     19  C   UNL     1      16.851 -26.462 -42.122  1.00  0.00     0.045 C 
ENDBRANCH   3  12
ENDBRANCH   1   2
BRANCH   1  20
ATOM     20  C   UNL     1      17.377 -23.132 -43.317  1.00  0.00     0.265 C 
BRANCH  20  21
ATOM     21  N   UNL     1      17.835 -23.864 -44.526  1.00  0.00    -0.357 N 
ATOM     22  H   UNL     1      17.744 -23.274 -45.366  1.00  0.00     0.344 HD
ATOM     23  H   UNL     1      17.292 -24.718 -44.695  1.00  0.00     0.344 HD
ATOM     24  H   UNL     1      18.830 -24.128 -44.471  1.00  0.00     0.344 HD
ENDBRANCH  20  21
ENDBRANCH   1  20
TORSDOF 4
ENDMDL
MODEL 7
REMARK VINA RESULT:    -6.727      1.785      6.210
REMARK INTER + INTRA:          -8.382
REMARK INTER:                  -7.870
REMARK INTRA:                  -0.513
REMARK UNBOUND:                -0.279
REMARK SMILES Cc1ccc(C)c(-c2nc3cccc(C)n3c2CC[NH3+])c1
REMARK SMILES IDX 18 1 17 2 8 3 9 4 10 5 16 6 11 7 14 8 12 9 13 10 15 11 7 12
REMARK SMILES IDX 2 13 3 14 21 15 4 16 5 17 1 18 6 19 19 20 20 21
REMARK H PARENT 20 22 20 23 20 24
ROOT
ATOM      1  C   UNL     1      13.490 -25.684 -46.494  1.00  0.00     0.118 C 
ENDROOT
BRANCH   1   2
ATOM      2  C   UNL     1      13.143 -24.229 -46.595  1.00  0.00     0.056 A 
ATOM      3  C   UNL     1      13.393 -23.207 -45.683  1.00  0.00     0.093 A 
ATOM      4  N   UNL     1      13.068 -21.993 -46.195  1.00  0.00    -0.228 NA
ATOM      5  C   UNL     1      12.521 -22.230 -47.363  1.00  0.00     0.137 A 
ATOM      6  N   UNL     1      12.511 -23.598 -47.677  1.00  0.00    -0.300 N 
ATOM      7  C   UNL     1      11.981 -21.313 -48.302  1.00  0.00     0.048 C 
ATOM      8  C   UNL     1      11.965 -24.079 -48.898  1.00  0.00     0.021 C 
ATOM      9  C   UNL     1      11.475 -21.764 -49.460  1.00  0.00     0.006 C 
ATOM     10  C   UNL     1      11.460 -23.178 -49.769  1.00  0.00     0.022 C 
ATOM     11  C   UNL     1      11.904 -25.534 -49.243  1.00  0.00     0.065 C 
BRANCH   3  12
ATOM     12  C   UNL     1      14.047 -23.348 -44.389  1.00  0.00     0.005 A 
ATOM     13  C   UNL     1      13.939 -24.145 -42.080  1.00  0.00    -0.050 A 
ATOM     14  C   UNL     1      15.265 -23.752 -41.895  1.00  0.00     0.004 A 
ATOM     15  C   UNL     1      13.332 -23.919 -43.321  1.00  0.00     0.014 A 
ATOM     16  C   UNL     1      15.975 -23.146 -42.933  1.00  0.00     0.004 A 
ATOM     17  C   UNL     1      15.382 -22.937 -44.189  1.00  0.00    -0.042 A 
ATOM     18  C   UNL     1      13.147 -24.708 -40.935  1.00  0.00     0.044 C 
ATOM     19  C   UNL     1      16.174 -22.205 -45.242  1.00  0.00     0.045 C 
ENDBRANCH   3  12
ENDBRANCH   1   2
BRANCH   1  20
ATOM     20  C   UNL     1      12.515 -26.462 -45.604  1.00  0.00     0.265 C 
BRANCH  20  21
ATOM     21  N   UNL     1      11.146 -25.888 -45.672  1.00  0.00    -0.357 N 
ATOM     22  H   UNL     1      10.445 -26.630 -45.808  1.00  0.00     0.344 HD
ATOM     23  H   UNL     1      11.039 -25.224 -46.448  1.00  0.00     0.344 HD
ATOM     24  H   UNL     1      10.881 -25.402 -44.802  1.00  0.00     0.344 HD
ENDBRANCH  20  21
ENDBRANCH   1  20
TORSDOF 4
ENDMDL
MODEL 8
REMARK VINA RESULT:    -6.526     23.079     24.781
REMARK INTER + INTRA:          -8.141
REMARK INTER:                  -7.353
REMARK INTRA:                  -0.788
REMARK UNBOUND:                -0.279
REMARK SMILES Cc1ccc(C)c(-c2nc3cccc(C)n3c2CC[NH3+])c1
REMARK SMILES IDX 18 1 17 2 8 3 9 4 10 5 16 6 11 7 14 8 12 9 13 10 15 11 7 12
REMARK SMILES IDX 2 13 3 14 21 15 4 16 5 17 1 18 6 19 19 20 20 21
REMARK H PARENT 20 22 20 23 20 24
ROOT
ATOM      1  C   UNL     1       0.027  -4.798 -33.426  1.00  0.00     0.118 C 
ENDROOT
BRANCH   1   2
ATOM      2  C   UNL     1       1.347  -5.452 -33.143  1.00  0.00     0.056 A 
ATOM      3  C   UNL     1       1.625  -6.798 -32.924  1.00  0.00     0.093 A 
ATOM      4  N   UNL     1       2.960  -7.026 -32.856  1.00  0.00    -0.228 NA
ATOM      5  C   UNL     1       3.530  -5.847 -32.920  1.00  0.00     0.137 A 
ATOM      6  N   UNL     1       2.595  -4.813 -33.078  1.00  0.00    -0.300 N 
ATOM      7  C   UNL     1       4.909  -5.515 -32.866  1.00  0.00     0.048 C 
ATOM      8  C   UNL     1       2.996  -3.453 -33.171  1.00  0.00     0.021 C 
ATOM      9  C   UNL     1       5.290  -4.232 -32.963  1.00  0.00     0.006 C 
ATOM     10  C   UNL     1       4.316  -3.172 -33.116  1.00  0.00     0.022 C 
ATOM     11  C   UNL     1       2.020  -2.326 -33.301  1.00  0.00     0.065 C 
BRANCH   3  12
ATOM     12  C   UNL     1       0.655  -7.885 -32.902  1.00  0.00     0.005 A 
ATOM     13  C   UNL     1      -0.624  -9.559 -34.145  1.00  0.00    -0.050 A 
ATOM     14  C   UNL     1      -1.129 -10.050 -32.940  1.00  0.00     0.004 A 
ATOM     15  C   UNL     1       0.248  -8.464 -34.117  1.00  0.00     0.014 A 
ATOM     16  C   UNL     1      -0.767  -9.459 -31.727  1.00  0.00     0.004 A 
ATOM     17  C   UNL     1       0.125  -8.376 -31.689  1.00  0.00    -0.042 A 
ATOM     18  C   UNL     1      -1.087 -10.131 -35.452  1.00  0.00     0.044 C 
ATOM     19  C   UNL     1       0.413  -7.732 -30.357  1.00  0.00     0.045 C 
ENDBRANCH   3  12
ENDBRANCH   1   2
BRANCH   1  20
ATOM     20  C   UNL     1      -0.296  -4.748 -34.923  1.00  0.00     0.265 C 
BRANCH  20  21
ATOM     21  N   UNL     1      -1.451  -5.623 -35.255  1.00  0.00    -0.357 N 
ATOM     22  H   UNL     1      -1.356  -6.541 -34.797  1.00  0.00     0.344 HD
ATOM     23  H   UNL     1      -1.534  -5.794 -36.264  1.00  0.00     0.344 HD
ATOM     24  H   UNL     1      -2.346  -5.232 -34.926  1.00  0.00     0.344 HD
ENDBRANCH  20  21
ENDBRANCH   1  20
TORSDOF 4
ENDMDL
MODEL 9
REMARK VINA RESULT:    -6.317      1.880      6.123
REMARK INTER + INTRA:          -7.889
REMARK INTER:                  -7.213
REMARK INTRA:                  -0.676
REMARK UNBOUND:                -0.279
REMARK SMILES Cc1ccc(C)c(-c2nc3cccc(C)n3c2CC[NH3+])c1
REMARK SMILES IDX 18 1 17 2 8 3 9 4 10 5 16 6 11 7 14 8 12 9 13 10 15 11 7 12
REMARK SMILES IDX 2 13 3 14 21 15 4 16 5 17 1 18 6 19 19 20 20 21
REMARK H PARENT 20 22 20 23 20 24
ROOT
ATOM      1  C   UNL     1      15.598 -22.488 -44.597  1.00  0.00     0.118 C 
ENDROOT
BRANCH   1   2
ATOM      2  C   UNL     1      14.613 -23.578 -44.899  1.00  0.00     0.056 A 
ATOM      3  C   UNL     1      14.144 -24.587 -44.062  1.00  0.00     0.093 A 
ATOM      4  N   UNL     1      13.142 -25.291 -44.646  1.00  0.00    -0.228 NA
ATOM      5  C   UNL     1      13.039 -24.824 -45.867  1.00  0.00     0.137 A 
ATOM      6  N   UNL     1      13.933 -23.771 -46.111  1.00  0.00    -0.300 N 
ATOM      7  C   UNL     1      12.164 -25.230 -46.909  1.00  0.00     0.048 C 
ATOM      8  C   UNL     1      13.988 -23.117 -47.371  1.00  0.00     0.021 C 
ATOM      9  C   UNL     1      12.208 -24.607 -48.096  1.00  0.00     0.006 C 
ATOM     10  C   UNL     1      13.141 -23.527 -48.340  1.00  0.00     0.022 C 
ATOM     11  C   UNL     1      14.957 -22.017 -47.673  1.00  0.00     0.065 C 
BRANCH   3  12
ATOM     12  C   UNL     1      14.542 -24.813 -42.680  1.00  0.00     0.005 A 
ATOM     13  C   UNL     1      14.050 -24.533 -40.300  1.00  0.00    -0.050 A 
ATOM     14  C   UNL     1      15.181 -25.291 -39.990  1.00  0.00     0.004 A 
ATOM     15  C   UNL     1      13.753 -24.280 -41.645  1.00  0.00     0.014 A 
ATOM     16  C   UNL     1      15.997 -25.793 -41.005  1.00  0.00     0.004 A 
ATOM     17  C   UNL     1      15.692 -25.564 -42.357  1.00  0.00    -0.042 A 
ATOM     18  C   UNL     1      13.228 -23.915 -39.208  1.00  0.00     0.044 C 
ATOM     19  C   UNL     1      16.657 -26.062 -43.403  1.00  0.00     0.045 C 
ENDBRANCH   3  12
ENDBRANCH   1   2
BRANCH   1  20
ATOM     20  C   UNL     1      17.032 -22.865 -44.987  1.00  0.00     0.265 C 
BRANCH  20  21
ATOM     21  N   UNL     1      17.953 -22.756 -43.826  1.00  0.00    -0.357 N 
ATOM     22  H   UNL     1      18.261 -21.782 -43.694  1.00  0.00     0.344 HD
ATOM     23  H   UNL     1      18.798 -23.328 -43.943  1.00  0.00     0.344 HD
ATOM     24  H   UNL     1      17.503 -23.034 -42.941  1.00  0.00     0.344 HD
ENDBRANCH  20  21
ENDBRANCH   1  20
TORSDOF 4
ENDMDL
