MODEL 1
REMARK VINA RESULT:    -8.121      0.000      0.000
REMARK INTER + INTRA:         -13.676
REMARK INTER:                 -12.632
REMARK INTRA:                  -1.044
REMARK UNBOUND:                -1.044
REMARK SMILES CCOC(=O)c1cc(-c2ccc(OC)c(S(=O)(=O)[N-]c3ccc(S(N)(=O)=O)cc3)c2)on1
REMARK SMILES IDX 9 1 10 2 11 3 12 4 15 5 30 6 8 7 6 8 7 9 32 10 31 11 4 12
REMARK SMILES IDX 5 13 3 14 2 15 1 16 16 17 17 18 18 19 19 20 20 21 21 22
REMARK SMILES IDX 29 23 22 24 28 25 23 26 24 27 26 28 27 29 25 30 13 33 14 34
REMARK H PARENT 25 31 25 32
ROOT
ATOM      1  C   UNL     1      15.056 -23.208 -44.770  1.00  0.00     0.022 A 
ATOM      2  C   UNL     1      15.781 -22.377 -45.630  1.00  0.00     0.016 A 
ATOM      3  C   UNL     1      15.327 -22.142 -46.932  1.00  0.00     0.048 A 
ATOM      4  C   UNL     1      14.142 -22.723 -47.399  1.00  0.00     0.136 A 
ATOM      5  C   UNL     1      13.401 -23.541 -46.539  1.00  0.00     0.095 A 
ATOM      6  C   UNL     1      13.893 -23.819 -45.251  1.00  0.00     0.034 A 
ENDROOT
BRANCH   1   7
ATOM      7  C   UNL     1      15.468 -23.380 -43.387  1.00  0.00     0.167 A 
ATOM      8  C   UNL     1      15.968 -23.882 -41.285  1.00  0.00     0.192 A 
ATOM      9  C   UNL     1      15.095 -24.208 -42.358  1.00  0.00     0.090 A 
ATOM     10  N   UNL     1      16.831 -22.921 -41.659  1.00  0.00    -0.072 NA
ATOM     11  O   UNL     1      16.505 -22.602 -42.963  1.00  0.00    -0.355 OA
BRANCH   8  12
ATOM     12  C   UNL     1      16.002 -24.464 -39.944  1.00  0.00     0.360 C 
ATOM     13  O   UNL     1      16.896 -24.275 -39.125  1.00  0.00    -0.244 OA
BRANCH  12  14
ATOM     14  O   UNL     1      14.909 -25.256 -39.705  1.00  0.00    -0.461 OA
BRANCH  14  15
ATOM     15  C   UNL     1      14.199 -24.990 -38.488  1.00  0.00     0.230 C 
ATOM     16  C   UNL     1      13.179 -23.888 -38.705  1.00  0.00     0.049 C 
ENDBRANCH  14  15
ENDBRANCH  12  14
ENDBRANCH   8  12
ENDBRANCH   1   7
BRANCH   5  17
ATOM     17  S   UNL     1      11.728 -24.155 -46.960  1.00  0.00     0.126 S 
ATOM     18  O   UNL     1      11.172 -24.335 -45.617  1.00  0.00    -0.240 OA
ATOM     19  O   UNL     1      12.010 -25.394 -47.682  1.00  0.00    -0.240 OA
BRANCH  17  20
ATOM     20  N   UNL     1      10.931 -23.063 -47.824  1.00  0.00    -0.573 NA
BRANCH  20  21
ATOM     21  C   UNL     1      10.182 -23.333 -48.925  1.00  0.00    -0.128 A 
ATOM     22  C   UNL     1      10.613 -23.182 -50.255  1.00  0.00    -0.014 A 
ATOM     23  C   UNL     1       8.852 -23.748 -48.721  1.00  0.00    -0.014 A 
ATOM     24  C   UNL     1       9.733 -23.336 -51.330  1.00  0.00     0.020 A 
ATOM     25  C   UNL     1       7.963 -23.911 -49.783  1.00  0.00     0.020 A 
ATOM     26  C   UNL     1       8.403 -23.667 -51.081  1.00  0.00     0.082 A 
BRANCH  26  27
ATOM     27  S   UNL     1       7.242 -23.753 -52.406  1.00  0.00     0.238 S 
ATOM     28  O   UNL     1       7.948 -23.709 -53.668  1.00  0.00    -0.207 OA
ATOM     29  O   UNL     1       6.271 -24.782 -52.112  1.00  0.00    -0.207 OA
BRANCH  27  30
ATOM     30  N   UNL     1       6.465 -22.260 -52.290  1.00  0.00    -0.225 NA
ATOM     31  H   UNL     1       5.622 -22.195 -52.873  1.00  0.00     0.137 HD
ATOM     32  H   UNL     1       6.220 -22.097 -51.314  1.00  0.00     0.137 HD
ENDBRANCH  27  30
ENDBRANCH  26  27
ENDBRANCH  20  21
ENDBRANCH  17  20
ENDBRANCH   5  17
BRANCH   4  33
ATOM     33  O   UNL     1      13.824 -22.362 -48.680  1.00  0.00    -0.495 OA
ATOM     34  C   UNL     1      13.657 -20.955 -48.843  1.00  0.00     0.278 C 
ENDBRANCH   4  33
TORSDOF 10
ENDMDL
MODEL 2
REMARK VINA RESULT:    -7.476      4.380      6.344
REMARK INTER + INTRA:         -12.672
REMARK INTER:                 -12.316
REMARK INTRA:                  -0.356
REMARK UNBOUND:                -1.044
REMARK SMILES CCOC(=O)c1cc(-c2ccc(OC)c(S(=O)(=O)[N-]c3ccc(S(N)(=O)=O)cc3)c2)on1
REMARK SMILES IDX 9 1 10 2 11 3 12 4 15 5 30 6 8 7 6 8 7 9 32 10 31 11 4 12
REMARK SMILES IDX 5 13 3 14 2 15 1 16 16 17 17 18 18 19 19 20 20 21 21 22
REMARK SMILES IDX 29 23 22 24 28 25 23 26 24 27 26 28 27 29 25 30 13 33 14 34
REMARK H PARENT 25 31 25 32
ROOT
ATOM      1  C   UNL     1      13.795 -23.724 -47.299  1.00  0.00     0.022 A 
ATOM      2  C   UNL     1      13.212 -24.937 -47.679  1.00  0.00     0.016 A 
ATOM      3  C   UNL     1      12.289 -24.978 -48.728  1.00  0.00     0.048 A 
ATOM      4  C   UNL     1      11.931 -23.816 -49.422  1.00  0.00     0.136 A 
ATOM      5  C   UNL     1      12.522 -22.600 -49.060  1.00  0.00     0.095 A 
ATOM      6  C   UNL     1      13.407 -22.557 -47.968  1.00  0.00     0.034 A 
ENDROOT
BRANCH   1   7
ATOM      7  C   UNL     1      14.827 -23.687 -46.277  1.00  0.00     0.167 A 
ATOM      8  C   UNL     1      16.237 -23.463 -44.580  1.00  0.00     0.192 A 
ATOM      9  C   UNL     1      15.101 -22.878 -45.203  1.00  0.00     0.090 A 
ATOM     10  N   UNL     1      16.611 -24.575 -45.237  1.00  0.00    -0.072 NA
ATOM     11  O   UNL     1      15.739 -24.701 -46.301  1.00  0.00    -0.355 OA
BRANCH   8  12
ATOM     12  C   UNL     1      16.950 -22.998 -43.391  1.00  0.00     0.360 C 
ATOM     13  O   UNL     1      18.110 -22.597 -43.386  1.00  0.00    -0.244 OA
BRANCH  12  14
ATOM     14  O   UNL     1      16.167 -23.067 -42.268  1.00  0.00    -0.461 OA
BRANCH  14  15
ATOM     15  C   UNL     1      15.782 -24.385 -41.854  1.00  0.00     0.230 C 
ATOM     16  C   UNL     1      14.353 -24.379 -41.345  1.00  0.00     0.049 C 
ENDBRANCH  14  15
ENDBRANCH  12  14
ENDBRANCH   8  12
ENDBRANCH   1   7
BRANCH   5  17
ATOM     17  S   UNL     1      12.313 -21.070 -50.044  1.00  0.00     0.126 S 
ATOM     18  O   UNL     1      12.971 -20.103 -49.163  1.00  0.00    -0.240 OA
ATOM     19  O   UNL     1      10.860 -20.937 -50.130  1.00  0.00    -0.240 OA
BRANCH  17  20
ATOM     20  N   UNL     1      13.040 -21.214 -51.466  1.00  0.00    -0.573 NA
BRANCH  20  21
ATOM     21  C   UNL     1      13.794 -20.253 -52.060  1.00  0.00    -0.128 A 
ATOM     22  C   UNL     1      14.700 -20.468 -53.114  1.00  0.00    -0.014 A 
ATOM     23  C   UNL     1      13.699 -18.944 -51.547  1.00  0.00    -0.014 A 
ATOM     24  C   UNL     1      15.548 -19.453 -53.566  1.00  0.00     0.020 A 
ATOM     25  C   UNL     1      14.534 -17.919 -51.992  1.00  0.00     0.020 A 
ATOM     26  C   UNL     1      15.481 -18.193 -52.977  1.00  0.00     0.082 A 
BRANCH  26  27
ATOM     27  S   UNL     1      16.616 -16.927 -53.445  1.00  0.00     0.238 S 
ATOM     28  O   UNL     1      17.734 -17.518 -54.147  1.00  0.00    -0.207 OA
ATOM     29  O   UNL     1      15.875 -15.813 -53.993  1.00  0.00    -0.207 OA
BRANCH  27  30
ATOM     30  N   UNL     1      17.242 -16.447 -51.954  1.00  0.00    -0.225 NA
ATOM     31  H   UNL     1      17.709 -15.533 -51.985  1.00  0.00     0.137 HD
ATOM     32  H   UNL     1      16.482 -16.421 -51.275  1.00  0.00     0.137 HD
ENDBRANCH  27  30
ENDBRANCH  26  27
ENDBRANCH  20  21
ENDBRANCH  17  20
ENDBRANCH   5  17
BRANCH   4  33
ATOM     33  O   UNL     1      11.044 -24.036 -50.439  1.00  0.00    -0.495 OA
ATOM     34  C   UNL     1       9.707 -24.238 -49.985  1.00  0.00     0.278 C 
ENDBRANCH   4  33
TORSDOF 10
ENDMDL
MODEL 3
REMARK VINA RESULT:    -7.338      4.278      9.798
REMARK INTER + INTRA:         -12.457
REMARK INTER:                 -11.622
REMARK INTRA:                  -0.835
REMARK UNBOUND:                -1.044
REMARK SMILES CCOC(=O)c1cc(-c2ccc(OC)c(S(=O)(=O)[N-]c3ccc(S(N)(=O)=O)cc3)c2)on1
REMARK SMILES IDX 9 1 10 2 11 3 12 4 15 5 30 6 8 7 6 8 7 9 32 10 31 11 4 12
REMARK SMILES IDX 5 13 3 14 2 15 1 16 16 17 17 18 18 19 19 20 20 21 21 22
REMARK SMILES IDX 29 23 22 24 28 25 23 26 24 27 26 28 27 29 25 30 13 33 14 34
REMARK H PARENT 25 31 25 32
ROOT
ATOM      1  C   UNL     1       9.804 -23.728 -48.638  1.00  0.00     0.022 A 
ATOM      2  C   UNL     1      10.159 -24.544 -47.559  1.00  0.00     0.016 A 
ATOM      3  C   UNL     1      11.403 -24.391 -46.940  1.00  0.00     0.048 A 
ATOM      4  C   UNL     1      12.314 -23.421 -47.376  1.00  0.00     0.136 A 
ATOM      5  C   UNL     1      11.960 -22.589 -48.444  1.00  0.00     0.095 A 
ATOM      6  C   UNL     1      10.732 -22.786 -49.099  1.00  0.00     0.034 A 
ENDROOT
BRANCH   1   7
ATOM      7  C   UNL     1       8.478 -23.813 -49.225  1.00  0.00     0.167 A 
ATOM      8  C   UNL     1       6.369 -24.032 -49.877  1.00  0.00     0.192 A 
ATOM      9  C   UNL     1       7.301 -24.429 -48.880  1.00  0.00     0.090 A 
ATOM     10  N   UNL     1       6.954 -23.206 -50.762  1.00  0.00    -0.072 NA
ATOM     11  O   UNL     1       8.270 -23.085 -50.359  1.00  0.00    -0.355 OA
BRANCH   8  12
ATOM     12  C   UNL     1       4.961 -24.408 -49.994  1.00  0.00     0.360 C 
ATOM     13  O   UNL     1       4.224 -24.653 -49.044  1.00  0.00    -0.244 OA
BRANCH  12  14
ATOM     14  O   UNL     1       4.555 -24.460 -51.302  1.00  0.00    -0.461 OA
BRANCH  14  15
ATOM     15  C   UNL     1       3.436 -23.629 -51.643  1.00  0.00     0.230 C 
ATOM     16  C   UNL     1       3.830 -22.635 -52.720  1.00  0.00     0.049 C 
ENDBRANCH  14  15
ENDBRANCH  12  14
ENDBRANCH   8  12
ENDBRANCH   1   7
BRANCH   5  17
ATOM     17  S   UNL     1      12.965 -21.141 -48.942  1.00  0.00     0.126 S 
ATOM     18  O   UNL     1      14.307 -21.725 -48.883  1.00  0.00    -0.240 OA
ATOM     19  O   UNL     1      12.669 -20.167 -47.894  1.00  0.00    -0.240 OA
BRANCH  17  20
ATOM     20  N   UNL     1      12.559 -20.657 -50.416  1.00  0.00    -0.573 NA
BRANCH  20  21
ATOM     21  C   UNL     1      13.334 -19.892 -51.228  1.00  0.00    -0.128 A 
ATOM     22  C   UNL     1      13.751 -20.249 -52.523  1.00  0.00    -0.014 A 
ATOM     23  C   UNL     1      13.798 -18.665 -50.716  1.00  0.00    -0.014 A 
ATOM     24  C   UNL     1      14.670 -19.472 -53.235  1.00  0.00     0.020 A 
ATOM     25  C   UNL     1      14.711 -17.876 -51.416  1.00  0.00     0.020 A 
ATOM     26  C   UNL     1      15.170 -18.307 -52.659  1.00  0.00     0.082 A 
BRANCH  26  27
ATOM     27  S   UNL     1      16.417 -17.369 -53.480  1.00  0.00     0.238 S 
ATOM     28  O   UNL     1      17.207 -18.247 -54.315  1.00  0.00    -0.207 OA
ATOM     29  O   UNL     1      15.826 -16.154 -53.995  1.00  0.00    -0.207 OA
BRANCH  27  30
ATOM     30  N   UNL     1      17.437 -16.947 -52.205  1.00  0.00    -0.225 NA
ATOM     31  H   UNL     1      18.431 -16.945 -52.463  1.00  0.00     0.137 HD
ATOM     32  H   UNL     1      17.169 -16.023 -51.867  1.00  0.00     0.137 HD
ENDBRANCH  27  30
ENDBRANCH  26  27
ENDBRANCH  20  21
ENDBRANCH  17  20
ENDBRANCH   5  17
BRANCH   4  33
ATOM     33  O   UNL     1      13.466 -23.382 -46.641  1.00  0.00    -0.495 OA
ATOM     34  C   UNL     1      13.261 -22.948 -45.297  1.00  0.00     0.278 C 
ENDBRANCH   4  33
TORSDOF 10
ENDMDL
MODEL 4
REMARK VINA RESULT:    -7.243      2.567     10.747
REMARK INTER + INTRA:         -12.310
REMARK INTER:                 -11.376
REMARK INTRA:                  -0.933
REMARK UNBOUND:                -1.044
REMARK SMILES CCOC(=O)c1cc(-c2ccc(OC)c(S(=O)(=O)[N-]c3ccc(S(N)(=O)=O)cc3)c2)on1
REMARK SMILES IDX 9 1 10 2 11 3 12 4 15 5 30 6 8 7 6 8 7 9 32 10 31 11 4 12
REMARK SMILES IDX 5 13 3 14 2 15 1 16 16 17 17 18 18 19 19 20 20 21 21 22
REMARK SMILES IDX 29 23 22 24 28 25 23 26 24 27 26 28 27 29 25 30 13 33 14 34
REMARK H PARENT 25 31 25 32
ROOT
ATOM      1  C   UNL     1      10.897 -22.624 -49.658  1.00  0.00     0.022 A 
ATOM      2  C   UNL     1      11.883 -21.697 -50.008  1.00  0.00     0.016 A 
ATOM      3  C   UNL     1      12.921 -21.403 -49.118  1.00  0.00     0.048 A 
ATOM      4  C   UNL     1      13.001 -22.028 -47.868  1.00  0.00     0.136 A 
ATOM      5  C   UNL     1      12.027 -22.970 -47.517  1.00  0.00     0.095 A 
ATOM      6  C   UNL     1      10.955 -23.219 -48.392  1.00  0.00     0.034 A 
ENDROOT
BRANCH   1   7
ATOM      7  C   UNL     1       9.870 -23.008 -50.612  1.00  0.00     0.167 A 
ATOM      8  C   UNL     1       8.173 -23.368 -51.994  1.00  0.00     0.192 A 
ATOM      9  C   UNL     1       8.568 -22.639 -50.840  1.00  0.00     0.090 A 
ATOM     10  N   UNL     1       9.193 -24.120 -52.445  1.00  0.00    -0.072 NA
ATOM     11  O   UNL     1      10.242 -23.903 -51.572  1.00  0.00    -0.355 OA
BRANCH   8  12
ATOM     12  C   UNL     1       6.875 -23.354 -52.667  1.00  0.00     0.360 C 
ATOM     13  O   UNL     1       6.485 -24.218 -53.446  1.00  0.00    -0.244 OA
BRANCH  12  14
ATOM     14  O   UNL     1       6.137 -22.250 -52.327  1.00  0.00    -0.461 OA
BRANCH  14  15
ATOM     15  C   UNL     1       4.835 -22.511 -51.785  1.00  0.00     0.230 C 
ATOM     16  C   UNL     1       3.764 -21.934 -52.693  1.00  0.00     0.049 C 
ENDBRANCH  14  15
ENDBRANCH  12  14
ENDBRANCH   8  12
ENDBRANCH   1   7
BRANCH   5  17
ATOM     17  S   UNL     1      12.162 -24.017 -46.020  1.00  0.00     0.126 S 
ATOM     18  O   UNL     1      13.189 -24.964 -46.457  1.00  0.00    -0.240 OA
ATOM     19  O   UNL     1      10.818 -24.576 -45.895  1.00  0.00    -0.240 OA
BRANCH  17  20
ATOM     20  N   UNL     1      12.622 -23.136 -44.760  1.00  0.00    -0.573 NA
BRANCH  20  21
ATOM     21  C   UNL     1      13.205 -23.626 -43.636  1.00  0.00    -0.128 A 
ATOM     22  C   UNL     1      12.529 -24.272 -42.586  1.00  0.00    -0.014 A 
ATOM     23  C   UNL     1      14.592 -23.428 -43.484  1.00  0.00    -0.014 A 
ATOM     24  C   UNL     1      13.180 -24.611 -41.396  1.00  0.00     0.020 A 
ATOM     25  C   UNL     1      15.257 -23.766 -42.306  1.00  0.00     0.020 A 
ATOM     26  C   UNL     1      14.535 -24.323 -41.253  1.00  0.00     0.082 A 
BRANCH  26  27
ATOM     27  S   UNL     1      15.356 -24.632 -39.723  1.00  0.00     0.238 S 
ATOM     28  O   UNL     1      15.288 -26.044 -39.417  1.00  0.00    -0.207 OA
ATOM     29  O   UNL     1      16.608 -23.908 -39.710  1.00  0.00    -0.207 OA
BRANCH  27  30
ATOM     30  N   UNL     1      14.322 -23.894 -38.614  1.00  0.00    -0.225 NA
ATOM     31  H   UNL     1      14.782 -23.649 -37.729  1.00  0.00     0.137 HD
ATOM     32  H   UNL     1      13.932 -23.055 -39.041  1.00  0.00     0.137 HD
ENDBRANCH  27  30
ENDBRANCH  26  27
ENDBRANCH  20  21
ENDBRANCH  17  20
ENDBRANCH   5  17
BRANCH   4  33
ATOM     33  O   UNL     1      14.094 -21.654 -47.137  1.00  0.00    -0.495 OA
ATOM     34  C   UNL     1      15.293 -22.316 -47.539  1.00  0.00     0.278 C 
ENDBRANCH   4  33
TORSDOF 10
ENDMDL
MODEL 5
REMARK VINA RESULT:    -7.194      3.151     10.642
REMARK INTER + INTRA:         -12.234
REMARK INTER:                 -11.102
REMARK INTRA:                  -1.132
REMARK UNBOUND:                -1.044
REMARK SMILES CCOC(=O)c1cc(-c2ccc(OC)c(S(=O)(=O)[N-]c3ccc(S(N)(=O)=O)cc3)c2)on1
REMARK SMILES IDX 9 1 10 2 11 3 12 4 15 5 30 6 8 7 6 8 7 9 32 10 31 11 4 12
REMARK SMILES IDX 5 13 3 14 2 15 1 16 16 17 17 18 18 19 19 20 20 21 21 22
REMARK SMILES IDX 29 23 22 24 28 25 23 26 24 27 26 28 27 29 25 30 13 33 14 34
REMARK H PARENT 25 31 25 32
ROOT
ATOM      1  C   UNL     1       9.097 -24.147 -49.137  1.00  0.00     0.022 A 
ATOM      2  C   UNL     1       9.100 -25.450 -48.630  1.00  0.00     0.016 A 
ATOM      3  C   UNL     1      10.162 -25.895 -47.836  1.00  0.00     0.048 A 
ATOM      4  C   UNL     1      11.236 -25.051 -47.527  1.00  0.00     0.136 A 
ATOM      5  C   UNL     1      11.231 -23.740 -48.016  1.00  0.00     0.095 A 
ATOM      6  C   UNL     1      10.190 -23.317 -48.860  1.00  0.00     0.034 A 
ENDROOT
BRANCH   1   7
ATOM      7  C   UNL     1       7.953 -23.646 -49.881  1.00  0.00     0.167 A 
ATOM      8  C   UNL     1       6.054 -22.979 -50.813  1.00  0.00     0.192 A 
ATOM      9  C   UNL     1       6.598 -23.862 -49.841  1.00  0.00     0.090 A 
ATOM     10  N   UNL     1       7.032 -22.258 -51.391  1.00  0.00    -0.072 NA
ATOM     11  O   UNL     1       8.213 -22.689 -50.817  1.00  0.00    -0.355 OA
BRANCH   8  12
ATOM     12  C   UNL     1       4.651 -22.805 -51.186  1.00  0.00     0.360 C 
ATOM     13  O   UNL     1       4.183 -23.085 -52.285  1.00  0.00    -0.244 OA
BRANCH  12  14
ATOM     14  O   UNL     1       3.912 -22.284 -50.156  1.00  0.00    -0.461 OA
BRANCH  14  15
ATOM     15  C   UNL     1       2.651 -22.920 -49.908  1.00  0.00     0.230 C 
ATOM     16  C   UNL     1       2.812 -24.021 -48.877  1.00  0.00     0.049 C 
ENDBRANCH  14  15
ENDBRANCH  12  14
ENDBRANCH   8  12
ENDBRANCH   1   7
BRANCH   5  17
ATOM     17  S   UNL     1      12.455 -22.485 -47.483  1.00  0.00     0.126 S 
ATOM     18  O   UNL     1      12.181 -22.450 -46.045  1.00  0.00    -0.240 OA
ATOM     19  O   UNL     1      12.038 -21.294 -48.220  1.00  0.00    -0.240 OA
BRANCH  17  20
ATOM     20  N   UNL     1      13.944 -22.975 -47.822  1.00  0.00    -0.573 NA
BRANCH  20  21
ATOM     21  C   UNL     1      14.929 -23.173 -46.908  1.00  0.00    -0.128 A 
ATOM     22  C   UNL     1      15.192 -24.389 -46.251  1.00  0.00    -0.014 A 
ATOM     23  C   UNL     1      15.718 -22.063 -46.551  1.00  0.00    -0.014 A 
ATOM     24  C   UNL     1      16.126 -24.470 -45.213  1.00  0.00     0.020 A 
ATOM     25  C   UNL     1      16.658 -22.130 -45.522  1.00  0.00     0.020 A 
ATOM     26  C   UNL     1      16.828 -23.329 -44.834  1.00  0.00     0.082 A 
BRANCH  26  27
ATOM     27  S   UNL     1      17.924 -23.373 -43.454  1.00  0.00     0.238 S 
ATOM     28  O   UNL     1      17.268 -22.800 -42.299  1.00  0.00    -0.207 OA
ATOM     29  O   UNL     1      18.561 -24.670 -43.403  1.00  0.00    -0.207 OA
BRANCH  27  30
ATOM     30  N   UNL     1      19.094 -22.241 -43.897  1.00  0.00    -0.225 NA
ATOM     31  H   UNL     1      19.494 -22.413 -44.827  1.00  0.00     0.137 HD
ATOM     32  H   UNL     1      18.673 -21.312 -43.871  1.00  0.00     0.137 HD
ENDBRANCH  27  30
ENDBRANCH  26  27
ENDBRANCH  20  21
ENDBRANCH  17  20
ENDBRANCH   5  17
BRANCH   4  33
ATOM     33  O   UNL     1      12.170 -25.630 -46.713  1.00  0.00    -0.495 OA
ATOM     34  C   UNL     1      11.736 -25.758 -45.360  1.00  0.00     0.278 C 
ENDBRANCH   4  33
TORSDOF 10
ENDMDL
MODEL 6
REMARK VINA RESULT:    -7.185      2.764      4.011
REMARK INTER + INTRA:         -12.219
REMARK INTER:                 -11.571
REMARK INTRA:                  -0.648
REMARK UNBOUND:                -1.044
REMARK SMILES CCOC(=O)c1cc(-c2ccc(OC)c(S(=O)(=O)[N-]c3ccc(S(N)(=O)=O)cc3)c2)on1
REMARK SMILES IDX 9 1 10 2 11 3 12 4 15 5 30 6 8 7 6 8 7 9 32 10 31 11 4 12
REMARK SMILES IDX 5 13 3 14 2 15 1 16 16 17 17 18 18 19 19 20 20 21 21 22
REMARK SMILES IDX 29 23 22 24 28 25 23 26 24 27 26 28 27 29 25 30 13 33 14 34
REMARK H PARENT 25 31 25 32
ROOT
ATOM      1  C   UNL     1      12.946 -22.346 -47.545  1.00  0.00     0.022 A 
ATOM      2  C   UNL     1      13.598 -21.145 -47.838  1.00  0.00     0.016 A 
ATOM      3  C   UNL     1      13.499 -20.583 -49.114  1.00  0.00     0.048 A 
ATOM      4  C   UNL     1      12.747 -21.201 -50.120  1.00  0.00     0.136 A 
ATOM      5  C   UNL     1      12.077 -22.395 -49.830  1.00  0.00     0.095 A 
ATOM      6  C   UNL     1      12.226 -22.984 -48.562  1.00  0.00     0.034 A 
ENDROOT
BRANCH   1   7
ATOM      7  C   UNL     1      12.962 -22.887 -46.196  1.00  0.00     0.167 A 
ATOM      8  C   UNL     1      13.252 -23.652 -44.134  1.00  0.00     0.192 A 
ATOM      9  C   UNL     1      13.940 -23.305 -45.328  1.00  0.00     0.090 A 
ATOM     10  N   UNL     1      11.932 -23.435 -44.273  1.00  0.00    -0.072 NA
ATOM     11  O   UNL     1      11.756 -22.973 -45.564  1.00  0.00    -0.355 OA
BRANCH   8  12
ATOM     12  C   UNL     1      13.817 -24.165 -42.886  1.00  0.00     0.360 C 
ATOM     13  O   UNL     1      13.175 -24.358 -41.859  1.00  0.00    -0.244 OA
BRANCH  12  14
ATOM     14  O   UNL     1      15.162 -24.404 -42.997  1.00  0.00    -0.461 OA
BRANCH  14  15
ATOM     15  C   UNL     1      16.017 -23.509 -42.273  1.00  0.00     0.230 C 
ATOM     16  C   UNL     1      17.258 -23.194 -43.089  1.00  0.00     0.049 C 
ENDBRANCH  14  15
ENDBRANCH  12  14
ENDBRANCH   8  12
ENDBRANCH   1   7
BRANCH   5  17
ATOM     17  S   UNL     1      10.880 -23.160 -50.986  1.00  0.00     0.126 S 
ATOM     18  O   UNL     1      10.856 -24.529 -50.466  1.00  0.00    -0.240 OA
ATOM     19  O   UNL     1      11.537 -23.003 -52.282  1.00  0.00    -0.240 OA
BRANCH  17  20
ATOM     20  N   UNL     1       9.456 -22.429 -50.884  1.00  0.00    -0.573 NA
BRANCH  20  21
ATOM     21  C   UNL     1       8.258 -23.062 -50.784  1.00  0.00    -0.128 A 
ATOM     22  C   UNL     1       7.248 -23.045 -51.762  1.00  0.00    -0.014 A 
ATOM     23  C   UNL     1       7.984 -23.749 -49.586  1.00  0.00    -0.014 A 
ATOM     24  C   UNL     1       5.986 -23.595 -51.519  1.00  0.00     0.020 A 
ATOM     25  C   UNL     1       6.732 -24.309 -49.330  1.00  0.00     0.020 A 
ATOM     26  C   UNL     1       5.728 -24.194 -50.288  1.00  0.00     0.082 A 
BRANCH  26  27
ATOM     27  S   UNL     1       4.113 -24.793 -49.908  1.00  0.00     0.238 S 
ATOM     28  O   UNL     1       4.189 -26.195 -49.561  1.00  0.00    -0.207 OA
ATOM     29  O   UNL     1       3.446 -23.831 -49.059  1.00  0.00    -0.207 OA
BRANCH  27  30
ATOM     30  N   UNL     1       3.361 -24.758 -51.418  1.00  0.00    -0.225 NA
ATOM     31  H   UNL     1       2.777 -25.583 -51.600  1.00  0.00     0.137 HD
ATOM     32  H   UNL     1       2.791 -23.914 -51.477  1.00  0.00     0.137 HD
ENDBRANCH  27  30
ENDBRANCH  26  27
ENDBRANCH  20  21
ENDBRANCH  17  20
ENDBRANCH   5  17
BRANCH   4  33
ATOM     33  O   UNL     1      12.727 -20.503 -51.296  1.00  0.00    -0.495 OA
ATOM     34  C   UNL     1      13.513 -19.313 -51.257  1.00  0.00     0.278 C 
ENDBRANCH   4  33
TORSDOF 10
ENDMDL
MODEL 7
REMARK VINA RESULT:    -7.184      2.863     10.574
REMARK INTER + INTRA:         -12.218
REMARK INTER:                 -11.125
REMARK INTRA:                  -1.092
REMARK UNBOUND:                -1.044
REMARK SMILES CCOC(=O)c1cc(-c2ccc(OC)c(S(=O)(=O)[N-]c3ccc(S(N)(=O)=O)cc3)c2)on1
REMARK SMILES IDX 9 1 10 2 11 3 12 4 15 5 30 6 8 7 6 8 7 9 32 10 31 11 4 12
REMARK SMILES IDX 5 13 3 14 2 15 1 16 16 17 17 18 18 19 19 20 20 21 21 22
REMARK SMILES IDX 29 23 22 24 28 25 23 26 24 27 26 28 27 29 25 30 13 33 14 34
REMARK H PARENT 25 31 25 32
ROOT
ATOM      1  C   UNL     1       8.334 -23.869 -49.465  1.00  0.00     0.022 A 
ATOM      2  C   UNL     1       8.868 -23.307 -50.628  1.00  0.00     0.016 A 
ATOM      3  C   UNL     1      10.204 -22.895 -50.663  1.00  0.00     0.048 A 
ATOM      4  C   UNL     1      11.035 -23.041 -49.545  1.00  0.00     0.136 A 
ATOM      5  C   UNL     1      10.513 -23.618 -48.383  1.00  0.00     0.095 A 
ATOM      6  C   UNL     1       9.154 -23.977 -48.335  1.00  0.00     0.034 A 
ENDROOT
BRANCH   1   7
ATOM      7  C   UNL     1       6.977 -24.388 -49.450  1.00  0.00     0.167 A 
ATOM      8  C   UNL     1       4.830 -24.940 -49.527  1.00  0.00     0.192 A 
ATOM      9  C   UNL     1       5.724 -23.835 -49.538  1.00  0.00     0.090 A 
ATOM     10  N   UNL     1       5.513 -26.095 -49.456  1.00  0.00    -0.072 NA
ATOM     11  O   UNL     1       6.849 -25.745 -49.392  1.00  0.00    -0.355 OA
BRANCH   8  12
ATOM     12  C   UNL     1       3.369 -24.916 -49.594  1.00  0.00     0.360 C 
ATOM     13  O   UNL     1       2.625 -25.362 -48.726  1.00  0.00    -0.244 OA
BRANCH  12  14
ATOM     14  O   UNL     1       2.922 -24.335 -50.752  1.00  0.00    -0.461 OA
BRANCH  14  15
ATOM     15  C   UNL     1       2.011 -23.240 -50.590  1.00  0.00     0.230 C 
ATOM     16  C   UNL     1       2.741 -21.920 -50.762  1.00  0.00     0.049 C 
ENDBRANCH  14  15
ENDBRANCH  12  14
ENDBRANCH   8  12
ENDBRANCH   1   7
BRANCH   5  17
ATOM     17  S   UNL     1      11.561 -24.073 -46.951  1.00  0.00     0.126 S 
ATOM     18  O   UNL     1      12.559 -24.913 -47.616  1.00  0.00    -0.240 OA
ATOM     19  O   UNL     1      10.630 -24.790 -46.083  1.00  0.00    -0.240 OA
BRANCH  17  20
ATOM     20  N   UNL     1      12.197 -22.760 -46.283  1.00  0.00    -0.573 NA
BRANCH  20  21
ATOM     21  C   UNL     1      13.429 -22.691 -45.716  1.00  0.00    -0.128 A 
ATOM     22  C   UNL     1      14.604 -22.287 -46.376  1.00  0.00    -0.014 A 
ATOM     23  C   UNL     1      13.552 -23.103 -44.375  1.00  0.00    -0.014 A 
ATOM     24  C   UNL     1      15.857 -22.387 -45.764  1.00  0.00     0.020 A 
ATOM     25  C   UNL     1      14.795 -23.203 -43.749  1.00  0.00     0.020 A 
ATOM     26  C   UNL     1      15.945 -22.878 -44.464  1.00  0.00     0.082 A 
BRANCH  26  27
ATOM     27  S   UNL     1      17.519 -23.127 -43.709  1.00  0.00     0.238 S 
ATOM     28  O   UNL     1      17.445 -22.760 -42.311  1.00  0.00    -0.207 OA
ATOM     29  O   UNL     1      18.046 -24.404 -44.135  1.00  0.00    -0.207 OA
BRANCH  27  30
ATOM     30  N   UNL     1      18.449 -21.917 -44.428  1.00  0.00    -0.225 NA
ATOM     31  H   UNL     1      17.891 -21.133 -44.784  1.00  0.00     0.137 HD
ATOM     32  H   UNL     1      19.123 -21.575 -43.743  1.00  0.00     0.137 HD
ENDBRANCH  27  30
ENDBRANCH  26  27
ENDBRANCH  20  21
ENDBRANCH  17  20
ENDBRANCH   5  17
BRANCH   4  33
ATOM     33  O   UNL     1      12.318 -22.621 -49.759  1.00  0.00    -0.495 OA
ATOM     34  C   UNL     1      12.505 -21.230 -49.503  1.00  0.00     0.278 C 
ENDBRANCH   4  33
TORSDOF 10
ENDMDL
MODEL 8
REMARK VINA RESULT:    -6.940      3.955      6.020
REMARK INTER + INTRA:         -11.839
REMARK INTER:                 -10.921
REMARK INTRA:                  -0.918
REMARK UNBOUND:                -1.044
REMARK SMILES CCOC(=O)c1cc(-c2ccc(OC)c(S(=O)(=O)[N-]c3ccc(S(N)(=O)=O)cc3)c2)on1
REMARK SMILES IDX 9 1 10 2 11 3 12 4 15 5 30 6 8 7 6 8 7 9 32 10 31 11 4 12
REMARK SMILES IDX 5 13 3 14 2 15 1 16 16 17 17 18 18 19 19 20 20 21 21 22
REMARK SMILES IDX 29 23 22 24 28 25 23 26 24 27 26 28 27 29 25 30 13 33 14 34
REMARK H PARENT 25 31 25 32
ROOT
ATOM      1  C   UNL     1      11.197 -24.351 -46.721  1.00  0.00     0.022 A 
ATOM      2  C   UNL     1      10.205 -25.332 -46.812  1.00  0.00     0.016 A 
ATOM      3  C   UNL     1       9.422 -25.438 -47.966  1.00  0.00     0.048 A 
ATOM      4  C   UNL     1       9.615 -24.574 -49.052  1.00  0.00     0.136 A 
ATOM      5  C   UNL     1      10.617 -23.601 -48.975  1.00  0.00     0.095 A 
ATOM      6  C   UNL     1      11.363 -23.463 -47.791  1.00  0.00     0.034 A 
ENDROOT
BRANCH   1   7
ATOM      7  C   UNL     1      12.080 -24.297 -45.568  1.00  0.00     0.167 A 
ATOM      8  C   UNL     1      13.527 -24.451 -43.894  1.00  0.00     0.192 A 
ATOM      9  C   UNL     1      12.868 -25.204 -44.904  1.00  0.00     0.090 A 
ATOM     10  N   UNL     1      13.167 -23.158 -43.962  1.00  0.00    -0.072 NA
ATOM     11  O   UNL     1      12.254 -23.071 -44.997  1.00  0.00    -0.355 OA
BRANCH   8  12
ATOM     12  C   UNL     1      14.482 -24.929 -42.894  1.00  0.00     0.360 C 
ATOM     13  O   UNL     1      14.911 -26.077 -42.834  1.00  0.00    -0.244 OA
BRANCH  12  14
ATOM     14  O   UNL     1      14.842 -23.937 -42.020  1.00  0.00    -0.461 OA
BRANCH  14  15
ATOM     15  C   UNL     1      14.785 -24.279 -40.629  1.00  0.00     0.230 C 
ATOM     16  C   UNL     1      13.342 -24.368 -40.169  1.00  0.00     0.049 C 
ENDBRANCH  14  15
ENDBRANCH  12  14
ENDBRANCH   8  12
ENDBRANCH   1   7
BRANCH   5  17
ATOM     17  S   UNL     1      11.114 -22.582 -50.414  1.00  0.00     0.126 S 
ATOM     18  O   UNL     1       9.909 -21.768 -50.584  1.00  0.00    -0.240 OA
ATOM     19  O   UNL     1      11.337 -23.581 -51.457  1.00  0.00    -0.240 OA
BRANCH  17  20
ATOM     20  N   UNL     1      12.412 -21.708 -50.060  1.00  0.00    -0.573 NA
BRANCH  20  21
ATOM     21  C   UNL     1      12.952 -20.751 -50.859  1.00  0.00    -0.128 A 
ATOM     22  C   UNL     1      13.171 -20.878 -52.242  1.00  0.00    -0.014 A 
ATOM     23  C   UNL     1      13.370 -19.554 -50.247  1.00  0.00    -0.014 A 
ATOM     24  C   UNL     1      13.870 -19.905 -52.963  1.00  0.00     0.020 A 
ATOM     25  C   UNL     1      14.063 -18.571 -50.954  1.00  0.00     0.020 A 
ATOM     26  C   UNL     1      14.340 -18.773 -52.304  1.00  0.00     0.082 A 
BRANCH  26  27
ATOM     27  S   UNL     1      15.324 -17.586 -53.160  1.00  0.00     0.238 S 
ATOM     28  O   UNL     1      14.463 -16.704 -53.918  1.00  0.00    -0.207 OA
ATOM     29  O   UNL     1      16.333 -17.076 -52.258  1.00  0.00    -0.207 OA
BRANCH  27  30
ATOM     30  N   UNL     1      16.099 -18.539 -54.316  1.00  0.00    -0.225 NA
ATOM     31  H   UNL     1      16.089 -19.540 -54.090  1.00  0.00     0.137 HD
ATOM     32  H   UNL     1      15.648 -18.386 -55.218  1.00  0.00     0.137 HD
ENDBRANCH  27  30
ENDBRANCH  26  27
ENDBRANCH  20  21
ENDBRANCH  17  20
ENDBRANCH   5  17
BRANCH   4  33
ATOM     33  O   UNL     1       8.791 -24.835 -50.112  1.00  0.00    -0.495 OA
ATOM     34  C   UNL     1       7.701 -25.693 -49.778  1.00  0.00     0.278 C 
ENDBRANCH   4  33
TORSDOF 10
ENDMDL
MODEL 9
REMARK VINA RESULT:    -6.869      3.342      7.022
REMARK INTER + INTRA:         -11.729
REMARK INTER:                 -10.219
REMARK INTRA:                  -1.510
REMARK UNBOUND:                -1.044
REMARK SMILES CCOC(=O)c1cc(-c2ccc(OC)c(S(=O)(=O)[N-]c3ccc(S(N)(=O)=O)cc3)c2)on1
REMARK SMILES IDX 9 1 10 2 11 3 12 4 15 5 30 6 8 7 6 8 7 9 32 10 31 11 4 12
REMARK SMILES IDX 5 13 3 14 2 15 1 16 16 17 17 18 18 19 19 20 20 21 21 22
REMARK SMILES IDX 29 23 22 24 28 25 23 26 24 27 26 28 27 29 25 30 13 33 14 34
REMARK H PARENT 25 31 25 32
ROOT
ATOM      1  C   UNL     1      12.291 -24.492 -45.043  1.00  0.00     0.022 A 
ATOM      2  C   UNL     1      11.374 -25.290 -45.735  1.00  0.00     0.016 A 
ATOM      3  C   UNL     1      11.057 -25.005 -47.067  1.00  0.00     0.048 A 
ATOM      4  C   UNL     1      11.648 -23.927 -47.736  1.00  0.00     0.136 A 
ATOM      5  C   UNL     1      12.579 -23.134 -47.056  1.00  0.00     0.095 A 
ATOM      6  C   UNL     1      12.851 -23.390 -45.701  1.00  0.00     0.034 A 
ENDROOT
BRANCH   1   7
ATOM      7  C   UNL     1      12.700 -24.837 -43.692  1.00  0.00     0.167 A 
ATOM      8  C   UNL     1      13.154 -25.171 -41.547  1.00  0.00     0.192 A 
ATOM      9  C   UNL     1      12.596 -24.237 -42.462  1.00  0.00     0.090 A 
ATOM     10  N   UNL     1      13.554 -26.280 -42.193  1.00  0.00    -0.072 NA
ATOM     11  O   UNL     1      13.282 -26.060 -43.531  1.00  0.00    -0.355 OA
BRANCH   8  12
ATOM     12  C   UNL     1      13.300 -25.033 -40.098  1.00  0.00     0.360 C 
ATOM     13  O   UNL     1      13.083 -24.002 -39.471  1.00  0.00    -0.244 OA
BRANCH  12  14
ATOM     14  O   UNL     1      13.715 -26.203 -39.515  1.00  0.00    -0.461 OA
BRANCH  14  15
ATOM     15  C   UNL     1      14.721 -26.072 -38.502  1.00  0.00     0.230 C 
ATOM     16  C   UNL     1      16.104 -26.199 -39.115  1.00  0.00     0.049 C 
ENDBRANCH  14  15
ENDBRANCH  12  14
ENDBRANCH   8  12
ENDBRANCH   1   7
BRANCH   5  17
ATOM     17  S   UNL     1      13.584 -21.854 -47.896  1.00  0.00     0.126 S 
ATOM     18  O   UNL     1      13.185 -20.669 -47.134  1.00  0.00    -0.240 OA
ATOM     19  O   UNL     1      13.087 -21.902 -49.270  1.00  0.00    -0.240 OA
BRANCH  17  20
ATOM     20  N   UNL     1      15.147 -22.187 -47.756  1.00  0.00    -0.573 NA
BRANCH  20  21
ATOM     21  C   UNL     1      15.730 -22.755 -46.669  1.00  0.00    -0.128 A 
ATOM     22  C   UNL     1      16.022 -24.124 -46.527  1.00  0.00    -0.014 A 
ATOM     23  C   UNL     1      16.022 -21.917 -45.576  1.00  0.00    -0.014 A 
ATOM     24  C   UNL     1      16.484 -24.650 -45.317  1.00  0.00     0.020 A 
ATOM     25  C   UNL     1      16.489 -22.426 -44.364  1.00  0.00     0.020 A 
ATOM     26  C   UNL     1      16.682 -23.799 -44.233  1.00  0.00     0.082 A 
BRANCH  26  27
ATOM     27  S   UNL     1      17.151 -24.449 -42.662  1.00  0.00     0.238 S 
ATOM     28  O   UNL     1      18.575 -24.707 -42.654  1.00  0.00    -0.207 OA
ATOM     29  O   UNL     1      16.511 -23.673 -41.624  1.00  0.00    -0.207 OA
BRANCH  27  30
ATOM     30  N   UNL     1      16.432 -25.975 -42.684  1.00  0.00    -0.225 NA
ATOM     31  H   UNL     1      15.847 -26.160 -41.861  1.00  0.00     0.137 HD
ATOM     32  H   UNL     1      15.869 -26.057 -43.530  1.00  0.00     0.137 HD
ENDBRANCH  27  30
ENDBRANCH  26  27
ENDBRANCH  20  21
ENDBRANCH  17  20
ENDBRANCH   5  17
BRANCH   4  33
ATOM     33  O   UNL     1      11.254 -23.810 -49.040  1.00  0.00    -0.495 OA
ATOM     34  C   UNL     1       9.855 -23.573 -49.187  1.00  0.00     0.278 C 
ENDBRANCH   4  33
TORSDOF 10
ENDMDL
