MODEL 1
REMARK VINA RESULT:    -6.834      0.000      0.000
REMARK INTER + INTRA:          -7.984
REMARK INTER:                  -7.633
REMARK INTRA:                  -0.351
REMARK UNBOUND:                -0.351
REMARK SMILES [O-]c1c(Cl)cc(Cl)cc1/C=N/c1cc(F)cc(F)c1
REMARK SMILES IDX 10 1 11 2 9 3 2 4 3 5 5 6 8 7 6 8 1 9 4 10 7 11 12 12 13 13
REMARK SMILES IDX 19 14 14 15 17 16 16 17 15 18 18 19
REMARK H PARENT
ROOT
ATOM      1  C   UNL     1      13.907 -23.497 -43.617  1.00  0.00     0.119 C 
ATOM      2  N   UNL     1      13.791 -24.630 -42.981  1.00  0.00    -0.256 NA
ENDROOT
BRANCH   1   3
ATOM      3  C   UNL     1      13.590 -23.359 -45.067  1.00  0.00    -0.012 A 
ATOM      4  C   UNL     1      14.507 -22.688 -45.931  1.00  0.00    -0.081 A 
ATOM      5  C   UNL     1      14.076 -22.630 -47.288  1.00  0.00     0.035 A 
ATOM      6  C   UNL     1      12.866 -23.178 -47.740  1.00  0.00     0.040 A 
ATOM      7  C   UNL     1      12.375 -23.911 -45.512  1.00  0.00     0.029 A 
ATOM      8  C   UNL     1      12.023 -23.815 -46.846  1.00  0.00     0.043 A 
ATOM      9  O   UNL     1      15.614 -22.187 -45.518  1.00  0.00    -0.871 OA
ATOM     10  Cl  UNL     1      15.044 -21.855 -48.521  1.00  0.00    -0.085 Cl
ATOM     11  Cl  UNL     1      10.538 -24.489 -47.397  1.00  0.00    -0.084 Cl
ENDBRANCH   1   3
BRANCH   2  12
ATOM     12  C   UNL     1      14.126 -24.596 -41.623  1.00  0.00     0.069 A 
ATOM     13  C   UNL     1      13.164 -24.254 -40.669  1.00  0.00     0.067 A 
ATOM     14  C   UNL     1      15.410 -24.953 -41.206  1.00  0.00     0.067 A 
ATOM     15  C   UNL     1      13.500 -24.253 -39.320  1.00  0.00     0.128 A 
ATOM     16  C   UNL     1      15.723 -24.946 -39.851  1.00  0.00     0.128 A 
ATOM     17  C   UNL     1      14.777 -24.596 -38.898  1.00  0.00     0.078 A 
ATOM     18  F   UNL     1      12.574 -23.924 -38.408  1.00  0.00    -0.207 F 
ATOM     19  F   UNL     1      16.957 -25.289 -39.455  1.00  0.00    -0.207 F 
ENDBRANCH   2  12
TORSDOF 2
ENDMDL
MODEL 2
REMARK VINA RESULT:    -6.816      5.151      8.018
REMARK INTER + INTRA:          -7.964
REMARK INTER:                  -7.607
REMARK INTRA:                  -0.357
REMARK UNBOUND:                -0.351
REMARK SMILES [O-]c1c(Cl)cc(Cl)cc1/C=N/c1cc(F)cc(F)c1
REMARK SMILES IDX 10 1 11 2 9 3 2 4 3 5 5 6 8 7 6 8 1 9 4 10 7 11 12 12 13 13
REMARK SMILES IDX 19 14 14 15 17 16 16 17 15 18 18 19
REMARK H PARENT
ROOT
ATOM      1  C   UNL     1      14.591 -22.374 -46.203  1.00  0.00     0.119 C 
ATOM      2  N   UNL     1      14.994 -22.341 -47.443  1.00  0.00    -0.256 NA
ENDROOT
BRANCH   1   3
ATOM      3  C   UNL     1      15.519 -22.639 -45.068  1.00  0.00    -0.012 A 
ATOM      4  C   UNL     1      15.015 -23.207 -43.859  1.00  0.00    -0.081 A 
ATOM      5  C   UNL     1      16.013 -23.406 -42.861  1.00  0.00     0.035 A 
ATOM      6  C   UNL     1      17.365 -23.076 -43.041  1.00  0.00     0.040 A 
ATOM      7  C   UNL     1      16.873 -22.307 -45.257  1.00  0.00     0.029 A 
ATOM      8  C   UNL     1      17.785 -22.529 -44.241  1.00  0.00     0.043 A 
ATOM      9  O   UNL     1      13.779 -23.507 -43.694  1.00  0.00    -0.871 OA
ATOM     10  Cl  UNL     1      15.619 -24.090 -41.300  1.00  0.00    -0.085 Cl
ATOM     11  Cl  UNL     1      19.443 -22.124 -44.466  1.00  0.00    -0.084 Cl
ENDBRANCH   1   3
BRANCH   2  12
ATOM     12  C   UNL     1      14.002 -22.079 -48.394  1.00  0.00     0.069 A 
ATOM     13  C   UNL     1      12.902 -22.931 -48.517  1.00  0.00     0.067 A 
ATOM     14  C   UNL     1      14.078 -20.936 -49.193  1.00  0.00     0.067 A 
ATOM     15  C   UNL     1      11.907 -22.644 -49.445  1.00  0.00     0.128 A 
ATOM     16  C   UNL     1      13.070 -20.668 -50.114  1.00  0.00     0.128 A 
ATOM     17  C   UNL     1      11.981 -21.516 -50.250  1.00  0.00     0.078 A 
ATOM     18  F   UNL     1      10.854 -23.465 -49.560  1.00  0.00    -0.207 F 
ATOM     19  F   UNL     1      13.147 -19.570 -50.879  1.00  0.00    -0.207 F 
ENDBRANCH   2  12
TORSDOF 2
ENDMDL
MODEL 3
REMARK VINA RESULT:    -6.750      3.222      4.966
REMARK INTER + INTRA:          -7.890
REMARK INTER:                  -7.567
REMARK INTRA:                  -0.323
REMARK UNBOUND:                -0.351
REMARK SMILES [O-]c1c(Cl)cc(Cl)cc1/C=N/c1cc(F)cc(F)c1
REMARK SMILES IDX 10 1 11 2 9 3 2 4 3 5 5 6 8 7 6 8 1 9 4 10 7 11 12 12 13 13
REMARK SMILES IDX 19 14 14 15 17 16 16 17 15 18 18 19
REMARK H PARENT
ROOT
ATOM      1  C   UNL     1      14.926 -22.437 -47.179  1.00  0.00     0.119 C 
ATOM      2  N   UNL     1      14.668 -22.247 -45.915  1.00  0.00    -0.256 NA
ENDROOT
BRANCH   1   3
ATOM      3  C   UNL     1      13.920 -22.179 -48.248  1.00  0.00    -0.012 A 
ATOM      4  C   UNL     1      12.812 -23.063 -48.406  1.00  0.00    -0.081 A 
ATOM      5  C   UNL     1      11.932 -22.694 -49.465  1.00  0.00     0.035 A 
ATOM      6  C   UNL     1      12.130 -21.569 -50.280  1.00  0.00     0.040 A 
ATOM      7  C   UNL     1      14.126 -21.048 -49.060  1.00  0.00     0.029 A 
ATOM      8  C   UNL     1      13.228 -20.754 -50.070  1.00  0.00     0.043 A 
ATOM      9  O   UNL     1      12.630 -24.092 -47.662  1.00  0.00    -0.871 OA
ATOM     10  Cl  UNL     1      10.506 -23.637 -49.839  1.00  0.00    -0.085 Cl
ATOM     11  Cl  UNL     1      13.474 -19.372 -51.068  1.00  0.00    -0.084 Cl
ENDBRANCH   1   3
BRANCH   2  12
ATOM     12  C   UNL     1      15.717 -22.535 -45.035  1.00  0.00     0.069 A 
ATOM     13  C   UNL     1      17.043 -22.357 -45.438  1.00  0.00     0.067 A 
ATOM     14  C   UNL     1      15.445 -22.954 -43.731  1.00  0.00     0.067 A 
ATOM     15  C   UNL     1      18.076 -22.618 -44.544  1.00  0.00     0.128 A 
ATOM     16  C   UNL     1      16.495 -23.208 -42.854  1.00  0.00     0.128 A 
ATOM     17  C   UNL     1      17.815 -23.045 -43.250  1.00  0.00     0.078 A 
ATOM     18  F   UNL     1      19.346 -22.446 -44.935  1.00  0.00    -0.207 F 
ATOM     19  F   UNL     1      16.230 -23.610 -41.603  1.00  0.00    -0.207 F 
ENDBRANCH   2  12
TORSDOF 2
ENDMDL
MODEL 4
REMARK VINA RESULT:    -6.650      3.170      4.553
REMARK INTER + INTRA:          -7.779
REMARK INTER:                  -7.415
REMARK INTRA:                  -0.364
REMARK UNBOUND:                -0.351
REMARK SMILES [O-]c1c(Cl)cc(Cl)cc1/C=N/c1cc(F)cc(F)c1
REMARK SMILES IDX 10 1 11 2 9 3 2 4 3 5 5 6 8 7 6 8 1 9 4 10 7 11 12 12 13 13
REMARK SMILES IDX 19 14 14 15 17 16 16 17 15 18 18 19
REMARK H PARENT
ROOT
ATOM      1  C   UNL     1      14.020 -22.289 -46.505  1.00  0.00     0.119 C 
ATOM      2  N   UNL     1      15.313 -22.442 -46.582  1.00  0.00    -0.256 NA
ENDROOT
BRANCH   1   3
ATOM      3  C   UNL     1      13.167 -22.069 -47.707  1.00  0.00    -0.012 A 
ATOM      4  C   UNL     1      11.954 -22.805 -47.858  1.00  0.00    -0.081 A 
ATOM      5  C   UNL     1      11.241 -22.493 -49.052  1.00  0.00     0.035 A 
ATOM      6  C   UNL     1      11.684 -21.553 -49.996  1.00  0.00     0.040 A 
ATOM      7  C   UNL     1      13.618 -21.125 -48.647  1.00  0.00     0.029 A 
ATOM      8  C   UNL     1      12.872 -20.876 -49.785  1.00  0.00     0.043 A 
ATOM      9  O   UNL     1      11.548 -23.664 -46.996  1.00  0.00    -0.871 OA
ATOM     10  Cl  UNL     1       9.726 -23.275 -49.443  1.00  0.00    -0.085 Cl
ATOM     11  Cl  UNL     1      13.419 -19.721 -50.940  1.00  0.00    -0.084 Cl
ENDBRANCH   1   3
BRANCH   2  12
ATOM     12  C   UNL     1      15.972 -22.640 -45.364  1.00  0.00     0.069 A 
ATOM     13  C   UNL     1      15.244 -22.949 -44.212  1.00  0.00     0.067 A 
ATOM     14  C   UNL     1      17.366 -22.579 -45.301  1.00  0.00     0.067 A 
ATOM     15  C   UNL     1      15.912 -23.173 -43.013  1.00  0.00     0.128 A 
ATOM     16  C   UNL     1      18.013 -22.809 -44.091  1.00  0.00     0.128 A 
ATOM     17  C   UNL     1      17.296 -23.105 -42.940  1.00  0.00     0.078 A 
ATOM     18  F   UNL     1      15.211 -23.469 -41.911  1.00  0.00    -0.207 F 
ATOM     19  F   UNL     1      19.351 -22.749 -44.034  1.00  0.00    -0.207 F 
ENDBRANCH   2  12
TORSDOF 2
ENDMDL
MODEL 5
REMARK VINA RESULT:    -6.635      5.262      8.060
REMARK INTER + INTRA:          -7.762
REMARK INTER:                  -7.407
REMARK INTRA:                  -0.355
REMARK UNBOUND:                -0.351
REMARK SMILES [O-]c1c(Cl)cc(Cl)cc1/C=N/c1cc(F)cc(F)c1
REMARK SMILES IDX 10 1 11 2 9 3 2 4 3 5 5 6 8 7 6 8 1 9 4 10 7 11 12 12 13 13
REMARK SMILES IDX 19 14 14 15 17 16 16 17 15 18 18 19
REMARK H PARENT
ROOT
ATOM      1  C   UNL     1      14.967 -22.132 -46.236  1.00  0.00     0.119 C 
ATOM      2  N   UNL     1      14.566 -22.986 -47.136  1.00  0.00    -0.256 NA
ENDROOT
BRANCH   1   3
ATOM      3  C   UNL     1      15.810 -22.531 -45.074  1.00  0.00    -0.012 A 
ATOM      4  C   UNL     1      15.201 -23.124 -43.928  1.00  0.00    -0.081 A 
ATOM      5  C   UNL     1      16.127 -23.455 -42.896  1.00  0.00     0.035 A 
ATOM      6  C   UNL     1      17.507 -23.222 -42.989  1.00  0.00     0.040 A 
ATOM      7  C   UNL     1      17.193 -22.295 -45.177  1.00  0.00     0.029 A 
ATOM      8  C   UNL     1      18.030 -22.642 -44.132  1.00  0.00     0.043 A 
ATOM      9  O   UNL     1      13.939 -23.336 -43.841  1.00  0.00    -0.871 OA
ATOM     10  Cl  UNL     1      15.601 -24.192 -41.399  1.00  0.00    -0.085 Cl
ATOM     11  Cl  UNL     1      19.724 -22.356 -44.251  1.00  0.00    -0.084 Cl
ENDBRANCH   1   3
BRANCH   2  12
ATOM     12  C   UNL     1      13.781 -22.455 -48.166  1.00  0.00     0.069 A 
ATOM     13  C   UNL     1      14.133 -21.244 -48.767  1.00  0.00     0.067 A 
ATOM     14  C   UNL     1      12.667 -23.156 -48.634  1.00  0.00     0.067 A 
ATOM     15  C   UNL     1      13.363 -20.741 -49.810  1.00  0.00     0.128 A 
ATOM     16  C   UNL     1      11.912 -22.634 -49.679  1.00  0.00     0.128 A 
ATOM     17  C   UNL     1      12.249 -21.426 -50.273  1.00  0.00     0.078 A 
ATOM     18  F   UNL     1      13.705 -19.580 -50.383  1.00  0.00    -0.207 F 
ATOM     19  F   UNL     1      10.844 -23.310 -50.125  1.00  0.00    -0.207 F 
ENDBRANCH   2  12
TORSDOF 2
ENDMDL
MODEL 6
REMARK VINA RESULT:    -6.633      2.448      3.989
REMARK INTER + INTRA:          -7.759
REMARK INTER:                  -7.579
REMARK INTRA:                  -0.180
REMARK UNBOUND:                -0.351
REMARK SMILES [O-]c1c(Cl)cc(Cl)cc1/C=N/c1cc(F)cc(F)c1
REMARK SMILES IDX 10 1 11 2 9 3 2 4 3 5 5 6 8 7 6 8 1 9 4 10 7 11 12 12 13 13
REMARK SMILES IDX 19 14 14 15 17 16 16 17 15 18 18 19
REMARK H PARENT
ROOT
ATOM      1  C   UNL     1      13.215 -22.918 -46.101  1.00  0.00     0.119 C 
ATOM      2  N   UNL     1      12.517 -23.009 -45.004  1.00  0.00    -0.256 NA
ENDROOT
BRANCH   1   3
ATOM      3  C   UNL     1      12.621 -22.468 -47.392  1.00  0.00    -0.012 A 
ATOM      4  C   UNL     1      11.469 -23.132 -47.911  1.00  0.00    -0.081 A 
ATOM      5  C   UNL     1      11.010 -22.596 -49.150  1.00  0.00     0.035 A 
ATOM      6  C   UNL     1      11.627 -21.519 -49.804  1.00  0.00     0.040 A 
ATOM      7  C   UNL     1      13.245 -21.387 -48.041  1.00  0.00     0.029 A 
ATOM      8  C   UNL     1      12.742 -20.922 -49.242  1.00  0.00     0.043 A 
ATOM      9  O   UNL     1      10.904 -24.117 -47.314  1.00  0.00    -0.871 OA
ATOM     10  Cl  UNL     1       9.612 -23.256 -49.968  1.00  0.00    -0.085 Cl
ATOM     11  Cl  UNL     1      13.502 -19.599 -50.042  1.00  0.00    -0.084 Cl
ENDBRANCH   1   3
BRANCH   2  12
ATOM     12  C   UNL     1      13.219 -23.446 -43.876  1.00  0.00     0.069 A 
ATOM     13  C   UNL     1      14.555 -23.082 -43.693  1.00  0.00     0.067 A 
ATOM     14  C   UNL     1      12.575 -24.209 -42.898  1.00  0.00     0.067 A 
ATOM     15  C   UNL     1      15.235 -23.498 -42.553  1.00  0.00     0.128 A 
ATOM     16  C   UNL     1      13.275 -24.612 -41.765  1.00  0.00     0.128 A 
ATOM     17  C   UNL     1      14.605 -24.264 -41.583  1.00  0.00     0.078 A 
ATOM     18  F   UNL     1      16.517 -23.146 -42.383  1.00  0.00    -0.207 F 
ATOM     19  F   UNL     1      12.653 -25.344 -40.830  1.00  0.00    -0.207 F 
ENDBRANCH   2  12
TORSDOF 2
ENDMDL
MODEL 7
REMARK VINA RESULT:    -6.339      4.891      7.523
REMARK INTER + INTRA:          -7.431
REMARK INTER:                  -7.077
REMARK INTRA:                  -0.354
REMARK UNBOUND:                -0.351
REMARK SMILES [O-]c1c(Cl)cc(Cl)cc1/C=N/c1cc(F)cc(F)c1
REMARK SMILES IDX 10 1 11 2 9 3 2 4 3 5 5 6 8 7 6 8 1 9 4 10 7 11 12 12 13 13
REMARK SMILES IDX 19 14 14 15 17 16 16 17 15 18 18 19
REMARK H PARENT
ROOT
ATOM      1  C   UNL     1      14.186 -23.008 -45.952  1.00  0.00     0.119 C 
ATOM      2  N   UNL     1      13.067 -22.345 -46.043  1.00  0.00    -0.256 NA
ENDROOT
BRANCH   1   3
ATOM      3  C   UNL     1      14.713 -23.510 -44.652  1.00  0.00    -0.012 A 
ATOM      4  C   UNL     1      16.095 -23.846 -44.530  1.00  0.00    -0.081 A 
ATOM      5  C   UNL     1      16.459 -24.311 -43.233  1.00  0.00     0.035 A 
ATOM      6  C   UNL     1      15.550 -24.432 -42.171  1.00  0.00     0.040 A 
ATOM      7  C   UNL     1      13.795 -23.628 -43.592  1.00  0.00     0.029 A 
ATOM      8  C   UNL     1      14.223 -24.089 -42.359  1.00  0.00     0.043 A 
ATOM      9  O   UNL     1      16.926 -23.736 -45.501  1.00  0.00    -0.871 OA
ATOM     10  Cl  UNL     1      18.102 -24.779 -42.858  1.00  0.00    -0.085 Cl
ATOM     11  Cl  UNL     1      13.105 -24.235 -41.058  1.00  0.00    -0.084 Cl
ENDBRANCH   1   3
BRANCH   2  12
ATOM     12  C   UNL     1      12.707 -21.943 -47.335  1.00  0.00     0.069 A 
ATOM     13  C   UNL     1      13.316 -20.831 -47.920  1.00  0.00     0.067 A 
ATOM     14  C   UNL     1      11.773 -22.679 -48.066  1.00  0.00     0.067 A 
ATOM     15  C   UNL     1      12.973 -20.458 -49.215  1.00  0.00     0.128 A 
ATOM     16  C   UNL     1      11.446 -22.288 -49.361  1.00  0.00     0.128 A 
ATOM     17  C   UNL     1      12.038 -21.178 -49.945  1.00  0.00     0.078 A 
ATOM     18  F   UNL     1      13.560 -19.390 -49.773  1.00  0.00    -0.207 F 
ATOM     19  F   UNL     1      10.548 -22.998 -50.059  1.00  0.00    -0.207 F 
ENDBRANCH   2  12
TORSDOF 2
ENDMDL
MODEL 8
REMARK VINA RESULT:    -6.315      5.106      7.750
REMARK INTER + INTRA:          -7.404
REMARK INTER:                  -7.058
REMARK INTRA:                  -0.346
REMARK UNBOUND:                -0.351
REMARK SMILES [O-]c1c(Cl)cc(Cl)cc1/C=N/c1cc(F)cc(F)c1
REMARK SMILES IDX 10 1 11 2 9 3 2 4 3 5 5 6 8 7 6 8 1 9 4 10 7 11 12 12 13 13
REMARK SMILES IDX 19 14 14 15 17 16 16 17 15 18 18 19
REMARK H PARENT
ROOT
ATOM      1  C   UNL     1      14.208 -22.548 -46.482  1.00  0.00     0.119 C 
ATOM      2  N   UNL     1      13.050 -22.009 -46.741  1.00  0.00    -0.256 NA
ENDROOT
BRANCH   1   3
ATOM      3  C   UNL     1      14.586 -23.015 -45.118  1.00  0.00    -0.012 A 
ATOM      4  C   UNL     1      15.952 -22.976 -44.709  1.00  0.00    -0.081 A 
ATOM      5  C   UNL     1      16.166 -23.452 -43.383  1.00  0.00     0.035 A 
ATOM      6  C   UNL     1      15.137 -23.918 -42.551  1.00  0.00     0.040 A 
ATOM      7  C   UNL     1      13.547 -23.480 -44.291  1.00  0.00     0.029 A 
ATOM      8  C   UNL     1      13.832 -23.928 -43.014  1.00  0.00     0.043 A 
ATOM      9  O   UNL     1      16.895 -22.551 -45.469  1.00  0.00    -0.871 OA
ATOM     10  Cl  UNL     1      17.765 -23.494 -42.674  1.00  0.00    -0.085 Cl
ATOM     11  Cl  UNL     1      12.565 -24.498 -41.996  1.00  0.00    -0.084 Cl
ENDBRANCH   1   3
BRANCH   2  12
ATOM     12  C   UNL     1      12.847 -21.623 -48.071  1.00  0.00     0.069 A 
ATOM     13  C   UNL     1      12.033 -22.388 -48.910  1.00  0.00     0.067 A 
ATOM     14  C   UNL     1      13.417 -20.443 -48.555  1.00  0.00     0.067 A 
ATOM     15  C   UNL     1      11.815 -21.978 -50.220  1.00  0.00     0.128 A 
ATOM     16  C   UNL     1      13.184 -20.052 -49.869  1.00  0.00     0.128 A 
ATOM     17  C   UNL     1      12.386 -20.812 -50.712  1.00  0.00     0.078 A 
ATOM     18  F   UNL     1      11.033 -22.714 -51.022  1.00  0.00    -0.207 F 
ATOM     19  F   UNL     1      13.733 -18.919 -50.330  1.00  0.00    -0.207 F 
ENDBRANCH   2  12
TORSDOF 2
ENDMDL
