REMARK SMILES O=S(=O)([N-]c1ccccc1O)c1ccc2c(c1)Cc1cc(S(=O)(=O)[N-]c3ccccc3O)ccc1-2
REMARK SMILES IDX 12 1 13 2 14 3 15 4 16 5 17 6 18 7 19 8 20 9 21 10 33 11
REMARK SMILES IDX 34 12 35 13 2 14 1 15 3 16 4 17 5 18 6 19 10 20 7 21 9 22
REMARK SMILES IDX 8 23 11 24 22 26 23 27 24 28 25 29 26 30 27 31 31 32 28 33
REMARK SMILES IDX 30 34 29 35 32 36
REMARK H PARENT 11 25 32 37
ROOT
ATOM      1  C   UNL     1       2.487   0.650  -2.560  1.00  0.00     0.052 A 
ATOM      2  C   UNL     1       1.283   0.727  -3.284  1.00  0.00     0.019 A 
ATOM      3  C   UNL     1       0.124   1.221  -2.674  1.00  0.00     0.010 A 
ATOM      4  C   UNL     1       0.194   1.630  -1.351  1.00  0.00    -0.014 A 
ATOM      5  C   UNL     1       1.412   1.549  -0.636  1.00  0.00    -0.034 A 
ATOM      6  C   UNL     1       2.569   1.063  -1.226  1.00  0.00     0.023 A 
ATOM      7  C   UNL     1       1.224   2.056   0.779  1.00  0.00     0.072 C 
ATOM      8  C   UNL     1      -0.241   2.443   0.786  1.00  0.00    -0.034 A 
ATOM      9  C   UNL     1      -0.978   2.983   1.829  1.00  0.00     0.023 A 
ATOM     10  C   UNL     1      -2.327   3.261   1.586  1.00  0.00     0.052 A 
ATOM     11  C   UNL     1      -2.918   3.011   0.333  1.00  0.00     0.019 A 
ATOM     12  C   UNL     1      -2.161   2.464  -0.709  1.00  0.00     0.010 A 
ATOM     13  C   UNL     1      -0.823   2.182  -0.477  1.00  0.00    -0.014 A 
ENDROOT
BRANCH   1  14
ATOM     14  S   UNL     1       3.994   0.015  -3.362  1.00  0.00     0.123 S 
ATOM     15  O   UNL     1       4.851   1.201  -3.320  1.00  0.00    -0.240 OA
ATOM     16  O   UNL     1       3.541  -0.338  -4.709  1.00  0.00    -0.240 OA
BRANCH  14  17
ATOM     17  N   UNL     1       4.545  -1.197  -2.480  1.00  0.00    -0.570 NA
BRANCH  17  18
ATOM     18  C   UNL     1       3.885  -2.353  -2.206  1.00  0.00    -0.085 A 
ATOM     19  C   UNL     1       2.707  -2.797  -2.829  1.00  0.00    -0.012 A 
ATOM     20  C   UNL     1       4.411  -3.208  -1.218  1.00  0.00     0.101 A 
ATOM     21  C   UNL     1       2.091  -4.004  -2.469  1.00  0.00    -0.001 A 
ATOM     22  C   UNL     1       3.814  -4.411  -0.848  1.00  0.00     0.045 A 
ATOM     23  C   UNL     1       2.641  -4.810  -1.477  1.00  0.00     0.004 A 
BRANCH  20  24
ATOM     24  O   UNL     1       5.570  -2.852  -0.574  1.00  0.00    -0.509 OA
ATOM     25  H   UNL     1       5.785  -1.996  -0.997  1.00  0.00     0.293 HD
ENDBRANCH  20  24
ENDBRANCH  17  18
ENDBRANCH  14  17
ENDBRANCH   1  14
BRANCH  10  26
ATOM     26  S   UNL     1      -3.366   3.976   2.900  1.00  0.00     0.123 S 
ATOM     27  O   UNL     1      -3.710   5.269   2.307  1.00  0.00    -0.240 OA
ATOM     28  O   UNL     1      -2.455   4.073   4.041  1.00  0.00    -0.240 OA
BRANCH  26  29
ATOM     29  N   UNL     1      -4.627   3.017   3.103  1.00  0.00    -0.570 NA
BRANCH  29  30
ATOM     30  C   UNL     1      -4.587   1.706   3.460  1.00  0.00    -0.085 A 
ATOM     31  C   UNL     1      -3.465   1.024   3.959  1.00  0.00    -0.012 A 
ATOM     32  C   UNL     1      -5.762   0.941   3.340  1.00  0.00     0.101 A 
ATOM     33  C   UNL     1      -3.516  -0.337   4.291  1.00  0.00    -0.001 A 
ATOM     34  C   UNL     1      -5.833  -0.412   3.666  1.00  0.00     0.045 A 
ATOM     35  C   UNL     1      -4.699  -1.057   4.142  1.00  0.00     0.004 A 
BRANCH  32  36
ATOM     36  O   UNL     1      -6.906   1.542   2.875  1.00  0.00    -0.509 OA
ATOM     37  H   UNL     1      -6.608   2.463   2.729  1.00  0.00     0.293 HD
ENDBRANCH  32  36
ENDBRANCH  29  30
ENDBRANCH  26  29
ENDBRANCH  10  26
TORSDOF 8
