MODEL 1
REMARK VINA RESULT:    -7.954      0.000      0.000
REMARK INTER + INTRA:         -11.106
REMARK INTER:                 -10.511
REMARK INTRA:                  -0.596
REMARK UNBOUND:                -0.596
REMARK SMILES CCN(CC(=O)NC(=O)NC)Cc1nc(O)c2ccc(Cl)cc2n1
REMARK SMILES IDX 3 1 2 2 1 3 4 4 5 5 6 6 7 7 8 8 9 9 10 10 11 12 12 14 13 15
REMARK SMILES IDX 14 16 24 17 15 18 23 19 17 20 22 21 18 22 20 23 19 24 21 25
REMARK SMILES IDX 16 26
REMARK H PARENT 7 11 10 13 16 27
ROOT
ATOM      1  N   UNL     1      13.065 -22.399 -48.092  1.00  0.00    -0.287 NA
ENDROOT
BRANCH   1   2
ATOM      2  C   UNL     1      12.683 -23.651 -48.650  1.00  0.00     0.082 C 
ATOM      3  C   UNL     1      11.496 -24.307 -48.089  1.00  0.00     0.021 C 
ENDBRANCH   1   2
BRANCH   1   4
ATOM      4  C   UNL     1      12.386 -21.251 -48.508  1.00  0.00     0.185 C 
BRANCH   4   5
ATOM      5  C   UNL     1      12.615 -20.843 -49.897  1.00  0.00     0.242 C 
ATOM      6  O   UNL     1      12.231 -21.243 -50.932  1.00  0.00    -0.273 OA
ATOM      7  N   UNL     1      13.677 -19.494 -50.007  1.00  0.00    -0.277 N 
ATOM      8  C   UNL     1      13.597 -19.346 -51.391  1.00  0.00     0.321 C 
ATOM      9  O   UNL     1      13.053 -19.807 -52.336  1.00  0.00    -0.248 OA
ATOM     10  N   UNL     1      14.540 -18.205 -51.717  1.00  0.00    -0.341 N 
ATOM     11  H   UNL     1      13.727 -19.588 -49.127  1.00  0.00     0.174 HD
ATOM     12  C   UNL     1      14.693 -17.820 -53.084  1.00  0.00     0.144 C 
ATOM     13  H   UNL     1      15.021 -17.782 -50.899  1.00  0.00     0.165 HD
ENDBRANCH   4   5
ENDBRANCH   1   4
BRANCH   1  14
ATOM     14  C   UNL     1      14.455 -22.241 -47.835  1.00  0.00     0.162 C 
BRANCH  14  15
ATOM     15  C   UNL     1      14.890 -22.423 -46.433  1.00  0.00     0.147 A 
ATOM     16  N   UNL     1      16.136 -22.012 -46.069  1.00  0.00    -0.196 NA
ATOM     17  N   UNL     1      14.134 -23.047 -45.487  1.00  0.00    -0.231 NA
ATOM     18  C   UNL     1      16.646 -22.184 -44.862  1.00  0.00     0.222 A 
ATOM     19  C   UNL     1      14.621 -23.243 -44.246  1.00  0.00     0.079 A 
ATOM     20  C   UNL     1      15.899 -22.811 -43.906  1.00  0.00     0.062 A 
ATOM     21  C   UNL     1      13.896 -23.886 -43.252  1.00  0.00     0.049 A 
ATOM     22  C   UNL     1      16.443 -22.999 -42.666  1.00  0.00     0.017 A 
ATOM     23  C   UNL     1      14.435 -24.080 -42.003  1.00  0.00     0.043 A 
ATOM     24  C   UNL     1      15.728 -23.641 -41.674  1.00  0.00     0.021 A 
ATOM     25  Cl  UNL     1      13.521 -24.911 -40.767  1.00  0.00    -0.084 Cl
BRANCH  18  26
ATOM     26  O   UNL     1      17.945 -21.700 -44.633  1.00  0.00    -0.493 OA
ATOM     27  H   UNL     1      18.060 -21.081 -43.808  1.00  0.00     0.295 HD
ENDBRANCH  18  26
ENDBRANCH  14  15
ENDBRANCH   1  14
TORSDOF 6
ENDMDL
MODEL 2
REMARK VINA RESULT:    -7.633      2.571      3.308
REMARK INTER + INTRA:         -10.682
REMARK INTER:                  -9.886
REMARK INTRA:                  -0.797
REMARK UNBOUND:                -0.596
REMARK SMILES CCN(CC(=O)NC(=O)NC)Cc1nc(O)c2ccc(Cl)cc2n1
REMARK SMILES IDX 3 1 2 2 1 3 4 4 5 5 6 6 7 7 8 8 9 9 10 10 11 12 12 14 13 15
REMARK SMILES IDX 14 16 24 17 15 18 23 19 17 20 22 21 18 22 20 23 19 24 21 25
REMARK SMILES IDX 16 26
REMARK H PARENT 7 11 10 13 16 27
ROOT
ATOM      1  N   UNL     1      10.698 -23.454 -48.899  1.00  0.00    -0.287 NA
ENDROOT
BRANCH   1   2
ATOM      2  C   UNL     1       9.305 -23.701 -48.745  1.00  0.00     0.082 C 
ATOM      3  C   UNL     1       8.900 -25.046 -48.320  1.00  0.00     0.021 C 
ENDBRANCH   1   2
BRANCH   1   4
ATOM      4  C   UNL     1      11.134 -22.815 -50.063  1.00  0.00     0.185 C 
BRANCH   4   5
ATOM      5  C   UNL     1      11.844 -21.548 -49.866  1.00  0.00     0.242 C 
ATOM      6  O   UNL     1      11.982 -20.832 -48.945  1.00  0.00    -0.273 OA
ATOM      7  N   UNL     1      12.629 -21.017 -51.302  1.00  0.00    -0.277 N 
ATOM      8  C   UNL     1      13.233 -19.892 -50.743  1.00  0.00     0.321 C 
ATOM      9  O   UNL     1      13.351 -19.330 -49.707  1.00  0.00    -0.248 OA
ATOM     10  N   UNL     1      13.954 -19.221 -51.895  1.00  0.00    -0.341 N 
ATOM     11  H   UNL     1      12.244 -21.732 -51.657  1.00  0.00     0.174 HD
ATOM     12  C   UNL     1      14.665 -18.010 -51.637  1.00  0.00     0.144 C 
ATOM     13  H   UNL     1      13.867 -19.704 -52.810  1.00  0.00     0.165 HD
ENDBRANCH   4   5
ENDBRANCH   1   4
BRANCH   1  14
ATOM     14  C   UNL     1      11.560 -24.459 -48.381  1.00  0.00     0.162 C 
BRANCH  14  15
ATOM     15  C   UNL     1      12.339 -24.100 -47.176  1.00  0.00     0.147 A 
ATOM     16  N   UNL     1      11.697 -23.996 -45.980  1.00  0.00    -0.196 NA
ATOM     17  N   UNL     1      13.668 -23.796 -47.203  1.00  0.00    -0.231 NA
ATOM     18  C   UNL     1      12.284 -23.622 -44.858  1.00  0.00     0.222 A 
ATOM     19  C   UNL     1      14.300 -23.407 -46.079  1.00  0.00     0.079 A 
ATOM     20  C   UNL     1      13.614 -23.311 -44.872  1.00  0.00     0.062 A 
ATOM     21  C   UNL     1      15.648 -23.073 -46.057  1.00  0.00     0.049 A 
ATOM     22  C   UNL     1      14.207 -22.907 -43.708  1.00  0.00     0.017 A 
ATOM     23  C   UNL     1      16.252 -22.666 -44.893  1.00  0.00     0.043 A 
ATOM     24  C   UNL     1      15.546 -22.571 -43.681  1.00  0.00     0.021 A 
ATOM     25  Cl  UNL     1      17.943 -22.226 -44.883  1.00  0.00    -0.084 Cl
BRANCH  18  26
ATOM     26  O   UNL     1      11.491 -23.568 -43.699  1.00  0.00    -0.493 OA
ATOM     27  H   UNL     1      11.978 -23.772 -42.805  1.00  0.00     0.295 HD
ENDBRANCH  18  26
ENDBRANCH  14  15
ENDBRANCH   1  14
TORSDOF 6
ENDMDL
MODEL 3
REMARK VINA RESULT:    -7.409      3.294      4.518
REMARK INTER + INTRA:         -10.387
REMARK INTER:                  -9.636
REMARK INTRA:                  -0.751
REMARK UNBOUND:                -0.596
REMARK SMILES CCN(CC(=O)NC(=O)NC)Cc1nc(O)c2ccc(Cl)cc2n1
REMARK SMILES IDX 3 1 2 2 1 3 4 4 5 5 6 6 7 7 8 8 9 9 10 10 11 12 12 14 13 15
REMARK SMILES IDX 14 16 24 17 15 18 23 19 17 20 22 21 18 22 20 23 19 24 21 25
REMARK SMILES IDX 16 26
REMARK H PARENT 7 11 10 13 16 27
ROOT
ATOM      1  N   UNL     1      12.447 -22.103 -49.225  1.00  0.00    -0.287 NA
ENDROOT
BRANCH   1   2
ATOM      2  C   UNL     1      12.491 -21.177 -50.304  1.00  0.00     0.082 C 
ATOM      3  C   UNL     1      13.410 -20.039 -50.181  1.00  0.00     0.021 C 
ENDBRANCH   1   2
BRANCH   1   4
ATOM      4  C   UNL     1      11.909 -23.371 -49.459  1.00  0.00     0.185 C 
BRANCH   4   5
ATOM      5  C   UNL     1      10.873 -23.442 -50.493  1.00  0.00     0.242 C 
ATOM      6  O   UNL     1      10.850 -23.865 -51.589  1.00  0.00    -0.273 OA
ATOM      7  N   UNL     1       9.387 -22.751 -49.969  1.00  0.00    -0.277 N 
ATOM      8  C   UNL     1       8.659 -23.058 -51.117  1.00  0.00     0.321 C 
ATOM      9  O   UNL     1       8.773 -23.608 -52.159  1.00  0.00    -0.248 OA
ATOM     10  N   UNL     1       7.284 -22.464 -50.880  1.00  0.00    -0.341 N 
ATOM     11  H   UNL     1       9.851 -22.556 -49.239  1.00  0.00     0.174 HD
ATOM     12  C   UNL     1       6.300 -22.600 -51.905  1.00  0.00     0.144 C 
ATOM     13  H   UNL     1       7.163 -21.984 -49.966  1.00  0.00     0.165 HD
ENDBRANCH   4   5
ENDBRANCH   1   4
BRANCH   1  14
ATOM     14  C   UNL     1      12.182 -21.542 -47.945  1.00  0.00     0.162 C 
BRANCH  14  15
ATOM     15  C   UNL     1      12.924 -22.123 -46.805  1.00  0.00     0.147 A 
ATOM     16  N   UNL     1      12.232 -22.757 -45.819  1.00  0.00    -0.196 NA
ATOM     17  N   UNL     1      14.273 -22.003 -46.646  1.00  0.00    -0.231 NA
ATOM     18  C   UNL     1      12.789 -23.256 -44.730  1.00  0.00     0.222 A 
ATOM     19  C   UNL     1      14.876 -22.496 -45.547  1.00  0.00     0.079 A 
ATOM     20  C   UNL     1      14.139 -23.138 -44.557  1.00  0.00     0.062 A 
ATOM     21  C   UNL     1      16.243 -22.387 -45.332  1.00  0.00     0.049 A 
ATOM     22  C   UNL     1      14.701 -23.642 -43.418  1.00  0.00     0.017 A 
ATOM     23  C   UNL     1      16.818 -22.889 -44.190  1.00  0.00     0.043 A 
ATOM     24  C   UNL     1      16.060 -23.533 -43.197  1.00  0.00     0.021 A 
ATOM     25  Cl  UNL     1      18.536 -22.725 -43.920  1.00  0.00    -0.084 Cl
BRANCH  18  26
ATOM     26  O   UNL     1      11.943 -23.888 -43.802  1.00  0.00    -0.493 OA
ATOM     27  H   UNL     1      12.405 -24.271 -42.955  1.00  0.00     0.295 HD
ENDBRANCH  18  26
ENDBRANCH  14  15
ENDBRANCH   1  14
TORSDOF 6
ENDMDL
MODEL 4
REMARK VINA RESULT:    -7.294      4.157      8.589
REMARK INTER + INTRA:         -10.234
REMARK INTER:                  -9.486
REMARK INTRA:                  -0.748
REMARK UNBOUND:                -0.596
REMARK SMILES CCN(CC(=O)NC(=O)NC)Cc1nc(O)c2ccc(Cl)cc2n1
REMARK SMILES IDX 3 1 2 2 1 3 4 4 5 5 6 6 7 7 8 8 9 9 10 10 11 12 12 14 13 15
REMARK SMILES IDX 14 16 24 17 15 18 23 19 17 20 22 21 18 22 20 23 19 24 21 25
REMARK SMILES IDX 16 26
REMARK H PARENT 7 11 10 13 16 27
ROOT
ATOM      1  N   UNL     1      16.979 -23.990 -43.782  1.00  0.00    -0.287 NA
ENDROOT
BRANCH   1   2
ATOM      2  C   UNL     1      18.014 -23.062 -43.479  1.00  0.00     0.082 C 
ATOM      3  C   UNL     1      18.698 -22.419 -44.608  1.00  0.00     0.021 C 
ENDBRANCH   1   2
BRANCH   1   4
ATOM      4  C   UNL     1      16.807 -25.091 -42.940  1.00  0.00     0.185 C 
BRANCH   4   5
ATOM      5  C   UNL     1      15.616 -25.060 -42.086  1.00  0.00     0.242 C 
ATOM      6  O   UNL     1      14.503 -25.403 -42.235  1.00  0.00    -0.273 OA
ATOM      7  N   UNL     1      15.945 -24.366 -40.546  1.00  0.00    -0.277 N 
ATOM      8  C   UNL     1      14.674 -24.569 -40.009  1.00  0.00     0.321 C 
ATOM      9  O   UNL     1      13.626 -25.047 -40.283  1.00  0.00    -0.248 OA
ATOM     10  N   UNL     1      14.731 -23.955 -38.625  1.00  0.00    -0.341 N 
ATOM     11  H   UNL     1      16.753 -24.236 -40.888  1.00  0.00     0.174 HD
ATOM     12  C   UNL     1      13.554 -23.990 -37.818  1.00  0.00     0.144 C 
ATOM     13  H   UNL     1      15.646 -23.538 -38.364  1.00  0.00     0.165 HD
ENDBRANCH   4   5
ENDBRANCH   1   4
BRANCH   1  14
ATOM     14  C   UNL     1      16.752 -24.224 -45.167  1.00  0.00     0.162 C 
BRANCH  14  15
ATOM     15  C   UNL     1      15.638 -23.473 -45.786  1.00  0.00     0.147 A 
ATOM     16  N   UNL     1      14.430 -23.446 -45.159  1.00  0.00    -0.196 NA
ATOM     17  N   UNL     1      15.730 -22.854 -46.997  1.00  0.00    -0.231 NA
ATOM     18  C   UNL     1      13.355 -22.859 -45.655  1.00  0.00     0.222 A 
ATOM     19  C   UNL     1      14.654 -22.248 -47.536  1.00  0.00     0.079 A 
ATOM     20  C   UNL     1      13.433 -22.239 -46.869  1.00  0.00     0.062 A 
ATOM     21  C   UNL     1      14.693 -21.616 -48.771  1.00  0.00     0.049 A 
ATOM     22  C   UNL     1      12.310 -21.650 -47.380  1.00  0.00     0.017 A 
ATOM     23  C   UNL     1      13.569 -21.023 -49.293  1.00  0.00     0.043 A 
ATOM     24  C   UNL     1      12.342 -21.024 -48.610  1.00  0.00     0.021 A 
ATOM     25  Cl  UNL     1      13.625 -20.251 -50.860  1.00  0.00    -0.084 Cl
BRANCH  18  26
ATOM     26  O   UNL     1      12.178 -22.910 -44.888  1.00  0.00    -0.493 OA
ATOM     27  H   UNL     1      11.993 -22.085 -44.286  1.00  0.00     0.295 HD
ENDBRANCH  18  26
ENDBRANCH  14  15
ENDBRANCH   1  14
TORSDOF 6
ENDMDL
MODEL 5
REMARK VINA RESULT:    -7.251      2.164      2.686
REMARK INTER + INTRA:         -10.177
REMARK INTER:                  -9.599
REMARK INTRA:                  -0.579
REMARK UNBOUND:                -0.596
REMARK SMILES CCN(CC(=O)NC(=O)NC)Cc1nc(O)c2ccc(Cl)cc2n1
REMARK SMILES IDX 3 1 2 2 1 3 4 4 5 5 6 6 7 7 8 8 9 9 10 10 11 12 12 14 13 15
REMARK SMILES IDX 14 16 24 17 15 18 23 19 17 20 22 21 18 22 20 23 19 24 21 25
REMARK SMILES IDX 16 26
REMARK H PARENT 7 11 10 13 16 27
ROOT
ATOM      1  N   UNL     1      12.062 -21.816 -48.811  1.00  0.00    -0.287 NA
ENDROOT
BRANCH   1   2
ATOM      2  C   UNL     1      11.110 -22.874 -48.820  1.00  0.00     0.082 C 
ATOM      3  C   UNL     1      11.561 -24.184 -49.304  1.00  0.00     0.021 C 
ENDBRANCH   1   2
BRANCH   1   4
ATOM      4  C   UNL     1      13.189 -21.930 -49.629  1.00  0.00     0.185 C 
BRANCH   4   5
ATOM      5  C   UNL     1      13.181 -21.107 -50.843  1.00  0.00     0.242 C 
ATOM      6  O   UNL     1      12.659 -21.213 -51.889  1.00  0.00    -0.273 OA
ATOM      7  N   UNL     1      14.152 -19.697 -50.673  1.00  0.00    -0.277 N 
ATOM      8  C   UNL     1      13.853 -19.151 -51.920  1.00  0.00     0.321 C 
ATOM      9  O   UNL     1      13.189 -19.356 -52.879  1.00  0.00    -0.248 OA
ATOM     10  N   UNL     1      14.683 -17.885 -52.003  1.00  0.00    -0.341 N 
ATOM     11  H   UNL     1      14.343 -20.045 -49.880  1.00  0.00     0.174 HD
ATOM     12  C   UNL     1      14.604 -17.098 -53.192  1.00  0.00     0.144 C 
ATOM     13  H   UNL     1      15.265 -17.684 -51.167  1.00  0.00     0.165 HD
ENDBRANCH   4   5
ENDBRANCH   1   4
BRANCH   1  14
ATOM     14  C   UNL     1      12.269 -21.187 -47.552  1.00  0.00     0.162 C 
BRANCH  14  15
ATOM     15  C   UNL     1      12.992 -21.978 -46.533  1.00  0.00     0.147 A 
ATOM     16  N   UNL     1      12.277 -22.713 -45.637  1.00  0.00    -0.196 NA
ATOM     17  N   UNL     1      14.347 -21.962 -46.391  1.00  0.00    -0.231 NA
ATOM     18  C   UNL     1      12.820 -23.403 -44.650  1.00  0.00     0.222 A 
ATOM     19  C   UNL     1      14.937 -22.651 -45.395  1.00  0.00     0.079 A 
ATOM     20  C   UNL     1      14.177 -23.392 -44.495  1.00  0.00     0.062 A 
ATOM     21  C   UNL     1      16.311 -22.655 -45.201  1.00  0.00     0.049 A 
ATOM     22  C   UNL     1      14.726 -24.096 -43.460  1.00  0.00     0.017 A 
ATOM     23  C   UNL     1      16.872 -23.359 -44.162  1.00  0.00     0.043 A 
ATOM     24  C   UNL     1      16.092 -24.101 -43.259  1.00  0.00     0.021 A 
ATOM     25  Cl  UNL     1      18.601 -23.337 -43.914  1.00  0.00    -0.084 Cl
BRANCH  18  26
ATOM     26  O   UNL     1      11.952 -24.119 -43.807  1.00  0.00    -0.493 OA
ATOM     27  H   UNL     1      10.950 -24.115 -44.079  1.00  0.00     0.295 HD
ENDBRANCH  18  26
ENDBRANCH  14  15
ENDBRANCH   1  14
TORSDOF 6
ENDMDL
MODEL 6
REMARK VINA RESULT:    -6.987      2.161      2.784
REMARK INTER + INTRA:          -9.830
REMARK INTER:                  -9.487
REMARK INTRA:                  -0.343
REMARK UNBOUND:                -0.596
REMARK SMILES CCN(CC(=O)NC(=O)NC)Cc1nc(O)c2ccc(Cl)cc2n1
REMARK SMILES IDX 3 1 2 2 1 3 4 4 5 5 6 6 7 7 8 8 9 9 10 10 11 12 12 14 13 15
REMARK SMILES IDX 14 16 24 17 15 18 23 19 17 20 22 21 18 22 20 23 19 24 21 25
REMARK SMILES IDX 16 26
REMARK H PARENT 7 11 10 13 16 27
ROOT
ATOM      1  N   UNL     1      13.264 -22.507 -48.284  1.00  0.00    -0.287 NA
ENDROOT
BRANCH   1   2
ATOM      2  C   UNL     1      14.198 -21.786 -47.489  1.00  0.00     0.082 C 
ATOM      3  C   UNL     1      15.624 -21.977 -47.781  1.00  0.00     0.021 C 
ENDBRANCH   1   2
BRANCH   1   4
ATOM      4  C   UNL     1      12.239 -21.798 -48.914  1.00  0.00     0.185 C 
BRANCH   4   5
ATOM      5  C   UNL     1      12.575 -21.213 -50.216  1.00  0.00     0.242 C 
ATOM      6  O   UNL     1      12.306 -21.495 -51.323  1.00  0.00    -0.273 OA
ATOM      7  N   UNL     1      13.578 -19.825 -50.061  1.00  0.00    -0.277 N 
ATOM      8  C   UNL     1      13.619 -19.510 -51.418  1.00  0.00     0.321 C 
ATOM      9  O   UNL     1      13.185 -19.870 -52.459  1.00  0.00    -0.248 OA
ATOM     10  N   UNL     1      14.534 -18.305 -51.513  1.00  0.00    -0.341 N 
ATOM     11  H   UNL     1      13.553 -20.026 -49.197  1.00  0.00     0.174 HD
ATOM     12  C   UNL     1      14.793 -17.750 -52.803  1.00  0.00     0.144 C 
ATOM     13  H   UNL     1      14.918 -17.970 -50.608  1.00  0.00     0.165 HD
ENDBRANCH   4   5
ENDBRANCH   1   4
BRANCH   1  14
ATOM     14  C   UNL     1      12.920 -23.801 -47.803  1.00  0.00     0.162 C 
BRANCH  14  15
ATOM     15  C   UNL     1      13.076 -24.025 -46.349  1.00  0.00     0.147 A 
ATOM     16  N   UNL     1      12.056 -23.682 -45.515  1.00  0.00    -0.196 NA
ATOM     17  N   UNL     1      14.220 -24.498 -45.780  1.00  0.00    -0.231 NA
ATOM     18  C   UNL     1      12.115 -23.782 -44.199  1.00  0.00     0.222 A 
ATOM     19  C   UNL     1      14.318 -24.611 -44.441  1.00  0.00     0.079 A 
ATOM     20  C   UNL     1      13.258 -24.251 -43.616  1.00  0.00     0.062 A 
ATOM     21  C   UNL     1      15.466 -25.073 -43.812  1.00  0.00     0.049 A 
ATOM     22  C   UNL     1      13.313 -24.333 -42.252  1.00  0.00     0.017 A 
ATOM     23  C   UNL     1      15.532 -25.158 -42.443  1.00  0.00     0.043 A 
ATOM     24  C   UNL     1      14.454 -24.789 -41.621  1.00  0.00     0.021 A 
ATOM     25  Cl  UNL     1      16.991 -25.720 -41.662  1.00  0.00    -0.084 Cl
BRANCH  18  26
ATOM     26  O   UNL     1      10.978 -23.394 -43.469  1.00  0.00    -0.493 OA
ATOM     27  H   UNL     1      10.562 -24.122 -42.856  1.00  0.00     0.295 HD
ENDBRANCH  18  26
ENDBRANCH  14  15
ENDBRANCH   1  14
TORSDOF 6
ENDMDL
MODEL 7
REMARK VINA RESULT:    -6.855      2.190      3.454
REMARK INTER + INTRA:          -9.654
REMARK INTER:                  -9.361
REMARK INTRA:                  -0.293
REMARK UNBOUND:                -0.596
REMARK SMILES CCN(CC(=O)NC(=O)NC)Cc1nc(O)c2ccc(Cl)cc2n1
REMARK SMILES IDX 3 1 2 2 1 3 4 4 5 5 6 6 7 7 8 8 9 9 10 10 11 12 12 14 13 15
REMARK SMILES IDX 14 16 24 17 15 18 23 19 17 20 22 21 18 22 20 23 19 24 21 25
REMARK SMILES IDX 16 26
REMARK H PARENT 7 11 10 13 16 27
ROOT
ATOM      1  N   UNL     1      14.558 -23.756 -46.093  1.00  0.00    -0.287 NA
ENDROOT
BRANCH   1   2
ATOM      2  C   UNL     1      15.900 -23.419 -46.423  1.00  0.00     0.082 C 
ATOM      3  C   UNL     1      16.514 -22.300 -45.698  1.00  0.00     0.021 C 
ENDBRANCH   1   2
BRANCH   1   4
ATOM      4  C   UNL     1      13.657 -22.720 -45.837  1.00  0.00     0.185 C 
BRANCH   4   5
ATOM      5  C   UNL     1      13.001 -22.140 -47.012  1.00  0.00     0.242 C 
ATOM      6  O   UNL     1      11.886 -22.098 -47.380  1.00  0.00    -0.273 OA
ATOM      7  N   UNL     1      14.123 -21.365 -48.061  1.00  0.00    -0.277 N 
ATOM      8  C   UNL     1      13.181 -20.888 -48.972  1.00  0.00     0.321 C 
ATOM      9  O   UNL     1      12.012 -20.855 -49.153  1.00  0.00    -0.248 OA
ATOM     10  N   UNL     1      13.994 -20.199 -50.050  1.00  0.00    -0.341 N 
ATOM     11  H   UNL     1      14.722 -21.669 -47.482  1.00  0.00     0.174 HD
ATOM     12  C   UNL     1      13.300 -19.613 -51.152  1.00  0.00     0.144 C 
ATOM     13  H   UNL     1      15.022 -20.211 -49.903  1.00  0.00     0.165 HD
ENDBRANCH   4   5
ENDBRANCH   1   4
BRANCH   1  14
ATOM     14  C   UNL     1      14.396 -24.930 -45.307  1.00  0.00     0.162 C 
BRANCH  14  15
ATOM     15  C   UNL     1      14.833 -24.843 -43.897  1.00  0.00     0.147 A 
ATOM     16  N   UNL     1      16.133 -25.110 -43.590  1.00  0.00    -0.196 NA
ATOM     17  N   UNL     1      13.988 -24.574 -42.862  1.00  0.00    -0.231 NA
ATOM     18  C   UNL     1      16.613 -25.121 -42.359  1.00  0.00     0.222 A 
ATOM     19  C   UNL     1      14.440 -24.580 -41.593  1.00  0.00     0.079 A 
ATOM     20  C   UNL     1      15.775 -24.857 -41.314  1.00  0.00     0.062 A 
ATOM     21  C   UNL     1      13.617 -24.326 -40.505  1.00  0.00     0.049 A 
ATOM     22  C   UNL     1      16.279 -24.889 -40.043  1.00  0.00     0.017 A 
ATOM     23  C   UNL     1      14.114 -24.358 -39.224  1.00  0.00     0.043 A 
ATOM     24  C   UNL     1      15.463 -24.641 -38.957  1.00  0.00     0.021 A 
ATOM     25  Cl  UNL     1      13.062 -24.059 -37.862  1.00  0.00    -0.084 Cl
BRANCH  18  26
ATOM     26  O   UNL     1      17.980 -25.408 -42.200  1.00  0.00    -0.493 OA
ATOM     27  H   UNL     1      18.573 -24.623 -41.871  1.00  0.00     0.295 HD
ENDBRANCH  18  26
ENDBRANCH  14  15
ENDBRANCH   1  14
TORSDOF 6
ENDMDL
MODEL 8
REMARK VINA RESULT:    -6.853      3.315      4.130
REMARK INTER + INTRA:          -9.652
REMARK INTER:                  -8.985
REMARK INTRA:                  -0.667
REMARK UNBOUND:                -0.596
REMARK SMILES CCN(CC(=O)NC(=O)NC)Cc1nc(O)c2ccc(Cl)cc2n1
REMARK SMILES IDX 3 1 2 2 1 3 4 4 5 5 6 6 7 7 8 8 9 9 10 10 11 12 12 14 13 15
REMARK SMILES IDX 14 16 24 17 15 18 23 19 17 20 22 21 18 22 20 23 19 24 21 25
REMARK SMILES IDX 16 26
REMARK H PARENT 7 11 10 13 16 27
ROOT
ATOM      1  N   UNL     1      14.179 -23.487 -46.338  1.00  0.00    -0.287 NA
ENDROOT
BRANCH   1   2
ATOM      2  C   UNL     1      15.297 -22.686 -46.702  1.00  0.00     0.082 C 
ATOM      3  C   UNL     1      15.244 -22.003 -48.001  1.00  0.00     0.021 C 
ENDBRANCH   1   2
BRANCH   1   4
ATOM      4  C   UNL     1      12.993 -22.845 -45.973  1.00  0.00     0.185 C 
BRANCH   4   5
ATOM      5  C   UNL     1      11.784 -23.299 -46.667  1.00  0.00     0.242 C 
ATOM      6  O   UNL     1      10.907 -24.024 -46.375  1.00  0.00    -0.273 OA
ATOM      7  N   UNL     1      11.645 -22.614 -48.239  1.00  0.00    -0.277 N 
ATOM      8  C   UNL     1      10.406 -23.176 -48.545  1.00  0.00     0.321 C 
ATOM      9  O   UNL     1       9.560 -23.853 -48.067  1.00  0.00    -0.248 OA
ATOM     10  N   UNL     1      10.113 -22.730 -49.963  1.00  0.00    -0.341 N 
ATOM     11  H   UNL     1      12.433 -22.258 -48.044  1.00  0.00     0.174 HD
ATOM     12  C   UNL     1       8.900 -23.167 -50.576  1.00  0.00     0.144 C 
ATOM     13  H   UNL     1      10.841 -22.128 -50.395  1.00  0.00     0.165 HD
ENDBRANCH   4   5
ENDBRANCH   1   4
BRANCH   1  14
ATOM     14  C   UNL     1      14.485 -24.679 -45.625  1.00  0.00     0.162 C 
BRANCH  14  15
ATOM     15  C   UNL     1      14.890 -24.516 -44.212  1.00  0.00     0.147 A 
ATOM     16  N   UNL     1      16.216 -24.517 -43.900  1.00  0.00    -0.196 NA
ATOM     17  N   UNL     1      14.004 -24.430 -43.181  1.00  0.00    -0.231 NA
ATOM     18  C   UNL     1      16.683 -24.440 -42.666  1.00  0.00     0.222 A 
ATOM     19  C   UNL     1      14.442 -24.354 -41.909  1.00  0.00     0.079 A 
ATOM     20  C   UNL     1      15.804 -24.358 -41.624  1.00  0.00     0.062 A 
ATOM     21  C   UNL     1      13.579 -24.279 -40.825  1.00  0.00     0.049 A 
ATOM     22  C   UNL     1      16.298 -24.297 -40.351  1.00  0.00     0.017 A 
ATOM     23  C   UNL     1      14.067 -24.218 -39.541  1.00  0.00     0.043 A 
ATOM     24  C   UNL     1      15.445 -24.226 -39.268  1.00  0.00     0.021 A 
ATOM     25  Cl  UNL     1      12.971 -24.148 -38.183  1.00  0.00    -0.084 Cl
BRANCH  18  26
ATOM     26  O   UNL     1      18.079 -24.447 -42.502  1.00  0.00    -0.493 OA
ATOM     27  H   UNL     1      18.549 -23.525 -42.578  1.00  0.00     0.295 HD
ENDBRANCH  18  26
ENDBRANCH  14  15
ENDBRANCH   1  14
TORSDOF 6
ENDMDL
MODEL 9
REMARK VINA RESULT:    -6.794      3.977      7.578
REMARK INTER + INTRA:          -9.574
REMARK INTER:                  -8.997
REMARK INTRA:                  -0.577
REMARK UNBOUND:                -0.596
REMARK SMILES CCN(CC(=O)NC(=O)NC)Cc1nc(O)c2ccc(Cl)cc2n1
REMARK SMILES IDX 3 1 2 2 1 3 4 4 5 5 6 6 7 7 8 8 9 9 10 10 11 12 12 14 13 15
REMARK SMILES IDX 14 16 24 17 15 18 23 19 17 20 22 21 18 22 20 23 19 24 21 25
REMARK SMILES IDX 16 26
REMARK H PARENT 7 11 10 13 16 27
ROOT
ATOM      1  N   UNL     1      13.466 -25.005 -43.288  1.00  0.00    -0.287 NA
ENDROOT
BRANCH   1   2
ATOM      2  C   UNL     1      13.257 -25.581 -42.003  1.00  0.00     0.082 C 
ATOM      3  C   UNL     1      13.074 -24.662 -40.873  1.00  0.00     0.021 C 
ENDBRANCH   1   2
BRANCH   1   4
ATOM      4  C   UNL     1      14.716 -25.161 -43.890  1.00  0.00     0.185 C 
BRANCH   4   5
ATOM      5  C   UNL     1      15.768 -24.253 -43.422  1.00  0.00     0.242 C 
ATOM      6  O   UNL     1      15.940 -23.661 -42.423  1.00  0.00    -0.273 OA
ATOM      7  N   UNL     1      16.993 -24.019 -44.607  1.00  0.00    -0.277 N 
ATOM      8  C   UNL     1      17.816 -23.212 -43.822  1.00  0.00     0.321 C 
ATOM      9  O   UNL     1      17.889 -22.759 -42.730  1.00  0.00    -0.248 OA
ATOM     10  N   UNL     1      18.970 -22.831 -44.728  1.00  0.00    -0.341 N 
ATOM     11  H   UNL     1      16.470 -24.532 -45.106  1.00  0.00     0.174 HD
ATOM     12  C   UNL     1      19.989 -21.977 -44.206  1.00  0.00     0.144 C 
ATOM     13  H   UNL     1      18.926 -23.226 -45.688  1.00  0.00     0.165 HD
ENDBRANCH   4   5
ENDBRANCH   1   4
BRANCH   1  14
ATOM     14  C   UNL     1      12.818 -23.759 -43.514  1.00  0.00     0.162 C 
BRANCH  14  15
ATOM     15  C   UNL     1      12.452 -23.453 -44.915  1.00  0.00     0.147 A 
ATOM     16  N   UNL     1      11.636 -24.311 -45.587  1.00  0.00    -0.196 NA
ATOM     17  N   UNL     1      12.944 -22.385 -45.604  1.00  0.00    -0.231 NA
ATOM     18  C   UNL     1      11.299 -24.166 -46.857  1.00  0.00     0.222 A 
ATOM     19  C   UNL     1      12.625 -22.206 -46.901  1.00  0.00     0.079 A 
ATOM     20  C   UNL     1      11.789 -23.101 -47.559  1.00  0.00     0.062 A 
ATOM     21  C   UNL     1      13.111 -21.143 -47.649  1.00  0.00     0.049 A 
ATOM     22  C   UNL     1      11.448 -22.971 -48.876  1.00  0.00     0.017 A 
ATOM     23  C   UNL     1      12.775 -21.004 -48.974  1.00  0.00     0.043 A 
ATOM     24  C   UNL     1      11.931 -21.918 -49.627  1.00  0.00     0.021 A 
ATOM     25  Cl  UNL     1      13.412 -19.674 -49.912  1.00  0.00    -0.084 Cl
BRANCH  18  26
ATOM     26  O   UNL     1      10.442 -25.131 -47.413  1.00  0.00    -0.493 OA
ATOM     27  H   UNL     1      10.813 -26.100 -47.450  1.00  0.00     0.295 HD
ENDBRANCH  18  26
ENDBRANCH  14  15
ENDBRANCH   1  14
TORSDOF 6
ENDMDL
