REMARK SMILES CCCn1c(CCC(=O)NNC(=O)c2cc([N+](=O)[O-])c[nH]2)nc2cc(S(N)(=O)=O)ccc21
REMARK SMILES IDX 7 1 6 2 5 3 4 4 32 5 22 6 31 7 23 8 30 9 24 10 25 11 3 12
REMARK SMILES IDX 2 13 1 14 26 15 28 16 29 17 27 18 8 21 9 22 10 23 11 25
REMARK SMILES IDX 12 26 13 27 14 29 15 30 21 31 16 32 20 33 17 35 18 36 19 37
REMARK H PARENT 27 19 27 20 10 24 11 28 21 34
ROOT
ATOM      1  C   UNL     1      -0.268   0.546  -0.277  1.00  0.00     0.110 C 
ENDROOT
BRANCH   1   2
ATOM      2  C   UNL     1      -0.123  -0.195   1.048  1.00  0.00     0.085 C 
BRANCH   2   3
ATOM      3  C   UNL     1       0.769  -1.389   0.929  1.00  0.00     0.110 A 
ATOM      4  N   UNL     1       1.206  -2.129   2.009  1.00  0.00    -0.328 N 
ATOM      5  C   UNL     1       2.008  -3.146   1.538  1.00  0.00     0.068 A 
ATOM      6  N   UNL     1       1.245  -1.885  -0.196  1.00  0.00    -0.233 NA
ATOM      7  C   UNL     1       2.717  -4.177   2.168  1.00  0.00     0.030 A 
ATOM      8  C   UNL     1       2.017  -2.959   0.159  1.00  0.00     0.090 A 
ATOM      9  C   UNL     1       3.448  -5.042   1.347  1.00  0.00     0.024 A 
ATOM     10  C   UNL     1       2.754  -3.824  -0.658  1.00  0.00     0.052 A 
ATOM     11  C   UNL     1       3.456  -4.868  -0.041  1.00  0.00     0.084 A 
BRANCH   4  12
ATOM     12  C   UNL     1       0.877  -1.895   3.404  1.00  0.00     0.124 C 
BRANCH  12  13
ATOM     13  C   UNL     1       1.917  -1.021   4.102  1.00  0.00     0.018 C 
ATOM     14  C   UNL     1       1.549  -0.779   5.556  1.00  0.00     0.006 C 
ENDBRANCH  12  13
ENDBRANCH   4  12
BRANCH  11  15
ATOM     15  S   UNL     1       4.386  -5.975  -1.065  1.00  0.00     0.238 S 
ATOM     16  O   UNL     1       5.149  -6.860  -0.214  1.00  0.00    -0.207 OA
ATOM     17  O   UNL     1       4.987  -5.213  -2.132  1.00  0.00    -0.207 OA
BRANCH  15  18
ATOM     18  N   UNL     1       3.168  -6.934  -1.724  1.00  0.00    -0.225 NA
ATOM     19  H   UNL     1       3.287  -7.893  -1.394  1.00  0.00     0.137 HD
ATOM     20  H   UNL     1       2.229  -6.580  -1.543  1.00  0.00     0.137 HD
ENDBRANCH  15  18
ENDBRANCH  11  15
ENDBRANCH   2   3
ENDBRANCH   1   2
BRANCH   1  21
ATOM     21  C   UNL     1      -1.163   1.752  -0.131  1.00  0.00     0.238 C 
ATOM     22  O   UNL     1      -1.715   2.081   0.917  1.00  0.00    -0.273 OA
ATOM     23  N   UNL     1      -1.301   2.472  -1.304  1.00  0.00    -0.267 N 
ATOM     24  H   UNL     1      -1.106   2.033  -2.205  1.00  0.00     0.191 HD
BRANCH  23  25
ATOM     25  N   UNL     1      -2.297   3.467  -1.322  1.00  0.00    -0.262 N 
ATOM     26  C   UNL     1      -3.122   3.530  -2.427  1.00  0.00     0.286 C 
ATOM     27  O   UNL     1      -2.888   2.890  -3.451  1.00  0.00    -0.266 OA
ATOM     28  H   UNL     1      -2.618   3.775  -0.407  1.00  0.00     0.191 HD
BRANCH  26  29
ATOM     29  C   UNL     1      -4.283   4.384  -2.297  1.00  0.00     0.113 A 
ATOM     30  C   UNL     1      -4.726   5.207  -1.272  1.00  0.00     0.119 A 
ATOM     31  N   UNL     1      -5.205   4.498  -3.320  1.00  0.00    -0.351 N 
ATOM     32  C   UNL     1      -5.942   5.820  -1.691  1.00  0.00     0.287 A 
ATOM     33  C   UNL     1      -6.210   5.358  -2.965  1.00  0.00     0.169 A 
ATOM     34  H   UNL     1      -5.126   4.004  -4.203  1.00  0.00     0.166 HD
BRANCH  32  35
ATOM     35  N   UNL     1      -6.753   6.750  -0.945  1.00  0.00     0.064 N 
ATOM     36  O   UNL     1      -7.781   7.171  -1.490  1.00  0.00    -0.258 OA
ATOM     37  O   UNL     1      -6.351   7.052   0.186  1.00  0.00    -0.258 OA
ENDBRANCH  32  35
ENDBRANCH  26  29
ENDBRANCH  23  25
ENDBRANCH   1  21
TORSDOF 10
