REMARK SMILES CCN(CC(=O)NC(=O)NC)Cc1nc(O)c2ccc(Cl)cc2n1
REMARK SMILES IDX 3 1 2 2 1 3 4 4 5 5 6 6 7 7 8 8 9 9 10 10 11 12 12 14 13 15
REMARK SMILES IDX 14 16 24 17 15 18 23 19 17 20 22 21 18 22 20 23 19 24 21 25
REMARK SMILES IDX 16 26
REMARK H PARENT 7 11 10 13 16 27
ROOT
ATOM      1  N   UNL     1      -0.434  -0.552  -0.085  1.00  0.00    -0.287 NA
ENDROOT
BRANCH   1   2
ATOM      2  C   UNL     1      -1.736  -0.622   0.484  1.00  0.00     0.082 C 
ATOM      3  C   UNL     1      -2.851  -0.096  -0.313  1.00  0.00     0.021 C 
ENDBRANCH   1   2
BRANCH   1   4
ATOM      4  C   UNL     1       0.603  -1.248   0.541  1.00  0.00     0.185 C 
BRANCH   4   5
ATOM      5  C   UNL     1       0.594  -2.703   0.361  1.00  0.00     0.242 C 
ATOM      6  O   UNL     1       1.236  -3.578   0.809  1.00  0.00    -0.273 OA
ATOM      7  N   UNL     1      -0.620  -3.209  -0.748  1.00  0.00    -0.277 N 
ATOM      8  C   UNL     1      -0.396  -4.578  -0.610  1.00  0.00     0.321 C 
ATOM      9  O   UNL     1       0.273  -5.344  -0.004  1.00  0.00    -0.248 OA
ATOM     10  N   UNL     1      -1.358  -5.232  -1.582  1.00  0.00    -0.341 N 
ATOM     11  H   UNL     1      -0.762  -2.338  -0.836  1.00  0.00     0.174 HD
ATOM     12  C   UNL     1      -1.354  -6.656  -1.686  1.00  0.00     0.144 C 
ATOM     13  H   UNL     1      -1.959  -4.575  -2.117  1.00  0.00     0.165 HD
ENDBRANCH   4   5
ENDBRANCH   1   4
BRANCH   1  14
ATOM     14  C   UNL     1      -0.083   0.700  -0.662  1.00  0.00     0.162 C 
BRANCH  14  15
ATOM     15  C   UNL     1       0.049   1.840   0.271  1.00  0.00     0.147 A 
ATOM     16  N   UNL     1      -1.070   2.346   0.859  1.00  0.00    -0.196 NA
ATOM     17  N   UNL     1       1.231   2.467   0.530  1.00  0.00    -0.231 NA
ATOM     18  C   UNL     1      -1.072   3.399   1.657  1.00  0.00     0.222 A 
ATOM     19  C   UNL     1       1.268   3.546   1.336  1.00  0.00     0.079 A 
ATOM     20  C   UNL     1       0.106   4.038   1.921  1.00  0.00     0.062 A 
ATOM     21  C   UNL     1       2.444   4.227   1.619  1.00  0.00     0.049 A 
ATOM     22  C   UNL     1       0.089   5.137   2.734  1.00  0.00     0.017 A 
ATOM     23  C   UNL     1       2.437   5.333   2.434  1.00  0.00     0.043 A 
ATOM     24  C   UNL     1       1.255   5.821   3.016  1.00  0.00     0.021 A 
ATOM     25  Cl  UNL     1       3.920   6.196   2.764  1.00  0.00    -0.084 Cl
BRANCH  18  26
ATOM     26  O   UNL     1      -2.307   3.801   2.195  1.00  0.00    -0.493 OA
ATOM     27  H   UNL     1      -2.738   3.149   2.878  1.00  0.00     0.295 HD
ENDBRANCH  18  26
ENDBRANCH  14  15
ENDBRANCH   1  14
TORSDOF 6
