REMARK SMILES O=C1N=C([S-])N(c2cccc(C(F)(F)F)c2)C(=O)/C1=C/c1cc2c3c(c1)CCCN3CCC2
REMARK SMILES IDX 7 1 8 2 9 3 10 4 11 5 16 6 6 7 1 8 2 9 3 10 19 11 4 12 17 13
REMARK SMILES IDX 20 14 18 15 5 16 21 17 22 18 26 19 23 20 25 21 24 22 33 23
REMARK SMILES IDX 27 24 30 25 32 26 28 27 29 28 31 29 12 30 13 31 14 32 15 33
REMARK H PARENT
ROOT
ATOM      1  C   UNL     1       4.324   2.461  -0.345  1.00  0.00     0.049 A 
ATOM      2  C   UNL     1       4.520   2.766  -1.701  1.00  0.00     0.027 A 
ATOM      3  C   UNL     1       5.497   3.680  -2.104  1.00  0.00     0.003 A 
ATOM      4  C   UNL     1       6.292   4.315  -1.154  1.00  0.00     0.013 A 
ATOM      5  C   UNL     1       6.110   4.050   0.210  1.00  0.00     0.058 A 
ATOM      6  C   UNL     1       5.126   3.124   0.598  1.00  0.00     0.039 A 
ENDROOT
BRANCH   1   7
ATOM      7  N   UNL     1       3.301   1.538   0.077  1.00  0.00    -0.285 N 
ATOM      8  O   UNL     1       0.358  -0.071   2.128  1.00  0.00    -0.267 OA
ATOM      9  C   UNL     1       1.287   0.131   1.354  1.00  0.00     0.282 C 
ATOM     10  N   UNL     1       2.592  -0.082   1.663  1.00  0.00    -0.220 NA
ATOM     11  C   UNL     1       1.065   0.619  -0.019  1.00  0.00     0.108 C 
ATOM     12  C   UNL     1       3.527   0.589   1.077  1.00  0.00    -0.003 C 
ATOM     13  C   UNL     1       2.065   1.569  -0.563  1.00  0.00     0.268 C 
ATOM     14  C   UNL     1       0.006   0.301  -0.790  1.00  0.00     0.028 C 
ATOM     15  O   UNL     1       1.744   2.312  -1.496  1.00  0.00    -0.268 OA
ATOM     16  S   UNL     1       5.154   0.021   1.680  1.00  0.00    -0.742 S 
BRANCH  14  17
ATOM     17  C   UNL     1      -1.078  -0.646  -0.495  1.00  0.00    -0.024 A 
ATOM     18  C   UNL     1      -2.401  -0.254  -0.711  1.00  0.00     0.014 A 
ATOM     19  C   UNL     1      -0.825  -1.955  -0.082  1.00  0.00     0.014 A 
ATOM     20  C   UNL     1      -3.465  -1.143  -0.479  1.00  0.00    -0.024 A 
ATOM     21  C   UNL     1      -1.879  -2.862   0.129  1.00  0.00    -0.024 A 
ATOM     22  C   UNL     1      -3.218  -2.466  -0.063  1.00  0.00     0.043 A 
ATOM     23  C   UNL     1      -4.877  -0.669  -0.698  1.00  0.00     0.039 C 
ATOM     24  C   UNL     1      -1.551  -4.252   0.611  1.00  0.00     0.039 C 
ATOM     25  N   UNL     1      -4.263  -3.358   0.144  1.00  0.00    -0.371 N 
ATOM     26  C   UNL     1      -5.853  -1.480   0.143  1.00  0.00     0.026 C 
ATOM     27  C   UNL     1      -2.685  -5.223   0.317  1.00  0.00     0.026 C 
ATOM     28  C   UNL     1      -4.001  -4.632   0.799  1.00  0.00     0.117 C 
ATOM     29  C   UNL     1      -5.641  -2.963  -0.115  1.00  0.00     0.117 C 
ENDBRANCH  14  17
ENDBRANCH   1   7
BRANCH   5  30
ATOM     30  C   UNL     1       6.977   4.725   1.240  1.00  0.00     0.416 C 
ATOM     31  F   UNL     1       7.267   6.019   0.900  1.00  0.00    -0.166 F 
ATOM     32  F   UNL     1       6.416   4.803   2.478  1.00  0.00    -0.166 F 
ATOM     33  F   UNL     1       8.186   4.121   1.404  1.00  0.00    -0.166 F 
ENDBRANCH   5  30
TORSDOF 3
