REMARK SMILES Oc1ccc(-n2ncc3c2-c2cc(O)c(O)cc2CC3)cc1
REMARK SMILES IDX 6 1 7 2 8 3 9 4 10 5 11 6 12 7 13 8 15 9 17 10 18 11 19 12
REMARK SMILES IDX 20 13 5 14 2 15 3 16 22 17 4 18 21 19 1 20 14 22 16 24
REMARK H PARENT 1 21 14 23 16 25
ROOT
ATOM      1  N   UNL     1      -0.735  -0.422   0.380  1.00  0.00    -0.233 N 
ATOM      2  N   UNL     1      -0.092  -1.532   0.849  1.00  0.00    -0.176 NA
ATOM      3  C   UNL     1       0.375  -1.157   2.041  1.00  0.00     0.140 A 
ATOM      4  C   UNL     1       0.222   0.218   2.250  1.00  0.00    -0.001 A 
ATOM      5  C   UNL     1      -0.311   0.710   1.069  1.00  0.00     0.078 A 
ATOM      6  C   UNL     1      -0.362   2.143   0.754  1.00  0.00     0.008 A 
ATOM      7  C   UNL     1      -0.772   2.663  -0.481  1.00  0.00     0.060 A 
ATOM      8  C   UNL     1      -0.800   4.041  -0.680  1.00  0.00     0.158 A 
ATOM      9  C   UNL     1      -0.385   4.910   0.322  1.00  0.00     0.157 A 
ATOM     10  C   UNL     1       0.100   4.422   1.524  1.00  0.00     0.054 A 
ATOM     11  C   UNL     1       0.135   3.035   1.745  1.00  0.00    -0.034 A 
ATOM     12  C   UNL     1       0.874   2.521   2.975  1.00  0.00     0.041 C 
ATOM     13  C   UNL     1       0.549   1.082   3.408  1.00  0.00     0.044 C 
ENDROOT
BRANCH   1  14
ATOM     14  C   UNL     1      -1.776  -0.589  -0.576  1.00  0.00     0.066 A 
ATOM     15  C   UNL     1      -3.838  -1.001  -2.408  1.00  0.00     0.115 A 
ATOM     16  C   UNL     1      -2.762  -1.879  -2.376  1.00  0.00     0.048 A 
ATOM     17  C   UNL     1      -3.913   0.069  -1.521  1.00  0.00     0.048 A 
ATOM     18  C   UNL     1      -1.735  -1.685  -1.451  1.00  0.00     0.032 A 
ATOM     19  C   UNL     1      -2.884   0.271  -0.597  1.00  0.00     0.032 A 
BRANCH  15  20
ATOM     20  O   UNL     1      -4.820  -1.233  -3.325  1.00  0.00    -0.508 OA
ATOM     21  H   UNL     1      -5.534  -0.588  -3.190  1.00  0.00     0.293 HD
ENDBRANCH  15  20
ENDBRANCH   1  14
BRANCH   8  22
ATOM     22  O   UNL     1      -1.217   4.590  -1.862  1.00  0.00    -0.504 OA
ATOM     23  H   UNL     1      -1.417   3.867  -2.482  1.00  0.00     0.293 HD
ENDBRANCH   8  22
BRANCH   9  24
ATOM     24  O   UNL     1      -0.413   6.258   0.112  1.00  0.00    -0.504 OA
ATOM     25  H   UNL     1      -0.759   6.358  -0.797  1.00  0.00     0.293 HD
ENDBRANCH   9  24
TORSDOF 4
