MODEL 1
REMARK VINA RESULT:    -7.439      0.000      0.000
REMARK INTER + INTRA:         -10.134
REMARK INTER:                  -8.744
REMARK INTRA:                  -1.390
REMARK UNBOUND:                -1.390
REMARK SMILES Cc1cccc(N2C(=O)[C@@H]3[C@@H]4C[C@@H]5[C@]6(C)CCC[C@@](C)(C(=O)[O-])[C@@H]6CC[C@]5(C=C4C(C)C)[C@@H]3C2=O)c1
REMARK SMILES IDX 7 1 8 2 9 3 10 4 11 5 12 6 13 7 14 8 15 9 16 10 17 11 18 12
REMARK SMILES IDX 19 13 20 14 24 15 25 16 26 17 27 18 28 19 29 20 33 21 34 22
REMARK SMILES IDX 35 23 6 24 2 25 3 26 36 27 4 28 5 29 1 30 30 31 31 32 32 33
REMARK SMILES IDX 21 34 22 35 23 36
REMARK H PARENT
ROOT
ATOM      1  N   UNL     1      -0.316  -4.944 -34.881  1.00  0.00    -0.250 N 
ATOM      2  C   UNL     1      -1.296  -5.494 -34.081  1.00  0.00     0.238 C 
ATOM      3  O   UNL     1      -2.432  -5.095 -33.852  1.00  0.00    -0.274 OA
ATOM      4  C   UNL     1      -0.774  -6.761 -33.470  1.00  0.00     0.100 C 
ATOM      5  C   UNL     1      -0.969  -6.860 -31.946  1.00  0.00     0.028 C 
ATOM      6  C   UNL     1      -0.244  -5.680 -31.246  1.00  0.00     0.014 C 
ATOM      7  C   UNL     1       1.296  -5.821 -31.410  1.00  0.00     0.007 C 
ATOM      8  C   UNL     1       2.140  -4.494 -31.346  1.00  0.00    -0.025 C 
ATOM      9  C   UNL     1       1.971  -3.945 -29.895  1.00  0.00     0.012 C 
ATOM     10  C   UNL     1       1.624  -3.401 -32.311  1.00  0.00     0.007 C 
ATOM     11  C   UNL     1       2.696  -2.533 -32.963  1.00  0.00     0.002 C 
ATOM     12  C   UNL     1       3.855  -2.251 -32.027  1.00  0.00     0.013 C 
ATOM     13  C   UNL     1       4.578  -3.534 -31.550  1.00  0.00     0.010 C 
ATOM     14  C   UNL     1       5.892  -3.698 -32.348  1.00  0.00     0.018 C 
ATOM     15  C   UNL     1       3.656  -4.818 -31.600  1.00  0.00     0.007 C 
ATOM     16  C   UNL     1       3.834  -5.671 -32.879  1.00  0.00     0.006 C 
ATOM     17  C   UNL     1       3.092  -7.004 -32.809  1.00  0.00     0.012 C 
ATOM     18  C   UNL     1       1.595  -6.872 -32.534  1.00  0.00     0.004 C 
ATOM     19  C   UNL     1       1.048  -8.180 -31.892  1.00  0.00    -0.019 C 
ATOM     20  C   UNL     1      -0.260  -8.156 -31.552  1.00  0.00    -0.067 C 
ATOM     21  C   UNL     1       0.715  -6.789 -33.824  1.00  0.00     0.103 C 
ATOM     22  C   UNL     1       0.866  -5.660 -34.806  1.00  0.00     0.238 C 
ATOM     23  O   UNL     1       1.877  -5.533 -35.484  1.00  0.00    -0.274 OA
ENDROOT
BRANCH   1  24
ATOM     24  C   UNL     1      -0.495  -3.768 -35.683  1.00  0.00     0.052 A 
ATOM     25  C   UNL     1      -1.089  -2.705 -37.824  1.00  0.00    -0.049 A 
ATOM     26  C   UNL     1      -0.816  -1.448 -37.287  1.00  0.00     0.003 A 
ATOM     27  C   UNL     1      -0.919  -3.847 -37.023  1.00  0.00     0.030 A 
ATOM     28  C   UNL     1      -0.398  -1.338 -35.965  1.00  0.00     0.002 A 
ATOM     29  C   UNL     1      -0.242  -2.483 -35.176  1.00  0.00     0.027 A 
ATOM     30  C   UNL     1      -1.491  -2.851 -39.263  1.00  0.00     0.044 C 
ENDBRANCH   1  24
BRANCH  20  31
ATOM     31  C   UNL     1      -0.987  -9.277 -30.856  1.00  0.00     0.009 C 
ATOM     32  C   UNL     1      -2.332  -8.809 -30.300  1.00  0.00     0.012 C 
ATOM     33  C   UNL     1      -1.168 -10.485 -31.777  1.00  0.00     0.012 C 
ENDBRANCH  20  31
BRANCH  13  34
ATOM     34  C   UNL     1       5.198  -3.283 -30.125  1.00  0.00     0.048 C 
ATOM     35  O   UNL     1       4.914  -2.174 -29.586  1.00  0.00    -0.550 OA
ATOM     36  O   UNL     1       5.941  -4.201 -29.675  1.00  0.00    -0.550 OA
ENDBRANCH  13  34
TORSDOF 3
ENDMDL
MODEL 2
REMARK VINA RESULT:    -5.901      2.231      6.198
REMARK INTER + INTRA:          -8.325
REMARK INTER:                  -7.141
REMARK INTRA:                  -1.185
REMARK UNBOUND:                -1.390
REMARK SMILES Cc1cccc(N2C(=O)[C@@H]3[C@@H]4C[C@@H]5[C@]6(C)CCC[C@@](C)(C(=O)[O-])[C@@H]6CC[C@]5(C=C4C(C)C)[C@@H]3C2=O)c1
REMARK SMILES IDX 7 1 8 2 9 3 10 4 11 5 12 6 13 7 14 8 15 9 16 10 17 11 18 12
REMARK SMILES IDX 19 13 20 14 24 15 25 16 26 17 27 18 28 19 29 20 33 21 34 22
REMARK SMILES IDX 35 23 6 24 2 25 3 26 36 27 4 28 5 29 1 30 30 31 31 32 32 33
REMARK SMILES IDX 21 34 22 35 23 36
REMARK H PARENT
ROOT
ATOM      1  N   UNL     1       2.040  -5.989 -31.789  1.00  0.00    -0.250 N 
ATOM      2  C   UNL     1       1.978  -7.262 -32.317  1.00  0.00     0.238 C 
ATOM      3  O   UNL     1       2.835  -7.899 -32.919  1.00  0.00    -0.274 OA
ATOM      4  C   UNL     1       0.622  -7.840 -32.040  1.00  0.00     0.100 C 
ATOM      5  C   UNL     1      -0.075  -8.446 -33.271  1.00  0.00     0.028 C 
ATOM      6  C   UNL     1      -0.254  -7.357 -34.362  1.00  0.00     0.014 C 
ATOM      7  C   UNL     1      -1.268  -6.279 -33.883  1.00  0.00     0.007 C 
ATOM      8  C   UNL     1      -1.123  -4.843 -34.511  1.00  0.00    -0.025 C 
ATOM      9  C   UNL     1      -1.442  -5.001 -36.031  1.00  0.00     0.012 C 
ATOM     10  C   UNL     1       0.312  -4.276 -34.403  1.00  0.00     0.007 C 
ATOM     11  C   UNL     1       0.414  -2.775 -34.153  1.00  0.00     0.002 C 
ATOM     12  C   UNL     1      -0.670  -1.996 -34.874  1.00  0.00     0.013 C 
ATOM     13  C   UNL     1      -2.100  -2.404 -34.443  1.00  0.00     0.010 C 
ATOM     14  C   UNL     1      -2.655  -1.338 -33.471  1.00  0.00     0.018 C 
ATOM     15  C   UNL     1      -2.176  -3.873 -33.864  1.00  0.00     0.007 C 
ATOM     16  C   UNL     1      -2.119  -3.945 -32.319  1.00  0.00     0.006 C 
ATOM     17  C   UNL     1      -2.402  -5.345 -31.780  1.00  0.00     0.012 C 
ATOM     18  C   UNL     1      -1.479  -6.428 -32.337  1.00  0.00     0.004 C 
ATOM     19  C   UNL     1      -2.167  -7.821 -32.248  1.00  0.00    -0.019 C 
ATOM     20  C   UNL     1      -1.461  -8.850 -32.768  1.00  0.00    -0.067 C 
ATOM     21  C   UNL     1      -0.199  -6.678 -31.476  1.00  0.00     0.103 C 
ATOM     22  C   UNL     1       0.823  -5.597 -31.257  1.00  0.00     0.238 C 
ATOM     23  O   UNL     1       0.569  -4.600 -30.594  1.00  0.00    -0.274 OA
ENDROOT
BRANCH   1  24
ATOM     24  C   UNL     1       3.216  -5.166 -31.801  1.00  0.00     0.052 A 
ATOM     25  C   UNL     1       4.961  -3.907 -30.604  1.00  0.00    -0.049 A 
ATOM     26  C   UNL     1       5.520  -3.509 -31.817  1.00  0.00     0.003 A 
ATOM     27  C   UNL     1       3.815  -4.721 -30.608  1.00  0.00     0.030 A 
ATOM     28  C   UNL     1       4.952  -3.935 -33.011  1.00  0.00     0.002 A 
ATOM     29  C   UNL     1       3.816  -4.753 -33.001  1.00  0.00     0.027 A 
ATOM     30  C   UNL     1       5.527  -3.416 -29.303  1.00  0.00     0.044 C 
ENDBRANCH   1  24
BRANCH  20  31
ATOM     31  C   UNL     1      -1.954 -10.271 -32.856  1.00  0.00     0.009 C 
ATOM     32  C   UNL     1      -1.509 -11.091 -31.644  1.00  0.00     0.012 C 
ATOM     33  C   UNL     1      -3.473 -10.329 -33.026  1.00  0.00     0.012 C 
ENDBRANCH  20  31
BRANCH  13  34
ATOM     34  C   UNL     1      -3.092  -2.167 -35.642  1.00  0.00     0.048 C 
ATOM     35  O   UNL     1      -4.222  -2.728 -35.545  1.00  0.00    -0.550 OA
ATOM     36  O   UNL     1      -2.650  -1.464 -36.595  1.00  0.00    -0.550 OA
ENDBRANCH  13  34
TORSDOF 3
ENDMDL
MODEL 3
REMARK VINA RESULT:    -5.337      2.660      5.858
REMARK INTER + INTRA:          -7.663
REMARK INTER:                  -7.556
REMARK INTRA:                  -0.107
REMARK UNBOUND:                -1.390
REMARK SMILES Cc1cccc(N2C(=O)[C@@H]3[C@@H]4C[C@@H]5[C@]6(C)CCC[C@@](C)(C(=O)[O-])[C@@H]6CC[C@]5(C=C4C(C)C)[C@@H]3C2=O)c1
REMARK SMILES IDX 7 1 8 2 9 3 10 4 11 5 12 6 13 7 14 8 15 9 16 10 17 11 18 12
REMARK SMILES IDX 19 13 20 14 24 15 25 16 26 17 27 18 28 19 29 20 33 21 34 22
REMARK SMILES IDX 35 23 6 24 2 25 3 26 36 27 4 28 5 29 1 30 30 31 31 32 32 33
REMARK SMILES IDX 21 34 22 35 23 36
REMARK H PARENT
ROOT
ATOM      1  N   UNL     1       2.381  -6.327 -32.017  1.00  0.00    -0.250 N 
ATOM      2  C   UNL     1       2.010  -7.112 -33.089  1.00  0.00     0.238 C 
ATOM      3  O   UNL     1       2.538  -7.230 -34.189  1.00  0.00    -0.274 OA
ATOM      4  C   UNL     1       0.781  -7.890 -32.723  1.00  0.00     0.100 C 
ATOM      5  C   UNL     1      -0.355  -7.807 -33.758  1.00  0.00     0.028 C 
ATOM      6  C   UNL     1      -0.786  -6.328 -33.949  1.00  0.00     0.014 C 
ATOM      7  C   UNL     1      -1.457  -5.793 -32.651  1.00  0.00     0.007 C 
ATOM      8  C   UNL     1      -1.390  -4.239 -32.409  1.00  0.00    -0.025 C 
ATOM      9  C   UNL     1      -2.226  -3.587 -33.554  1.00  0.00     0.012 C 
ATOM     10  C   UNL     1       0.045  -3.671 -32.512  1.00  0.00     0.007 C 
ATOM     11  C   UNL     1       0.381  -2.540 -31.544  1.00  0.00     0.002 C 
ATOM     12  C   UNL     1      -0.799  -1.617 -31.308  1.00  0.00     0.013 C 
ATOM     13  C   UNL     1      -2.028  -2.342 -30.706  1.00  0.00     0.010 C 
ATOM     14  C   UNL     1      -2.103  -2.034 -29.193  1.00  0.00     0.018 C 
ATOM     15  C   UNL     1      -2.051  -3.889 -31.027  1.00  0.00     0.007 C 
ATOM     16  C   UNL     1      -1.474  -4.775 -29.898  1.00  0.00     0.006 C 
ATOM     17  C   UNL     1      -1.697  -6.267 -30.142  1.00  0.00     0.012 C 
ATOM     18  C   UNL     1      -1.138  -6.773 -31.470  1.00  0.00     0.004 C 
ATOM     19  C   UNL     1      -1.892  -8.058 -31.918  1.00  0.00    -0.019 C 
ATOM     20  C   UNL     1      -1.517  -8.563 -33.115  1.00  0.00    -0.067 C 
ATOM     21  C   UNL     1       0.328  -7.310 -31.382  1.00  0.00     0.103 C 
ATOM     22  C   UNL     1       1.468  -6.415 -30.980  1.00  0.00     0.238 C 
ATOM     23  O   UNL     1       1.561  -5.966 -29.845  1.00  0.00    -0.274 OA
ENDROOT
BRANCH   1  24
ATOM     24  C   UNL     1       3.559  -5.508 -31.986  1.00  0.00     0.052 A 
ATOM     25  C   UNL     1       4.779  -3.542 -31.141  1.00  0.00    -0.049 A 
ATOM     26  C   UNL     1       5.871  -3.862 -31.945  1.00  0.00     0.003 A 
ATOM     27  C   UNL     1       3.636  -4.360 -31.175  1.00  0.00     0.030 A 
ATOM     28  C   UNL     1       5.825  -4.992 -32.755  1.00  0.00     0.002 A 
ATOM     29  C   UNL     1       4.684  -5.802 -32.772  1.00  0.00     0.027 A 
ATOM     30  C   UNL     1       4.786  -2.300 -30.299  1.00  0.00     0.044 C 
ENDBRANCH   1  24
BRANCH  20  31
ATOM     31  C   UNL     1      -2.153  -9.756 -33.780  1.00  0.00     0.009 C 
ATOM     32  C   UNL     1      -3.493 -10.107 -33.131  1.00  0.00     0.012 C 
ATOM     33  C   UNL     1      -2.316  -9.539 -35.285  1.00  0.00     0.012 C 
ENDBRANCH  20  31
BRANCH  13  34
ATOM     34  C   UNL     1      -3.342  -1.604 -31.162  1.00  0.00     0.048 C 
ATOM     35  O   UNL     1      -4.187  -1.365 -30.250  1.00  0.00    -0.550 OA
ATOM     36  O   UNL     1      -3.433  -1.347 -32.396  1.00  0.00    -0.550 OA
ENDBRANCH  13  34
TORSDOF 3
ENDMDL
MODEL 4
REMARK VINA RESULT:    -5.224     25.155     27.341
REMARK INTER + INTRA:          -7.530
REMARK INTER:                  -6.129
REMARK INTRA:                  -1.400
REMARK UNBOUND:                -1.390
REMARK SMILES Cc1cccc(N2C(=O)[C@@H]3[C@@H]4C[C@@H]5[C@]6(C)CCC[C@@](C)(C(=O)[O-])[C@@H]6CC[C@]5(C=C4C(C)C)[C@@H]3C2=O)c1
REMARK SMILES IDX 7 1 8 2 9 3 10 4 11 5 12 6 13 7 14 8 15 9 16 10 17 11 18 12
REMARK SMILES IDX 19 13 20 14 24 15 25 16 26 17 27 18 28 19 29 20 33 21 34 22
REMARK SMILES IDX 35 23 6 24 2 25 3 26 36 27 4 28 5 29 1 30 30 31 31 32 32 33
REMARK SMILES IDX 21 34 22 35 23 36
REMARK H PARENT
ROOT
ATOM      1  N   UNL     1      13.137 -21.470 -48.878  1.00  0.00    -0.250 N 
ATOM      2  C   UNL     1      14.051 -22.333 -48.308  1.00  0.00     0.238 C 
ATOM      3  O   UNL     1      15.234 -22.505 -48.578  1.00  0.00    -0.274 OA
ATOM      4  C   UNL     1      13.377 -23.104 -47.212  1.00  0.00     0.100 C 
ATOM      5  C   UNL     1      13.587 -24.627 -47.284  1.00  0.00     0.028 C 
ATOM      6  C   UNL     1      13.040 -25.170 -48.631  1.00  0.00     0.014 C 
ATOM      7  C   UNL     1      11.491 -25.029 -48.678  1.00  0.00     0.007 C 
ATOM      8  C   UNL     1      10.833 -24.923 -50.103  1.00  0.00    -0.025 C 
ATOM      9  C   UNL     1      11.102 -26.290 -50.806  1.00  0.00     0.012 C 
ATOM     10  C   UNL     1      11.471 -23.823 -50.985  1.00  0.00     0.007 C 
ATOM     11  C   UNL     1      10.511 -23.066 -51.898  1.00  0.00     0.002 C 
ATOM     12  C   UNL     1       9.418 -23.960 -52.451  1.00  0.00     0.013 C 
ATOM     13  C   UNL     1       8.541 -24.602 -51.348  1.00  0.00     0.010 C 
ATOM     14  C   UNL     1       7.201 -23.835 -51.261  1.00  0.00     0.018 C 
ATOM     15  C   UNL     1       9.282 -24.717 -49.956  1.00  0.00     0.007 C 
ATOM     16  C   UNL     1       8.968 -23.560 -48.978  1.00  0.00     0.006 C 
ATOM     17  C   UNL     1       9.527 -23.800 -47.577  1.00  0.00     0.012 C 
ATOM     18  C   UNL     1      11.033 -24.052 -47.541  1.00  0.00     0.004 C 
ATOM     19  C   UNL     1      11.414 -24.857 -46.265  1.00  0.00    -0.019 C 
ATOM     20  C   UNL     1      12.720 -25.188 -46.157  1.00  0.00    -0.067 C 
ATOM     21  C   UNL     1      11.891 -22.761 -47.339  1.00  0.00     0.103 C 
ATOM     22  C   UNL     1      11.872 -21.641 -48.343  1.00  0.00     0.238 C 
ATOM     23  O   UNL     1      10.873 -20.954 -48.517  1.00  0.00    -0.274 OA
ENDROOT
BRANCH   1  24
ATOM     24  C   UNL     1      13.455 -20.522 -49.907  1.00  0.00     0.052 A 
ATOM     25  C   UNL     1      13.805 -19.977 -52.283  1.00  0.00    -0.049 A 
ATOM     26  C   UNL     1      14.120 -18.662 -51.945  1.00  0.00     0.003 A 
ATOM     27  C   UNL     1      13.485 -20.892 -51.265  1.00  0.00     0.030 A 
ATOM     28  C   UNL     1      14.096 -18.267 -50.612  1.00  0.00     0.002 A 
ATOM     29  C   UNL     1      13.768 -19.186 -49.609  1.00  0.00     0.027 A 
ATOM     30  C   UNL     1      13.874 -20.438 -53.710  1.00  0.00     0.044 C 
ENDBRANCH   1  24
BRANCH  20  31
ATOM     31  C   UNL     1      13.305 -26.022 -45.046  1.00  0.00     0.009 C 
ATOM     32  C   UNL     1      14.827 -26.120 -45.165  1.00  0.00     0.012 C 
ATOM     33  C   UNL     1      12.899 -25.489 -43.671  1.00  0.00     0.012 C 
ENDBRANCH  20  31
BRANCH  13  34
ATOM     34  C   UNL     1       7.987 -25.983 -51.861  1.00  0.00     0.048 C 
ATOM     35  O   UNL     1       8.557 -26.462 -52.885  1.00  0.00    -0.550 OA
ATOM     36  O   UNL     1       7.011 -26.462 -51.217  1.00  0.00    -0.550 OA
ENDBRANCH  13  34
TORSDOF 3
ENDMDL
