MODEL 1
REMARK VINA RESULT:    -8.573      0.000      0.000
REMARK INTER + INTRA:         -13.970
REMARK INTER:                 -12.582
REMARK INTRA:                  -1.387
REMARK UNBOUND:                -1.387
REMARK SMILES COc1ccc(C)cc1NC(=O)[C@H](NNC(=O)c1ccc(C(C)(C)C)cc1)c1ccccc1
REMARK SMILES IDX 13 1 11 2 10 3 12 4 9 6 3 7 4 8 5 9 8 10 6 11 7 12 2 13 1 14
REMARK SMILES IDX 14 15 15 17 16 18 17 19 18 21 19 22 27 23 20 24 26 25 21 26
REMARK SMILES IDX 22 27 23 28 24 29 25 30 28 31 29 32 33 33 30 34 32 35 31 36
REMARK H PARENT 10 5 14 16 15 20
ROOT
ATOM      1  C   UNL     1      12.373 -20.571 -50.118  1.00  0.00     0.194 C 
ENDROOT
BRANCH   1   2
ATOM      2  C   UNL     1      12.994 -20.604 -48.696  1.00  0.00     0.247 C 
ATOM      3  N   UNL     1      13.543 -21.836 -48.366  1.00  0.00    -0.321 N 
ATOM      4  O   UNL     1      13.025 -19.594 -47.993  1.00  0.00    -0.272 OA
ATOM      5  H   UNL     1      13.799 -22.407 -49.163  1.00  0.00     0.170 HD
BRANCH   3   6
ATOM      6  C   UNL     1      13.974 -22.254 -47.092  1.00  0.00     0.084 A 
ATOM      7  C   UNL     1      13.125 -22.773 -46.103  1.00  0.00     0.142 A 
ATOM      8  C   UNL     1      13.656 -23.195 -44.878  1.00  0.00     0.049 A 
ATOM      9  C   UNL     1      15.025 -23.092 -44.629  1.00  0.00     0.007 A 
ATOM     10  C   UNL     1      15.354 -22.201 -46.847  1.00  0.00     0.033 A 
ATOM     11  C   UNL     1      15.885 -22.590 -45.610  1.00  0.00    -0.049 A 
ATOM     12  C   UNL     1      17.364 -22.529 -45.365  1.00  0.00     0.044 C 
BRANCH   7  13
ATOM     13  O   UNL     1      11.813 -23.049 -46.405  1.00  0.00    -0.495 OA
ATOM     14  C   UNL     1      11.500 -24.433 -46.231  1.00  0.00     0.278 C 
ENDBRANCH   7  13
ENDBRANCH   3   6
ENDBRANCH   1   2
BRANCH   1  15
ATOM     15  N   UNL     1      11.998 -21.951 -50.555  1.00  0.00    -0.217 NA
ATOM     16  H   UNL     1      12.240 -22.009 -51.556  1.00  0.00     0.149 HD
BRANCH  15  17
ATOM     17  N   UNL     1      10.589 -22.137 -50.482  1.00  0.00    -0.286 N 
ATOM     18  C   UNL     1      10.082 -23.352 -50.046  1.00  0.00     0.265 C 
ATOM     19  O   UNL     1      10.801 -24.271 -49.662  1.00  0.00    -0.268 OA
ATOM     20  H   UNL     1       9.979 -21.347 -50.691  1.00  0.00     0.185 HD
BRANCH  18  21
ATOM     21  C   UNL     1       8.601 -23.485 -50.046  1.00  0.00     0.041 A 
ATOM     22  C   UNL     1       7.793 -22.839 -50.985  1.00  0.00     0.014 A 
ATOM     23  C   UNL     1       8.008 -24.309 -49.088  1.00  0.00     0.014 A 
ATOM     24  C   UNL     1       6.401 -22.995 -50.945  1.00  0.00     0.005 A 
ATOM     25  C   UNL     1       6.618 -24.462 -49.053  1.00  0.00     0.005 A 
ATOM     26  C   UNL     1       5.781 -23.805 -49.977  1.00  0.00    -0.043 A 
BRANCH  26  27
ATOM     27  C   UNL     1       4.256 -23.997 -49.909  1.00  0.00    -0.013 C 
ATOM     28  C   UNL     1       3.600 -23.361 -48.662  1.00  0.00     0.016 C 
ATOM     29  C   UNL     1       3.596 -23.357 -51.149  1.00  0.00     0.016 C 
ATOM     30  C   UNL     1       3.924 -25.506 -49.878  1.00  0.00     0.016 C 
ENDBRANCH  26  27
ENDBRANCH  18  21
ENDBRANCH  15  17
ENDBRANCH   1  15
BRANCH   1  31
ATOM     31  C   UNL     1      13.319 -19.884 -51.096  1.00  0.00    -0.020 A 
ATOM     32  C   UNL     1      13.704 -20.568 -52.262  1.00  0.00     0.006 A 
ATOM     33  C   UNL     1      13.793 -18.576 -50.903  1.00  0.00     0.006 A 
ATOM     34  C   UNL     1      14.549 -19.968 -53.197  1.00  0.00     0.000 A 
ATOM     35  C   UNL     1      14.640 -17.979 -51.839  1.00  0.00     0.000 A 
ATOM     36  C   UNL     1      15.018 -18.675 -52.985  1.00  0.00     0.000 A 
ENDBRANCH   1  31
TORSDOF 8
ENDMDL
MODEL 2
REMARK VINA RESULT:    -8.395      4.448      8.125
REMARK INTER + INTRA:         -13.709
REMARK INTER:                 -11.571
REMARK INTRA:                  -2.138
REMARK UNBOUND:                -1.387
REMARK SMILES COc1ccc(C)cc1NC(=O)[C@H](NNC(=O)c1ccc(C(C)(C)C)cc1)c1ccccc1
REMARK SMILES IDX 13 1 11 2 10 3 12 4 9 6 3 7 4 8 5 9 8 10 6 11 7 12 2 13 1 14
REMARK SMILES IDX 14 15 15 17 16 18 17 19 18 21 19 22 27 23 20 24 26 25 21 26
REMARK SMILES IDX 22 27 23 28 24 29 25 30 28 31 29 32 33 33 30 34 32 35 31 36
REMARK H PARENT 10 5 14 16 15 20
ROOT
ATOM      1  C   UNL     1      13.319 -25.795 -42.260  1.00  0.00     0.194 C 
ENDROOT
BRANCH   1   2
ATOM      2  C   UNL     1      14.526 -25.484 -43.185  1.00  0.00     0.247 C 
ATOM      3  N   UNL     1      14.920 -24.153 -43.143  1.00  0.00    -0.321 N 
ATOM      4  O   UNL     1      15.082 -26.375 -43.826  1.00  0.00    -0.272 OA
ATOM      5  H   UNL     1      14.648 -23.662 -42.298  1.00  0.00     0.170 HD
BRANCH   3   6
ATOM      6  C   UNL     1      15.818 -23.510 -44.015  1.00  0.00     0.084 A 
ATOM      7  C   UNL     1      17.181 -23.317 -43.744  1.00  0.00     0.142 A 
ATOM      8  C   UNL     1      18.001 -22.695 -44.693  1.00  0.00     0.049 A 
ATOM      9  C   UNL     1      17.469 -22.255 -45.907  1.00  0.00     0.007 A 
ATOM     10  C   UNL     1      15.307 -23.107 -45.258  1.00  0.00     0.033 A 
ATOM     11  C   UNL     1      16.117 -22.453 -46.197  1.00  0.00    -0.049 A 
ATOM     12  C   UNL     1      15.554 -22.031 -47.522  1.00  0.00     0.044 C 
BRANCH   7  13
ATOM     13  O   UNL     1      17.748 -23.907 -42.640  1.00  0.00    -0.495 OA
ATOM     14  C   UNL     1      18.644 -24.962 -42.995  1.00  0.00     0.278 C 
ENDBRANCH   7  13
ENDBRANCH   3   6
ENDBRANCH   1   2
BRANCH   1  15
ATOM     15  N   UNL     1      12.086 -25.116 -42.766  1.00  0.00    -0.217 NA
ATOM     16  H   UNL     1      11.292 -25.600 -42.320  1.00  0.00     0.149 HD
BRANCH  15  17
ATOM     17  N   UNL     1      11.935 -25.324 -44.165  1.00  0.00    -0.286 N 
ATOM     18  C   UNL     1      11.794 -24.231 -45.007  1.00  0.00     0.265 C 
ATOM     19  O   UNL     1      11.849 -23.072 -44.603  1.00  0.00    -0.268 OA
ATOM     20  H   UNL     1      11.999 -26.274 -44.529  1.00  0.00     0.185 HD
BRANCH  18  21
ATOM     21  C   UNL     1      11.591 -24.532 -46.449  1.00  0.00     0.041 A 
ATOM     22  C   UNL     1      12.561 -24.246 -47.414  1.00  0.00     0.014 A 
ATOM     23  C   UNL     1      10.400 -25.146 -46.839  1.00  0.00     0.014 A 
ATOM     24  C   UNL     1      12.324 -24.549 -48.762  1.00  0.00     0.005 A 
ATOM     25  C   UNL     1      10.170 -25.446 -48.185  1.00  0.00     0.005 A 
ATOM     26  C   UNL     1      11.124 -25.150 -49.179  1.00  0.00    -0.043 A 
BRANCH  26  27
ATOM     27  C   UNL     1      10.836 -25.496 -50.651  1.00  0.00    -0.013 C 
ATOM     28  C   UNL     1      10.806 -24.268 -51.588  1.00  0.00     0.016 C 
ATOM     29  C   UNL     1      11.928 -26.450 -51.183  1.00  0.00     0.016 C 
ATOM     30  C   UNL     1       9.459 -26.187 -50.763  1.00  0.00     0.016 C 
ENDBRANCH  26  27
ENDBRANCH  18  21
ENDBRANCH  15  17
ENDBRANCH   1  15
BRANCH   1  31
ATOM     31  C   UNL     1      13.643 -25.422 -40.818  1.00  0.00    -0.020 A 
ATOM     32  C   UNL     1      13.028 -24.291 -40.254  1.00  0.00     0.006 A 
ATOM     33  C   UNL     1      14.504 -26.186 -40.011  1.00  0.00     0.006 A 
ATOM     34  C   UNL     1      13.277 -23.927 -38.930  1.00  0.00     0.000 A 
ATOM     35  C   UNL     1      14.752 -25.817 -38.687  1.00  0.00     0.000 A 
ATOM     36  C   UNL     1      14.140 -24.688 -38.147  1.00  0.00     0.000 A 
ENDBRANCH   1  31
TORSDOF 8
ENDMDL
MODEL 3
REMARK VINA RESULT:    -8.174      1.851      7.624
REMARK INTER + INTRA:         -13.384
REMARK INTER:                 -11.554
REMARK INTRA:                  -1.830
REMARK UNBOUND:                -1.387
REMARK SMILES COc1ccc(C)cc1NC(=O)[C@H](NNC(=O)c1ccc(C(C)(C)C)cc1)c1ccccc1
REMARK SMILES IDX 13 1 11 2 10 3 12 4 9 6 3 7 4 8 5 9 8 10 6 11 7 12 2 13 1 14
REMARK SMILES IDX 14 15 15 17 16 18 17 19 18 21 19 22 27 23 20 24 26 25 21 26
REMARK SMILES IDX 22 27 23 28 24 29 25 30 28 31 29 32 33 33 30 34 32 35 31 36
REMARK H PARENT 10 5 14 16 15 20
ROOT
ATOM      1  C   UNL     1      10.952 -23.731 -49.500  1.00  0.00     0.194 C 
ENDROOT
BRANCH   1   2
ATOM      2  C   UNL     1      11.881 -24.241 -48.365  1.00  0.00     0.247 C 
ATOM      3  N   UNL     1      11.972 -23.362 -47.295  1.00  0.00    -0.321 N 
ATOM      4  O   UNL     1      12.412 -25.350 -48.429  1.00  0.00    -0.272 OA
ATOM      5  H   UNL     1      11.190 -22.723 -47.210  1.00  0.00     0.170 HD
BRANCH   3   6
ATOM      6  C   UNL     1      12.890 -23.422 -46.229  1.00  0.00     0.084 A 
ATOM      7  C   UNL     1      12.682 -24.150 -45.048  1.00  0.00     0.142 A 
ATOM      8  C   UNL     1      13.672 -24.174 -44.058  1.00  0.00     0.049 A 
ATOM      9  C   UNL     1      14.864 -23.468 -44.234  1.00  0.00     0.007 A 
ATOM     10  C   UNL     1      14.111 -22.757 -46.414  1.00  0.00     0.033 A 
ATOM     11  C   UNL     1      15.091 -22.750 -45.411  1.00  0.00    -0.049 A 
ATOM     12  C   UNL     1      16.392 -22.036 -45.626  1.00  0.00     0.044 C 
BRANCH   7  13
ATOM     13  O   UNL     1      11.600 -24.991 -44.945  1.00  0.00    -0.495 OA
ATOM     14  C   UNL     1      11.963 -26.360 -45.135  1.00  0.00     0.278 C 
ENDBRANCH   7  13
ENDBRANCH   3   6
ENDBRANCH   1   2
BRANCH   1  15
ATOM     15  N   UNL     1      10.729 -22.259 -49.368  1.00  0.00    -0.217 NA
ATOM     16  H   UNL     1       9.774 -22.083 -49.716  1.00  0.00     0.149 HD
BRANCH  15  17
ATOM     17  N   UNL     1      11.599 -21.537 -50.233  1.00  0.00    -0.286 N 
ATOM     18  C   UNL     1      12.476 -20.605 -49.697  1.00  0.00     0.265 C 
ATOM     19  O   UNL     1      12.578 -20.409 -48.489  1.00  0.00    -0.268 OA
ATOM     20  H   UNL     1      11.605 -21.769 -51.225  1.00  0.00     0.185 HD
BRANCH  18  21
ATOM     21  C   UNL     1      13.316 -19.858 -50.670  1.00  0.00     0.041 A 
ATOM     22  C   UNL     1      13.655 -20.382 -51.920  1.00  0.00     0.014 A 
ATOM     23  C   UNL     1      13.754 -18.578 -50.325  1.00  0.00     0.014 A 
ATOM     24  C   UNL     1      14.449 -19.639 -52.804  1.00  0.00     0.005 A 
ATOM     25  C   UNL     1      14.546 -17.842 -51.211  1.00  0.00     0.005 A 
ATOM     26  C   UNL     1      14.917 -18.356 -52.470  1.00  0.00    -0.043 A 
BRANCH  26  27
ATOM     27  C   UNL     1      15.789 -17.516 -53.419  1.00  0.00    -0.013 C 
ATOM     28  C   UNL     1      16.775 -16.573 -52.694  1.00  0.00     0.016 C 
ATOM     29  C   UNL     1      16.629 -18.452 -54.316  1.00  0.00     0.016 C 
ATOM     30  C   UNL     1      14.887 -16.634 -54.309  1.00  0.00     0.016 C 
ENDBRANCH  26  27
ENDBRANCH  18  21
ENDBRANCH  15  17
ENDBRANCH   1  15
BRANCH   1  31
ATOM     31  C   UNL     1       9.649 -24.522 -49.518  1.00  0.00    -0.020 A 
ATOM     32  C   UNL     1       8.522 -23.988 -48.871  1.00  0.00     0.006 A 
ATOM     33  C   UNL     1       9.514 -25.748 -50.190  1.00  0.00     0.006 A 
ATOM     34  C   UNL     1       7.302 -24.666 -48.883  1.00  0.00     0.000 A 
ATOM     35  C   UNL     1       8.293 -26.425 -50.199  1.00  0.00     0.000 A 
ATOM     36  C   UNL     1       7.188 -25.885 -49.545  1.00  0.00     0.000 A 
ENDBRANCH   1  31
TORSDOF 8
ENDMDL
MODEL 4
REMARK VINA RESULT:    -7.863      2.077      7.719
REMARK INTER + INTRA:         -12.927
REMARK INTER:                 -11.471
REMARK INTRA:                  -1.457
REMARK UNBOUND:                -1.387
REMARK SMILES COc1ccc(C)cc1NC(=O)[C@H](NNC(=O)c1ccc(C(C)(C)C)cc1)c1ccccc1
REMARK SMILES IDX 13 1 11 2 10 3 12 4 9 6 3 7 4 8 5 9 8 10 6 11 7 12 2 13 1 14
REMARK SMILES IDX 14 15 15 17 16 18 17 19 18 21 19 22 27 23 20 24 26 25 21 26
REMARK SMILES IDX 22 27 23 28 24 29 25 30 28 31 29 32 33 33 30 34 32 35 31 36
REMARK H PARENT 10 5 14 16 15 20
ROOT
ATOM      1  C   UNL     1      11.127 -23.765 -48.568  1.00  0.00     0.194 C 
ENDROOT
BRANCH   1   2
ATOM      2  C   UNL     1      11.763 -24.237 -47.233  1.00  0.00     0.247 C 
ATOM      3  N   UNL     1      12.285 -23.197 -46.476  1.00  0.00    -0.321 N 
ATOM      4  O   UNL     1      11.728 -25.421 -46.896  1.00  0.00    -0.272 OA
ATOM      5  H   UNL     1      11.884 -22.288 -46.679  1.00  0.00     0.170 HD
BRANCH   3   6
ATOM      6  C   UNL     1      13.113 -23.310 -45.343  1.00  0.00     0.084 A 
ATOM      7  C   UNL     1      14.424 -22.815 -45.271  1.00  0.00     0.142 A 
ATOM      8  C   UNL     1      15.157 -22.948 -44.085  1.00  0.00     0.049 A 
ATOM      9  C   UNL     1      14.594 -23.580 -42.974  1.00  0.00     0.007 A 
ATOM     10  C   UNL     1      12.544 -23.899 -44.205  1.00  0.00     0.033 A 
ATOM     11  C   UNL     1      13.285 -24.065 -43.026  1.00  0.00    -0.049 A 
ATOM     12  C   UNL     1      12.660 -24.696 -41.818  1.00  0.00     0.044 C 
BRANCH   7  13
ATOM     13  O   UNL     1      14.916 -22.033 -46.288  1.00  0.00    -0.495 OA
ATOM     14  C   UNL     1      16.029 -22.643 -46.945  1.00  0.00     0.278 C 
ENDBRANCH   7  13
ENDBRANCH   3   6
ENDBRANCH   1   2
BRANCH   1  15
ATOM     15  N   UNL     1      10.889 -22.289 -48.538  1.00  0.00    -0.217 NA
ATOM     16  H   UNL     1       9.911 -22.152 -48.837  1.00  0.00     0.149 HD
BRANCH  15  17
ATOM     17  N   UNL     1      11.691 -21.629 -49.510  1.00  0.00    -0.286 N 
ATOM     18  C   UNL     1      12.530 -20.597 -49.118  1.00  0.00     0.265 C 
ATOM     19  O   UNL     1      12.657 -20.257 -47.944  1.00  0.00    -0.268 OA
ATOM     20  H   UNL     1      11.680 -21.974 -50.470  1.00  0.00     0.185 HD
BRANCH  18  21
ATOM     21  C   UNL     1      13.298 -19.925 -50.200  1.00  0.00     0.041 A 
ATOM     22  C   UNL     1      13.511 -20.522 -51.445  1.00  0.00     0.014 A 
ATOM     23  C   UNL     1      13.795 -18.642 -49.964  1.00  0.00     0.014 A 
ATOM     24  C   UNL     1      14.241 -19.850 -52.434  1.00  0.00     0.005 A 
ATOM     25  C   UNL     1      14.522 -17.976 -50.955  1.00  0.00     0.005 A 
ATOM     26  C   UNL     1      14.767 -18.565 -52.211  1.00  0.00    -0.043 A 
BRANCH  26  27
ATOM     27  C   UNL     1      15.571 -17.800 -53.278  1.00  0.00    -0.013 C 
ATOM     28  C   UNL     1      16.724 -16.949 -52.702  1.00  0.00     0.016 C 
ATOM     29  C   UNL     1      16.196 -18.802 -54.273  1.00  0.00     0.016 C 
ATOM     30  C   UNL     1      14.635 -16.840 -54.044  1.00  0.00     0.016 C 
ENDBRANCH  26  27
ENDBRANCH  18  21
ENDBRANCH  15  17
ENDBRANCH   1  15
BRANCH   1  31
ATOM     31  C   UNL     1       9.859 -24.557 -48.864  1.00  0.00    -0.020 A 
ATOM     32  C   UNL     1       8.639 -24.110 -48.329  1.00  0.00     0.006 A 
ATOM     33  C   UNL     1       9.850 -25.697 -49.685  1.00  0.00     0.006 A 
ATOM     34  C   UNL     1       7.449 -24.790 -48.594  1.00  0.00     0.000 A 
ATOM     35  C   UNL     1       8.658 -26.377 -49.947  1.00  0.00     0.000 A 
ATOM     36  C   UNL     1       7.459 -25.924 -49.401  1.00  0.00     0.000 A 
ENDBRANCH   1  31
TORSDOF 8
ENDMDL
MODEL 5
REMARK VINA RESULT:    -7.831      2.344      3.895
REMARK INTER + INTRA:         -12.880
REMARK INTER:                 -11.406
REMARK INTRA:                  -1.474
REMARK UNBOUND:                -1.387
REMARK SMILES COc1ccc(C)cc1NC(=O)[C@H](NNC(=O)c1ccc(C(C)(C)C)cc1)c1ccccc1
REMARK SMILES IDX 13 1 11 2 10 3 12 4 9 6 3 7 4 8 5 9 8 10 6 11 7 12 2 13 1 14
REMARK SMILES IDX 14 15 15 17 16 18 17 19 18 21 19 22 27 23 20 24 26 25 21 26
REMARK SMILES IDX 22 27 23 28 24 29 25 30 28 31 29 32 33 33 30 34 32 35 31 36
REMARK H PARENT 10 5 14 16 15 20
ROOT
ATOM      1  C   UNL     1      11.822 -23.806 -46.987  1.00  0.00     0.194 C 
ENDROOT
BRANCH   1   2
ATOM      2  C   UNL     1      12.641 -24.393 -45.805  1.00  0.00     0.247 C 
ATOM      3  N   UNL     1      12.852 -23.480 -44.779  1.00  0.00    -0.321 N 
ATOM      4  O   UNL     1      12.992 -25.572 -45.799  1.00  0.00    -0.272 OA
ATOM      5  H   UNL     1      12.178 -22.724 -44.747  1.00  0.00     0.170 HD
BRANCH   3   6
ATOM      6  C   UNL     1      13.731 -23.624 -43.690  1.00  0.00     0.084 A 
ATOM      7  C   UNL     1      15.061 -23.177 -43.683  1.00  0.00     0.142 A 
ATOM      8  C   UNL     1      15.846 -23.337 -42.535  1.00  0.00     0.049 A 
ATOM      9  C   UNL     1      15.318 -23.950 -41.398  1.00  0.00     0.007 A 
ATOM     10  C   UNL     1      13.198 -24.195 -42.524  1.00  0.00     0.033 A 
ATOM     11  C   UNL     1      13.991 -24.388 -41.384  1.00  0.00    -0.049 A 
ATOM     12  C   UNL     1      13.405 -24.998 -40.145  1.00  0.00     0.044 C 
BRANCH   7  13
ATOM     13  O   UNL     1      15.529 -22.412 -44.724  1.00  0.00    -0.495 OA
ATOM     14  C   UNL     1      16.954 -22.309 -44.718  1.00  0.00     0.278 C 
ENDBRANCH   7  13
ENDBRANCH   3   6
ENDBRANCH   1   2
BRANCH   1  15
ATOM     15  N   UNL     1      11.301 -24.906 -47.856  1.00  0.00    -0.217 NA
ATOM     16  H   UNL     1      11.860 -24.872 -48.723  1.00  0.00     0.149 HD
BRANCH  15  17
ATOM     17  N   UNL     1       9.958 -24.645 -48.247  1.00  0.00    -0.286 N 
ATOM     18  C   UNL     1       9.695 -24.200 -49.534  1.00  0.00     0.265 C 
ATOM     19  O   UNL     1      10.573 -24.072 -50.383  1.00  0.00    -0.268 OA
ATOM     20  H   UNL     1       9.207 -24.853 -47.589  1.00  0.00     0.185 HD
BRANCH  18  21
ATOM     21  C   UNL     1       8.273 -23.903 -49.850  1.00  0.00     0.041 A 
ATOM     22  C   UNL     1       7.215 -24.451 -49.119  1.00  0.00     0.014 A 
ATOM     23  C   UNL     1       7.994 -23.022 -50.897  1.00  0.00     0.014 A 
ATOM     24  C   UNL     1       5.891 -24.140 -49.454  1.00  0.00     0.005 A 
ATOM     25  C   UNL     1       6.671 -22.716 -51.226  1.00  0.00     0.005 A 
ATOM     26  C   UNL     1       5.587 -23.271 -50.517  1.00  0.00    -0.043 A 
BRANCH  26  27
ATOM     27  C   UNL     1       4.143 -22.909 -50.907  1.00  0.00    -0.013 C 
ATOM     28  C   UNL     1       3.442 -21.964 -49.906  1.00  0.00     0.016 C 
ATOM     29  C   UNL     1       4.138 -22.205 -52.281  1.00  0.00     0.016 C 
ATOM     30  C   UNL     1       3.291 -24.195 -50.992  1.00  0.00     0.016 C 
ENDBRANCH  26  27
ENDBRANCH  18  21
ENDBRANCH  15  17
ENDBRANCH   1  15
BRANCH   1  31
ATOM     31  C   UNL     1      12.657 -22.793 -47.761  1.00  0.00    -0.020 A 
ATOM     32  C   UNL     1      12.027 -21.649 -48.280  1.00  0.00     0.006 A 
ATOM     33  C   UNL     1      14.042 -22.933 -47.947  1.00  0.00     0.006 A 
ATOM     34  C   UNL     1      12.756 -20.682 -48.974  1.00  0.00     0.000 A 
ATOM     35  C   UNL     1      14.769 -21.966 -48.644  1.00  0.00     0.000 A 
ATOM     36  C   UNL     1      14.126 -20.842 -49.158  1.00  0.00     0.000 A 
ENDBRANCH   1  31
TORSDOF 8
ENDMDL
MODEL 6
REMARK VINA RESULT:    -7.466      2.396      3.578
REMARK INTER + INTRA:         -12.345
REMARK INTER:                 -10.885
REMARK INTRA:                  -1.460
REMARK UNBOUND:                -1.387
REMARK SMILES COc1ccc(C)cc1NC(=O)[C@H](NNC(=O)c1ccc(C(C)(C)C)cc1)c1ccccc1
REMARK SMILES IDX 13 1 11 2 10 3 12 4 9 6 3 7 4 8 5 9 8 10 6 11 7 12 2 13 1 14
REMARK SMILES IDX 14 15 15 17 16 18 17 19 18 21 19 22 27 23 20 24 26 25 21 26
REMARK SMILES IDX 22 27 23 28 24 29 25 30 28 31 29 32 33 33 30 34 32 35 31 36
REMARK H PARENT 10 5 14 16 15 20
ROOT
ATOM      1  C   UNL     1      11.894 -23.705 -46.826  1.00  0.00     0.194 C 
ENDROOT
BRANCH   1   2
ATOM      2  C   UNL     1      12.810 -24.256 -45.701  1.00  0.00     0.247 C 
ATOM      3  N   UNL     1      13.208 -23.284 -44.793  1.00  0.00    -0.321 N 
ATOM      4  O   UNL     1      13.079 -25.455 -45.631  1.00  0.00    -0.272 OA
ATOM      5  H   UNL     1      12.597 -22.477 -44.749  1.00  0.00     0.170 HD
BRANCH   3   6
ATOM      6  C   UNL     1      14.204 -23.408 -43.806  1.00  0.00     0.084 A 
ATOM      7  C   UNL     1      13.977 -23.905 -42.514  1.00  0.00     0.142 A 
ATOM      8  C   UNL     1      15.043 -24.021 -41.613  1.00  0.00     0.049 A 
ATOM      9  C   UNL     1      16.331 -23.636 -41.989  1.00  0.00     0.007 A 
ATOM     10  C   UNL     1      15.511 -23.069 -44.186  1.00  0.00     0.033 A 
ATOM     11  C   UNL     1      16.575 -23.152 -43.277  1.00  0.00    -0.049 A 
ATOM     12  C   UNL     1      17.966 -22.788 -43.701  1.00  0.00     0.044 C 
BRANCH   7  13
ATOM     13  O   UNL     1      12.759 -24.457 -42.198  1.00  0.00    -0.495 OA
ATOM     14  C   UNL     1      12.891 -25.612 -41.368  1.00  0.00     0.278 C 
ENDBRANCH   7  13
ENDBRANCH   3   6
ENDBRANCH   1   2
BRANCH   1  15
ATOM     15  N   UNL     1      11.346 -24.827 -47.649  1.00  0.00    -0.217 NA
ATOM     16  H   UNL     1      11.897 -24.836 -48.521  1.00  0.00     0.149 HD
BRANCH  15  17
ATOM     17  N   UNL     1      10.004 -24.557 -48.039  1.00  0.00    -0.286 N 
ATOM     18  C   UNL     1       9.711 -24.345 -49.378  1.00  0.00     0.265 C 
ATOM     19  O   UNL     1      10.557 -24.436 -50.264  1.00  0.00    -0.268 OA
ATOM     20  H   UNL     1       9.272 -24.589 -47.330  1.00  0.00     0.185 HD
BRANCH  18  21
ATOM     21  C   UNL     1       8.296 -24.020 -49.699  1.00  0.00     0.041 A 
ATOM     22  C   UNL     1       7.225 -24.565 -48.985  1.00  0.00     0.014 A 
ATOM     23  C   UNL     1       8.039 -23.117 -50.731  1.00  0.00     0.014 A 
ATOM     24  C   UNL     1       5.908 -24.228 -49.324  1.00  0.00     0.005 A 
ATOM     25  C   UNL     1       6.722 -22.785 -51.065  1.00  0.00     0.005 A 
ATOM     26  C   UNL     1       5.625 -23.335 -50.373  1.00  0.00    -0.043 A 
BRANCH  26  27
ATOM     27  C   UNL     1       4.190 -22.945 -50.767  1.00  0.00    -0.013 C 
ATOM     28  C   UNL     1       4.088 -22.234 -52.135  1.00  0.00     0.016 C 
ATOM     29  C   UNL     1       3.310 -24.211 -50.844  1.00  0.00     0.016 C 
ATOM     30  C   UNL     1       3.605 -21.983 -49.710  1.00  0.00     0.016 C 
ENDBRANCH  26  27
ENDBRANCH  18  21
ENDBRANCH  15  17
ENDBRANCH   1  15
BRANCH   1  31
ATOM     31  C   UNL     1      12.641 -22.674 -47.665  1.00  0.00    -0.020 A 
ATOM     32  C   UNL     1      14.018 -22.846 -47.883  1.00  0.00     0.006 A 
ATOM     33  C   UNL     1      12.002 -21.576 -48.265  1.00  0.00     0.006 A 
ATOM     34  C   UNL     1      14.737 -21.940 -48.665  1.00  0.00     0.000 A 
ATOM     35  C   UNL     1      12.724 -20.670 -49.045  1.00  0.00     0.000 A 
ATOM     36  C   UNL     1      14.091 -20.852 -49.244  1.00  0.00     0.000 A 
ENDBRANCH   1  31
TORSDOF 8
ENDMDL
MODEL 7
REMARK VINA RESULT:    -7.437      3.142      9.377
REMARK INTER + INTRA:         -12.301
REMARK INTER:                 -11.483
REMARK INTRA:                  -0.819
REMARK UNBOUND:                -1.387
REMARK SMILES COc1ccc(C)cc1NC(=O)[C@H](NNC(=O)c1ccc(C(C)(C)C)cc1)c1ccccc1
REMARK SMILES IDX 13 1 11 2 10 3 12 4 9 6 3 7 4 8 5 9 8 10 6 11 7 12 2 13 1 14
REMARK SMILES IDX 14 15 15 17 16 18 17 19 18 21 19 22 27 23 20 24 26 25 21 26
REMARK SMILES IDX 22 27 23 28 24 29 25 30 28 31 29 32 33 33 30 34 32 35 31 36
REMARK H PARENT 10 5 14 16 15 20
ROOT
ATOM      1  C   UNL     1      12.043 -25.046 -47.445  1.00  0.00     0.194 C 
ENDROOT
BRANCH   1   2
ATOM      2  C   UNL     1      11.146 -24.973 -48.710  1.00  0.00     0.247 C 
ATOM      3  N   UNL     1      10.200 -23.958 -48.652  1.00  0.00    -0.321 N 
ATOM      4  O   UNL     1      11.334 -25.725 -49.666  1.00  0.00    -0.272 OA
ATOM      5  H   UNL     1      10.435 -23.202 -48.019  1.00  0.00     0.170 HD
BRANCH   3   6
ATOM      6  C   UNL     1       9.108 -23.772 -49.521  1.00  0.00     0.084 A 
ATOM      7  C   UNL     1       9.200 -23.183 -50.791  1.00  0.00     0.142 A 
ATOM      8  C   UNL     1       8.058 -23.074 -51.595  1.00  0.00     0.049 A 
ATOM      9  C   UNL     1       6.824 -23.538 -51.136  1.00  0.00     0.007 A 
ATOM     10  C   UNL     1       7.871 -24.278 -49.092  1.00  0.00     0.033 A 
ATOM     11  C   UNL     1       6.720 -24.140 -49.879  1.00  0.00    -0.049 A 
ATOM     12  C   UNL     1       5.406 -24.688 -49.406  1.00  0.00     0.044 C 
BRANCH   7  13
ATOM     13  O   UNL     1      10.434 -22.895 -51.322  1.00  0.00    -0.495 OA
ATOM     14  C   UNL     1      10.816 -23.828 -52.333  1.00  0.00     0.278 C 
ENDBRANCH   7  13
ENDBRANCH   3   6
ENDBRANCH   1   2
BRANCH   1  15
ATOM     15  N   UNL     1      11.212 -24.929 -46.208  1.00  0.00    -0.217 NA
ATOM     16  H   UNL     1      10.960 -23.932 -46.128  1.00  0.00     0.149 HD
BRANCH  15  17
ATOM     17  N   UNL     1      11.984 -25.231 -45.051  1.00  0.00    -0.286 N 
ATOM     18  C   UNL     1      12.261 -24.228 -44.134  1.00  0.00     0.265 C 
ATOM     19  O   UNL     1      11.818 -23.088 -44.245  1.00  0.00    -0.268 OA
ATOM     20  H   UNL     1      12.264 -26.197 -44.888  1.00  0.00     0.185 HD
BRANCH  18  21
ATOM     21  C   UNL     1      13.115 -24.611 -42.978  1.00  0.00     0.041 A 
ATOM     22  C   UNL     1      12.696 -25.531 -42.013  1.00  0.00     0.014 A 
ATOM     23  C   UNL     1      14.388 -24.049 -42.877  1.00  0.00     0.014 A 
ATOM     24  C   UNL     1      13.536 -25.861 -40.942  1.00  0.00     0.005 A 
ATOM     25  C   UNL     1      15.222 -24.382 -41.806  1.00  0.00     0.005 A 
ATOM     26  C   UNL     1      14.815 -25.292 -40.810  1.00  0.00    -0.043 A 
BRANCH  26  27
ATOM     27  C   UNL     1      15.761 -25.635 -39.646  1.00  0.00    -0.013 C 
ATOM     28  C   UNL     1      16.997 -26.462 -40.067  1.00  0.00     0.016 C 
ATOM     29  C   UNL     1      16.282 -24.334 -38.999  1.00  0.00     0.016 C 
ATOM     30  C   UNL     1      15.001 -26.461 -38.585  1.00  0.00     0.016 C 
ENDBRANCH  26  27
ENDBRANCH  18  21
ENDBRANCH  15  17
ENDBRANCH   1  15
BRANCH   1  31
ATOM     31  C   UNL     1      13.144 -23.994 -47.512  1.00  0.00    -0.020 A 
ATOM     32  C   UNL     1      12.938 -22.844 -48.292  1.00  0.00     0.006 A 
ATOM     33  C   UNL     1      14.347 -24.106 -46.793  1.00  0.00     0.006 A 
ATOM     34  C   UNL     1      13.909 -21.844 -48.364  1.00  0.00     0.000 A 
ATOM     35  C   UNL     1      15.317 -23.104 -46.868  1.00  0.00     0.000 A 
ATOM     36  C   UNL     1      15.099 -21.975 -47.653  1.00  0.00     0.000 A 
ENDBRANCH   1  31
TORSDOF 8
ENDMDL
MODEL 8
REMARK VINA RESULT:    -7.412      2.540      3.821
REMARK INTER + INTRA:         -12.266
REMARK INTER:                 -10.757
REMARK INTRA:                  -1.509
REMARK UNBOUND:                -1.387
REMARK SMILES COc1ccc(C)cc1NC(=O)[C@H](NNC(=O)c1ccc(C(C)(C)C)cc1)c1ccccc1
REMARK SMILES IDX 13 1 11 2 10 3 12 4 9 6 3 7 4 8 5 9 8 10 6 11 7 12 2 13 1 14
REMARK SMILES IDX 14 15 15 17 16 18 17 19 18 21 19 22 27 23 20 24 26 25 21 26
REMARK SMILES IDX 22 27 23 28 24 29 25 30 28 31 29 32 33 33 30 34 32 35 31 36
REMARK H PARENT 10 5 14 16 15 20
ROOT
ATOM      1  C   UNL     1      12.697 -22.955 -48.768  1.00  0.00     0.194 C 
ENDROOT
BRANCH   1   2
ATOM      2  C   UNL     1      13.400 -22.312 -47.542  1.00  0.00     0.247 C 
ATOM      3  N   UNL     1      14.381 -23.122 -46.986  1.00  0.00    -0.321 N 
ATOM      4  O   UNL     1      13.122 -21.170 -47.178  1.00  0.00    -0.272 OA
ATOM      5  H   UNL     1      14.761 -23.815 -47.620  1.00  0.00     0.170 HD
BRANCH   3   6
ATOM      6  C   UNL     1      15.034 -22.931 -45.753  1.00  0.00     0.084 A 
ATOM      7  C   UNL     1      14.413 -23.057 -44.502  1.00  0.00     0.142 A 
ATOM      8  C   UNL     1      15.158 -22.881 -43.330  1.00  0.00     0.049 A 
ATOM      9  C   UNL     1      16.517 -22.568 -43.398  1.00  0.00     0.007 A 
ATOM     10  C   UNL     1      16.411 -22.664 -45.806  1.00  0.00     0.033 A 
ATOM     11  C   UNL     1      17.154 -22.453 -44.637  1.00  0.00    -0.049 A 
ATOM     12  C   UNL     1      18.625 -22.170 -44.712  1.00  0.00     0.044 C 
BRANCH   7  13
ATOM     13  O   UNL     1      13.130 -23.544 -44.423  1.00  0.00    -0.495 OA
ATOM     14  C   UNL     1      13.098 -24.919 -44.039  1.00  0.00     0.278 C 
ENDBRANCH   7  13
ENDBRANCH   3   6
ENDBRANCH   1   2
BRANCH   1  15
ATOM     15  N   UNL     1      11.880 -21.936 -49.495  1.00  0.00    -0.217 NA
ATOM     16  H   UNL     1      11.972 -21.061 -48.957  1.00  0.00     0.149 HD
BRANCH  15  17
ATOM     17  N   UNL     1      10.499 -22.276 -49.455  1.00  0.00    -0.286 N 
ATOM     18  C   UNL     1       9.900 -22.834 -50.574  1.00  0.00     0.265 C 
ATOM     19  O   UNL     1      10.526 -23.104 -51.596  1.00  0.00    -0.268 OA
ATOM     20  H   UNL     1       9.992 -22.161 -48.578  1.00  0.00     0.185 HD
BRANCH  18  21
ATOM     21  C   UNL     1       8.443 -23.115 -50.471  1.00  0.00     0.041 A 
ATOM     22  C   UNL     1       7.526 -22.661 -51.423  1.00  0.00     0.014 A 
ATOM     23  C   UNL     1       7.989 -23.884 -49.398  1.00  0.00     0.014 A 
ATOM     24  C   UNL     1       6.163 -22.952 -51.283  1.00  0.00     0.005 A 
ATOM     25  C   UNL     1       6.627 -24.171 -49.264  1.00  0.00     0.005 A 
ATOM     26  C   UNL     1       5.681 -23.708 -50.200  1.00  0.00    -0.043 A 
BRANCH  26  27
ATOM     27  C   UNL     1       4.190 -24.045 -50.020  1.00  0.00    -0.013 C 
ATOM     28  C   UNL     1       3.280 -23.467 -51.127  1.00  0.00     0.016 C 
ATOM     29  C   UNL     1       4.000 -25.577 -50.026  1.00  0.00     0.016 C 
ATOM     30  C   UNL     1       3.687 -23.475 -48.675  1.00  0.00     0.016 C 
ENDBRANCH  26  27
ENDBRANCH  18  21
ENDBRANCH  15  17
ENDBRANCH   1  15
BRANCH   1  31
ATOM     31  C   UNL     1      11.876 -24.164 -48.336  1.00  0.00    -0.020 A 
ATOM     32  C   UNL     1      11.904 -25.323 -49.129  1.00  0.00     0.006 A 
ATOM     33  C   UNL     1      11.119 -24.185 -47.151  1.00  0.00     0.006 A 
ATOM     34  C   UNL     1      11.186 -26.462 -48.759  1.00  0.00     0.000 A 
ATOM     35  C   UNL     1      10.401 -25.325 -46.785  1.00  0.00     0.000 A 
ATOM     36  C   UNL     1      10.434 -26.462 -47.589  1.00  0.00     0.000 A 
ENDBRANCH   1  31
TORSDOF 8
ENDMDL
MODEL 9
REMARK VINA RESULT:    -7.199      1.803      7.667
REMARK INTER + INTRA:         -11.953
REMARK INTER:                 -11.310
REMARK INTRA:                  -0.643
REMARK UNBOUND:                -1.387
REMARK SMILES COc1ccc(C)cc1NC(=O)[C@H](NNC(=O)c1ccc(C(C)(C)C)cc1)c1ccccc1
REMARK SMILES IDX 13 1 11 2 10 3 12 4 9 6 3 7 4 8 5 9 8 10 6 11 7 12 2 13 1 14
REMARK SMILES IDX 14 15 15 17 16 18 17 19 18 21 19 22 27 23 20 24 26 25 21 26
REMARK SMILES IDX 22 27 23 28 24 29 25 30 28 31 29 32 33 33 30 34 32 35 31 36
REMARK H PARENT 10 5 14 16 15 20
ROOT
ATOM      1  C   UNL     1      12.315 -21.603 -49.959  1.00  0.00     0.194 C 
ENDROOT
BRANCH   1   2
ATOM      2  C   UNL     1      11.239 -22.413 -50.731  1.00  0.00     0.247 C 
ATOM      3  N   UNL     1       9.982 -22.351 -50.144  1.00  0.00    -0.321 N 
ATOM      4  O   UNL     1      11.511 -22.985 -51.786  1.00  0.00    -0.272 OA
ATOM      5  H   UNL     1       9.836 -21.543 -49.550  1.00  0.00     0.170 HD
BRANCH   3   6
ATOM      6  C   UNL     1       8.862 -23.143 -50.463  1.00  0.00     0.084 A 
ATOM      7  C   UNL     1       8.714 -24.487 -50.091  1.00  0.00     0.142 A 
ATOM      8  C   UNL     1       7.545 -25.180 -50.428  1.00  0.00     0.049 A 
ATOM      9  C   UNL     1       6.528 -24.545 -51.142  1.00  0.00     0.007 A 
ATOM     10  C   UNL     1       7.812 -22.502 -51.138  1.00  0.00     0.033 A 
ATOM     11  C   UNL     1       6.655 -23.202 -51.506  1.00  0.00    -0.049 A 
ATOM     12  C   UNL     1       5.541 -22.501 -52.226  1.00  0.00     0.044 C 
BRANCH   7  13
ATOM     13  O   UNL     1       9.621 -25.063 -49.235  1.00  0.00    -0.495 OA
ATOM     14  C   UNL     1       9.232 -24.927 -47.867  1.00  0.00     0.278 C 
ENDBRANCH   7  13
ENDBRANCH   3   6
ENDBRANCH   1   2
BRANCH   1  15
ATOM     15  N   UNL     1      11.714 -20.952 -48.755  1.00  0.00    -0.217 NA
ATOM     16  H   UNL     1      12.245 -20.080 -48.607  1.00  0.00     0.149 HD
BRANCH  15  17
ATOM     17  N   UNL     1      11.931 -21.744 -47.592  1.00  0.00    -0.286 N 
ATOM     18  C   UNL     1      13.202 -21.813 -47.041  1.00  0.00     0.265 C 
ATOM     19  O   UNL     1      14.151 -21.170 -47.482  1.00  0.00    -0.268 OA
ATOM     20  H   UNL     1      11.131 -22.194 -47.150  1.00  0.00     0.185 HD
BRANCH  18  21
ATOM     21  C   UNL     1      13.359 -22.700 -45.858  1.00  0.00     0.041 A 
ATOM     22  C   UNL     1      12.303 -23.463 -45.352  1.00  0.00     0.014 A 
ATOM     23  C   UNL     1      14.615 -22.790 -45.256  1.00  0.00     0.014 A 
ATOM     24  C   UNL     1      12.500 -24.286 -44.235  1.00  0.00     0.005 A 
ATOM     25  C   UNL     1      14.805 -23.613 -44.142  1.00  0.00     0.005 A 
ATOM     26  C   UNL     1      13.752 -24.376 -43.601  1.00  0.00    -0.043 A 
BRANCH  26  27
ATOM     27  C   UNL     1      13.999 -25.272 -42.375  1.00  0.00    -0.013 C 
ATOM     28  C   UNL     1      14.983 -26.434 -42.636  1.00  0.00     0.016 C 
ATOM     29  C   UNL     1      14.587 -24.426 -41.225  1.00  0.00     0.016 C 
ATOM     30  C   UNL     1      12.665 -25.900 -41.913  1.00  0.00     0.016 C 
ENDBRANCH  26  27
ENDBRANCH  18  21
ENDBRANCH  15  17
ENDBRANCH   1  15
BRANCH   1  31
ATOM     31  C   UNL     1      12.996 -20.603 -50.886  1.00  0.00    -0.020 A 
ATOM     32  C   UNL     1      13.432 -19.375 -50.359  1.00  0.00     0.006 A 
ATOM     33  C   UNL     1      13.244 -20.871 -52.243  1.00  0.00     0.006 A 
ATOM     34  C   UNL     1      14.082 -18.440 -51.165  1.00  0.00     0.000 A 
ATOM     35  C   UNL     1      13.892 -19.933 -53.048  1.00  0.00     0.000 A 
ATOM     36  C   UNL     1      14.310 -18.718 -52.510  1.00  0.00     0.000 A 
ENDBRANCH   1  31
TORSDOF 8
ENDMDL
