MODEL 1
REMARK VINA RESULT:    -8.068      0.000      0.000
REMARK INTER + INTRA:         -11.104
REMARK INTER:                 -10.427
REMARK INTRA:                  -0.677
REMARK UNBOUND:                -0.677
REMARK SMILES N#CC(C(=O)COC(=O)c1cc(Cl)c[nH]1)=C1Nc2ccccc2N1
REMARK SMILES IDX 6 1 4 2 5 3 3 4 1 5 2 6 16 7 17 8 24 9 18 10 23 11 19 12
REMARK SMILES IDX 22 13 20 14 21 15 7 18 8 19 9 20 10 21 11 22 15 23 12 24
REMARK SMILES IDX 14 25 13 27
REMARK H PARENT 17 16 24 17 15 26
ROOT
ATOM      1  C   UNL     1      13.228 -20.833 -47.741  1.00  0.00     0.315 C 
ENDROOT
BRANCH   1   2
ATOM      2  C   UNL     1      13.893 -22.024 -47.047  1.00  0.00     0.214 C 
ATOM      3  O   UNL     1      15.068 -22.324 -47.264  1.00  0.00    -0.289 OA
BRANCH   2   4
ATOM      4  C   UNL     1      13.067 -22.867 -46.154  1.00  0.00     0.139 C 
ATOM      5  N   UNL     1      10.899 -23.875 -47.124  1.00  0.00    -0.192 NA
ATOM      6  C   UNL     1      11.885 -23.423 -46.707  1.00  0.00     0.107 C 
ATOM      7  C   UNL     1      13.444 -23.109 -44.882  1.00  0.00     0.130 C 
ATOM      8  N   UNL     1      14.630 -22.666 -44.271  1.00  0.00    -0.339 N 
ATOM      9  N   UNL     1      12.718 -23.900 -43.968  1.00  0.00    -0.339 N 
ATOM     10  C   UNL     1      14.760 -23.396 -43.072  1.00  0.00     0.063 A 
ATOM     11  C   UNL     1      13.584 -24.153 -42.885  1.00  0.00     0.063 A 
ATOM     12  C   UNL     1      15.765 -23.376 -42.135  1.00  0.00     0.028 A 
ATOM     13  C   UNL     1      13.384 -24.908 -41.754  1.00  0.00     0.028 A 
ATOM     14  C   UNL     1      15.586 -24.160 -40.991  1.00  0.00     0.002 A 
ATOM     15  C   UNL     1      14.410 -24.917 -40.802  1.00  0.00     0.002 A 
ATOM     16  H   UNL     1      15.476 -22.528 -44.829  1.00  0.00     0.168 HD
ATOM     17  H   UNL     1      12.141 -24.658 -44.309  1.00  0.00     0.168 HD
ENDBRANCH   2   4
ENDBRANCH   1   2
BRANCH   1  18
ATOM     18  O   UNL     1      13.774 -20.584 -49.040  1.00  0.00    -0.453 OA
BRANCH  18  19
ATOM     19  C   UNL     1      12.831 -20.499 -50.023  1.00  0.00     0.355 C 
ATOM     20  O   UNL     1      11.687 -20.925 -49.922  1.00  0.00    -0.244 OA
BRANCH  19  21
ATOM     21  C   UNL     1      13.393 -19.855 -51.183  1.00  0.00     0.126 A 
ATOM     22  C   UNL     1      13.966 -18.596 -51.278  1.00  0.00     0.055 A 
ATOM     23  N   UNL     1      13.464 -20.414 -52.442  1.00  0.00    -0.354 N 
ATOM     24  C   UNL     1      14.374 -18.402 -52.617  1.00  0.00     0.059 A 
ATOM     25  C   UNL     1      14.052 -19.540 -53.316  1.00  0.00     0.103 A 
ATOM     26  H   UNL     1      13.132 -21.344 -52.670  1.00  0.00     0.166 HD
ATOM     27  Cl  UNL     1      15.125 -17.007 -53.220  1.00  0.00    -0.083 Cl
ENDBRANCH  19  21
ENDBRANCH  18  19
ENDBRANCH   1  18
TORSDOF 5
ENDMDL
MODEL 2
REMARK VINA RESULT:    -7.816      1.822      2.463
REMARK INTER + INTRA:         -10.778
REMARK INTER:                 -10.145
REMARK INTRA:                  -0.633
REMARK UNBOUND:                -0.677
REMARK SMILES N#CC(C(=O)COC(=O)c1cc(Cl)c[nH]1)=C1Nc2ccccc2N1
REMARK SMILES IDX 6 1 4 2 5 3 3 4 1 5 2 6 16 7 17 8 24 9 18 10 23 11 19 12
REMARK SMILES IDX 22 13 20 14 21 15 7 18 8 19 9 20 10 21 11 22 15 23 12 24
REMARK SMILES IDX 14 25 13 27
REMARK H PARENT 17 16 24 17 15 26
ROOT
ATOM      1  C   UNL     1      12.661 -21.114 -50.329  1.00  0.00     0.315 C 
ENDROOT
BRANCH   1   2
ATOM      2  C   UNL     1      12.674 -20.826 -48.827  1.00  0.00     0.214 C 
ATOM      3  O   UNL     1      13.047 -19.740 -48.380  1.00  0.00    -0.289 OA
BRANCH   2   4
ATOM      4  C   UNL     1      12.297 -21.917 -47.899  1.00  0.00     0.139 C 
ATOM      5  N   UNL     1      10.150 -23.247 -48.422  1.00  0.00    -0.192 NA
ATOM      6  C   UNL     1      11.120 -22.645 -48.209  1.00  0.00     0.107 C 
ATOM      7  C   UNL     1      13.061 -22.211 -46.826  1.00  0.00     0.130 C 
ATOM      8  N   UNL     1      14.277 -21.597 -46.482  1.00  0.00    -0.339 N 
ATOM      9  N   UNL     1      12.775 -23.232 -45.897  1.00  0.00    -0.339 N 
ATOM     10  C   UNL     1      14.870 -22.409 -45.494  1.00  0.00     0.063 A 
ATOM     11  C   UNL     1      13.946 -23.414 -45.133  1.00  0.00     0.063 A 
ATOM     12  C   UNL     1      16.083 -22.281 -44.860  1.00  0.00     0.028 A 
ATOM     13  C   UNL     1      14.212 -24.313 -44.128  1.00  0.00     0.028 A 
ATOM     14  C   UNL     1      16.377 -23.205 -43.853  1.00  0.00     0.002 A 
ATOM     15  C   UNL     1      15.454 -24.208 -43.491  1.00  0.00     0.002 A 
ATOM     16  H   UNL     1      14.890 -21.224 -47.211  1.00  0.00     0.168 HD
ATOM     17  H   UNL     1      12.264 -24.053 -46.194  1.00  0.00     0.168 HD
ENDBRANCH   2   4
ENDBRANCH   1   2
BRANCH   1  18
ATOM     18  O   UNL     1      13.163 -20.017 -51.099  1.00  0.00    -0.453 OA
BRANCH  18  19
ATOM     19  C   UNL     1      13.548 -20.364 -52.361  1.00  0.00     0.355 C 
ATOM     20  O   UNL     1      13.081 -21.306 -52.991  1.00  0.00    -0.244 OA
BRANCH  19  21
ATOM     21  C   UNL     1      14.582 -19.472 -52.819  1.00  0.00     0.126 A 
ATOM     22  C   UNL     1      14.740 -18.122 -52.547  1.00  0.00     0.055 A 
ATOM     23  N   UNL     1      15.638 -19.836 -53.630  1.00  0.00    -0.354 N 
ATOM     24  C   UNL     1      15.902 -17.675 -53.216  1.00  0.00     0.059 A 
ATOM     25  C   UNL     1      16.438 -18.752 -53.879  1.00  0.00     0.103 A 
ATOM     26  H   UNL     1      15.790 -20.775 -53.977  1.00  0.00     0.166 HD
ATOM     27  Cl  UNL     1      16.501 -16.090 -53.185  1.00  0.00    -0.083 Cl
ENDBRANCH  19  21
ENDBRANCH  18  19
ENDBRANCH   1  18
TORSDOF 5
ENDMDL
MODEL 3
REMARK VINA RESULT:    -7.782      3.705      7.650
REMARK INTER + INTRA:         -10.734
REMARK INTER:                  -9.555
REMARK INTRA:                  -1.179
REMARK UNBOUND:                -0.677
REMARK SMILES N#CC(C(=O)COC(=O)c1cc(Cl)c[nH]1)=C1Nc2ccccc2N1
REMARK SMILES IDX 6 1 4 2 5 3 3 4 1 5 2 6 16 7 17 8 24 9 18 10 23 11 19 12
REMARK SMILES IDX 22 13 20 14 21 15 7 18 8 19 9 20 10 21 11 22 15 23 12 24
REMARK SMILES IDX 14 25 13 27
REMARK H PARENT 17 16 24 17 15 26
ROOT
ATOM      1  C   UNL     1      14.292 -21.767 -47.757  1.00  0.00     0.315 C 
ENDROOT
BRANCH   1   2
ATOM      2  C   UNL     1      13.195 -20.811 -48.231  1.00  0.00     0.214 C 
ATOM      3  O   UNL     1      12.852 -19.837 -47.560  1.00  0.00    -0.289 OA
BRANCH   2   4
ATOM      4  C   UNL     1      12.490 -21.124 -49.495  1.00  0.00     0.139 C 
ATOM      5  N   UNL     1      13.489 -20.202 -51.687  1.00  0.00    -0.192 NA
ATOM      6  C   UNL     1      13.060 -20.619 -50.691  1.00  0.00     0.107 C 
ATOM      7  C   UNL     1      11.371 -21.878 -49.497  1.00  0.00     0.130 C 
ATOM      8  N   UNL     1      10.777 -22.482 -48.376  1.00  0.00    -0.339 N 
ATOM      9  N   UNL     1      10.640 -22.223 -50.653  1.00  0.00    -0.339 N 
ATOM     10  C   UNL     1       9.837 -23.408 -48.870  1.00  0.00     0.063 A 
ATOM     11  C   UNL     1       9.752 -23.248 -50.271  1.00  0.00     0.063 A 
ATOM     12  C   UNL     1       9.027 -24.287 -48.192  1.00  0.00     0.028 A 
ATOM     13  C   UNL     1       8.853 -23.963 -51.026  1.00  0.00     0.028 A 
ATOM     14  C   UNL     1       8.125 -25.040 -48.952  1.00  0.00     0.002 A 
ATOM     15  C   UNL     1       8.038 -24.880 -50.351  1.00  0.00     0.002 A 
ATOM     16  H   UNL     1      11.353 -22.777 -47.584  1.00  0.00     0.168 HD
ATOM     17  H   UNL     1      11.118 -22.309 -51.541  1.00  0.00     0.168 HD
ENDBRANCH   2   4
ENDBRANCH   1   2
BRANCH   1  18
ATOM     18  O   UNL     1      13.762 -22.988 -47.234  1.00  0.00    -0.453 OA
BRANCH  18  19
ATOM     19  C   UNL     1      13.375 -22.903 -45.929  1.00  0.00     0.355 C 
ATOM     20  O   UNL     1      12.226 -22.683 -45.562  1.00  0.00    -0.244 OA
BRANCH  19  21
ATOM     21  C   UNL     1      14.514 -23.092 -45.068  1.00  0.00     0.126 A 
ATOM     22  C   UNL     1      15.492 -24.073 -45.133  1.00  0.00     0.055 A 
ATOM     23  N   UNL     1      14.838 -22.286 -43.995  1.00  0.00    -0.354 N 
ATOM     24  C   UNL     1      16.404 -23.851 -44.077  1.00  0.00     0.059 A 
ATOM     25  C   UNL     1      15.977 -22.741 -43.388  1.00  0.00     0.103 A 
ATOM     26  H   UNL     1      14.303 -21.472 -43.715  1.00  0.00     0.166 HD
ATOM     27  Cl  UNL     1      17.769 -24.799 -43.747  1.00  0.00    -0.083 Cl
ENDBRANCH  19  21
ENDBRANCH  18  19
ENDBRANCH   1  18
TORSDOF 5
ENDMDL
MODEL 4
REMARK VINA RESULT:    -7.676      1.877      3.068
REMARK INTER + INTRA:         -10.597
REMARK INTER:                  -9.963
REMARK INTRA:                  -0.634
REMARK UNBOUND:                -0.677
REMARK SMILES N#CC(C(=O)COC(=O)c1cc(Cl)c[nH]1)=C1Nc2ccccc2N1
REMARK SMILES IDX 6 1 4 2 5 3 3 4 1 5 2 6 16 7 17 8 24 9 18 10 23 11 19 12
REMARK SMILES IDX 22 13 20 14 21 15 7 18 8 19 9 20 10 21 11 22 15 23 12 24
REMARK SMILES IDX 14 25 13 27
REMARK H PARENT 17 16 24 17 15 26
ROOT
ATOM      1  C   UNL     1      13.650 -22.905 -46.597  1.00  0.00     0.315 C 
ENDROOT
BRANCH   1   2
ATOM      2  C   UNL     1      13.494 -23.032 -45.080  1.00  0.00     0.214 C 
ATOM      3  O   UNL     1      12.388 -23.001 -44.539  1.00  0.00    -0.289 OA
BRANCH   2   4
ATOM      4  C   UNL     1      14.720 -23.119 -44.254  1.00  0.00     0.139 C 
ATOM      5  N   UNL     1      16.882 -22.079 -45.202  1.00  0.00    -0.192 NA
ATOM      6  C   UNL     1      15.897 -22.532 -44.785  1.00  0.00     0.107 C 
ATOM      7  C   UNL     1      14.699 -23.710 -43.041  1.00  0.00     0.130 C 
ATOM      8  N   UNL     1      13.570 -24.251 -42.403  1.00  0.00    -0.339 N 
ATOM      9  N   UNL     1      15.818 -23.834 -42.192  1.00  0.00    -0.339 N 
ATOM     10  C   UNL     1      13.937 -24.472 -41.060  1.00  0.00     0.063 A 
ATOM     11  C   UNL     1      15.320 -24.217 -40.930  1.00  0.00     0.063 A 
ATOM     12  C   UNL     1      13.186 -24.940 -40.008  1.00  0.00     0.028 A 
ATOM     13  C   UNL     1      15.984 -24.426 -39.746  1.00  0.00     0.028 A 
ATOM     14  C   UNL     1      13.846 -25.134 -38.790  1.00  0.00     0.002 A 
ATOM     15  C   UNL     1      15.227 -24.880 -38.660  1.00  0.00     0.002 A 
ATOM     16  H   UNL     1      12.643 -23.857 -42.576  1.00  0.00     0.168 HD
ATOM     17  H   UNL     1      16.554 -23.140 -42.227  1.00  0.00     0.168 HD
ENDBRANCH   2   4
ENDBRANCH   1   2
BRANCH   1  18
ATOM     18  O   UNL     1      13.104 -21.682 -47.100  1.00  0.00    -0.453 OA
BRANCH  18  19
ATOM     19  C   UNL     1      12.193 -21.858 -48.100  1.00  0.00     0.355 C 
ATOM     20  O   UNL     1      11.187 -22.551 -48.003  1.00  0.00    -0.244 OA
BRANCH  19  21
ATOM     21  C   UNL     1      12.606 -21.129 -49.272  1.00  0.00     0.126 A 
ATOM     22  C   UNL     1      13.327 -19.947 -49.342  1.00  0.00     0.055 A 
ATOM     23  N   UNL     1      12.347 -21.509 -50.573  1.00  0.00    -0.354 N 
ATOM     24  C   UNL     1      13.490 -19.616 -50.706  1.00  0.00     0.059 A 
ATOM     25  C   UNL     1      12.875 -20.597 -51.446  1.00  0.00     0.103 A 
ATOM     26  H   UNL     1      11.845 -22.351 -50.829  1.00  0.00     0.166 HD
ATOM     27  Cl  UNL     1      14.305 -18.250 -51.292  1.00  0.00    -0.083 Cl
ENDBRANCH  19  21
ENDBRANCH  18  19
ENDBRANCH   1  18
TORSDOF 5
ENDMDL
MODEL 5
REMARK VINA RESULT:    -7.649      2.795      3.731
REMARK INTER + INTRA:         -10.562
REMARK INTER:                  -9.575
REMARK INTRA:                  -0.987
REMARK UNBOUND:                -0.677
REMARK SMILES N#CC(C(=O)COC(=O)c1cc(Cl)c[nH]1)=C1Nc2ccccc2N1
REMARK SMILES IDX 6 1 4 2 5 3 3 4 1 5 2 6 16 7 17 8 24 9 18 10 23 11 19 12
REMARK SMILES IDX 22 13 20 14 21 15 7 18 8 19 9 20 10 21 11 22 15 23 12 24
REMARK SMILES IDX 14 25 13 27
REMARK H PARENT 17 16 24 17 15 26
ROOT
ATOM      1  C   UNL     1      11.472 -25.027 -46.037  1.00  0.00     0.315 C 
ENDROOT
BRANCH   1   2
ATOM      2  C   UNL     1      12.122 -24.165 -44.953  1.00  0.00     0.214 C 
ATOM      3  O   UNL     1      11.568 -23.158 -44.510  1.00  0.00    -0.289 OA
BRANCH   2   4
ATOM      4  C   UNL     1      13.483 -24.525 -44.492  1.00  0.00     0.139 C 
ATOM      5  N   UNL     1      15.323 -24.792 -46.279  1.00  0.00    -0.192 NA
ATOM      6  C   UNL     1      14.484 -24.656 -45.487  1.00  0.00     0.107 C 
ATOM      7  C   UNL     1      13.749 -24.693 -43.180  1.00  0.00     0.130 C 
ATOM      8  N   UNL     1      12.843 -24.511 -42.121  1.00  0.00    -0.339 N 
ATOM      9  N   UNL     1      15.013 -25.033 -42.657  1.00  0.00    -0.339 N 
ATOM     10  C   UNL     1      13.610 -24.484 -40.938  1.00  0.00     0.063 A 
ATOM     11  C   UNL     1      14.944 -24.807 -41.268  1.00  0.00     0.063 A 
ATOM     12  C   UNL     1      13.214 -24.285 -39.637  1.00  0.00     0.028 A 
ATOM     13  C   UNL     1      15.914 -24.939 -40.304  1.00  0.00     0.028 A 
ATOM     14  C   UNL     1      14.197 -24.392 -38.648  1.00  0.00     0.002 A 
ATOM     15  C   UNL     1      15.531 -24.715 -38.976  1.00  0.00     0.002 A 
ATOM     16  H   UNL     1      12.085 -23.830 -42.202  1.00  0.00     0.168 HD
ATOM     17  H   UNL     1      15.852 -24.751 -43.148  1.00  0.00     0.168 HD
ENDBRANCH   2   4
ENDBRANCH   1   2
BRANCH   1  18
ATOM     18  O   UNL     1      11.916 -24.675 -47.351  1.00  0.00    -0.453 OA
BRANCH  18  19
ATOM     19  C   UNL     1      11.273 -23.591 -47.875  1.00  0.00     0.355 C 
ATOM     20  O   UNL     1      10.055 -23.460 -47.909  1.00  0.00    -0.244 OA
BRANCH  19  21
ATOM     21  C   UNL     1      12.238 -22.652 -48.386  1.00  0.00     0.126 A 
ATOM     22  C   UNL     1      12.014 -21.500 -49.124  1.00  0.00     0.055 A 
ATOM     23  N   UNL     1      13.604 -22.745 -48.209  1.00  0.00    -0.354 N 
ATOM     24  C   UNL     1      13.266 -20.905 -49.397  1.00  0.00     0.059 A 
ATOM     25  C   UNL     1      14.233 -21.694 -48.822  1.00  0.00     0.103 A 
ATOM     26  H   UNL     1      14.060 -23.486 -47.690  1.00  0.00     0.166 HD
ATOM     27  Cl  UNL     1      13.500 -19.476 -50.277  1.00  0.00    -0.083 Cl
ENDBRANCH  19  21
ENDBRANCH  18  19
ENDBRANCH   1  18
TORSDOF 5
ENDMDL
MODEL 6
REMARK VINA RESULT:    -7.541      2.600      3.087
REMARK INTER + INTRA:         -10.422
REMARK INTER:                  -9.395
REMARK INTRA:                  -1.028
REMARK UNBOUND:                -0.677
REMARK SMILES N#CC(C(=O)COC(=O)c1cc(Cl)c[nH]1)=C1Nc2ccccc2N1
REMARK SMILES IDX 6 1 4 2 5 3 3 4 1 5 2 6 16 7 17 8 24 9 18 10 23 11 19 12
REMARK SMILES IDX 22 13 20 14 21 15 7 18 8 19 9 20 10 21 11 22 15 23 12 24
REMARK SMILES IDX 14 25 13 27
REMARK H PARENT 17 16 24 17 15 26
ROOT
ATOM      1  C   UNL     1      11.534 -22.397 -50.121  1.00  0.00     0.315 C 
ENDROOT
BRANCH   1   2
ATOM      2  C   UNL     1      11.354 -23.068 -48.757  1.00  0.00     0.214 C 
ATOM      3  O   UNL     1      10.510 -22.676 -47.950  1.00  0.00    -0.289 OA
BRANCH   2   4
ATOM      4  C   UNL     1      12.278 -24.165 -48.387  1.00  0.00     0.139 C 
ATOM      5  N   UNL     1      11.918 -26.462 -49.503  1.00  0.00    -0.192 NA
ATOM      6  C   UNL     1      12.073 -25.418 -49.019  1.00  0.00     0.107 C 
ATOM      7  C   UNL     1      13.280 -23.962 -47.507  1.00  0.00     0.130 C 
ATOM      8  N   UNL     1      13.606 -22.741 -46.890  1.00  0.00    -0.339 N 
ATOM      9  N   UNL     1      14.202 -24.948 -47.102  1.00  0.00    -0.339 N 
ATOM     10  C   UNL     1      14.879 -22.913 -46.311  1.00  0.00     0.063 A 
ATOM     11  C   UNL     1      15.245 -24.271 -46.440  1.00  0.00     0.063 A 
ATOM     12  C   UNL     1      15.667 -22.012 -45.635  1.00  0.00     0.028 A 
ATOM     13  C   UNL     1      16.408 -24.760 -45.894  1.00  0.00     0.028 A 
ATOM     14  C   UNL     1      16.865 -22.492 -45.096  1.00  0.00     0.002 A 
ATOM     15  C   UNL     1      17.232 -23.848 -45.224  1.00  0.00     0.002 A 
ATOM     16  H   UNL     1      13.426 -21.857 -47.371  1.00  0.00     0.168 HD
ATOM     17  H   UNL     1      14.444 -25.699 -47.736  1.00  0.00     0.168 HD
ENDBRANCH   2   4
ENDBRANCH   1   2
BRANCH   1  18
ATOM     18  O   UNL     1      11.629 -20.973 -50.019  1.00  0.00    -0.453 OA
BRANCH  18  19
ATOM     19  C   UNL     1      12.900 -20.521 -49.815  1.00  0.00     0.355 C 
ATOM     20  O   UNL     1      13.513 -20.635 -48.760  1.00  0.00    -0.244 OA
BRANCH  19  21
ATOM     21  C   UNL     1      13.390 -19.886 -51.012  1.00  0.00     0.126 A 
ATOM     22  C   UNL     1      13.924 -18.615 -51.157  1.00  0.00     0.055 A 
ATOM     23  N   UNL     1      13.419 -20.469 -52.262  1.00  0.00    -0.354 N 
ATOM     24  C   UNL     1      14.264 -18.437 -52.517  1.00  0.00     0.059 A 
ATOM     25  C   UNL     1      13.942 -19.597 -53.179  1.00  0.00     0.103 A 
ATOM     26  H   UNL     1      13.102 -21.412 -52.457  1.00  0.00     0.166 HD
ATOM     27  Cl  UNL     1      14.948 -17.035 -53.180  1.00  0.00    -0.083 Cl
ENDBRANCH  19  21
ENDBRANCH  18  19
ENDBRANCH   1  18
TORSDOF 5
ENDMDL
MODEL 7
REMARK VINA RESULT:    -7.477      4.594      9.109
REMARK INTER + INTRA:         -10.340
REMARK INTER:                  -9.174
REMARK INTRA:                  -1.166
REMARK UNBOUND:                -0.677
REMARK SMILES N#CC(C(=O)COC(=O)c1cc(Cl)c[nH]1)=C1Nc2ccccc2N1
REMARK SMILES IDX 6 1 4 2 5 3 3 4 1 5 2 6 16 7 17 8 24 9 18 10 23 11 19 12
REMARK SMILES IDX 22 13 20 14 21 15 7 18 8 19 9 20 10 21 11 22 15 23 12 24
REMARK SMILES IDX 14 25 13 27
REMARK H PARENT 17 16 24 17 15 26
ROOT
ATOM      1  C   UNL     1      16.941 -23.878 -43.621  1.00  0.00     0.315 C 
ENDROOT
BRANCH   1   2
ATOM      2  C   UNL     1      16.036 -22.754 -44.129  1.00  0.00     0.214 C 
ATOM      3  O   UNL     1      16.412 -21.581 -44.152  1.00  0.00    -0.289 OA
BRANCH   2   4
ATOM      4  C   UNL     1      14.651 -23.095 -44.529  1.00  0.00     0.139 C 
ATOM      5  N   UNL     1      13.135 -24.213 -42.768  1.00  0.00    -0.192 NA
ATOM      6  C   UNL     1      13.828 -23.698 -43.545  1.00  0.00     0.107 C 
ATOM      7  C   UNL     1      14.198 -22.815 -45.769  1.00  0.00     0.130 C 
ATOM      8  N   UNL     1      14.913 -22.155 -46.783  1.00  0.00    -0.339 N 
ATOM      9  N   UNL     1      12.898 -23.104 -46.230  1.00  0.00    -0.339 N 
ATOM     10  C   UNL     1      13.973 -21.805 -47.773  1.00  0.00     0.063 A 
ATOM     11  C   UNL     1      12.734 -22.390 -47.433  1.00  0.00     0.063 A 
ATOM     12  C   UNL     1      14.146 -21.106 -48.943  1.00  0.00     0.028 A 
ATOM     13  C   UNL     1      11.639 -22.291 -48.258  1.00  0.00     0.028 A 
ATOM     14  C   UNL     1      13.033 -20.976 -49.780  1.00  0.00     0.002 A 
ATOM     15  C   UNL     1      11.794 -21.561 -49.442  1.00  0.00     0.002 A 
ATOM     16  H   UNL     1      15.621 -21.457 -46.543  1.00  0.00     0.168 HD
ATOM     17  H   UNL     1      12.126 -23.124 -45.574  1.00  0.00     0.168 HD
ENDBRANCH   2   4
ENDBRANCH   1   2
BRANCH   1  18
ATOM     18  O   UNL     1      17.089 -23.858 -42.198  1.00  0.00    -0.453 OA
BRANCH  18  19
ATOM     19  C   UNL     1      17.014 -25.092 -41.621  1.00  0.00     0.355 C 
ATOM     20  O   UNL     1      17.791 -26.012 -41.854  1.00  0.00    -0.244 OA
BRANCH  19  21
ATOM     21  C   UNL     1      15.887 -25.146 -40.726  1.00  0.00     0.126 A 
ATOM     22  C   UNL     1      15.569 -24.285 -39.687  1.00  0.00     0.055 A 
ATOM     23  N   UNL     1      14.890 -26.099 -40.766  1.00  0.00    -0.354 N 
ATOM     24  C   UNL     1      14.371 -24.741 -39.094  1.00  0.00     0.059 A 
ATOM     25  C   UNL     1      13.971 -25.864 -39.778  1.00  0.00     0.103 A 
ATOM     26  H   UNL     1      14.852 -26.854 -41.441  1.00  0.00     0.166 HD
ATOM     27  Cl  UNL     1      13.590 -24.012 -37.778  1.00  0.00    -0.083 Cl
ENDBRANCH  19  21
ENDBRANCH  18  19
ENDBRANCH   1  18
TORSDOF 5
ENDMDL
MODEL 8
REMARK VINA RESULT:    -7.323      4.614      9.073
REMARK INTER + INTRA:         -10.141
REMARK INTER:                  -9.048
REMARK INTRA:                  -1.093
REMARK UNBOUND:                -0.677
REMARK SMILES N#CC(C(=O)COC(=O)c1cc(Cl)c[nH]1)=C1Nc2ccccc2N1
REMARK SMILES IDX 6 1 4 2 5 3 3 4 1 5 2 6 16 7 17 8 24 9 18 10 23 11 19 12
REMARK SMILES IDX 22 13 20 14 21 15 7 18 8 19 9 20 10 21 11 22 15 23 12 24
REMARK SMILES IDX 14 25 13 27
REMARK H PARENT 17 16 24 17 15 26
ROOT
ATOM      1  C   UNL     1      16.320 -25.212 -44.384  1.00  0.00     0.315 C 
ENDROOT
BRANCH   1   2
ATOM      2  C   UNL     1      15.069 -24.442 -44.815  1.00  0.00     0.214 C 
ATOM      3  O   UNL     1      13.946 -24.942 -44.745  1.00  0.00    -0.289 OA
BRANCH   2   4
ATOM      4  C   UNL     1      15.243 -23.092 -45.399  1.00  0.00     0.139 C 
ATOM      5  N   UNL     1      17.156 -21.626 -44.480  1.00  0.00    -0.192 NA
ATOM      6  C   UNL     1      16.307 -22.305 -44.890  1.00  0.00     0.107 C 
ATOM      7  C   UNL     1      14.435 -22.654 -46.386  1.00  0.00     0.130 C 
ATOM      8  N   UNL     1      13.407 -23.388 -47.002  1.00  0.00    -0.339 N 
ATOM      9  N   UNL     1      14.532 -21.386 -46.996  1.00  0.00    -0.339 N 
ATOM     10  C   UNL     1      13.044 -22.673 -48.161  1.00  0.00     0.063 A 
ATOM     11  C   UNL     1      13.735 -21.441 -48.157  1.00  0.00     0.063 A 
ATOM     12  C   UNL     1      12.125 -22.983 -49.135  1.00  0.00     0.028 A 
ATOM     13  C   UNL     1      13.522 -20.491 -49.126  1.00  0.00     0.028 A 
ATOM     14  C   UNL     1      11.918 -22.035 -50.142  1.00  0.00     0.002 A 
ATOM     15  C   UNL     1      12.607 -20.803 -50.138  1.00  0.00     0.002 A 
ATOM     16  H   UNL     1      13.477 -24.404 -47.082  1.00  0.00     0.168 HD
ATOM     17  H   UNL     1      15.430 -20.924 -47.052  1.00  0.00     0.168 HD
ENDBRANCH   2   4
ENDBRANCH   1   2
BRANCH   1  18
ATOM     18  O   UNL     1      16.238 -25.670 -43.031  1.00  0.00    -0.453 OA
BRANCH  18  19
ATOM     19  C   UNL     1      16.494 -24.699 -42.107  1.00  0.00     0.355 C 
ATOM     20  O   UNL     1      17.531 -24.048 -42.059  1.00  0.00    -0.244 OA
BRANCH  19  21
ATOM     21  C   UNL     1      15.379 -24.579 -41.203  1.00  0.00     0.126 A 
ATOM     22  C   UNL     1      15.396 -24.336 -39.839  1.00  0.00     0.055 A 
ATOM     23  N   UNL     1      14.051 -24.679 -41.567  1.00  0.00    -0.354 N 
ATOM     24  C   UNL     1      14.059 -24.302 -39.384  1.00  0.00     0.059 A 
ATOM     25  C   UNL     1      13.247 -24.518 -40.471  1.00  0.00     0.103 A 
ATOM     26  H   UNL     1      13.733 -24.841 -42.516  1.00  0.00     0.166 HD
ATOM     27  Cl  UNL     1      13.575 -24.039 -37.781  1.00  0.00    -0.083 Cl
ENDBRANCH  19  21
ENDBRANCH  18  19
ENDBRANCH   1  18
TORSDOF 5
ENDMDL
MODEL 9
REMARK VINA RESULT:    -7.122      3.481      4.528
REMARK INTER + INTRA:          -9.881
REMARK INTER:                  -9.224
REMARK INTRA:                  -0.657
REMARK UNBOUND:                -0.677
REMARK SMILES N#CC(C(=O)COC(=O)c1cc(Cl)c[nH]1)=C1Nc2ccccc2N1
REMARK SMILES IDX 6 1 4 2 5 3 3 4 1 5 2 6 16 7 17 8 24 9 18 10 23 11 19 12
REMARK SMILES IDX 22 13 20 14 21 15 7 18 8 19 9 20 10 21 11 22 15 23 12 24
REMARK SMILES IDX 14 25 13 27
REMARK H PARENT 17 16 24 17 15 26
ROOT
ATOM      1  C   UNL     1      14.958 -22.186 -46.314  1.00  0.00     0.315 C 
ENDROOT
BRANCH   1   2
ATOM      2  C   UNL     1      15.748 -23.381 -45.777  1.00  0.00     0.214 C 
ATOM      3  O   UNL     1      15.752 -24.468 -46.357  1.00  0.00    -0.289 OA
BRANCH   2   4
ATOM      4  C   UNL     1      16.460 -23.229 -44.487  1.00  0.00     0.139 C 
ATOM      5  N   UNL     1      18.724 -21.993 -44.505  1.00  0.00    -0.192 NA
ATOM      6  C   UNL     1      17.697 -22.537 -44.513  1.00  0.00     0.107 C 
ATOM      7  C   UNL     1      15.932 -23.710 -43.342  1.00  0.00     0.130 C 
ATOM      8  N   UNL     1      14.684 -24.340 -43.206  1.00  0.00    -0.339 N 
ATOM      9  N   UNL     1      16.541 -23.607 -42.075  1.00  0.00    -0.339 N 
ATOM     10  C   UNL     1      14.409 -24.392 -41.825  1.00  0.00     0.063 A 
ATOM     11  C   UNL     1      15.552 -23.942 -41.129  1.00  0.00     0.063 A 
ATOM     12  C   UNL     1      13.299 -24.864 -41.165  1.00  0.00     0.028 A 
ATOM     13  C   UNL     1      15.613 -23.955 -39.756  1.00  0.00     0.028 A 
ATOM     14  C   UNL     1      13.339 -24.859 -39.767  1.00  0.00     0.002 A 
ATOM     15  C   UNL     1      14.481 -24.411 -39.071  1.00  0.00     0.002 A 
ATOM     16  H   UNL     1      13.911 -24.092 -43.828  1.00  0.00     0.168 HD
ATOM     17  H   UNL     1      17.153 -22.825 -41.874  1.00  0.00     0.168 HD
ENDBRANCH   2   4
ENDBRANCH   1   2
BRANCH   1  18
ATOM     18  O   UNL     1      14.127 -22.538 -47.424  1.00  0.00    -0.453 OA
BRANCH  18  19
ATOM     19  C   UNL     1      12.792 -22.501 -47.143  1.00  0.00     0.355 C 
ATOM     20  O   UNL     1      12.325 -22.242 -46.040  1.00  0.00    -0.244 OA
BRANCH  19  21
ATOM     21  C   UNL     1      12.035 -22.828 -48.324  1.00  0.00     0.126 A 
ATOM     22  C   UNL     1      12.099 -23.974 -49.101  1.00  0.00     0.055 A 
ATOM     23  N   UNL     1      11.072 -22.020 -48.895  1.00  0.00    -0.354 N 
ATOM     24  C   UNL     1      11.168 -23.841 -50.155  1.00  0.00     0.059 A 
ATOM     25  C   UNL     1      10.546 -22.624 -50.006  1.00  0.00     0.103 A 
ATOM     26  H   UNL     1      10.799 -21.116 -48.528  1.00  0.00     0.166 HD
ATOM     27  Cl  UNL     1      10.889 -24.992 -51.367  1.00  0.00    -0.083 Cl
ENDBRANCH  19  21
ENDBRANCH  18  19
ENDBRANCH   1  18
TORSDOF 5
ENDMDL
