REMARK SMILES C[C@H](OC(=O)c1cc2c(ccc3ccccc32)[nH]1)C(=O)NC(=O)NCC(F)(F)F
REMARK SMILES IDX 1 1 2 2 3 3 4 4 5 5 6 6 7 7 18 8 8 9 9 10 17 11 10 12 16 13
REMARK SMILES IDX 12 14 11 15 15 16 13 17 14 18 19 20 20 21 21 22 22 23 23 24
REMARK SMILES IDX 24 25 25 28 26 29 27 30 28 31 29 32
REMARK H PARENT 18 19 21 26 24 27
ROOT
ATOM      1  C   UNL     1       1.861  -2.033   4.032  1.00  0.00     0.064 C 
ATOM      2  C   UNL     1       1.583  -1.852   2.544  1.00  0.00     0.263 C 
ENDROOT
BRANCH   2   3
ATOM      3  O   UNL     1       0.872  -0.611   2.404  1.00  0.00    -0.448 OA
BRANCH   3   4
ATOM      4  C   UNL     1       0.756  -0.138   1.134  1.00  0.00     0.355 C 
ATOM      5  O   UNL     1       1.180  -0.721   0.143  1.00  0.00    -0.244 OA
BRANCH   4   6
ATOM      6  C   UNL     1       0.059   1.120   1.143  1.00  0.00     0.126 A 
ATOM      7  C   UNL     1      -0.241   1.949   0.077  1.00  0.00     0.044 A 
ATOM      8  N   UNL     1      -0.452   1.731   2.265  1.00  0.00    -0.349 N 
ATOM      9  C   UNL     1      -0.947   3.089   0.565  1.00  0.00     0.008 A 
ATOM     10  C   UNL     1      -1.063   2.921   1.944  1.00  0.00     0.047 A 
ATOM     11  C   UNL     1      -1.504   4.259  -0.032  1.00  0.00    -0.009 A 
ATOM     12  C   UNL     1      -1.704   3.847   2.772  1.00  0.00     0.027 A 
ATOM     13  C   UNL     1      -1.416   4.481  -1.422  1.00  0.00     0.009 A 
ATOM     14  C   UNL     1      -2.157   5.209   0.792  1.00  0.00    -0.018 A 
ATOM     15  C   UNL     1      -2.246   4.989   2.173  1.00  0.00     0.011 A 
ATOM     16  C   UNL     1      -1.967   5.631  -1.987  1.00  0.00     0.001 A 
ATOM     17  C   UNL     1      -2.704   6.358   0.199  1.00  0.00     0.009 A 
ATOM     18  C   UNL     1      -2.609   6.566  -1.179  1.00  0.00     0.001 A 
ATOM     19  H   UNL     1      -0.387   1.350   3.200  1.00  0.00     0.167 HD
ENDBRANCH   4   6
ENDBRANCH   3   4
ENDBRANCH   2   3
BRANCH   2  20
ATOM     20  C   UNL     1       0.781  -3.055   2.007  1.00  0.00     0.268 C 
ATOM     21  O   UNL     1      -0.020  -3.686   2.693  1.00  0.00    -0.270 OA
ATOM     22  N   UNL     1       0.977  -3.321   0.672  1.00  0.00    -0.275 N 
ATOM     23  C   UNL     1       1.933  -4.254   0.380  1.00  0.00     0.321 C 
ATOM     24  O   UNL     1       2.557  -4.911   1.200  1.00  0.00    -0.248 OA
ATOM     25  N   UNL     1       2.139  -4.357  -0.976  1.00  0.00    -0.329 N 
ATOM     26  H   UNL     1       1.169  -2.486   0.120  1.00  0.00     0.174 HD
ATOM     27  H   UNL     1       1.339  -4.140  -1.557  1.00  0.00     0.165 HD
BRANCH  25  28
ATOM     28  C   UNL     1       3.110  -5.324  -1.492  1.00  0.00     0.233 C 
BRANCH  28  29
ATOM     29  C   UNL     1       4.576  -4.880  -1.432  1.00  0.00     0.405 C 
ATOM     30  F   UNL     1       4.765  -3.761  -2.172  1.00  0.00    -0.169 F 
ATOM     31  F   UNL     1       5.378  -5.840  -1.951  1.00  0.00    -0.169 F 
ATOM     32  F   UNL     1       5.004  -4.622  -0.181  1.00  0.00    -0.169 F 
ENDBRANCH  28  29
ENDBRANCH  25  28
ENDBRANCH   2  20
TORSDOF 6
