MODEL 1
REMARK VINA RESULT:    -7.927      0.000      0.000
REMARK INTER + INTRA:         -13.157
REMARK INTER:                 -12.098
REMARK INTRA:                  -1.059
REMARK UNBOUND:                -1.059
REMARK SMILES CCNC(=O)COc1ccc(C(=O)O[C@@H](C)C(=O)NC(=O)Nc2ccc3c(c2)OCCO3)cc1
REMARK SMILES IDX 8 1 9 2 10 3 11 4 33 5 34 6 7 7 6 8 4 9 3 10 5 11 2 13 1 14
REMARK SMILES IDX 12 15 13 16 14 17 15 18 16 19 17 20 18 21 19 22 20 23 21 24
REMARK SMILES IDX 22 25 23 28 24 29 28 30 25 31 27 32 26 33 29 34 32 35 30 36
REMARK SMILES IDX 31 37
REMARK H PARENT 3 12 19 26 22 27
ROOT
ATOM      1  C   UNL     1      14.720 -23.076 -45.896  1.00  0.00     0.120 A 
ATOM      2  C   UNL     1      14.890 -22.420 -47.116  1.00  0.00     0.047 A 
ATOM      3  C   UNL     1      13.801 -22.248 -47.984  1.00  0.00     0.019 A 
ATOM      4  C   UNL     1      12.534 -22.729 -47.635  1.00  0.00     0.060 A 
ATOM      5  C   UNL     1      12.366 -23.388 -46.412  1.00  0.00     0.019 A 
ATOM      6  C   UNL     1      13.454 -23.556 -45.550  1.00  0.00     0.047 A 
ENDROOT
BRANCH   1   7
ATOM      7  O   UNL     1      15.684 -23.299 -44.954  1.00  0.00    -0.484 OA
BRANCH   7   8
ATOM      8  C   UNL     1      15.823 -22.354 -43.897  1.00  0.00     0.329 C 
BRANCH   8   9
ATOM      9  C   UNL     1      16.047 -22.981 -42.519  1.00  0.00     0.257 C 
ATOM     10  N   UNL     1      15.045 -23.843 -42.126  1.00  0.00    -0.353 N 
ATOM     11  O   UNL     1      17.050 -22.749 -41.850  1.00  0.00    -0.271 OA
ATOM     12  H   UNL     1      14.188 -23.828 -42.671  1.00  0.00     0.163 HD
BRANCH  10  13
ATOM     13  C   UNL     1      15.021 -24.444 -40.810  1.00  0.00     0.112 C 
ATOM     14  C   UNL     1      13.624 -24.431 -40.216  1.00  0.00     0.027 C 
ENDBRANCH  10  13
ENDBRANCH   8   9
ENDBRANCH   7   8
ENDBRANCH   1   7
BRANCH   4  15
ATOM     15  C   UNL     1      11.344 -22.576 -48.515  1.00  0.00     0.338 C 
ATOM     16  O   UNL     1      11.380 -22.051 -49.616  1.00  0.00    -0.246 OA
BRANCH  15  17
ATOM     17  O   UNL     1      10.240 -23.106 -47.931  1.00  0.00    -0.449 OA
BRANCH  17  18
ATOM     18  C   UNL     1       9.657 -24.228 -48.624  1.00  0.00     0.262 C 
ATOM     19  C   UNL     1       9.504 -25.404 -47.670  1.00  0.00     0.064 C 
BRANCH  18  20
ATOM     20  C   UNL     1       8.279 -23.790 -49.126  1.00  0.00     0.268 C 
ATOM     21  O   UNL     1       7.245 -23.991 -48.489  1.00  0.00    -0.270 OA
ATOM     22  N   UNL     1       8.324 -23.033 -50.284  1.00  0.00    -0.275 N 
ATOM     23  C   UNL     1       7.300 -22.861 -51.188  1.00  0.00     0.325 C 
ATOM     24  O   UNL     1       7.605 -22.639 -52.356  1.00  0.00    -0.248 OA
ATOM     25  N   UNL     1       6.039 -22.988 -50.670  1.00  0.00    -0.308 N 
ATOM     26  H   UNL     1       9.221 -23.004 -50.750  1.00  0.00     0.174 HD
ATOM     27  H   UNL     1       6.004 -23.261 -49.690  1.00  0.00     0.171 HD
BRANCH  25  28
ATOM     28  C   UNL     1       4.805 -22.856 -51.334  1.00  0.00     0.046 A 
ATOM     29  C   UNL     1       4.525 -23.789 -52.343  1.00  0.00     0.030 A 
ATOM     30  C   UNL     1       3.861 -21.870 -51.040  1.00  0.00     0.076 A 
ATOM     31  C   UNL     1       3.326 -23.731 -53.057  1.00  0.00     0.052 A 
ATOM     32  C   UNL     1       2.655 -21.821 -51.745  1.00  0.00     0.163 A 
ATOM     33  C   UNL     1       2.398 -22.737 -52.768  1.00  0.00     0.161 A 
ATOM     34  O   UNL     1       1.770 -20.836 -51.382  1.00  0.00    -0.486 OA
ATOM     35  O   UNL     1       1.252 -22.723 -53.522  1.00  0.00    -0.486 OA
ATOM     36  C   UNL     1       0.464 -21.087 -51.911  1.00  0.00     0.271 C 
ATOM     37  C   UNL     1       0.547 -21.486 -53.374  1.00  0.00     0.271 C 
ENDBRANCH  25  28
ENDBRANCH  18  20
ENDBRANCH  17  18
ENDBRANCH  15  17
ENDBRANCH   4  15
TORSDOF 9
ENDMDL
MODEL 2
REMARK VINA RESULT:    -7.925      1.779      2.848
REMARK INTER + INTRA:         -13.154
REMARK INTER:                 -12.168
REMARK INTRA:                  -0.985
REMARK UNBOUND:                -1.059
REMARK SMILES CCNC(=O)COc1ccc(C(=O)O[C@@H](C)C(=O)NC(=O)Nc2ccc3c(c2)OCCO3)cc1
REMARK SMILES IDX 8 1 9 2 10 3 11 4 33 5 34 6 7 7 6 8 4 9 3 10 5 11 2 13 1 14
REMARK SMILES IDX 12 15 13 16 14 17 15 18 16 19 17 20 18 21 19 22 20 23 21 24
REMARK SMILES IDX 22 25 23 28 24 29 28 30 25 31 27 32 26 33 29 34 32 35 30 36
REMARK SMILES IDX 31 37
REMARK H PARENT 3 12 19 26 22 27
ROOT
ATOM      1  C   UNL     1      15.593 -22.930 -43.502  1.00  0.00     0.120 A 
ATOM      2  C   UNL     1      14.274 -23.260 -43.816  1.00  0.00     0.047 A 
ATOM      3  C   UNL     1      13.790 -23.077 -45.119  1.00  0.00     0.019 A 
ATOM      4  C   UNL     1      14.624 -22.565 -46.120  1.00  0.00     0.060 A 
ATOM      5  C   UNL     1      15.946 -22.233 -45.803  1.00  0.00     0.019 A 
ATOM      6  C   UNL     1      16.424 -22.417 -44.502  1.00  0.00     0.047 A 
ENDROOT
BRANCH   1   7
ATOM      7  O   UNL     1      16.196 -23.069 -42.284  1.00  0.00    -0.484 OA
BRANCH   7   8
ATOM      8  C   UNL     1      16.511 -24.384 -41.837  1.00  0.00     0.329 C 
BRANCH   8   9
ATOM      9  C   UNL     1      16.015 -24.702 -40.424  1.00  0.00     0.257 C 
ATOM     10  N   UNL     1      14.670 -25.001 -40.356  1.00  0.00    -0.353 N 
ATOM     11  O   UNL     1      16.766 -24.714 -39.454  1.00  0.00    -0.271 OA
ATOM     12  H   UNL     1      14.113 -24.794 -41.179  1.00  0.00     0.163 HD
BRANCH  10  13
ATOM     13  C   UNL     1      13.994 -25.217 -39.096  1.00  0.00     0.112 C 
ATOM     14  C   UNL     1      13.411 -23.928 -38.547  1.00  0.00     0.027 C 
ENDBRANCH  10  13
ENDBRANCH   8   9
ENDBRANCH   7   8
ENDBRANCH   1   7
BRANCH   4  15
ATOM     15  C   UNL     1      14.166 -22.349 -47.519  1.00  0.00     0.338 C 
ATOM     16  O   UNL     1      14.909 -22.029 -48.432  1.00  0.00    -0.246 OA
BRANCH  15  17
ATOM     17  O   UNL     1      12.831 -22.569 -47.630  1.00  0.00    -0.449 OA
BRANCH  17  18
ATOM     18  C   UNL     1      12.444 -23.496 -48.663  1.00  0.00     0.262 C 
ATOM     19  C   UNL     1      12.647 -24.925 -48.181  1.00  0.00     0.064 C 
BRANCH  18  20
ATOM     20  C   UNL     1      10.961 -23.258 -48.960  1.00  0.00     0.268 C 
ATOM     21  O   UNL     1      10.131 -23.055 -48.075  1.00  0.00    -0.270 OA
ATOM     22  N   UNL     1      10.674 -23.157 -50.310  1.00  0.00    -0.275 N 
ATOM     23  C   UNL     1       9.451 -23.371 -50.903  1.00  0.00     0.325 C 
ATOM     24  O   UNL     1       9.443 -23.760 -52.068  1.00  0.00    -0.248 OA
ATOM     25  N   UNL     1       8.366 -23.144 -50.098  1.00  0.00    -0.308 N 
ATOM     26  H   UNL     1      11.425 -23.420 -50.936  1.00  0.00     0.174 HD
ATOM     27  H   UNL     1       8.592 -22.909 -49.133  1.00  0.00     0.171 HD
BRANCH  25  28
ATOM     28  C   UNL     1       7.001 -23.262 -50.418  1.00  0.00     0.046 A 
ATOM     29  C   UNL     1       6.262 -24.218 -49.704  1.00  0.00     0.030 A 
ATOM     30  C   UNL     1       6.355 -22.488 -51.383  1.00  0.00     0.076 A 
ATOM     31  C   UNL     1       4.902 -24.406 -49.959  1.00  0.00     0.052 A 
ATOM     32  C   UNL     1       4.990 -22.667 -51.628  1.00  0.00     0.163 A 
ATOM     33  C   UNL     1       4.270 -23.641 -50.933  1.00  0.00     0.161 A 
ATOM     34  O   UNL     1       4.423 -21.852 -52.576  1.00  0.00    -0.486 OA
ATOM     35  O   UNL     1       2.939 -23.892 -51.148  1.00  0.00    -0.486 OA
ATOM     36  C   UNL     1       2.994 -21.877 -52.500  1.00  0.00     0.271 C 
ATOM     37  C   UNL     1       2.490 -23.304 -52.374  1.00  0.00     0.271 C 
ENDBRANCH  25  28
ENDBRANCH  18  20
ENDBRANCH  17  18
ENDBRANCH  15  17
ENDBRANCH   4  15
TORSDOF 9
ENDMDL
MODEL 3
REMARK VINA RESULT:    -7.853      2.386     11.838
REMARK INTER + INTRA:         -13.045
REMARK INTER:                 -11.913
REMARK INTRA:                  -1.131
REMARK UNBOUND:                -1.059
REMARK SMILES CCNC(=O)COc1ccc(C(=O)O[C@@H](C)C(=O)NC(=O)Nc2ccc3c(c2)OCCO3)cc1
REMARK SMILES IDX 8 1 9 2 10 3 11 4 33 5 34 6 7 7 6 8 4 9 3 10 5 11 2 13 1 14
REMARK SMILES IDX 12 15 13 16 14 17 15 18 16 19 17 20 18 21 19 22 20 23 21 24
REMARK SMILES IDX 22 25 23 28 24 29 28 30 25 31 27 32 26 33 29 34 32 35 30 36
REMARK SMILES IDX 31 37
REMARK H PARENT 3 12 19 26 22 27
ROOT
ATOM      1  C   UNL     1       7.654 -24.520 -49.150  1.00  0.00     0.120 A 
ATOM      2  C   UNL     1       8.678 -24.197 -48.258  1.00  0.00     0.047 A 
ATOM      3  C   UNL     1       9.801 -23.483 -48.701  1.00  0.00     0.019 A 
ATOM      4  C   UNL     1       9.907 -23.085 -50.039  1.00  0.00     0.060 A 
ATOM      5  C   UNL     1       8.879 -23.412 -50.931  1.00  0.00     0.019 A 
ATOM      6  C   UNL     1       7.761 -24.123 -50.485  1.00  0.00     0.047 A 
ENDROOT
BRANCH   1   7
ATOM      7  O   UNL     1       6.503 -25.195 -48.853  1.00  0.00    -0.484 OA
BRANCH   7   8
ATOM      8  C   UNL     1       5.497 -25.282 -49.857  1.00  0.00     0.329 C 
BRANCH   8   9
ATOM      9  C   UNL     1       4.228 -24.485 -49.545  1.00  0.00     0.257 C 
ATOM     10  N   UNL     1       4.228 -23.206 -50.061  1.00  0.00    -0.353 N 
ATOM     11  O   UNL     1       3.291 -24.967 -48.915  1.00  0.00    -0.271 OA
ATOM     12  H   UNL     1       5.113 -22.854 -50.411  1.00  0.00     0.163 HD
BRANCH  10  13
ATOM     13  C   UNL     1       3.168 -22.263 -49.777  1.00  0.00     0.112 C 
ATOM     14  C   UNL     1       2.674 -21.581 -51.040  1.00  0.00     0.027 C 
ENDBRANCH  10  13
ENDBRANCH   8   9
ENDBRANCH   7   8
ENDBRANCH   1   7
BRANCH   4  15
ATOM     15  C   UNL     1      11.074 -22.327 -50.565  1.00  0.00     0.338 C 
ATOM     16  O   UNL     1      11.590 -22.547 -51.648  1.00  0.00    -0.246 OA
BRANCH  15  17
ATOM     17  O   UNL     1      11.462 -21.368 -49.687  1.00  0.00    -0.449 OA
BRANCH  17  18
ATOM     18  C   UNL     1      12.882 -21.289 -49.452  1.00  0.00     0.262 C 
ATOM     19  C   UNL     1      13.376 -19.878 -49.735  1.00  0.00     0.064 C 
BRANCH  18  20
ATOM     20  C   UNL     1      13.124 -21.634 -47.981  1.00  0.00     0.268 C 
ATOM     21  O   UNL     1      12.951 -20.822 -47.071  1.00  0.00    -0.270 OA
ATOM     22  N   UNL     1      13.416 -22.969 -47.764  1.00  0.00    -0.275 N 
ATOM     23  C   UNL     1      14.078 -23.494 -46.677  1.00  0.00     0.325 C 
ATOM     24  O   UNL     1      14.713 -24.532 -46.845  1.00  0.00    -0.248 OA
ATOM     25  N   UNL     1      13.971 -22.767 -45.523  1.00  0.00    -0.308 N 
ATOM     26  H   UNL     1      13.605 -23.514 -48.595  1.00  0.00     0.174 HD
ATOM     27  H   UNL     1      13.468 -21.886 -45.617  1.00  0.00     0.171 HD
BRANCH  25  28
ATOM     28  C   UNL     1      14.518 -23.049 -44.257  1.00  0.00     0.046 A 
ATOM     29  C   UNL     1      15.808 -22.560 -44.001  1.00  0.00     0.030 A 
ATOM     30  C   UNL     1      13.856 -23.770 -43.262  1.00  0.00     0.076 A 
ATOM     31  C   UNL     1      16.431 -22.797 -42.774  1.00  0.00     0.052 A 
ATOM     32  C   UNL     1      14.474 -23.994 -42.029  1.00  0.00     0.163 A 
ATOM     33  C   UNL     1      15.770 -23.528 -41.793  1.00  0.00     0.161 A 
ATOM     34  O   UNL     1      13.749 -24.692 -41.095  1.00  0.00    -0.486 OA
ATOM     35  O   UNL     1      16.447 -23.744 -40.621  1.00  0.00    -0.486 OA
ATOM     36  C   UNL     1      14.320 -24.566 -39.788  1.00  0.00     0.271 C 
ATOM     37  C   UNL     1      15.824 -24.770 -39.841  1.00  0.00     0.271 C 
ENDBRANCH  25  28
ENDBRANCH  18  20
ENDBRANCH  17  18
ENDBRANCH  15  17
ENDBRANCH   4  15
TORSDOF 9
ENDMDL
MODEL 4
REMARK VINA RESULT:    -7.801      1.874      3.330
REMARK INTER + INTRA:         -12.964
REMARK INTER:                 -11.994
REMARK INTRA:                  -0.970
REMARK UNBOUND:                -1.059
REMARK SMILES CCNC(=O)COc1ccc(C(=O)O[C@@H](C)C(=O)NC(=O)Nc2ccc3c(c2)OCCO3)cc1
REMARK SMILES IDX 8 1 9 2 10 3 11 4 33 5 34 6 7 7 6 8 4 9 3 10 5 11 2 13 1 14
REMARK SMILES IDX 12 15 13 16 14 17 15 18 16 19 17 20 18 21 19 22 20 23 21 24
REMARK SMILES IDX 22 25 23 28 24 29 28 30 25 31 27 32 26 33 29 34 32 35 30 36
REMARK SMILES IDX 31 37
REMARK H PARENT 3 12 19 26 22 27
ROOT
ATOM      1  C   UNL     1      15.374 -22.724 -43.711  1.00  0.00     0.120 A 
ATOM      2  C   UNL     1      14.111 -23.314 -43.778  1.00  0.00     0.047 A 
ATOM      3  C   UNL     1      13.522 -23.585 -45.021  1.00  0.00     0.019 A 
ATOM      4  C   UNL     1      14.194 -23.271 -46.208  1.00  0.00     0.060 A 
ATOM      5  C   UNL     1      15.460 -22.678 -46.139  1.00  0.00     0.019 A 
ATOM      6  C   UNL     1      16.043 -22.410 -44.897  1.00  0.00     0.047 A 
ENDROOT
BRANCH   1   7
ATOM      7  O   UNL     1      16.068 -22.419 -42.574  1.00  0.00    -0.484 OA
BRANCH   7   8
ATOM      8  C   UNL     1      16.812 -23.457 -41.942  1.00  0.00     0.329 C 
BRANCH   8   9
ATOM      9  C   UNL     1      15.974 -24.375 -41.049  1.00  0.00     0.257 C 
ATOM     10  N   UNL     1      15.661 -23.829 -39.822  1.00  0.00    -0.353 N 
ATOM     11  O   UNL     1      15.599 -25.484 -41.419  1.00  0.00    -0.271 OA
ATOM     12  H   UNL     1      16.162 -22.988 -39.553  1.00  0.00     0.163 HD
BRANCH  10  13
ATOM     13  C   UNL     1      14.975 -24.585 -38.797  1.00  0.00     0.112 C 
ATOM     14  C   UNL     1      13.538 -24.124 -38.630  1.00  0.00     0.027 C 
ENDBRANCH  10  13
ENDBRANCH   8   9
ENDBRANCH   7   8
ENDBRANCH   1   7
BRANCH   4  15
ATOM     15  C   UNL     1      13.619 -23.534 -47.555  1.00  0.00     0.338 C 
ATOM     16  O   UNL     1      13.135 -24.604 -47.885  1.00  0.00    -0.246 OA
BRANCH  15  17
ATOM     17  O   UNL     1      13.699 -22.430 -48.339  1.00  0.00    -0.449 OA
BRANCH  17  18
ATOM     18  C   UNL     1      12.600 -21.506 -48.214  1.00  0.00     0.262 C 
ATOM     19  C   UNL     1      13.069 -20.095 -48.537  1.00  0.00     0.064 C 
BRANCH  18  20
ATOM     20  C   UNL     1      11.525 -21.934 -49.216  1.00  0.00     0.268 C 
ATOM     21  O   UNL     1      11.510 -21.539 -50.382  1.00  0.00    -0.270 OA
ATOM     22  N   UNL     1      10.666 -22.904 -48.730  1.00  0.00    -0.275 N 
ATOM     23  C   UNL     1       9.397 -23.175 -49.189  1.00  0.00     0.325 C 
ATOM     24  O   UNL     1       8.591 -23.643 -48.389  1.00  0.00    -0.248 OA
ATOM     25  N   UNL     1       9.173 -22.860 -50.502  1.00  0.00    -0.308 N 
ATOM     26  H   UNL     1      10.734 -23.087 -47.737  1.00  0.00     0.174 HD
ATOM     27  H   UNL     1       9.951 -22.398 -50.970  1.00  0.00     0.171 HD
BRANCH  25  28
ATOM     28  C   UNL     1       7.995 -23.030 -51.253  1.00  0.00     0.046 A 
ATOM     29  C   UNL     1       8.079 -23.850 -52.387  1.00  0.00     0.030 A 
ATOM     30  C   UNL     1       6.770 -22.443 -50.929  1.00  0.00     0.076 A 
ATOM     31  C   UNL     1       6.961 -24.071 -53.194  1.00  0.00     0.052 A 
ATOM     32  C   UNL     1       5.648 -22.676 -51.728  1.00  0.00     0.163 A 
ATOM     33  C   UNL     1       5.748 -23.471 -52.872  1.00  0.00     0.161 A 
ATOM     34  O   UNL     1       4.476 -22.081 -51.331  1.00  0.00    -0.486 OA
ATOM     35  O   UNL     1       4.696 -23.712 -53.719  1.00  0.00    -0.486 OA
ATOM     36  C   UNL     1       3.347 -22.652 -52.001  1.00  0.00     0.271 C 
ATOM     37  C   UNL     1       3.622 -22.792 -53.488  1.00  0.00     0.271 C 
ENDBRANCH  25  28
ENDBRANCH  18  20
ENDBRANCH  17  18
ENDBRANCH  15  17
ENDBRANCH   4  15
TORSDOF 9
ENDMDL
MODEL 5
REMARK VINA RESULT:    -7.783      4.000      7.189
REMARK INTER + INTRA:         -12.937
REMARK INTER:                 -11.626
REMARK INTRA:                  -1.311
REMARK UNBOUND:                -1.059
REMARK SMILES CCNC(=O)COc1ccc(C(=O)O[C@@H](C)C(=O)NC(=O)Nc2ccc3c(c2)OCCO3)cc1
REMARK SMILES IDX 8 1 9 2 10 3 11 4 33 5 34 6 7 7 6 8 4 9 3 10 5 11 2 13 1 14
REMARK SMILES IDX 12 15 13 16 14 17 15 18 16 19 17 20 18 21 19 22 20 23 21 24
REMARK SMILES IDX 22 25 23 28 24 29 28 30 25 31 27 32 26 33 29 34 32 35 30 36
REMARK SMILES IDX 31 37
REMARK H PARENT 3 12 19 26 22 27
ROOT
ATOM      1  C   UNL     1      13.149 -20.795 -49.417  1.00  0.00     0.120 A 
ATOM      2  C   UNL     1      14.425 -21.357 -49.355  1.00  0.00     0.047 A 
ATOM      3  C   UNL     1      14.868 -21.975 -48.176  1.00  0.00     0.019 A 
ATOM      4  C   UNL     1      14.038 -22.037 -47.051  1.00  0.00     0.060 A 
ATOM      5  C   UNL     1      12.759 -21.470 -47.116  1.00  0.00     0.019 A 
ATOM      6  C   UNL     1      12.321 -20.856 -48.292  1.00  0.00     0.047 A 
ENDROOT
BRANCH   1   7
ATOM      7  O   UNL     1      12.586 -20.178 -50.499  1.00  0.00    -0.484 OA
BRANCH   7   8
ATOM      8  C   UNL     1      13.406 -19.318 -51.283  1.00  0.00     0.329 C 
BRANCH   8   9
ATOM      9  C   UNL     1      14.026 -19.988 -52.511  1.00  0.00     0.257 C 
ATOM     10  N   UNL     1      15.325 -19.601 -52.766  1.00  0.00    -0.353 N 
ATOM     11  O   UNL     1      13.417 -20.817 -53.181  1.00  0.00    -0.271 OA
ATOM     12  H   UNL     1      15.668 -18.791 -52.260  1.00  0.00     0.163 HD
BRANCH  10  13
ATOM     13  C   UNL     1      16.040 -20.038 -53.945  1.00  0.00     0.112 C 
ATOM     14  C   UNL     1      17.478 -19.552 -53.938  1.00  0.00     0.027 C 
ENDBRANCH  10  13
ENDBRANCH   8   9
ENDBRANCH   7   8
ENDBRANCH   1   7
BRANCH   4  15
ATOM     15  C   UNL     1      14.454 -22.678 -45.775  1.00  0.00     0.338 C 
ATOM     16  O   UNL     1      15.581 -22.596 -45.314  1.00  0.00    -0.246 OA
BRANCH  15  17
ATOM     17  O   UNL     1      13.416 -23.342 -45.207  1.00  0.00    -0.449 OA
BRANCH  17  18
ATOM     18  C   UNL     1      13.379 -24.760 -45.464  1.00  0.00     0.262 C 
ATOM     19  C   UNL     1      12.603 -25.466 -44.363  1.00  0.00     0.064 C 
BRANCH  18  20
ATOM     20  C   UNL     1      12.671 -24.963 -46.806  1.00  0.00     0.268 C 
ATOM     21  O   UNL     1      13.246 -25.407 -47.799  1.00  0.00    -0.270 OA
ATOM     22  N   UNL     1      11.307 -24.735 -46.754  1.00  0.00    -0.275 N 
ATOM     23  C   UNL     1      10.491 -24.420 -47.817  1.00  0.00     0.325 C 
ATOM     24  O   UNL     1       9.486 -23.753 -47.585  1.00  0.00    -0.248 OA
ATOM     25  N   UNL     1      10.920 -24.874 -49.035  1.00  0.00    -0.308 N 
ATOM     26  H   UNL     1      10.970 -24.301 -45.904  1.00  0.00     0.174 HD
ATOM     27  H   UNL     1      11.829 -25.335 -49.024  1.00  0.00     0.171 HD
BRANCH  25  28
ATOM     28  C   UNL     1      10.303 -24.724 -50.291  1.00  0.00     0.046 A 
ATOM     29  C   UNL     1      11.047 -24.081 -51.291  1.00  0.00     0.030 A 
ATOM     30  C   UNL     1       9.017 -25.181 -50.589  1.00  0.00     0.076 A 
ATOM     31  C   UNL     1      10.512 -23.885 -52.566  1.00  0.00     0.052 A 
ATOM     32  C   UNL     1       8.487 -24.997 -51.869  1.00  0.00     0.163 A 
ATOM     33  C   UNL     1       9.225 -24.329 -52.850  1.00  0.00     0.161 A 
ATOM     34  O   UNL     1       7.226 -25.493 -52.090  1.00  0.00    -0.486 OA
ATOM     35  O   UNL     1       8.752 -24.085 -54.114  1.00  0.00    -0.486 OA
ATOM     36  C   UNL     1       6.929 -25.560 -53.488  1.00  0.00     0.271 C 
ATOM     37  C   UNL     1       7.334 -24.272 -54.184  1.00  0.00     0.271 C 
ENDBRANCH  25  28
ENDBRANCH  18  20
ENDBRANCH  17  18
ENDBRANCH  15  17
ENDBRANCH   4  15
TORSDOF 9
ENDMDL
MODEL 6
REMARK VINA RESULT:    -7.661      5.748     12.142
REMARK INTER + INTRA:         -12.750
REMARK INTER:                 -13.347
REMARK INTRA:                   0.596
REMARK UNBOUND:                -1.059
REMARK SMILES CCNC(=O)COc1ccc(C(=O)O[C@@H](C)C(=O)NC(=O)Nc2ccc3c(c2)OCCO3)cc1
REMARK SMILES IDX 8 1 9 2 10 3 11 4 33 5 34 6 7 7 6 8 4 9 3 10 5 11 2 13 1 14
REMARK SMILES IDX 12 15 13 16 14 17 15 18 16 19 17 20 18 21 19 22 20 23 21 24
REMARK SMILES IDX 22 25 23 28 24 29 28 30 25 31 27 32 26 33 29 34 32 35 30 36
REMARK SMILES IDX 31 37
REMARK H PARENT 3 12 19 26 22 27
ROOT
ATOM      1  C   UNL     1      14.526 -18.201 -52.552  1.00  0.00     0.120 A 
ATOM      2  C   UNL     1      14.172 -19.352 -53.257  1.00  0.00     0.047 A 
ATOM      3  C   UNL     1      13.570 -20.430 -52.593  1.00  0.00     0.019 A 
ATOM      4  C   UNL     1      13.315 -20.364 -51.219  1.00  0.00     0.060 A 
ATOM      5  C   UNL     1      13.672 -19.210 -50.513  1.00  0.00     0.019 A 
ATOM      6  C   UNL     1      14.272 -18.137 -51.179  1.00  0.00     0.047 A 
ENDROOT
BRANCH   1   7
ATOM      7  O   UNL     1      15.104 -17.076 -53.071  1.00  0.00    -0.484 OA
BRANCH   7   8
ATOM      8  C   UNL     1      16.169 -17.237 -54.003  1.00  0.00     0.329 C 
BRANCH   8   9
ATOM      9  C   UNL     1      17.472 -16.549 -53.591  1.00  0.00     0.257 C 
ATOM     10  N   UNL     1      18.509 -17.420 -53.331  1.00  0.00    -0.353 N 
ATOM     11  O   UNL     1      17.576 -15.327 -53.533  1.00  0.00    -0.271 OA
ATOM     12  H   UNL     1      18.269 -18.402 -53.240  1.00  0.00     0.163 HD
BRANCH  10  13
ATOM     13  C   UNL     1      19.783 -16.966 -52.819  1.00  0.00     0.112 C 
ATOM     14  C   UNL     1      20.840 -16.927 -53.909  1.00  0.00     0.027 C 
ENDBRANCH  10  13
ENDBRANCH   8   9
ENDBRANCH   7   8
ENDBRANCH   1   7
BRANCH   4  15
ATOM     15  C   UNL     1      12.679 -21.477 -50.462  1.00  0.00     0.338 C 
ATOM     16  O   UNL     1      11.909 -22.281 -50.961  1.00  0.00    -0.246 OA
BRANCH  15  17
ATOM     17  O   UNL     1      13.084 -21.473 -49.167  1.00  0.00    -0.449 OA
BRANCH  17  18
ATOM     18  C   UNL     1      12.025 -21.553 -48.192  1.00  0.00     0.262 C 
ATOM     19  C   UNL     1      10.863 -22.360 -48.753  1.00  0.00     0.064 C 
BRANCH  18  20
ATOM     20  C   UNL     1      12.592 -22.257 -46.957  1.00  0.00     0.268 C 
ATOM     21  O   UNL     1      11.875 -22.737 -46.078  1.00  0.00    -0.270 OA
ATOM     22  N   UNL     1      13.965 -22.421 -46.993  1.00  0.00    -0.275 N 
ATOM     23  C   UNL     1      14.794 -22.609 -45.909  1.00  0.00     0.325 C 
ATOM     24  O   UNL     1      15.955 -22.222 -46.008  1.00  0.00    -0.248 OA
ATOM     25  N   UNL     1      14.205 -23.192 -44.820  1.00  0.00    -0.308 N 
ATOM     26  H   UNL     1      14.446 -21.916 -47.726  1.00  0.00     0.174 HD
ATOM     27  H   UNL     1      13.204 -23.359 -44.912  1.00  0.00     0.171 HD
BRANCH  25  28
ATOM     28  C   UNL     1      14.789 -23.522 -43.583  1.00  0.00     0.046 A 
ATOM     29  C   UNL     1      15.834 -22.699 -43.135  1.00  0.00     0.030 A 
ATOM     30  C   UNL     1      14.385 -24.598 -42.790  1.00  0.00     0.076 A 
ATOM     31  C   UNL     1      16.474 -22.954 -41.921  1.00  0.00     0.052 A 
ATOM     32  C   UNL     1      15.017 -24.844 -41.567  1.00  0.00     0.163 A 
ATOM     33  C   UNL     1      16.075 -24.037 -41.144  1.00  0.00     0.161 A 
ATOM     34  O   UNL     1      14.548 -25.907 -40.836  1.00  0.00    -0.486 OA
ATOM     35  O   UNL     1      16.761 -24.244 -39.975  1.00  0.00    -0.486 OA
ATOM     36  C   UNL     1      15.015 -25.858 -39.484  1.00  0.00     0.271 C 
ATOM     37  C   UNL     1      16.502 -25.549 -39.443  1.00  0.00     0.271 C 
ENDBRANCH  25  28
ENDBRANCH  18  20
ENDBRANCH  17  18
ENDBRANCH  15  17
ENDBRANCH   4  15
TORSDOF 9
ENDMDL
MODEL 7
REMARK VINA RESULT:    -7.579      3.564      5.841
REMARK INTER + INTRA:         -12.626
REMARK INTER:                 -11.716
REMARK INTRA:                  -0.911
REMARK UNBOUND:                -1.059
REMARK SMILES CCNC(=O)COc1ccc(C(=O)O[C@@H](C)C(=O)NC(=O)Nc2ccc3c(c2)OCCO3)cc1
REMARK SMILES IDX 8 1 9 2 10 3 11 4 33 5 34 6 7 7 6 8 4 9 3 10 5 11 2 13 1 14
REMARK SMILES IDX 12 15 13 16 14 17 15 18 16 19 17 20 18 21 19 22 20 23 21 24
REMARK SMILES IDX 22 25 23 28 24 29 28 30 25 31 27 32 26 33 29 34 32 35 30 36
REMARK SMILES IDX 31 37
REMARK H PARENT 3 12 19 26 22 27
ROOT
ATOM      1  C   UNL     1      13.408 -20.311 -49.993  1.00  0.00     0.120 A 
ATOM      2  C   UNL     1      14.244 -20.853 -49.014  1.00  0.00     0.047 A 
ATOM      3  C   UNL     1      13.902 -22.057 -48.381  1.00  0.00     0.019 A 
ATOM      4  C   UNL     1      12.723 -22.729 -48.724  1.00  0.00     0.060 A 
ATOM      5  C   UNL     1      11.887 -22.183 -49.704  1.00  0.00     0.019 A 
ATOM      6  C   UNL     1      12.231 -20.984 -50.333  1.00  0.00     0.047 A 
ENDROOT
BRANCH   1   7
ATOM      7  O   UNL     1      13.624 -19.160 -50.697  1.00  0.00    -0.484 OA
BRANCH   7   8
ATOM      8  C   UNL     1      13.805 -19.258 -52.106  1.00  0.00     0.329 C 
BRANCH   8   9
ATOM      9  C   UNL     1      14.568 -18.084 -52.724  1.00  0.00     0.257 C 
ATOM     10  N   UNL     1      15.802 -17.855 -52.154  1.00  0.00    -0.353 N 
ATOM     11  O   UNL     1      14.118 -17.433 -53.663  1.00  0.00    -0.271 OA
ATOM     12  H   UNL     1      15.999 -18.333 -51.280  1.00  0.00     0.163 HD
BRANCH  10  13
ATOM     13  C   UNL     1      16.622 -16.722 -52.525  1.00  0.00     0.112 C 
ATOM     14  C   UNL     1      17.899 -17.160 -53.218  1.00  0.00     0.027 C 
ENDBRANCH  10  13
ENDBRANCH   8   9
ENDBRANCH   7   8
ENDBRANCH   1   7
BRANCH   4  15
ATOM     15  C   UNL     1      12.310 -24.008 -48.086  1.00  0.00     0.338 C 
ATOM     16  O   UNL     1      13.023 -24.997 -48.029  1.00  0.00    -0.246 OA
BRANCH  15  17
ATOM     17  O   UNL     1      11.057 -23.910 -47.576  1.00  0.00    -0.449 OA
BRANCH  17  18
ATOM     18  C   UNL     1      10.131 -24.921 -48.022  1.00  0.00     0.262 C 
ATOM     19  C   UNL     1       9.671 -25.761 -46.839  1.00  0.00     0.064 C 
BRANCH  18  20
ATOM     20  C   UNL     1       8.930 -24.202 -48.641  1.00  0.00     0.268 C 
ATOM     21  O   UNL     1       8.190 -23.464 -47.991  1.00  0.00    -0.270 OA
ATOM     22  N   UNL     1       8.842 -24.350 -50.014  1.00  0.00    -0.275 N 
ATOM     23  C   UNL     1       7.706 -24.206 -50.779  1.00  0.00     0.325 C 
ATOM     24  O   UNL     1       7.640 -24.849 -51.824  1.00  0.00    -0.248 OA
ATOM     25  N   UNL     1       6.756 -23.369 -50.260  1.00  0.00    -0.308 N 
ATOM     26  H   UNL     1       9.460 -25.040 -50.419  1.00  0.00     0.174 HD
ATOM     27  H   UNL     1       6.970 -23.000 -49.335  1.00  0.00     0.171 HD
BRANCH  25  28
ATOM     28  C   UNL     1       5.510 -23.014 -50.809  1.00  0.00     0.046 A 
ATOM     29  C   UNL     1       5.524 -22.387 -52.064  1.00  0.00     0.030 A 
ATOM     30  C   UNL     1       4.284 -23.257 -50.186  1.00  0.00     0.076 A 
ATOM     31  C   UNL     1       4.334 -21.997 -52.681  1.00  0.00     0.052 A 
ATOM     32  C   UNL     1       3.092 -22.879 -50.811  1.00  0.00     0.163 A 
ATOM     33  C   UNL     1       3.118 -22.229 -52.047  1.00  0.00     0.161 A 
ATOM     34  O   UNL     1       1.928 -23.171 -50.144  1.00  0.00    -0.486 OA
ATOM     35  O   UNL     1       1.990 -21.800 -52.698  1.00  0.00    -0.486 OA
ATOM     36  C   UNL     1       0.791 -23.062 -51.006  1.00  0.00     0.271 C 
ATOM     37  C   UNL     1       0.858 -21.781 -51.820  1.00  0.00     0.271 C 
ENDBRANCH  25  28
ENDBRANCH  18  20
ENDBRANCH  17  18
ENDBRANCH  15  17
ENDBRANCH   4  15
TORSDOF 9
ENDMDL
MODEL 8
REMARK VINA RESULT:    -7.509      1.472      2.060
REMARK INTER + INTRA:         -12.520
REMARK INTER:                 -11.694
REMARK INTRA:                  -0.826
REMARK UNBOUND:                -1.059
REMARK SMILES CCNC(=O)COc1ccc(C(=O)O[C@@H](C)C(=O)NC(=O)Nc2ccc3c(c2)OCCO3)cc1
REMARK SMILES IDX 8 1 9 2 10 3 11 4 33 5 34 6 7 7 6 8 4 9 3 10 5 11 2 13 1 14
REMARK SMILES IDX 12 15 13 16 14 17 15 18 16 19 17 20 18 21 19 22 20 23 21 24
REMARK SMILES IDX 22 25 23 28 24 29 28 30 25 31 27 32 26 33 29 34 32 35 30 36
REMARK SMILES IDX 31 37
REMARK H PARENT 3 12 19 26 22 27
ROOT
ATOM      1  C   UNL     1      15.264 -23.293 -44.728  1.00  0.00     0.120 A 
ATOM      2  C   UNL     1      15.719 -22.704 -45.909  1.00  0.00     0.047 A 
ATOM      3  C   UNL     1      14.807 -22.161 -46.825  1.00  0.00     0.019 A 
ATOM      4  C   UNL     1      13.432 -22.200 -46.565  1.00  0.00     0.060 A 
ATOM      5  C   UNL     1      12.978 -22.793 -45.381  1.00  0.00     0.019 A 
ATOM      6  C   UNL     1      13.891 -23.333 -44.471  1.00  0.00     0.047 A 
ENDROOT
BRANCH   1   7
ATOM      7  O   UNL     1      16.038 -23.845 -43.746  1.00  0.00    -0.484 OA
BRANCH   7   8
ATOM      8  C   UNL     1      16.091 -23.188 -42.483  1.00  0.00     0.329 C 
BRANCH   8   9
ATOM      9  C   UNL     1      15.833 -24.107 -41.287  1.00  0.00     0.257 C 
ATOM     10  N   UNL     1      14.501 -24.223 -40.945  1.00  0.00    -0.353 N 
ATOM     11  O   UNL     1      16.739 -24.703 -40.712  1.00  0.00    -0.271 OA
ATOM     12  H   UNL     1      13.861 -23.559 -41.369  1.00  0.00     0.163 HD
BRANCH  10  13
ATOM     13  C   UNL     1      14.070 -24.954 -39.774  1.00  0.00     0.112 C 
ATOM     14  C   UNL     1      13.790 -24.025 -38.607  1.00  0.00     0.027 C 
ENDBRANCH  10  13
ENDBRANCH   8   9
ENDBRANCH   7   8
ENDBRANCH   1   7
BRANCH   4  15
ATOM     15  C   UNL     1      12.418 -21.641 -47.500  1.00  0.00     0.338 C 
ATOM     16  O   UNL     1      12.472 -20.512 -47.959  1.00  0.00    -0.246 OA
BRANCH  15  17
ATOM     17  O   UNL     1      11.454 -22.557 -47.771  1.00  0.00    -0.449 OA
BRANCH  17  18
ATOM     18  C   UNL     1      11.613 -23.266 -49.016  1.00  0.00     0.262 C 
ATOM     19  C   UNL     1      11.948 -24.725 -48.742  1.00  0.00     0.064 C 
BRANCH  18  20
ATOM     20  C   UNL     1      10.282 -23.175 -49.767  1.00  0.00     0.268 C 
ATOM     21  O   UNL     1      10.106 -22.411 -50.716  1.00  0.00    -0.270 OA
ATOM     22  N   UNL     1       9.355 -24.123 -49.370  1.00  0.00    -0.275 N 
ATOM     23  C   UNL     1       7.989 -24.043 -49.525  1.00  0.00     0.325 C 
ATOM     24  O   UNL     1       7.289 -24.636 -48.709  1.00  0.00    -0.248 OA
ATOM     25  N   UNL     1       7.566 -23.274 -50.575  1.00  0.00    -0.308 N 
ATOM     26  H   UNL     1       9.590 -24.638 -48.533  1.00  0.00     0.174 HD
ATOM     27  H   UNL     1       8.309 -22.795 -51.082  1.00  0.00     0.171 HD
BRANCH  25  28
ATOM     28  C   UNL     1       6.247 -23.014 -50.993  1.00  0.00     0.046 A 
ATOM     29  C   UNL     1       6.061 -22.693 -52.346  1.00  0.00     0.030 A 
ATOM     30  C   UNL     1       5.136 -23.065 -50.149  1.00  0.00     0.076 A 
ATOM     31  C   UNL     1       4.788 -22.415 -52.846  1.00  0.00     0.052 A 
ATOM     32  C   UNL     1       3.859 -22.801 -50.653  1.00  0.00     0.163 A 
ATOM     33  C   UNL     1       3.688 -22.454 -51.995  1.00  0.00     0.161 A 
ATOM     34  O   UNL     1       2.816 -22.893 -49.765  1.00  0.00    -0.486 OA
ATOM     35  O   UNL     1       2.470 -22.149 -52.546  1.00  0.00    -0.486 OA
ATOM     36  C   UNL     1       1.556 -22.947 -50.443  1.00  0.00     0.271 C 
ATOM     37  C   UNL     1       1.491 -21.891 -51.533  1.00  0.00     0.271 C 
ENDBRANCH  25  28
ENDBRANCH  18  20
ENDBRANCH  17  18
ENDBRANCH  15  17
ENDBRANCH   4  15
TORSDOF 9
ENDMDL
MODEL 9
REMARK VINA RESULT:    -7.495      2.291      3.827
REMARK INTER + INTRA:         -12.498
REMARK INTER:                 -11.712
REMARK INTRA:                  -0.786
REMARK UNBOUND:                -1.059
REMARK SMILES CCNC(=O)COc1ccc(C(=O)O[C@@H](C)C(=O)NC(=O)Nc2ccc3c(c2)OCCO3)cc1
REMARK SMILES IDX 8 1 9 2 10 3 11 4 33 5 34 6 7 7 6 8 4 9 3 10 5 11 2 13 1 14
REMARK SMILES IDX 12 15 13 16 14 17 15 18 16 19 17 20 18 21 19 22 20 23 21 24
REMARK SMILES IDX 22 25 23 28 24 29 28 30 25 31 27 32 26 33 29 34 32 35 30 36
REMARK SMILES IDX 31 37
REMARK H PARENT 3 12 19 26 22 27
ROOT
ATOM      1  C   UNL     1      16.184 -25.153 -44.487  1.00  0.00     0.120 A 
ATOM      2  C   UNL     1      16.251 -24.735 -45.817  1.00  0.00     0.047 A 
ATOM      3  C   UNL     1      15.169 -24.061 -46.401  1.00  0.00     0.019 A 
ATOM      4  C   UNL     1      14.013 -23.797 -45.658  1.00  0.00     0.060 A 
ATOM      5  C   UNL     1      13.947 -24.219 -44.325  1.00  0.00     0.019 A 
ATOM      6  C   UNL     1      15.028 -24.890 -43.747  1.00  0.00     0.047 A 
ENDROOT
BRANCH   1   7
ATOM      7  O   UNL     1      17.164 -25.804 -43.791  1.00  0.00    -0.484 OA
BRANCH   7   8
ATOM      8  C   UNL     1      17.853 -25.086 -42.772  1.00  0.00     0.329 C 
BRANCH   8   9
ATOM      9  C   UNL     1      18.111 -23.615 -43.105  1.00  0.00     0.257 C 
ATOM     10  N   UNL     1      19.040 -23.420 -44.106  1.00  0.00    -0.353 N 
ATOM     11  O   UNL     1      17.513 -22.702 -42.542  1.00  0.00    -0.271 OA
ATOM     12  H   UNL     1      19.594 -24.226 -44.378  1.00  0.00     0.163 HD
BRANCH  10  13
ATOM     13  C   UNL     1      19.499 -22.101 -44.481  1.00  0.00     0.112 C 
ATOM     14  C   UNL     1      20.877 -21.808 -43.916  1.00  0.00     0.027 C 
ENDBRANCH  10  13
ENDBRANCH   8   9
ENDBRANCH   7   8
ENDBRANCH   1   7
BRANCH   4  15
ATOM     15  C   UNL     1      12.835 -23.086 -46.225  1.00  0.00     0.338 C 
ATOM     16  O   UNL     1      11.816 -22.858 -45.594  1.00  0.00    -0.246 OA
BRANCH  15  17
ATOM     17  O   UNL     1      13.061 -22.728 -47.514  1.00  0.00    -0.449 OA
BRANCH  17  18
ATOM     18  C   UNL     1      12.448 -21.490 -47.924  1.00  0.00     0.262 C 
ATOM     19  C   UNL     1      13.503 -20.550 -48.489  1.00  0.00     0.064 C 
BRANCH  18  20
ATOM     20  C   UNL     1      11.422 -21.824 -49.010  1.00  0.00     0.268 C 
ATOM     21  O   UNL     1      11.285 -21.144 -50.027  1.00  0.00    -0.270 OA
ATOM     22  N   UNL     1      10.770 -23.028 -48.806  1.00  0.00    -0.275 N 
ATOM     23  C   UNL     1       9.549 -23.393 -49.327  1.00  0.00     0.325 C 
ATOM     24  O   UNL     1       8.874 -24.194 -48.686  1.00  0.00    -0.248 OA
ATOM     25  N   UNL     1       9.215 -22.788 -50.508  1.00  0.00    -0.308 N 
ATOM     26  H   UNL     1      10.912 -23.452 -47.898  1.00  0.00     0.174 HD
ATOM     27  H   UNL     1       9.878 -22.085 -50.831  1.00  0.00     0.171 HD
BRANCH  25  28
ATOM     28  C   UNL     1       8.053 -22.964 -51.283  1.00  0.00     0.046 A 
ATOM     29  C   UNL     1       8.196 -23.664 -52.490  1.00  0.00     0.030 A 
ATOM     30  C   UNL     1       6.791 -22.494 -50.916  1.00  0.00     0.076 A 
ATOM     31  C   UNL     1       7.097 -23.882 -53.324  1.00  0.00     0.052 A 
ATOM     32  C   UNL     1       5.689 -22.724 -51.744  1.00  0.00     0.163 A 
ATOM     33  C   UNL     1       5.846 -23.397 -52.958  1.00  0.00     0.161 A 
ATOM     34  O   UNL     1       4.478 -22.250 -51.303  1.00  0.00    -0.486 OA
ATOM     35  O   UNL     1       4.815 -23.626 -53.833  1.00  0.00    -0.486 OA
ATOM     36  C   UNL     1       3.392 -22.828 -52.035  1.00  0.00     0.271 C 
ATOM     37  C   UNL     1       3.681 -22.807 -53.526  1.00  0.00     0.271 C 
ENDBRANCH  25  28
ENDBRANCH  18  20
ENDBRANCH  17  18
ENDBRANCH  15  17
ENDBRANCH   4  15
TORSDOF 9
ENDMDL
