MODEL 1
REMARK VINA RESULT:    -8.558      0.000      0.000
REMARK INTER + INTRA:         -14.696
REMARK INTER:                 -13.311
REMARK INTRA:                  -1.384
REMARK UNBOUND:                -1.384
REMARK SMILES CC(C)[C@@H](NC(=O)Cc1cccc2ccccc12)C(=O)OCC(=O)c1c(N)n(C)c(=O)n(C)c1=O
REMARK SMILES IDX 21 1 19 2 20 3 4 4 2 5 1 6 3 7 5 8 6 9 7 10 8 12 9 13 10 14
REMARK SMILES IDX 18 15 11 16 17 17 13 18 12 19 16 20 14 21 15 22 22 23 23 24
REMARK SMILES IDX 24 25 25 26 26 27 34 28 28 29 32 30 35 31 30 32 31 33 29 34
REMARK SMILES IDX 33 35 27 36
REMARK H PARENT 5 11 27 37 27 38
ROOT
ATOM      1  O   UNL     1      11.298 -21.623 -48.399  1.00  0.00    -0.456 OA
ENDROOT
BRANCH   1   2
ATOM      2  C   UNL     1      12.362 -21.296 -47.610  1.00  0.00     0.329 C 
ATOM      3  O   UNL     1      12.682 -20.143 -47.351  1.00  0.00    -0.250 OA
BRANCH   2   4
ATOM      4  C   UNL     1      13.123 -22.543 -47.110  1.00  0.00     0.194 C 
BRANCH   4   5
ATOM      5  C   UNL     1      14.606 -22.561 -47.550  1.00  0.00     0.017 C 
ATOM      6  C   UNL     1      14.848 -21.723 -48.809  1.00  0.00     0.010 C 
ATOM      7  C   UNL     1      15.575 -22.138 -46.440  1.00  0.00     0.010 C 
ENDBRANCH   4   5
BRANCH   4   8
ATOM      8  N   UNL     1      13.045 -22.720 -45.652  1.00  0.00    -0.342 N 
ATOM      9  C   UNL     1      12.625 -23.916 -45.093  1.00  0.00     0.225 C 
ATOM     10  O   UNL     1      12.331 -24.892 -45.775  1.00  0.00    -0.275 OA
ATOM     11  H   UNL     1      12.944 -21.888 -45.085  1.00  0.00     0.164 HD
BRANCH   9  12
ATOM     12  C   UNL     1      12.620 -23.869 -43.572  1.00  0.00     0.136 C 
BRANCH  12  13
ATOM     13  C   UNL     1      13.944 -24.184 -42.909  1.00  0.00    -0.031 A 
ATOM     14  C   UNL     1      15.056 -24.383 -43.748  1.00  0.00     0.005 A 
ATOM     15  C   UNL     1      14.101 -24.270 -41.497  1.00  0.00    -0.015 A 
ATOM     16  C   UNL     1      16.317 -24.630 -43.216  1.00  0.00     0.001 A 
ATOM     17  C   UNL     1      13.040 -24.141 -40.572  1.00  0.00     0.009 A 
ATOM     18  C   UNL     1      15.399 -24.507 -40.971  1.00  0.00    -0.018 A 
ATOM     19  C   UNL     1      16.487 -24.681 -41.837  1.00  0.00     0.009 A 
ATOM     20  C   UNL     1      13.251 -24.221 -39.192  1.00  0.00     0.001 A 
ATOM     21  C   UNL     1      15.596 -24.579 -39.582  1.00  0.00     0.009 A 
ATOM     22  C   UNL     1      14.530 -24.434 -38.697  1.00  0.00     0.001 A 
ENDBRANCH  12  13
ENDBRANCH   9  12
ENDBRANCH   4   8
ENDBRANCH   2   4
ENDBRANCH   1   2
BRANCH   1  23
ATOM     23  C   UNL     1      11.548 -21.541 -49.802  1.00  0.00     0.314 C 
BRANCH  23  24
ATOM     24  C   UNL     1      10.976 -22.676 -50.654  1.00  0.00     0.209 C 
ATOM     25  O   UNL     1      11.468 -22.968 -51.750  1.00  0.00    -0.290 OA
BRANCH  24  26
ATOM     26  C   UNL     1       9.804 -23.438 -50.134  1.00  0.00     0.127 C 
ATOM     27  C   UNL     1       9.999 -24.458 -49.273  1.00  0.00     0.123 C 
ATOM     28  C   UNL     1       8.443 -23.066 -50.563  1.00  0.00     0.269 C 
ATOM     29  N   UNL     1       8.890 -25.128 -48.765  1.00  0.00    -0.282 N 
ATOM     30  N   UNL     1       7.414 -23.838 -50.077  1.00  0.00    -0.263 N 
ATOM     31  O   UNL     1       8.300 -22.135 -51.356  1.00  0.00    -0.268 OA
ATOM     32  C   UNL     1       7.577 -24.851 -49.147  1.00  0.00     0.332 C 
ATOM     33  O   UNL     1       6.615 -25.483 -48.702  1.00  0.00    -0.247 OA
ATOM     34  C   UNL     1       9.079 -26.154 -47.741  1.00  0.00     0.157 C 
ATOM     35  C   UNL     1       6.055 -23.521 -50.471  1.00  0.00     0.158 C 
BRANCH  27  36
ATOM     36  N   UNL     1      11.272 -24.850 -48.869  1.00  0.00    -0.384 N 
ATOM     37  H   UNL     1      11.646 -24.249 -48.141  1.00  0.00     0.158 HD
ATOM     38  H   UNL     1      11.304 -25.825 -48.549  1.00  0.00     0.158 HD
ENDBRANCH  27  36
ENDBRANCH  24  26
ENDBRANCH  23  24
ENDBRANCH   1  23
TORSDOF 10
ENDMDL
MODEL 2
REMARK VINA RESULT:    -8.028      1.516      2.468
REMARK INTER + INTRA:         -13.871
REMARK INTER:                 -12.221
REMARK INTRA:                  -1.650
REMARK UNBOUND:                -1.384
REMARK SMILES CC(C)[C@@H](NC(=O)Cc1cccc2ccccc12)C(=O)OCC(=O)c1c(N)n(C)c(=O)n(C)c1=O
REMARK SMILES IDX 21 1 19 2 20 3 4 4 2 5 1 6 3 7 5 8 6 9 7 10 8 12 9 13 10 14
REMARK SMILES IDX 18 15 11 16 17 17 13 18 12 19 16 20 14 21 15 22 22 23 23 24
REMARK SMILES IDX 24 25 25 26 26 27 34 28 28 29 32 30 35 31 30 32 31 33 29 34
REMARK SMILES IDX 33 35 27 36
REMARK H PARENT 5 11 27 37 27 38
ROOT
ATOM      1  O   UNL     1      11.147 -22.915 -47.950  1.00  0.00    -0.456 OA
ENDROOT
BRANCH   1   2
ATOM      2  C   UNL     1      12.066 -21.991 -47.545  1.00  0.00     0.329 C 
ATOM      3  O   UNL     1      11.927 -20.785 -47.704  1.00  0.00    -0.250 OA
BRANCH   2   4
ATOM      4  C   UNL     1      13.302 -22.647 -46.891  1.00  0.00     0.194 C 
BRANCH   4   5
ATOM      5  C   UNL     1      14.624 -21.923 -47.242  1.00  0.00     0.017 C 
ATOM      6  C   UNL     1      15.825 -22.519 -46.502  1.00  0.00     0.010 C 
ATOM      7  C   UNL     1      14.906 -21.866 -48.747  1.00  0.00     0.010 C 
ENDBRANCH   4   5
BRANCH   4   8
ATOM      8  N   UNL     1      13.186 -22.766 -45.430  1.00  0.00    -0.342 N 
ATOM      9  C   UNL     1      12.843 -23.967 -44.830  1.00  0.00     0.225 C 
ATOM     10  O   UNL     1      12.654 -24.993 -45.476  1.00  0.00    -0.275 OA
ATOM     11  H   UNL     1      12.998 -21.922 -44.905  1.00  0.00     0.164 HD
BRANCH   9  12
ATOM     12  C   UNL     1      12.780 -23.856 -43.315  1.00  0.00     0.136 C 
BRANCH  12  13
ATOM     13  C   UNL     1      14.059 -24.205 -42.584  1.00  0.00    -0.031 A 
ATOM     14  C   UNL     1      15.206 -24.439 -43.365  1.00  0.00     0.005 A 
ATOM     15  C   UNL     1      14.142 -24.288 -41.165  1.00  0.00    -0.015 A 
ATOM     16  C   UNL     1      16.431 -24.719 -42.768  1.00  0.00     0.001 A 
ATOM     17  C   UNL     1      13.039 -24.125 -40.296  1.00  0.00     0.009 A 
ATOM     18  C   UNL     1      15.404 -24.560 -40.573  1.00  0.00    -0.018 A 
ATOM     19  C   UNL     1      16.529 -24.768 -41.382  1.00  0.00     0.009 A 
ATOM     20  C   UNL     1      13.178 -24.205 -38.907  1.00  0.00     0.001 A 
ATOM     21  C   UNL     1      15.528 -24.631 -39.175  1.00  0.00     0.009 A 
ATOM     22  C   UNL     1      14.423 -24.452 -38.347  1.00  0.00     0.001 A 
ENDBRANCH  12  13
ENDBRANCH   9  12
ENDBRANCH   4   8
ENDBRANCH   2   4
ENDBRANCH   1   2
BRANCH   1  23
ATOM     23  C   UNL     1      11.699 -24.063 -48.594  1.00  0.00     0.314 C 
BRANCH  23  24
ATOM     24  C   UNL     1      10.691 -25.069 -49.155  1.00  0.00     0.209 C 
ATOM     25  O   UNL     1      10.581 -26.203 -48.678  1.00  0.00    -0.290 OA
BRANCH  24  26
ATOM     26  C   UNL     1       9.830 -24.652 -50.299  1.00  0.00     0.127 C 
ATOM     27  C   UNL     1       8.629 -24.084 -50.061  1.00  0.00     0.123 C 
ATOM     28  C   UNL     1      10.301 -24.862 -51.681  1.00  0.00     0.269 C 
ATOM     29  N   UNL     1       7.860 -23.663 -51.141  1.00  0.00    -0.282 N 
ATOM     30  N   UNL     1       9.438 -24.493 -52.687  1.00  0.00    -0.263 N 
ATOM     31  O   UNL     1      11.398 -25.390 -51.865  1.00  0.00    -0.268 OA
ATOM     32  C   UNL     1       8.228 -23.854 -52.473  1.00  0.00     0.332 C 
ATOM     33  O   UNL     1       7.510 -23.496 -53.412  1.00  0.00    -0.247 OA
ATOM     34  C   UNL     1       6.615 -22.939 -50.896  1.00  0.00     0.157 C 
ATOM     35  C   UNL     1       9.846 -24.682 -54.064  1.00  0.00     0.158 C 
BRANCH  27  36
ATOM     36  N   UNL     1       8.147 -23.896 -48.769  1.00  0.00    -0.384 N 
ATOM     37  H   UNL     1       8.490 -23.036 -48.352  1.00  0.00     0.158 HD
ATOM     38  H   UNL     1       7.121 -23.905 -48.724  1.00  0.00     0.158 HD
ENDBRANCH  27  36
ENDBRANCH  24  26
ENDBRANCH  23  24
ENDBRANCH   1  23
TORSDOF 10
ENDMDL
MODEL 3
REMARK VINA RESULT:    -7.778      1.748      2.819
REMARK INTER + INTRA:         -13.483
REMARK INTER:                 -12.142
REMARK INTRA:                  -1.341
REMARK UNBOUND:                -1.384
REMARK SMILES CC(C)[C@@H](NC(=O)Cc1cccc2ccccc12)C(=O)OCC(=O)c1c(N)n(C)c(=O)n(C)c1=O
REMARK SMILES IDX 21 1 19 2 20 3 4 4 2 5 1 6 3 7 5 8 6 9 7 10 8 12 9 13 10 14
REMARK SMILES IDX 18 15 11 16 17 17 13 18 12 19 16 20 14 21 15 22 22 23 23 24
REMARK SMILES IDX 24 25 25 26 26 27 34 28 28 29 32 30 35 31 30 32 31 33 29 34
REMARK SMILES IDX 33 35 27 36
REMARK H PARENT 5 11 27 37 27 38
ROOT
ATOM      1  O   UNL     1      10.316 -23.870 -47.913  1.00  0.00    -0.456 OA
ENDROOT
BRANCH   1   2
ATOM      2  C   UNL     1      11.149 -23.002 -48.557  1.00  0.00     0.329 C 
ATOM      3  O   UNL     1      10.826 -22.372 -49.555  1.00  0.00    -0.250 OA
BRANCH   2   4
ATOM      4  C   UNL     1      12.543 -22.933 -47.896  1.00  0.00     0.194 C 
BRANCH   4   5
ATOM      5  C   UNL     1      13.384 -21.732 -48.390  1.00  0.00     0.017 C 
ATOM      6  C   UNL     1      13.044 -20.439 -47.642  1.00  0.00     0.010 C 
ATOM      7  C   UNL     1      14.895 -21.987 -48.344  1.00  0.00     0.010 C 
ENDBRANCH   4   5
BRANCH   4   8
ATOM      8  N   UNL     1      12.484 -22.914 -46.427  1.00  0.00    -0.342 N 
ATOM      9  C   UNL     1      12.848 -24.021 -45.677  1.00  0.00     0.225 C 
ATOM     10  O   UNL     1      13.269 -25.052 -46.191  1.00  0.00    -0.275 OA
ATOM     11  H   UNL     1      11.851 -22.255 -45.993  1.00  0.00     0.164 HD
BRANCH   9  12
ATOM     12  C   UNL     1      12.705 -23.776 -44.183  1.00  0.00     0.136 C 
BRANCH  12  13
ATOM     13  C   UNL     1      14.005 -23.639 -43.419  1.00  0.00    -0.031 A 
ATOM     14  C   UNL     1      15.099 -23.076 -44.102  1.00  0.00     0.005 A 
ATOM     15  C   UNL     1      14.150 -24.037 -42.060  1.00  0.00    -0.015 A 
ATOM     16  C   UNL     1      16.315 -22.873 -43.458  1.00  0.00     0.001 A 
ATOM     17  C   UNL     1      13.132 -24.661 -41.304  1.00  0.00     0.009 A 
ATOM     18  C   UNL     1      15.394 -23.808 -41.415  1.00  0.00    -0.018 A 
ATOM     19  C   UNL     1      16.456 -23.227 -42.121  1.00  0.00     0.009 A 
ATOM     20  C   UNL     1      13.323 -25.022 -39.967  1.00  0.00     0.001 A 
ATOM     21  C   UNL     1      15.568 -24.171 -40.068  1.00  0.00     0.009 A 
ATOM     22  C   UNL     1      14.540 -24.771 -39.347  1.00  0.00     0.001 A 
ENDBRANCH  12  13
ENDBRANCH   9  12
ENDBRANCH   4   8
ENDBRANCH   2   4
ENDBRANCH   1   2
BRANCH   1  23
ATOM     23  C   UNL     1       8.939 -23.749 -48.267  1.00  0.00     0.314 C 
BRANCH  23  24
ATOM     24  C   UNL     1       8.411 -24.775 -49.273  1.00  0.00     0.209 C 
ATOM     25  O   UNL     1       8.733 -25.967 -49.204  1.00  0.00    -0.290 OA
BRANCH  24  26
ATOM     26  C   UNL     1       7.488 -24.311 -50.348  1.00  0.00     0.127 C 
ATOM     27  C   UNL     1       7.909 -24.292 -51.630  1.00  0.00     0.123 C 
ATOM     28  C   UNL     1       6.120 -23.882 -50.000  1.00  0.00     0.269 C 
ATOM     29  N   UNL     1       7.018 -23.898 -52.623  1.00  0.00    -0.282 N 
ATOM     30  N   UNL     1       5.337 -23.428 -51.036  1.00  0.00    -0.263 N 
ATOM     31  O   UNL     1       5.769 -23.905 -48.820  1.00  0.00    -0.268 OA
ATOM     32  C   UNL     1       5.722 -23.452 -52.366  1.00  0.00     0.332 C 
ATOM     33  O   UNL     1       4.963 -23.080 -53.266  1.00  0.00    -0.247 OA
ATOM     34  C   UNL     1       7.421 -23.987 -54.024  1.00  0.00     0.157 C 
ATOM     35  C   UNL     1       3.986 -22.987 -50.750  1.00  0.00     0.158 C 
BRANCH  27  36
ATOM     36  N   UNL     1       9.201 -24.667 -51.986  1.00  0.00    -0.384 N 
ATOM     37  H   UNL     1       9.829 -23.872 -52.046  1.00  0.00     0.158 HD
ATOM     38  H   UNL     1       9.602 -25.365 -51.348  1.00  0.00     0.158 HD
ENDBRANCH  27  36
ENDBRANCH  24  26
ENDBRANCH  23  24
ENDBRANCH   1  23
TORSDOF 10
ENDMDL
MODEL 4
REMARK VINA RESULT:    -7.743      2.312      9.776
REMARK INTER + INTRA:         -13.427
REMARK INTER:                 -11.607
REMARK INTRA:                  -1.820
REMARK UNBOUND:                -1.384
REMARK SMILES CC(C)[C@@H](NC(=O)Cc1cccc2ccccc12)C(=O)OCC(=O)c1c(N)n(C)c(=O)n(C)c1=O
REMARK SMILES IDX 21 1 19 2 20 3 4 4 2 5 1 6 3 7 5 8 6 9 7 10 8 12 9 13 10 14
REMARK SMILES IDX 18 15 11 16 17 17 13 18 12 19 16 20 14 21 15 22 22 23 23 24
REMARK SMILES IDX 24 25 25 26 26 27 34 28 28 29 32 30 35 31 30 32 31 33 29 34
REMARK SMILES IDX 33 35 27 36
REMARK H PARENT 5 11 27 37 27 38
ROOT
ATOM      1  O   UNL     1      11.526 -25.539 -46.231  1.00  0.00    -0.456 OA
ENDROOT
BRANCH   1   2
ATOM      2  C   UNL     1      12.147 -24.939 -47.287  1.00  0.00     0.329 C 
ATOM      3  O   UNL     1      13.319 -25.136 -47.582  1.00  0.00    -0.250 OA
BRANCH   2   4
ATOM      4  C   UNL     1      11.211 -23.971 -48.042  1.00  0.00     0.194 C 
BRANCH   4   5
ATOM      5  C   UNL     1      11.974 -22.983 -48.955  1.00  0.00     0.017 C 
ATOM      6  C   UNL     1      11.401 -22.944 -50.375  1.00  0.00     0.010 C 
ATOM      7  C   UNL     1      12.059 -21.565 -48.381  1.00  0.00     0.010 C 
ENDBRANCH   4   5
BRANCH   4   8
ATOM      8  N   UNL     1      10.180 -24.664 -48.830  1.00  0.00    -0.342 N 
ATOM      9  C   UNL     1       8.833 -24.391 -48.654  1.00  0.00     0.225 C 
ATOM     10  O   UNL     1       8.434 -23.541 -47.865  1.00  0.00    -0.275 OA
ATOM     11  H   UNL     1      10.417 -25.568 -49.218  1.00  0.00     0.164 HD
BRANCH   9  12
ATOM     12  C   UNL     1       7.952 -25.226 -49.570  1.00  0.00     0.136 C 
BRANCH  12  13
ATOM     13  C   UNL     1       7.147 -24.444 -50.586  1.00  0.00    -0.031 A 
ATOM     14  C   UNL     1       7.740 -24.213 -51.842  1.00  0.00     0.005 A 
ATOM     15  C   UNL     1       5.835 -23.957 -50.326  1.00  0.00    -0.015 A 
ATOM     16  C   UNL     1       7.049 -23.544 -52.846  1.00  0.00     0.001 A 
ATOM     17  C   UNL     1       5.173 -24.086 -49.083  1.00  0.00     0.009 A 
ATOM     18  C   UNL     1       5.139 -23.289 -51.368  1.00  0.00    -0.018 A 
ATOM     19  C   UNL     1       5.754 -23.095 -52.612  1.00  0.00     0.009 A 
ATOM     20  C   UNL     1       3.878 -23.601 -48.883  1.00  0.00     0.001 A 
ATOM     21  C   UNL     1       3.835 -22.811 -51.153  1.00  0.00     0.009 A 
ATOM     22  C   UNL     1       3.206 -22.968 -49.920  1.00  0.00     0.001 A 
ENDBRANCH  12  13
ENDBRANCH   9  12
ENDBRANCH   4   8
ENDBRANCH   2   4
ENDBRANCH   1   2
BRANCH   1  23
ATOM     23  C   UNL     1      12.267 -25.514 -45.011  1.00  0.00     0.314 C 
BRANCH  23  24
ATOM     24  C   UNL     1      12.406 -24.147 -44.337  1.00  0.00     0.209 C 
ATOM     25  O   UNL     1      11.455 -23.360 -44.277  1.00  0.00    -0.290 OA
BRANCH  24  26
ATOM     26  C   UNL     1      13.722 -23.776 -43.741  1.00  0.00     0.127 C 
ATOM     27  C   UNL     1      14.604 -23.055 -44.463  1.00  0.00     0.123 C 
ATOM     28  C   UNL     1      14.043 -24.197 -42.365  1.00  0.00     0.269 C 
ATOM     29  N   UNL     1      15.807 -22.682 -43.874  1.00  0.00    -0.282 N 
ATOM     30  N   UNL     1      15.290 -23.855 -41.894  1.00  0.00    -0.263 N 
ATOM     31  O   UNL     1      13.220 -24.860 -41.734  1.00  0.00    -0.268 OA
ATOM     32  C   UNL     1      16.192 -23.067 -42.590  1.00  0.00     0.332 C 
ATOM     33  O   UNL     1      17.280 -22.745 -42.104  1.00  0.00    -0.247 OA
ATOM     34  C   UNL     1      16.719 -21.801 -44.601  1.00  0.00     0.157 C 
ATOM     35  C   UNL     1      15.663 -24.249 -40.549  1.00  0.00     0.158 C 
BRANCH  27  36
ATOM     36  N   UNL     1      14.339 -22.665 -45.773  1.00  0.00    -0.384 N 
ATOM     37  H   UNL     1      15.056 -22.048 -46.142  1.00  0.00     0.158 HD
ATOM     38  H   UNL     1      14.224 -23.463 -46.409  1.00  0.00     0.158 HD
ENDBRANCH  27  36
ENDBRANCH  24  26
ENDBRANCH  23  24
ENDBRANCH   1  23
TORSDOF 10
ENDMDL
MODEL 5
REMARK VINA RESULT:    -7.442      1.746      2.365
REMARK INTER + INTRA:         -12.960
REMARK INTER:                 -12.001
REMARK INTRA:                  -0.959
REMARK UNBOUND:                -1.384
REMARK SMILES CC(C)[C@@H](NC(=O)Cc1cccc2ccccc12)C(=O)OCC(=O)c1c(N)n(C)c(=O)n(C)c1=O
REMARK SMILES IDX 21 1 19 2 20 3 4 4 2 5 1 6 3 7 5 8 6 9 7 10 8 12 9 13 10 14
REMARK SMILES IDX 18 15 11 16 17 17 13 18 12 19 16 20 14 21 15 22 22 23 23 24
REMARK SMILES IDX 24 25 25 26 26 27 34 28 28 29 32 30 35 31 30 32 31 33 29 34
REMARK SMILES IDX 33 35 27 36
REMARK H PARENT 5 11 27 37 27 38
ROOT
ATOM      1  O   UNL     1      11.752 -24.402 -49.541  1.00  0.00    -0.456 OA
ENDROOT
BRANCH   1   2
ATOM      2  C   UNL     1      11.551 -23.910 -48.284  1.00  0.00     0.329 C 
ATOM      3  O   UNL     1      10.450 -23.847 -47.752  1.00  0.00    -0.250 OA
BRANCH   2   4
ATOM      4  C   UNL     1      12.862 -23.422 -47.632  1.00  0.00     0.194 C 
BRANCH   4   5
ATOM      5  C   UNL     1      13.388 -22.104 -48.249  1.00  0.00     0.017 C 
ATOM      6  C   UNL     1      12.806 -20.867 -47.557  1.00  0.00     0.010 C 
ATOM      7  C   UNL     1      14.917 -22.017 -48.288  1.00  0.00     0.010 C 
ENDBRANCH   4   5
BRANCH   4   8
ATOM      8  N   UNL     1      12.759 -23.268 -46.173  1.00  0.00    -0.342 N 
ATOM      9  C   UNL     1      12.943 -24.345 -45.321  1.00  0.00     0.225 C 
ATOM     10  O   UNL     1      13.235 -25.464 -45.730  1.00  0.00    -0.275 OA
ATOM     11  H   UNL     1      12.208 -22.495 -45.823  1.00  0.00     0.164 HD
BRANCH   9  12
ATOM     12  C   UNL     1      12.786 -23.955 -43.859  1.00  0.00     0.136 C 
BRANCH  12  13
ATOM     13  C   UNL     1      14.078 -23.797 -43.086  1.00  0.00    -0.031 A 
ATOM     14  C   UNL     1      15.190 -23.290 -43.783  1.00  0.00     0.005 A 
ATOM     15  C   UNL     1      14.199 -24.123 -41.706  1.00  0.00    -0.015 A 
ATOM     16  C   UNL     1      16.401 -23.071 -43.135  1.00  0.00     0.001 A 
ATOM     17  C   UNL     1      13.161 -24.688 -40.931  1.00  0.00     0.009 A 
ATOM     18  C   UNL     1      15.438 -23.878 -41.056  1.00  0.00    -0.018 A 
ATOM     19  C   UNL     1      16.519 -23.354 -41.778  1.00  0.00     0.009 A 
ATOM     20  C   UNL     1      13.329 -24.978 -39.573  1.00  0.00     0.001 A 
ATOM     21  C   UNL     1      15.589 -24.170 -39.690  1.00  0.00     0.009 A 
ATOM     22  C   UNL     1      14.541 -24.713 -38.952  1.00  0.00     0.001 A 
ENDBRANCH  12  13
ENDBRANCH   9  12
ENDBRANCH   4   8
ENDBRANCH   2   4
ENDBRANCH   1   2
BRANCH   1  23
ATOM     23  C   UNL     1      10.559 -24.749 -50.244  1.00  0.00     0.314 C 
BRANCH  23  24
ATOM     24  C   UNL     1       9.709 -23.577 -50.742  1.00  0.00     0.209 C 
ATOM     25  O   UNL     1      10.189 -22.447 -50.878  1.00  0.00    -0.290 OA
BRANCH  24  26
ATOM     26  C   UNL     1       8.275 -23.825 -51.069  1.00  0.00     0.127 C 
ATOM     27  C   UNL     1       7.376 -23.966 -50.074  1.00  0.00     0.123 C 
ATOM     28  C   UNL     1       7.853 -23.907 -52.480  1.00  0.00     0.269 C 
ATOM     29  N   UNL     1       6.036 -24.152 -50.401  1.00  0.00    -0.282 N 
ATOM     30  N   UNL     1       6.524 -24.179 -52.709  1.00  0.00    -0.263 N 
ATOM     31  O   UNL     1       8.699 -23.781 -53.366  1.00  0.00    -0.268 OA
ATOM     32  C   UNL     1       5.569 -24.270 -51.710  1.00  0.00     0.332 C 
ATOM     33  O   UNL     1       4.378 -24.465 -51.969  1.00  0.00    -0.247 OA
ATOM     34  C   UNL     1       5.037 -24.187 -49.336  1.00  0.00     0.157 C 
ATOM     35  C   UNL     1       6.055 -24.277 -54.077  1.00  0.00     0.158 C 
BRANCH  27  36
ATOM     36  N   UNL     1       7.747 -23.919 -48.733  1.00  0.00    -0.384 N 
ATOM     37  H   UNL     1       7.153 -23.299 -48.191  1.00  0.00     0.158 HD
ATOM     38  H   UNL     1       7.758 -24.845 -48.292  1.00  0.00     0.158 HD
ENDBRANCH  27  36
ENDBRANCH  24  26
ENDBRANCH  23  24
ENDBRANCH   1  23
TORSDOF 10
ENDMDL
MODEL 6
REMARK VINA RESULT:    -7.285      2.326      4.411
REMARK INTER + INTRA:         -12.716
REMARK INTER:                 -11.414
REMARK INTRA:                  -1.302
REMARK UNBOUND:                -1.384
REMARK SMILES CC(C)[C@@H](NC(=O)Cc1cccc2ccccc12)C(=O)OCC(=O)c1c(N)n(C)c(=O)n(C)c1=O
REMARK SMILES IDX 21 1 19 2 20 3 4 4 2 5 1 6 3 7 5 8 6 9 7 10 8 12 9 13 10 14
REMARK SMILES IDX 18 15 11 16 17 17 13 18 12 19 16 20 14 21 15 22 22 23 23 24
REMARK SMILES IDX 24 25 25 26 26 27 34 28 28 29 32 30 35 31 30 32 31 33 29 34
REMARK SMILES IDX 33 35 27 36
REMARK H PARENT 5 11 27 37 27 38
ROOT
ATOM      1  O   UNL     1       8.802 -24.154 -48.973  1.00  0.00    -0.456 OA
ENDROOT
BRANCH   1   2
ATOM      2  C   UNL     1       9.951 -24.877 -49.104  1.00  0.00     0.329 C 
ATOM      3  O   UNL     1       9.976 -26.098 -49.184  1.00  0.00    -0.250 OA
BRANCH   2   4
ATOM      4  C   UNL     1      11.207 -23.978 -49.113  1.00  0.00     0.194 C 
BRANCH   4   5
ATOM      5  C   UNL     1      11.108 -22.813 -50.126  1.00  0.00     0.017 C 
ATOM      6  C   UNL     1      12.201 -21.762 -49.910  1.00  0.00     0.010 C 
ATOM      7  C   UNL     1      11.100 -23.275 -51.587  1.00  0.00     0.010 C 
ENDBRANCH   4   5
BRANCH   4   8
ATOM      8  N   UNL     1      11.540 -23.441 -47.785  1.00  0.00    -0.342 N 
ATOM      9  C   UNL     1      12.361 -24.136 -46.911  1.00  0.00     0.225 C 
ATOM     10  O   UNL     1      12.876 -25.208 -47.209  1.00  0.00    -0.275 OA
ATOM     11  H   UNL     1      10.900 -22.771 -47.377  1.00  0.00     0.164 HD
BRANCH   9  12
ATOM     12  C   UNL     1      12.564 -23.394 -45.599  1.00  0.00     0.136 C 
BRANCH  12  13
ATOM     13  C   UNL     1      14.003 -23.080 -45.247  1.00  0.00    -0.031 A 
ATOM     14  C   UNL     1      14.797 -22.483 -46.244  1.00  0.00     0.005 A 
ATOM     15  C   UNL     1      14.563 -23.348 -43.966  1.00  0.00    -0.015 A 
ATOM     16  C   UNL     1      16.114 -22.120 -45.986  1.00  0.00     0.001 A 
ATOM     17  C   UNL     1      13.868 -23.993 -42.917  1.00  0.00     0.009 A 
ATOM     18  C   UNL     1      15.904 -22.957 -43.716  1.00  0.00    -0.018 A 
ATOM     19  C   UNL     1      16.659 -22.347 -44.727  1.00  0.00     0.009 A 
ATOM     20  C   UNL     1      14.462 -24.222 -41.672  1.00  0.00     0.001 A 
ATOM     21  C   UNL     1      16.485 -23.189 -42.457  1.00  0.00     0.009 A 
ATOM     22  C   UNL     1      15.768 -23.814 -41.440  1.00  0.00     0.001 A 
ENDBRANCH  12  13
ENDBRANCH   9  12
ENDBRANCH   4   8
ENDBRANCH   2   4
ENDBRANCH   1   2
BRANCH   1  23
ATOM     23  C   UNL     1       7.786 -24.470 -49.926  1.00  0.00     0.314 C 
BRANCH  23  24
ATOM     24  C   UNL     1       7.122 -23.280 -50.620  1.00  0.00     0.209 C 
ATOM     25  O   UNL     1       7.788 -22.326 -51.038  1.00  0.00    -0.290 OA
BRANCH  24  26
ATOM     26  C   UNL     1       5.640 -23.290 -50.793  1.00  0.00     0.127 C 
ATOM     27  C   UNL     1       5.110 -23.190 -52.029  1.00  0.00     0.123 C 
ATOM     28  C   UNL     1       4.770 -23.414 -49.609  1.00  0.00     0.269 C 
ATOM     29  N   UNL     1       3.727 -23.245 -52.172  1.00  0.00    -0.282 N 
ATOM     30  N   UNL     1       3.414 -23.374 -49.837  1.00  0.00    -0.263 N 
ATOM     31  O   UNL     1       5.284 -23.496 -48.494  1.00  0.00    -0.268 OA
ATOM     32  C   UNL     1       2.842 -23.332 -51.098  1.00  0.00     0.332 C 
ATOM     33  O   UNL     1       1.617 -23.349 -51.254  1.00  0.00    -0.247 OA
ATOM     34  C   UNL     1       3.145 -23.259 -53.512  1.00  0.00     0.157 C 
ATOM     35  C   UNL     1       2.510 -23.485 -48.709  1.00  0.00     0.158 C 
BRANCH  27  36
ATOM     36  N   UNL     1       5.905 -23.046 -53.163  1.00  0.00    -0.384 N 
ATOM     37  H   UNL     1       6.386 -22.153 -53.184  1.00  0.00     0.158 HD
ATOM     38  H   UNL     1       6.593 -23.801 -53.262  1.00  0.00     0.158 HD
ENDBRANCH  27  36
ENDBRANCH  24  26
ENDBRANCH  23  24
ENDBRANCH   1  23
TORSDOF 10
ENDMDL
MODEL 7
REMARK VINA RESULT:    -7.244      2.564     10.440
REMARK INTER + INTRA:         -12.651
REMARK INTER:                 -11.441
REMARK INTRA:                  -1.211
REMARK UNBOUND:                -1.384
REMARK SMILES CC(C)[C@@H](NC(=O)Cc1cccc2ccccc12)C(=O)OCC(=O)c1c(N)n(C)c(=O)n(C)c1=O
REMARK SMILES IDX 21 1 19 2 20 3 4 4 2 5 1 6 3 7 5 8 6 9 7 10 8 12 9 13 10 14
REMARK SMILES IDX 18 15 11 16 17 17 13 18 12 19 16 20 14 21 15 22 22 23 23 24
REMARK SMILES IDX 24 25 25 26 26 27 34 28 28 29 32 30 35 31 30 32 31 33 29 34
REMARK SMILES IDX 33 35 27 36
REMARK H PARENT 5 11 27 37 27 38
ROOT
ATOM      1  O   UNL     1      10.696 -22.636 -48.243  1.00  0.00    -0.456 OA
ENDROOT
BRANCH   1   2
ATOM      2  C   UNL     1       9.826 -23.553 -48.758  1.00  0.00     0.329 C 
ATOM      3  O   UNL     1       9.261 -24.402 -48.081  1.00  0.00    -0.250 OA
BRANCH   2   4
ATOM      4  C   UNL     1       9.663 -23.406 -50.286  1.00  0.00     0.194 C 
BRANCH   4   5
ATOM      5  C   UNL     1      10.842 -24.019 -51.080  1.00  0.00     0.017 C 
ATOM      6  C   UNL     1      11.163 -25.448 -50.630  1.00  0.00     0.010 C 
ATOM      7  C   UNL     1      10.641 -23.976 -52.598  1.00  0.00     0.010 C 
ENDBRANCH   4   5
BRANCH   4   8
ATOM      8  N   UNL     1       8.398 -23.965 -50.787  1.00  0.00    -0.342 N 
ATOM      9  C   UNL     1       7.321 -23.148 -51.091  1.00  0.00     0.225 C 
ATOM     10  O   UNL     1       7.375 -21.927 -50.994  1.00  0.00    -0.275 OA
ATOM     11  H   UNL     1       8.192 -24.930 -50.565  1.00  0.00     0.164 HD
BRANCH   9  12
ATOM     12  C   UNL     1       6.120 -23.940 -51.587  1.00  0.00     0.136 C 
BRANCH  12  13
ATOM     13  C   UNL     1       4.815 -23.656 -50.875  1.00  0.00    -0.031 A 
ATOM     14  C   UNL     1       4.758 -23.929 -49.496  1.00  0.00     0.005 A 
ATOM     15  C   UNL     1       3.674 -23.119 -51.536  1.00  0.00    -0.015 A 
ATOM     16  C   UNL     1       3.611 -23.651 -48.760  1.00  0.00     0.001 A 
ATOM     17  C   UNL     1       3.610 -22.862 -52.925  1.00  0.00     0.009 A 
ATOM     18  C   UNL     1       2.517 -22.828 -50.766  1.00  0.00    -0.018 A 
ATOM     19  C   UNL     1       2.504 -23.095 -49.390  1.00  0.00     0.009 A 
ATOM     20  C   UNL     1       2.468 -22.322 -53.522  1.00  0.00     0.001 A 
ATOM     21  C   UNL     1       1.379 -22.280 -51.380  1.00  0.00     0.009 A 
ATOM     22  C   UNL     1       1.354 -22.025 -52.749  1.00  0.00     0.001 A 
ENDBRANCH  12  13
ENDBRANCH   9  12
ENDBRANCH   4   8
ENDBRANCH   2   4
ENDBRANCH   1   2
BRANCH   1  23
ATOM     23  C   UNL     1      11.880 -23.194 -47.671  1.00  0.00     0.314 C 
BRANCH  23  24
ATOM     24  C   UNL     1      12.778 -22.221 -46.904  1.00  0.00     0.209 C 
ATOM     25  O   UNL     1      12.767 -21.009 -47.146  1.00  0.00    -0.290 OA
BRANCH  24  26
ATOM     26  C   UNL     1      13.674 -22.763 -45.842  1.00  0.00     0.127 C 
ATOM     27  C   UNL     1      15.010 -22.768 -46.032  1.00  0.00     0.123 C 
ATOM     28  C   UNL     1      13.091 -23.284 -44.591  1.00  0.00     0.269 C 
ATOM     29  N   UNL     1      15.831 -23.237 -45.012  1.00  0.00    -0.282 N 
ATOM     30  N   UNL     1      13.973 -23.806 -43.674  1.00  0.00    -0.263 N 
ATOM     31  O   UNL     1      11.868 -23.272 -44.451  1.00  0.00    -0.268 OA
ATOM     32  C   UNL     1      15.350 -23.771 -43.816  1.00  0.00     0.332 C 
ATOM     33  O   UNL     1      16.103 -24.207 -42.940  1.00  0.00    -0.247 OA
ATOM     34  C   UNL     1      17.281 -23.137 -45.155  1.00  0.00     0.157 C 
ATOM     35  C   UNL     1      13.455 -24.338 -42.429  1.00  0.00     0.158 C 
BRANCH  27  36
ATOM     36  N   UNL     1      15.588 -22.307 -47.211  1.00  0.00    -0.384 N 
ATOM     37  H   UNL     1      15.142 -21.461 -47.553  1.00  0.00     0.158 HD
ATOM     38  H   UNL     1      16.597 -22.141 -47.119  1.00  0.00     0.158 HD
ENDBRANCH  27  36
ENDBRANCH  24  26
ENDBRANCH  23  24
ENDBRANCH   1  23
TORSDOF 10
ENDMDL
MODEL 8
REMARK VINA RESULT:    -7.234      2.539      4.094
REMARK INTER + INTRA:         -12.636
REMARK INTER:                 -10.455
REMARK INTRA:                  -2.181
REMARK UNBOUND:                -1.384
REMARK SMILES CC(C)[C@@H](NC(=O)Cc1cccc2ccccc12)C(=O)OCC(=O)c1c(N)n(C)c(=O)n(C)c1=O
REMARK SMILES IDX 21 1 19 2 20 3 4 4 2 5 1 6 3 7 5 8 6 9 7 10 8 12 9 13 10 14
REMARK SMILES IDX 18 15 11 16 17 17 13 18 12 19 16 20 14 21 15 22 22 23 23 24
REMARK SMILES IDX 24 25 25 26 26 27 34 28 28 29 32 30 35 31 30 32 31 33 29 34
REMARK SMILES IDX 33 35 27 36
REMARK H PARENT 5 11 27 37 27 38
ROOT
ATOM      1  O   UNL     1       9.535 -22.860 -50.129  1.00  0.00    -0.456 OA
ENDROOT
BRANCH   1   2
ATOM      2  C   UNL     1      10.158 -23.114 -48.942  1.00  0.00     0.329 C 
ATOM      3  O   UNL     1       9.565 -23.469 -47.931  1.00  0.00    -0.250 OA
BRANCH   2   4
ATOM      4  C   UNL     1      11.681 -22.876 -49.020  1.00  0.00     0.194 C 
BRANCH   4   5
ATOM      5  C   UNL     1      12.066 -21.384 -48.875  1.00  0.00     0.017 C 
ATOM      6  C   UNL     1      12.784 -21.096 -47.553  1.00  0.00     0.010 C 
ATOM      7  C   UNL     1      12.891 -20.851 -50.051  1.00  0.00     0.010 C 
ENDBRANCH   4   5
BRANCH   4   8
ATOM      8  N   UNL     1      12.440 -23.670 -48.041  1.00  0.00    -0.342 N 
ATOM      9  C   UNL     1      12.638 -25.030 -48.217  1.00  0.00     0.225 C 
ATOM     10  O   UNL     1      12.228 -25.631 -49.204  1.00  0.00    -0.275 OA
ATOM     11  H   UNL     1      12.494 -23.318 -47.095  1.00  0.00     0.164 HD
BRANCH   9  12
ATOM     12  C   UNL     1      13.445 -25.645 -47.083  1.00  0.00     0.136 C 
BRANCH  12  13
ATOM     13  C   UNL     1      13.541 -24.807 -45.826  1.00  0.00    -0.031 A 
ATOM     14  C   UNL     1      12.501 -24.930 -44.886  1.00  0.00     0.005 A 
ATOM     15  C   UNL     1      14.631 -23.929 -45.562  1.00  0.00    -0.015 A 
ATOM     16  C   UNL     1      12.537 -24.230 -43.685  1.00  0.00     0.001 A 
ATOM     17  C   UNL     1      15.694 -23.693 -46.463  1.00  0.00     0.009 A 
ATOM     18  C   UNL     1      14.659 -23.235 -44.324  1.00  0.00    -0.018 A 
ATOM     19  C   UNL     1      13.614 -23.397 -43.403  1.00  0.00     0.009 A 
ATOM     20  C   UNL     1      16.748 -22.830 -46.148  1.00  0.00     0.001 A 
ATOM     21  C   UNL     1      15.728 -22.375 -44.020  1.00  0.00     0.009 A 
ATOM     22  C   UNL     1      16.767 -22.175 -44.925  1.00  0.00     0.001 A 
ENDBRANCH  12  13
ENDBRANCH   9  12
ENDBRANCH   4   8
ENDBRANCH   2   4
ENDBRANCH   1   2
BRANCH   1  23
ATOM     23  C   UNL     1       9.749 -23.848 -51.138  1.00  0.00     0.314 C 
BRANCH  23  24
ATOM     24  C   UNL     1       8.679 -24.936 -51.250  1.00  0.00     0.209 C 
ATOM     25  O   UNL     1       8.981 -26.134 -51.281  1.00  0.00    -0.290 OA
BRANCH  24  26
ATOM     26  C   UNL     1       7.247 -24.524 -51.316  1.00  0.00     0.127 C 
ATOM     27  C   UNL     1       6.518 -24.454 -50.183  1.00  0.00     0.123 C 
ATOM     28  C   UNL     1       6.643 -24.193 -52.620  1.00  0.00     0.269 C 
ATOM     29  N   UNL     1       5.196 -24.025 -50.261  1.00  0.00    -0.282 N 
ATOM     30  N   UNL     1       5.308 -23.862 -52.612  1.00  0.00    -0.263 N 
ATOM     31  O   UNL     1       7.333 -24.274 -53.636  1.00  0.00    -0.268 OA
ATOM     32  C   UNL     1       4.551 -23.724 -51.460  1.00  0.00     0.332 C 
ATOM     33  O   UNL     1       3.367 -23.375 -51.501  1.00  0.00    -0.247 OA
ATOM     34  C   UNL     1       4.432 -23.830 -49.031  1.00  0.00     0.157 C 
ATOM     35  C   UNL     1       4.660 -23.533 -53.866  1.00  0.00     0.158 C 
BRANCH  27  36
ATOM     36  N   UNL     1       7.052 -24.784 -48.941  1.00  0.00    -0.384 N 
ATOM     37  H   UNL     1       6.818 -24.101 -48.227  1.00  0.00     0.158 HD
ATOM     38  H   UNL     1       6.764 -25.717 -48.621  1.00  0.00     0.158 HD
ENDBRANCH  27  36
ENDBRANCH  24  26
ENDBRANCH  23  24
ENDBRANCH   1  23
TORSDOF 10
ENDMDL
MODEL 9
REMARK VINA RESULT:    -7.051      2.785      9.207
REMARK INTER + INTRA:         -12.351
REMARK INTER:                 -10.122
REMARK INTRA:                  -2.229
REMARK UNBOUND:                -1.384
REMARK SMILES CC(C)[C@@H](NC(=O)Cc1cccc2ccccc12)C(=O)OCC(=O)c1c(N)n(C)c(=O)n(C)c1=O
REMARK SMILES IDX 21 1 19 2 20 3 4 4 2 5 1 6 3 7 5 8 6 9 7 10 8 12 9 13 10 14
REMARK SMILES IDX 18 15 11 16 17 17 13 18 12 19 16 20 14 21 15 22 22 23 23 24
REMARK SMILES IDX 24 25 25 26 26 27 34 28 28 29 32 30 35 31 30 32 31 33 29 34
REMARK SMILES IDX 33 35 27 36
REMARK H PARENT 5 11 27 37 27 38
ROOT
ATOM      1  O   UNL     1      14.942 -22.765 -44.825  1.00  0.00    -0.456 OA
ENDROOT
BRANCH   1   2
ATOM      2  C   UNL     1      14.907 -23.196 -46.119  1.00  0.00     0.329 C 
ATOM      3  O   UNL     1      15.770 -23.906 -46.618  1.00  0.00    -0.250 OA
BRANCH   2   4
ATOM      4  C   UNL     1      13.673 -22.662 -46.878  1.00  0.00     0.194 C 
BRANCH   4   5
ATOM      5  C   UNL     1      13.971 -21.377 -47.686  1.00  0.00     0.017 C 
ATOM      6  C   UNL     1      14.508 -21.684 -49.087  1.00  0.00     0.010 C 
ATOM      7  C   UNL     1      12.775 -20.423 -47.776  1.00  0.00     0.010 C 
ENDBRANCH   4   5
BRANCH   4   8
ATOM      8  N   UNL     1      13.065 -23.664 -47.767  1.00  0.00    -0.342 N 
ATOM      9  C   UNL     1      11.787 -24.149 -47.538  1.00  0.00     0.225 C 
ATOM     10  O   UNL     1      11.089 -23.747 -46.614  1.00  0.00    -0.275 OA
ATOM     11  H   UNL     1      13.689 -24.252 -48.304  1.00  0.00     0.164 HD
BRANCH   9  12
ATOM     12  C   UNL     1      11.367 -25.176 -48.579  1.00  0.00     0.136 C 
BRANCH  12  13
ATOM     13  C   UNL     1      10.622 -24.622 -49.775  1.00  0.00    -0.031 A 
ATOM     14  C   UNL     1      11.381 -24.294 -50.913  1.00  0.00     0.005 A 
ATOM     15  C   UNL     1       9.210 -24.439 -49.791  1.00  0.00    -0.015 A 
ATOM     16  C   UNL     1      10.767 -23.823 -52.069  1.00  0.00     0.001 A 
ATOM     17  C   UNL     1       8.366 -24.686 -48.683  1.00  0.00     0.009 A 
ATOM     18  C   UNL     1       8.599 -23.973 -50.984  1.00  0.00    -0.018 A 
ATOM     19  C   UNL     1       9.385 -23.674 -52.106  1.00  0.00     0.009 A 
ATOM     20  C   UNL     1       6.983 -24.502 -48.756  1.00  0.00     0.001 A 
ATOM     21  C   UNL     1       7.206 -23.798 -51.043  1.00  0.00     0.009 A 
ATOM     22  C   UNL     1       6.402 -24.063 -49.938  1.00  0.00     0.001 A 
ENDBRANCH  12  13
ENDBRANCH   9  12
ENDBRANCH   4   8
ENDBRANCH   2   4
ENDBRANCH   1   2
BRANCH   1  23
ATOM     23  C   UNL     1      13.779 -23.081 -44.060  1.00  0.00     0.314 C 
BRANCH  23  24
ATOM     24  C   UNL     1      13.699 -24.509 -43.518  1.00  0.00     0.209 C 
ATOM     25  O   UNL     1      12.941 -25.346 -44.021  1.00  0.00    -0.290 OA
BRANCH  24  26
ATOM     26  C   UNL     1      14.564 -24.884 -42.362  1.00  0.00     0.127 C 
ATOM     27  C   UNL     1      15.798 -25.381 -42.583  1.00  0.00     0.123 C 
ATOM     28  C   UNL     1      14.062 -24.702 -40.987  1.00  0.00     0.269 C 
ATOM     29  N   UNL     1      16.606 -25.682 -41.491  1.00  0.00    -0.282 N 
ATOM     30  N   UNL     1      14.897 -25.106 -39.971  1.00  0.00    -0.263 N 
ATOM     31  O   UNL     1      12.929 -24.252 -40.819  1.00  0.00    -0.268 OA
ATOM     32  C   UNL     1      16.189 -25.564 -40.165  1.00  0.00     0.332 C 
ATOM     33  O   UNL     1      16.918 -25.867 -39.217  1.00  0.00    -0.247 OA
ATOM     34  C   UNL     1      17.986 -26.107 -41.715  1.00  0.00     0.157 C 
ATOM     35  C   UNL     1      14.453 -24.956 -38.599  1.00  0.00     0.158 C 
BRANCH  27  36
ATOM     36  N   UNL     1      16.290 -25.587 -43.869  1.00  0.00    -0.384 N 
ATOM     37  H   UNL     1      16.147 -26.541 -44.187  1.00  0.00     0.158 HD
ATOM     38  H   UNL     1      15.887 -24.940 -44.556  1.00  0.00     0.158 HD
ENDBRANCH  27  36
ENDBRANCH  24  26
ENDBRANCH  23  24
ENDBRANCH   1  23
TORSDOF 10
ENDMDL
