MODEL 1
REMARK VINA RESULT:    -7.918      0.000      0.000
REMARK INTER + INTRA:         -12.633
REMARK INTER:                 -12.085
REMARK INTRA:                  -0.549
REMARK UNBOUND:                -0.549
REMARK SMILES CCCNc1nnc(SCC(=O)NNC(=O)c2cc(CC)c(C)s2)s1
REMARK SMILES IDX 9 1 8 2 5 3 6 4 25 5 7 6 4 7 3 9 2 10 1 11 10 12 11 13 12 14
REMARK SMILES IDX 13 15 14 17 15 18 16 19 17 21 18 22 24 23 19 24 22 25 23 26
REMARK SMILES IDX 20 27 21 28
REMARK H PARENT 4 8 13 16 14 20
ROOT
ATOM      1  S   UNL     1      12.287 -21.318 -49.671  1.00  0.00    -0.084 SA
ENDROOT
BRANCH   1   2
ATOM      2  C   UNL     1      13.054 -20.601 -51.065  1.00  0.00     0.176 A 
ATOM      3  C   UNL     1      14.005 -19.244 -52.771  1.00  0.00     0.206 A 
ATOM      4  N   UNL     1      13.630 -20.431 -53.208  1.00  0.00    -0.119 NA
ATOM      5  S   UNL     1      13.757 -19.047 -51.072  1.00  0.00    -0.069 S 
ATOM      6  N   UNL     1      13.064 -21.212 -52.227  1.00  0.00    -0.130 NA
BRANCH   3   7
ATOM      7  N   UNL     1      14.542 -18.305 -53.594  1.00  0.00    -0.360 N 
ATOM      8  H   UNL     1      14.040 -17.420 -53.548  1.00  0.00     0.162 HD
BRANCH   7   9
ATOM      9  C   UNL     1      15.982 -18.137 -53.727  1.00  0.00     0.115 C 
BRANCH   9  10
ATOM     10  C   UNL     1      16.404 -16.711 -53.370  1.00  0.00     0.018 C 
ATOM     11  C   UNL     1      17.184 -16.669 -52.066  1.00  0.00     0.006 C 
ENDBRANCH   9  10
ENDBRANCH   7   9
ENDBRANCH   3   7
ENDBRANCH   1   2
BRANCH   1  12
ATOM     12  C   UNL     1      13.258 -20.512 -48.359  1.00  0.00     0.179 C 
BRANCH  12  13
ATOM     13  C   UNL     1      13.825 -21.556 -47.415  1.00  0.00     0.248 C 
ATOM     14  O   UNL     1      14.910 -22.108 -47.602  1.00  0.00    -0.272 OA
ATOM     15  N   UNL     1      13.039 -21.832 -46.309  1.00  0.00    -0.267 N 
ATOM     16  H   UNL     1      12.369 -21.133 -45.967  1.00  0.00     0.191 HD
BRANCH  15  17
ATOM     17  N   UNL     1      13.641 -22.613 -45.301  1.00  0.00    -0.263 N 
ATOM     18  C   UNL     1      12.835 -23.332 -44.434  1.00  0.00     0.279 C 
ATOM     19  O   UNL     1      11.636 -23.493 -44.669  1.00  0.00    -0.266 OA
ATOM     20  H   UNL     1      14.590 -22.350 -45.033  1.00  0.00     0.191 HD
BRANCH  18  21
ATOM     21  C   UNL     1      13.486 -23.860 -43.244  1.00  0.00     0.094 A 
ATOM     22  C   UNL     1      12.864 -24.251 -42.073  1.00  0.00     0.029 A 
ATOM     23  S   UNL     1      15.179 -24.047 -43.125  1.00  0.00    -0.135 S 
ATOM     24  C   UNL     1      13.779 -24.702 -41.064  1.00  0.00    -0.034 A 
ATOM     25  C   UNL     1      15.086 -24.634 -41.520  1.00  0.00     0.005 A 
ATOM     26  C   UNL     1      16.341 -25.006 -40.799  1.00  0.00     0.056 C 
BRANCH  24  27
ATOM     27  C   UNL     1      13.347 -25.178 -39.706  1.00  0.00     0.033 C 
ATOM     28  C   UNL     1      13.367 -24.064 -38.670  1.00  0.00     0.009 C 
ENDBRANCH  24  27
ENDBRANCH  18  21
ENDBRANCH  15  17
ENDBRANCH  12  13
ENDBRANCH   1  12
TORSDOF 9
ENDMDL
MODEL 2
REMARK VINA RESULT:    -7.239      1.057      1.057
REMARK INTER + INTRA:         -11.597
REMARK INTER:                 -11.022
REMARK INTRA:                  -0.575
REMARK UNBOUND:                -0.549
REMARK SMILES CCCNc1nnc(SCC(=O)NNC(=O)c2cc(CC)c(C)s2)s1
REMARK SMILES IDX 9 1 8 2 5 3 6 4 25 5 7 6 4 7 3 9 2 10 1 11 10 12 11 13 12 14
REMARK SMILES IDX 13 15 14 17 15 18 16 19 17 21 18 22 24 23 19 24 22 25 23 26
REMARK SMILES IDX 20 27 21 28
REMARK H PARENT 4 8 13 16 14 20
ROOT
ATOM      1  S   UNL     1      12.462 -20.960 -48.882  1.00  0.00    -0.084 SA
ENDROOT
BRANCH   1   2
ATOM      2  C   UNL     1      13.080 -20.466 -50.438  1.00  0.00     0.176 A 
ATOM      3  C   UNL     1      13.850 -19.387 -52.412  1.00  0.00     0.206 A 
ATOM      4  N   UNL     1      13.430 -20.618 -52.630  1.00  0.00    -0.119 NA
ATOM      5  S   UNL     1      13.781 -18.942 -50.744  1.00  0.00    -0.069 S 
ATOM      6  N   UNL     1      12.968 -21.240 -51.492  1.00  0.00    -0.130 NA
BRANCH   3   7
ATOM      7  N   UNL     1      14.300 -18.587 -53.414  1.00  0.00    -0.360 N 
ATOM      8  H   UNL     1      13.686 -17.791 -53.576  1.00  0.00     0.162 HD
BRANCH   7   9
ATOM      9  C   UNL     1      15.710 -18.257 -53.556  1.00  0.00     0.115 C 
BRANCH   9  10
ATOM     10  C   UNL     1      15.927 -16.743 -53.525  1.00  0.00     0.018 C 
ATOM     11  C   UNL     1      17.091 -16.364 -52.624  1.00  0.00     0.006 C 
ENDBRANCH   9  10
ENDBRANCH   7   9
ENDBRANCH   3   7
ENDBRANCH   1   2
BRANCH   1  12
ATOM     12  C   UNL     1      12.421 -22.762 -49.145  1.00  0.00     0.179 C 
BRANCH  12  13
ATOM     13  C   UNL     1      12.785 -23.482 -47.860  1.00  0.00     0.248 C 
ATOM     14  O   UNL     1      12.933 -24.703 -47.797  1.00  0.00    -0.272 OA
ATOM     15  N   UNL     1      12.961 -22.661 -46.759  1.00  0.00    -0.267 N 
ATOM     16  H   UNL     1      13.211 -21.673 -46.889  1.00  0.00     0.191 HD
BRANCH  15  17
ATOM     17  N   UNL     1      13.528 -23.266 -45.619  1.00  0.00    -0.263 N 
ATOM     18  C   UNL     1      12.717 -23.550 -44.533  1.00  0.00     0.279 C 
ATOM     19  O   UNL     1      11.489 -23.506 -44.629  1.00  0.00    -0.266 OA
ATOM     20  H   UNL     1      14.535 -23.153 -45.502  1.00  0.00     0.191 HD
BRANCH  18  21
ATOM     21  C   UNL     1      13.401 -23.882 -43.291  1.00  0.00     0.094 A 
ATOM     22  C   UNL     1      12.814 -24.337 -42.126  1.00  0.00     0.029 A 
ATOM     23  S   UNL     1      15.090 -23.717 -43.097  1.00  0.00    -0.135 S 
ATOM     24  C   UNL     1      13.751 -24.547 -41.060  1.00  0.00    -0.034 A 
ATOM     25  C   UNL     1      15.038 -24.236 -41.468  1.00  0.00     0.005 A 
ATOM     26  C   UNL     1      16.305 -24.314 -40.680  1.00  0.00     0.056 C 
BRANCH  24  27
ATOM     27  C   UNL     1      13.356 -25.038 -39.695  1.00  0.00     0.033 C 
ATOM     28  C   UNL     1      13.126 -23.898 -38.715  1.00  0.00     0.009 C 
ENDBRANCH  24  27
ENDBRANCH  18  21
ENDBRANCH  15  17
ENDBRANCH  12  13
ENDBRANCH   1  12
TORSDOF 9
ENDMDL
MODEL 3
REMARK VINA RESULT:    -6.910      4.655      5.648
REMARK INTER + INTRA:         -11.095
REMARK INTER:                 -10.483
REMARK INTRA:                  -0.613
REMARK UNBOUND:                -0.549
REMARK SMILES CCCNc1nnc(SCC(=O)NNC(=O)c2cc(CC)c(C)s2)s1
REMARK SMILES IDX 9 1 8 2 5 3 6 4 25 5 7 6 4 7 3 9 2 10 1 11 10 12 11 13 12 14
REMARK SMILES IDX 13 15 14 17 15 18 16 19 17 21 18 22 24 23 19 24 22 25 23 26
REMARK SMILES IDX 20 27 21 28
REMARK H PARENT 4 8 13 16 14 20
ROOT
ATOM      1  S   UNL     1      12.309 -24.230 -48.352  1.00  0.00    -0.084 SA
ENDROOT
BRANCH   1   2
ATOM      2  C   UNL     1      10.595 -24.122 -48.664  1.00  0.00     0.176 A 
ATOM      3  C   UNL     1       8.381 -23.869 -49.493  1.00  0.00     0.206 A 
ATOM      4  N   UNL     1       8.464 -23.697 -48.188  1.00  0.00    -0.119 NA
ATOM      5  S   UNL     1       9.895 -24.295 -50.209  1.00  0.00    -0.069 S 
ATOM      6  N   UNL     1       9.747 -23.827 -47.707  1.00  0.00    -0.130 NA
BRANCH   3   7
ATOM      7  N   UNL     1       7.210 -23.735 -50.169  1.00  0.00    -0.360 N 
ATOM      8  H   UNL     1       6.400 -23.894 -49.571  1.00  0.00     0.162 HD
BRANCH   7   9
ATOM      9  C   UNL     1       7.002 -22.669 -51.138  1.00  0.00     0.115 C 
BRANCH   9  10
ATOM     10  C   UNL     1       6.505 -23.228 -52.472  1.00  0.00     0.018 C 
ATOM     11  C   UNL     1       7.653 -23.751 -53.321  1.00  0.00     0.006 C 
ENDBRANCH   9  10
ENDBRANCH   7   9
ENDBRANCH   3   7
ENDBRANCH   1   2
BRANCH   1  12
ATOM     12  C   UNL     1      12.576 -22.583 -47.623  1.00  0.00     0.179 C 
BRANCH  12  13
ATOM     13  C   UNL     1      12.743 -22.701 -46.119  1.00  0.00     0.248 C 
ATOM     14  O   UNL     1      11.841 -23.086 -45.374  1.00  0.00    -0.272 OA
ATOM     15  N   UNL     1      13.998 -22.362 -45.643  1.00  0.00    -0.267 N 
ATOM     16  H   UNL     1      14.816 -22.419 -46.262  1.00  0.00     0.191 HD
BRANCH  15  17
ATOM     17  N   UNL     1      14.258 -22.687 -44.296  1.00  0.00    -0.263 N 
ATOM     18  C   UNL     1      15.215 -23.644 -44.006  1.00  0.00     0.279 C 
ATOM     19  O   UNL     1      16.000 -24.039 -44.870  1.00  0.00    -0.266 OA
ATOM     20  H   UNL     1      13.516 -22.474 -43.629  1.00  0.00     0.191 HD
BRANCH  18  21
ATOM     21  C   UNL     1      15.220 -24.153 -42.642  1.00  0.00     0.094 A 
ATOM     22  C   UNL     1      14.140 -24.210 -41.781  1.00  0.00     0.029 A 
ATOM     23  S   UNL     1      16.631 -24.747 -41.885  1.00  0.00    -0.135 S 
ATOM     24  C   UNL     1      14.467 -24.736 -40.488  1.00  0.00    -0.034 A 
ATOM     25  C   UNL     1      15.811 -25.066 -40.417  1.00  0.00     0.005 A 
ATOM     26  C   UNL     1      16.566 -25.643 -39.264  1.00  0.00     0.056 C 
BRANCH  24  27
ATOM     27  C   UNL     1      13.464 -24.897 -39.380  1.00  0.00     0.033 C 
ATOM     28  C   UNL     1      13.608 -23.824 -38.312  1.00  0.00     0.009 C 
ENDBRANCH  24  27
ENDBRANCH  18  21
ENDBRANCH  15  17
ENDBRANCH  12  13
ENDBRANCH   1  12
TORSDOF 9
ENDMDL
MODEL 4
REMARK VINA RESULT:    -6.896      3.579      5.560
REMARK INTER + INTRA:         -11.073
REMARK INTER:                 -10.386
REMARK INTRA:                  -0.687
REMARK UNBOUND:                -0.549
REMARK SMILES CCCNc1nnc(SCC(=O)NNC(=O)c2cc(CC)c(C)s2)s1
REMARK SMILES IDX 9 1 8 2 5 3 6 4 25 5 7 6 4 7 3 9 2 10 1 11 10 12 11 13 12 14
REMARK SMILES IDX 13 15 14 17 15 18 16 19 17 21 18 22 24 23 19 24 22 25 23 26
REMARK SMILES IDX 20 27 21 28
REMARK H PARENT 4 8 13 16 14 20
ROOT
ATOM      1  S   UNL     1      14.811 -17.417 -52.500  1.00  0.00    -0.084 SA
ENDROOT
BRANCH   1   2
ATOM      2  C   UNL     1      16.517 -17.420 -52.867  1.00  0.00     0.176 A 
ATOM      3  C   UNL     1      18.828 -17.006 -53.244  1.00  0.00     0.206 A 
ATOM      4  N   UNL     1      18.359 -18.003 -53.969  1.00  0.00    -0.119 NA
ATOM      5  S   UNL     1      17.640 -16.335 -52.182  1.00  0.00    -0.069 S 
ATOM      6  N   UNL     1      17.018 -18.235 -53.765  1.00  0.00    -0.130 NA
BRANCH   3   7
ATOM      7  N   UNL     1      20.117 -16.587 -53.335  1.00  0.00    -0.360 N 
ATOM      8  H   UNL     1      20.779 -17.355 -53.237  1.00  0.00     0.162 HD
BRANCH   7   9
ATOM      9  C   UNL     1      20.534 -15.597 -54.316  1.00  0.00     0.115 C 
BRANCH   9  10
ATOM     10  C   UNL     1      20.828 -14.251 -53.650  1.00  0.00     0.018 C 
ATOM     11  C   UNL     1      19.586 -13.379 -53.580  1.00  0.00     0.006 C 
ENDBRANCH   9  10
ENDBRANCH   7   9
ENDBRANCH   3   7
ENDBRANCH   1   2
BRANCH   1  12
ATOM     12  C   UNL     1      14.311 -18.904 -53.424  1.00  0.00     0.179 C 
BRANCH  12  13
ATOM     13  C   UNL     1      13.913 -20.006 -52.460  1.00  0.00     0.248 C 
ATOM     14  O   UNL     1      13.411 -21.069 -52.829  1.00  0.00    -0.272 OA
ATOM     15  N   UNL     1      14.174 -19.738 -51.127  1.00  0.00    -0.267 N 
ATOM     16  H   UNL     1      14.906 -19.065 -50.872  1.00  0.00     0.191 HD
BRANCH  15  17
ATOM     17  N   UNL     1      14.039 -20.825 -50.239  1.00  0.00    -0.263 N 
ATOM     18  C   UNL     1      13.588 -20.591 -48.951  1.00  0.00     0.279 C 
ATOM     19  O   UNL     1      13.084 -19.510 -48.642  1.00  0.00    -0.266 OA
ATOM     20  H   UNL     1      14.591 -21.656 -50.455  1.00  0.00     0.191 HD
BRANCH  18  21
ATOM     21  C   UNL     1      13.762 -21.682 -48.003  1.00  0.00     0.094 A 
ATOM     22  C   UNL     1      14.960 -22.256 -47.620  1.00  0.00     0.029 A 
ATOM     23  S   UNL     1      12.447 -22.447 -47.228  1.00  0.00    -0.135 S 
ATOM     24  C   UNL     1      14.804 -23.336 -46.689  1.00  0.00    -0.034 A 
ATOM     25  C   UNL     1      13.465 -23.543 -46.397  1.00  0.00     0.005 A 
ATOM     26  C   UNL     1      12.862 -24.557 -45.480  1.00  0.00     0.056 C 
BRANCH  24  27
ATOM     27  C   UNL     1      15.957 -24.118 -46.126  1.00  0.00     0.033 C 
ATOM     28  C   UNL     1      16.932 -23.237 -45.360  1.00  0.00     0.009 C 
ENDBRANCH  24  27
ENDBRANCH  18  21
ENDBRANCH  15  17
ENDBRANCH  12  13
ENDBRANCH   1  12
TORSDOF 9
ENDMDL
MODEL 5
REMARK VINA RESULT:    -6.887      2.392     10.448
REMARK INTER + INTRA:         -11.060
REMARK INTER:                 -10.552
REMARK INTRA:                  -0.508
REMARK UNBOUND:                -0.549
REMARK SMILES CCCNc1nnc(SCC(=O)NNC(=O)c2cc(CC)c(C)s2)s1
REMARK SMILES IDX 9 1 8 2 5 3 6 4 25 5 7 6 4 7 3 9 2 10 1 11 10 12 11 13 12 14
REMARK SMILES IDX 13 15 14 17 15 18 16 19 17 21 18 22 24 23 19 24 22 25 23 26
REMARK SMILES IDX 20 27 21 28
REMARK H PARENT 4 8 13 16 14 20
ROOT
ATOM      1  S   UNL     1      12.099 -23.519 -49.127  1.00  0.00    -0.084 SA
ENDROOT
BRANCH   1   2
ATOM      2  C   UNL     1      12.582 -23.248 -47.472  1.00  0.00     0.176 A 
ATOM      3  C   UNL     1      13.544 -23.180 -45.298  1.00  0.00     0.206 A 
ATOM      4  N   UNL     1      12.284 -22.789 -45.315  1.00  0.00    -0.119 NA
ATOM      5  S   UNL     1      14.146 -23.562 -46.872  1.00  0.00    -0.069 S 
ATOM      6  N   UNL     1      11.719 -22.843 -46.569  1.00  0.00    -0.130 NA
BRANCH   3   7
ATOM      7  N   UNL     1      14.267 -23.245 -44.150  1.00  0.00    -0.360 N 
ATOM      8  H   UNL     1      13.686 -23.129 -43.322  1.00  0.00     0.162 HD
BRANCH   7   9
ATOM      9  C   UNL     1      15.329 -24.224 -43.968  1.00  0.00     0.115 C 
BRANCH   9  10
ATOM     10  C   UNL     1      15.809 -24.252 -42.516  1.00  0.00     0.018 C 
ATOM     11  C   UNL     1      14.685 -23.916 -41.550  1.00  0.00     0.006 C 
ENDBRANCH   9  10
ENDBRANCH   7   9
ENDBRANCH   3   7
ENDBRANCH   1   2
BRANCH   1  12
ATOM     12  C   UNL     1      11.279 -21.927 -49.455  1.00  0.00     0.179 C 
BRANCH  12  13
ATOM     13  C   UNL     1      12.315 -20.864 -49.770  1.00  0.00     0.248 C 
ATOM     14  O   UNL     1      12.781 -20.110 -48.914  1.00  0.00    -0.272 OA
ATOM     15  N   UNL     1      12.718 -20.814 -51.094  1.00  0.00    -0.267 N 
ATOM     16  H   UNL     1      12.631 -21.647 -51.689  1.00  0.00     0.191 HD
BRANCH  15  17
ATOM     17  N   UNL     1      13.842 -20.009 -51.369  1.00  0.00    -0.263 N 
ATOM     18  C   UNL     1      13.922 -19.361 -52.590  1.00  0.00     0.279 C 
ATOM     19  O   UNL     1      12.943 -19.281 -53.333  1.00  0.00    -0.266 OA
ATOM     20  H   UNL     1      14.683 -20.207 -50.828  1.00  0.00     0.191 HD
BRANCH  18  21
ATOM     21  C   UNL     1      15.223 -18.805 -52.936  1.00  0.00     0.094 A 
ATOM     22  C   UNL     1      15.622 -17.491 -52.784  1.00  0.00     0.029 A 
ATOM     23  S   UNL     1      16.470 -19.742 -53.631  1.00  0.00    -0.135 S 
ATOM     24  C   UNL     1      16.957 -17.243 -53.246  1.00  0.00    -0.034 A 
ATOM     25  C   UNL     1      17.530 -18.404 -53.741  1.00  0.00     0.005 A 
ATOM     26  C   UNL     1      18.897 -18.593 -54.314  1.00  0.00     0.056 C 
BRANCH  24  27
ATOM     27  C   UNL     1      17.618 -15.894 -53.188  1.00  0.00     0.033 C 
ATOM     28  C   UNL     1      18.769 -15.857 -52.196  1.00  0.00     0.009 C 
ENDBRANCH  24  27
ENDBRANCH  18  21
ENDBRANCH  15  17
ENDBRANCH  12  13
ENDBRANCH   1  12
TORSDOF 9
ENDMDL
MODEL 6
REMARK VINA RESULT:    -6.752      3.991      5.294
REMARK INTER + INTRA:         -10.853
REMARK INTER:                 -10.052
REMARK INTRA:                  -0.801
REMARK UNBOUND:                -0.549
REMARK SMILES CCCNc1nnc(SCC(=O)NNC(=O)c2cc(CC)c(C)s2)s1
REMARK SMILES IDX 9 1 8 2 5 3 6 4 25 5 7 6 4 7 3 9 2 10 1 11 10 12 11 13 12 14
REMARK SMILES IDX 13 15 14 17 15 18 16 19 17 21 18 22 24 23 19 24 22 25 23 26
REMARK SMILES IDX 20 27 21 28
REMARK H PARENT 4 8 13 16 14 20
ROOT
ATOM      1  S   UNL     1      13.020 -20.950 -47.751  1.00  0.00    -0.084 SA
ENDROOT
BRANCH   1   2
ATOM      2  C   UNL     1      11.851 -22.204 -48.077  1.00  0.00     0.176 A 
ATOM      3  C   UNL     1      10.118 -23.645 -48.836  1.00  0.00     0.206 A 
ATOM      4  N   UNL     1      10.452 -23.861 -47.578  1.00  0.00    -0.119 NA
ATOM      5  S   UNL     1      11.084 -22.424 -49.584  1.00  0.00    -0.069 S 
ATOM      6  N   UNL     1      11.443 -23.018 -47.131  1.00  0.00    -0.130 NA
BRANCH   3   7
ATOM      7  N   UNL     1       9.126 -24.341 -49.452  1.00  0.00    -0.360 N 
ATOM      8  H   UNL     1       9.365 -25.323 -49.577  1.00  0.00     0.162 HD
BRANCH   7   9
ATOM      9  C   UNL     1       7.724 -24.133 -49.119  1.00  0.00     0.115 C 
BRANCH   9  10
ATOM     10  C   UNL     1       6.877 -23.971 -50.382  1.00  0.00     0.018 C 
ATOM     11  C   UNL     1       7.196 -22.674 -51.107  1.00  0.00     0.006 C 
ENDBRANCH   9  10
ENDBRANCH   7   9
ENDBRANCH   3   7
ENDBRANCH   1   2
BRANCH   1  12
ATOM     12  C   UNL     1      14.549 -21.910 -47.986  1.00  0.00     0.179 C 
BRANCH  12  13
ATOM     13  C   UNL     1      14.818 -22.767 -46.762  1.00  0.00     0.248 C 
ATOM     14  O   UNL     1      15.457 -23.818 -46.808  1.00  0.00    -0.272 OA
ATOM     15  N   UNL     1      14.307 -22.266 -45.576  1.00  0.00    -0.267 N 
ATOM     16  H   UNL     1      14.130 -21.260 -45.476  1.00  0.00     0.191 HD
BRANCH  15  17
ATOM     17  N   UNL     1      14.740 -22.907 -44.396  1.00  0.00    -0.263 N 
ATOM     18  C   UNL     1      13.863 -23.739 -43.721  1.00  0.00     0.279 C 
ATOM     19  O   UNL     1      12.813 -24.113 -44.245  1.00  0.00    -0.266 OA
ATOM     20  H   UNL     1      15.527 -22.476 -43.912  1.00  0.00     0.191 HD
BRANCH  18  21
ATOM     21  C   UNL     1      14.252 -24.119 -42.370  1.00  0.00     0.094 A 
ATOM     22  C   UNL     1      13.404 -24.337 -41.301  1.00  0.00     0.029 A 
ATOM     23  S   UNL     1      15.882 -24.327 -41.905  1.00  0.00    -0.135 S 
ATOM     24  C   UNL     1      14.090 -24.671 -40.087  1.00  0.00    -0.034 A 
ATOM     25  C   UNL     1      15.461 -24.692 -40.287  1.00  0.00     0.005 A 
ATOM     26  C   UNL     1      16.539 -24.994 -39.297  1.00  0.00     0.056 C 
BRANCH  24  27
ATOM     27  C   UNL     1      13.388 -24.952 -38.788  1.00  0.00     0.033 C 
ATOM     28  C   UNL     1      13.487 -23.789 -37.814  1.00  0.00     0.009 C 
ENDBRANCH  24  27
ENDBRANCH  18  21
ENDBRANCH  15  17
ENDBRANCH  12  13
ENDBRANCH   1  12
TORSDOF 9
ENDMDL
MODEL 7
REMARK VINA RESULT:    -6.550      5.372      6.754
REMARK INTER + INTRA:         -10.545
REMARK INTER:                  -9.729
REMARK INTRA:                  -0.816
REMARK UNBOUND:                -0.549
REMARK SMILES CCCNc1nnc(SCC(=O)NNC(=O)c2cc(CC)c(C)s2)s1
REMARK SMILES IDX 9 1 8 2 5 3 6 4 25 5 7 6 4 7 3 9 2 10 1 11 10 12 11 13 12 14
REMARK SMILES IDX 13 15 14 17 15 18 16 19 17 21 18 22 24 23 19 24 22 25 23 26
REMARK SMILES IDX 20 27 21 28
REMARK H PARENT 4 8 13 16 14 20
ROOT
ATOM      1  S   UNL     1      10.845 -23.328 -49.131  1.00  0.00    -0.084 SA
ENDROOT
BRANCH   1   2
ATOM      2  C   UNL     1       9.130 -23.621 -49.258  1.00  0.00     0.176 A 
ATOM      3  C   UNL     1       6.816 -23.768 -49.787  1.00  0.00     0.206 A 
ATOM      4  N   UNL     1       7.065 -23.973 -48.508  1.00  0.00    -0.119 NA
ATOM      5  S   UNL     1       8.252 -23.520 -50.716  1.00  0.00    -0.069 S 
ATOM      6  N   UNL     1       8.401 -23.872 -48.196  1.00  0.00    -0.130 NA
BRANCH   3   7
ATOM      7  N   UNL     1       5.553 -23.777 -50.290  1.00  0.00    -0.360 N 
ATOM      8  H   UNL     1       5.537 -23.996 -51.285  1.00  0.00     0.162 HD
BRANCH   7   9
ATOM      9  C   UNL     1       4.441 -24.365 -49.559  1.00  0.00     0.115 C 
BRANCH   9  10
ATOM     10  C   UNL     1       3.665 -23.297 -48.786  1.00  0.00     0.018 C 
ATOM     11  C   UNL     1       3.372 -22.083 -49.652  1.00  0.00     0.006 C 
ENDBRANCH   9  10
ENDBRANCH   7   9
ENDBRANCH   3   7
ENDBRANCH   1   2
BRANCH   1  12
ATOM     12  C   UNL     1      11.425 -25.049 -48.997  1.00  0.00     0.179 C 
BRANCH  12  13
ATOM     13  C   UNL     1      11.924 -25.321 -47.590  1.00  0.00     0.248 C 
ATOM     14  O   UNL     1      12.999 -25.874 -47.356  1.00  0.00    -0.272 OA
ATOM     15  N   UNL     1      11.086 -24.883 -46.579  1.00  0.00    -0.267 N 
ATOM     16  H   UNL     1      10.422 -24.119 -46.756  1.00  0.00     0.191 HD
BRANCH  15  17
ATOM     17  N   UNL     1      11.624 -24.904 -45.276  1.00  0.00    -0.263 N 
ATOM     18  C   UNL     1      12.278 -23.781 -44.798  1.00  0.00     0.279 C 
ATOM     19  O   UNL     1      12.194 -22.700 -45.385  1.00  0.00    -0.266 OA
ATOM     20  H   UNL     1      11.815 -25.825 -44.881  1.00  0.00     0.191 HD
BRANCH  18  21
ATOM     21  C   UNL     1      13.069 -23.964 -43.590  1.00  0.00     0.094 A 
ATOM     22  C   UNL     1      12.634 -24.516 -42.399  1.00  0.00     0.029 A 
ATOM     23  S   UNL     1      14.700 -23.475 -43.472  1.00  0.00    -0.135 S 
ATOM     24  C   UNL     1      13.641 -24.533 -41.377  1.00  0.00    -0.034 A 
ATOM     25  C   UNL     1      14.824 -23.982 -41.843  1.00  0.00     0.005 A 
ATOM     26  C   UNL     1      16.116 -23.807 -41.114  1.00  0.00     0.056 C 
BRANCH  24  27
ATOM     27  C   UNL     1      13.411 -25.081 -39.997  1.00  0.00     0.033 C 
ATOM     28  C   UNL     1      13.182 -23.983 -38.970  1.00  0.00     0.009 C 
ENDBRANCH  24  27
ENDBRANCH  18  21
ENDBRANCH  15  17
ENDBRANCH  12  13
ENDBRANCH   1  12
TORSDOF 9
ENDMDL
MODEL 8
REMARK VINA RESULT:    -6.393      4.746      9.956
REMARK INTER + INTRA:         -10.305
REMARK INTER:                  -9.486
REMARK INTRA:                  -0.819
REMARK UNBOUND:                -0.549
REMARK SMILES CCCNc1nnc(SCC(=O)NNC(=O)c2cc(CC)c(C)s2)s1
REMARK SMILES IDX 9 1 8 2 5 3 6 4 25 5 7 6 4 7 3 9 2 10 1 11 10 12 11 13 12 14
REMARK SMILES IDX 13 15 14 17 15 18 16 19 17 21 18 22 24 23 19 24 22 25 23 26
REMARK SMILES IDX 20 27 21 28
REMARK H PARENT 4 8 13 16 14 20
ROOT
ATOM      1  S   UNL     1      16.073 -21.984 -44.327  1.00  0.00    -0.084 SA
ENDROOT
BRANCH   1   2
ATOM      2  C   UNL     1      16.019 -23.008 -42.915  1.00  0.00     0.176 A 
ATOM      3  C   UNL     1      15.536 -24.488 -41.118  1.00  0.00     0.206 A 
ATOM      4  N   UNL     1      16.491 -23.625 -40.831  1.00  0.00    -0.119 NA
ATOM      5  S   UNL     1      14.962 -24.334 -42.741  1.00  0.00    -0.069 S 
ATOM      6  N   UNL     1      16.762 -22.756 -41.863  1.00  0.00    -0.130 NA
BRANCH   3   7
ATOM      7  N   UNL     1      15.088 -25.400 -40.216  1.00  0.00    -0.360 N 
ATOM      8  H   UNL     1      15.705 -25.478 -39.408  1.00  0.00     0.162 HD
BRANCH   7   9
ATOM      9  C   UNL     1      13.679 -25.506 -39.869  1.00  0.00     0.115 C 
BRANCH   9  10
ATOM     10  C   UNL     1      13.156 -24.192 -39.286  1.00  0.00     0.018 C 
ATOM     11  C   UNL     1      13.626 -23.988 -37.856  1.00  0.00     0.006 C 
ENDBRANCH   9  10
ENDBRANCH   7   9
ENDBRANCH   3   7
ENDBRANCH   1   2
BRANCH   1  12
ATOM     12  C   UNL     1      16.744 -23.178 -45.527  1.00  0.00     0.179 C 
BRANCH  12  13
ATOM     13  C   UNL     1      15.646 -23.647 -46.463  1.00  0.00     0.248 C 
ATOM     14  O   UNL     1      15.372 -24.836 -46.630  1.00  0.00    -0.272 OA
ATOM     15  N   UNL     1      14.955 -22.635 -47.107  1.00  0.00    -0.267 N 
ATOM     16  H   UNL     1      14.919 -21.694 -46.695  1.00  0.00     0.191 HD
BRANCH  15  17
ATOM     17  N   UNL     1      13.785 -23.022 -47.791  1.00  0.00    -0.263 N 
ATOM     18  C   UNL     1      12.563 -22.918 -47.149  1.00  0.00     0.279 C 
ATOM     19  O   UNL     1      12.450 -22.282 -46.099  1.00  0.00    -0.266 OA
ATOM     20  H   UNL     1      13.910 -23.669 -48.570  1.00  0.00     0.191 HD
BRANCH  18  21
ATOM     21  C   UNL     1      11.446 -23.609 -47.777  1.00  0.00     0.094 A 
ATOM     22  C   UNL     1      10.950 -23.384 -49.047  1.00  0.00     0.029 A 
ATOM     23  S   UNL     1      10.549 -24.824 -46.981  1.00  0.00    -0.135 S 
ATOM     24  C   UNL     1       9.820 -24.206 -49.372  1.00  0.00    -0.034 A 
ATOM     25  C   UNL     1       9.498 -25.040 -48.314  1.00  0.00     0.005 A 
ATOM     26  C   UNL     1       8.400 -26.050 -48.229  1.00  0.00     0.056 C 
BRANCH  24  27
ATOM     27  C   UNL     1       9.104 -24.146 -50.693  1.00  0.00     0.033 C 
ATOM     28  C   UNL     1       8.375 -22.827 -50.894  1.00  0.00     0.009 C 
ENDBRANCH  24  27
ENDBRANCH  18  21
ENDBRANCH  15  17
ENDBRANCH  12  13
ENDBRANCH   1  12
TORSDOF 9
ENDMDL
MODEL 9
REMARK VINA RESULT:    -6.205      4.662      6.443
REMARK INTER + INTRA:         -10.019
REMARK INTER:                  -9.306
REMARK INTRA:                  -0.713
REMARK UNBOUND:                -0.549
REMARK SMILES CCCNc1nnc(SCC(=O)NNC(=O)c2cc(CC)c(C)s2)s1
REMARK SMILES IDX 9 1 8 2 5 3 6 4 25 5 7 6 4 7 3 9 2 10 1 11 10 12 11 13 12 14
REMARK SMILES IDX 13 15 14 17 15 18 16 19 17 21 18 22 24 23 19 24 22 25 23 26
REMARK SMILES IDX 20 27 21 28
REMARK H PARENT 4 8 13 16 14 20
ROOT
ATOM      1  S   UNL     1      10.732 -23.669 -50.585  1.00  0.00    -0.084 SA
ENDROOT
BRANCH   1   2
ATOM      2  C   UNL     1       9.022 -23.324 -50.593  1.00  0.00     0.176 A 
ATOM      3  C   UNL     1       6.646 -23.278 -50.512  1.00  0.00     0.206 A 
ATOM      4  N   UNL     1       7.154 -22.312 -51.254  1.00  0.00    -0.119 NA
ATOM      5  S   UNL     1       7.859 -24.253 -49.761  1.00  0.00    -0.069 S 
ATOM      6  N   UNL     1       8.528 -22.346 -51.316  1.00  0.00    -0.130 NA
BRANCH   3   7
ATOM      7  N   UNL     1       5.306 -23.448 -50.362  1.00  0.00    -0.360 N 
ATOM      8  H   UNL     1       5.080 -24.048 -49.570  1.00  0.00     0.162 HD
BRANCH   7   9
ATOM      9  C   UNL     1       4.371 -22.344 -50.525  1.00  0.00     0.115 C 
BRANCH   9  10
ATOM     10  C   UNL     1       3.412 -22.604 -51.689  1.00  0.00     0.018 C 
ATOM     11  C   UNL     1       3.915 -21.977 -52.978  1.00  0.00     0.006 C 
ENDBRANCH   9  10
ENDBRANCH   7   9
ENDBRANCH   3   7
ENDBRANCH   1   2
BRANCH   1  12
ATOM     12  C   UNL     1      11.337 -22.128 -49.827  1.00  0.00     0.179 C 
BRANCH  12  13
ATOM     13  C   UNL     1      11.526 -22.322 -48.334  1.00  0.00     0.248 C 
ATOM     14  O   UNL     1      10.840 -23.099 -47.669  1.00  0.00    -0.272 OA
ATOM     15  N   UNL     1      12.545 -21.573 -47.772  1.00  0.00    -0.267 N 
ATOM     16  H   UNL     1      13.325 -21.246 -48.355  1.00  0.00     0.191 HD
BRANCH  15  17
ATOM     17  N   UNL     1      12.901 -21.905 -46.448  1.00  0.00    -0.263 N 
ATOM     18  C   UNL     1      14.149 -22.452 -46.203  1.00  0.00     0.279 C 
ATOM     19  O   UNL     1      15.030 -22.433 -47.063  1.00  0.00    -0.266 OA
ATOM     20  H   UNL     1      12.129 -22.056 -45.798  1.00  0.00     0.191 HD
BRANCH  18  21
ATOM     21  C   UNL     1      14.339 -23.051 -44.890  1.00  0.00     0.094 A 
ATOM     22  C   UNL     1      13.345 -23.470 -44.025  1.00  0.00     0.029 A 
ATOM     23  S   UNL     1      15.883 -23.301 -44.206  1.00  0.00    -0.135 S 
ATOM     24  C   UNL     1      13.848 -23.993 -42.788  1.00  0.00    -0.034 A 
ATOM     25  C   UNL     1      15.233 -23.950 -42.762  1.00  0.00     0.005 A 
ATOM     26  C   UNL     1      16.155 -24.395 -41.675  1.00  0.00     0.056 C 
BRANCH  24  27
ATOM     27  C   UNL     1      12.965 -24.511 -41.687  1.00  0.00     0.033 C 
ATOM     28  C   UNL     1      12.760 -26.015 -41.771  1.00  0.00     0.009 C 
ENDBRANCH  24  27
ENDBRANCH  18  21
ENDBRANCH  15  17
ENDBRANCH  12  13
ENDBRANCH   1  12
TORSDOF 9
ENDMDL
