REMARK SMILES COc1ccc(/C=[NH+]/[N-]c2n[nH]c(SCC(=O)Nc3nnc[n-]3)n2)cc1OC
REMARK SMILES IDX 10 1 11 2 12 3 13 4 24 5 9 7 8 8 7 9 6 11 3 12 4 13 26 14
REMARK SMILES IDX 5 15 25 16 2 17 1 18 27 19 28 20 14 21 15 22 16 23 17 24
REMARK SMILES IDX 18 25 19 27 20 28 23 29 21 30 22 31
REMARK H PARENT 12 6 8 10 18 26
ROOT
ATOM      1  C   UNL     1      -0.299  -2.561  -2.385  1.00  0.00     0.109 A 
ATOM      2  N   UNL     1      -0.397  -3.184  -3.567  1.00  0.00    -0.291 NA
ATOM      3  N   UNL     1       0.401  -2.425  -4.337  1.00  0.00    -0.328 N 
ATOM      4  C   UNL     1       0.987  -1.441  -3.610  1.00  0.00     0.100 A 
ATOM      5  N   UNL     1       0.586  -1.508  -2.364  1.00  0.00    -0.331 NA
ATOM      6  H   UNL     1       0.491  -2.625  -5.323  1.00  0.00     0.174 HD
ENDROOT
BRANCH   1   7
ATOM      7  N   UNL     1      -1.019  -2.986  -1.299  1.00  0.00    -0.122 NA
BRANCH   7   8
ATOM      8  N   UNL     1      -1.039  -1.993  -0.189  1.00  0.00    -0.164 N 
ATOM      9  C   UNL     1      -1.054  -2.409   1.025  1.00  0.00     0.329 C 
ATOM     10  H   UNL     1      -1.101  -0.976  -0.418  1.00  0.00     0.473 HD
BRANCH   9  11
ATOM     11  C   UNL     1      -1.012  -1.566   2.231  1.00  0.00     0.043 A 
ATOM     12  C   UNL     1      -0.881  -0.120   4.632  1.00  0.00     0.160 A 
ATOM     13  C   UNL     1      -1.458  -1.395   4.598  1.00  0.00     0.051 A 
ATOM     14  C   UNL     1      -0.343   0.426   3.455  1.00  0.00     0.161 A 
ATOM     15  C   UNL     1      -1.528  -2.116   3.407  1.00  0.00     0.018 A 
ATOM     16  C   UNL     1      -0.404  -0.307   2.259  1.00  0.00     0.064 A 
BRANCH  12  17
ATOM     17  O   UNL     1      -0.884   0.447   5.881  1.00  0.00    -0.493 OA
ATOM     18  C   UNL     1      -0.974   1.867   5.921  1.00  0.00     0.278 C 
ENDBRANCH  12  17
BRANCH  14  19
ATOM     19  O   UNL     1       0.334   1.618   3.524  1.00  0.00    -0.493 OA
ATOM     20  C   UNL     1       0.057   2.510   2.439  1.00  0.00     0.278 C 
ENDBRANCH  14  19
ENDBRANCH   9  11
ENDBRANCH   7   8
ENDBRANCH   1   7
BRANCH   4  21
ATOM     21  S   UNL     1       2.044  -0.284  -4.322  1.00  0.00    -0.096 SA
BRANCH  21  22
ATOM     22  C   UNL     1       2.525   0.701  -2.871  1.00  0.00     0.164 C 
BRANCH  22  23
ATOM     23  C   UNL     1       1.447   1.696  -2.462  1.00  0.00     0.195 C 
ATOM     24  O   UNL     1       1.577   2.887  -2.731  1.00  0.00    -0.287 OA
ATOM     25  N   UNL     1       0.430   1.096  -1.775  1.00  0.00    -0.359 N 
ATOM     26  H   UNL     1       0.385   0.083  -1.781  1.00  0.00     0.101 HD
BRANCH  25  27
ATOM     27  C   UNL     1      -0.728   1.663  -1.167  1.00  0.00     0.081 A 
ATOM     28  N   UNL     1      -1.034   2.944  -0.950  1.00  0.00    -0.288 NA
ATOM     29  N   UNL     1      -1.630   0.832  -0.630  1.00  0.00    -0.322 NA
ATOM     30  N   UNL     1      -2.253   2.939  -0.315  1.00  0.00    -0.301 NA
ATOM     31  C   UNL     1      -2.607   1.647  -0.194  1.00  0.00     0.096 A 
ENDBRANCH  25  27
ENDBRANCH  22  23
ENDBRANCH  21  22
ENDBRANCH   4  21
TORSDOF 9
