MODEL 1
REMARK VINA RESULT:    -8.456      0.000      0.000
REMARK INTER + INTRA:         -11.268
REMARK INTER:                 -10.186
REMARK INTRA:                  -1.082
REMARK UNBOUND:                -1.082
REMARK SMILES C[C@@H](NC(=O)Nc1ccccc1O)N1C(=O)[C@@H]2[C@@H](C1=O)[C@H]1C=C[C@@H]2C1
REMARK SMILES IDX 7 1 8 2 9 3 10 4 11 5 12 6 6 7 3 8 4 9 5 10 2 13 1 14 14 15
REMARK SMILES IDX 15 16 19 17 16 18 17 19 18 20 20 21 24 22 21 23 23 24 25 25
REMARK SMILES IDX 22 26 13 27
REMARK H PARENT 3 11 6 12 13 28
ROOT
ATOM      1  C   UNL     1      14.293 -22.376 -47.301  1.00  0.00     0.084 A 
ATOM      2  C   UNL     1      14.975 -22.020 -48.480  1.00  0.00     0.030 A 
ATOM      3  C   UNL     1      14.466 -21.059 -49.359  1.00  0.00     0.002 A 
ATOM      4  C   UNL     1      13.261 -20.430 -49.072  1.00  0.00     0.004 A 
ATOM      5  C   UNL     1      12.574 -20.764 -47.909  1.00  0.00     0.048 A 
ATOM      6  C   UNL     1      13.079 -21.728 -47.030  1.00  0.00     0.139 A 
ENDROOT
BRANCH   1   7
ATOM      7  N   UNL     1      14.947 -23.349 -46.506  1.00  0.00    -0.305 N 
ATOM      8  N   UNL     1      16.192 -24.396 -44.929  1.00  0.00    -0.317 N 
ATOM      9  C   UNL     1      15.653 -23.203 -45.343  1.00  0.00     0.320 C 
ATOM     10  O   UNL     1      15.791 -22.163 -44.713  1.00  0.00    -0.248 OA
ATOM     11  H   UNL     1      16.418 -25.066 -45.654  1.00  0.00     0.167 HD
ATOM     12  H   UNL     1      14.793 -24.309 -46.780  1.00  0.00     0.172 HD
BRANCH   8  13
ATOM     13  C   UNL     1      17.056 -24.457 -43.767  1.00  0.00     0.188 C 
ATOM     14  C   UNL     1      18.123 -25.544 -43.929  1.00  0.00     0.056 C 
BRANCH  13  15
ATOM     15  N   UNL     1      16.279 -24.683 -42.567  1.00  0.00    -0.261 N 
ATOM     16  C   UNL     1      16.278 -23.841 -41.453  1.00  0.00     0.235 C 
ATOM     17  C   UNL     1      15.204 -25.577 -42.533  1.00  0.00     0.235 C 
ATOM     18  O   UNL     1      16.864 -22.786 -41.295  1.00  0.00    -0.274 OA
ATOM     19  C   UNL     1      15.475 -24.609 -40.457  1.00  0.00     0.099 C 
ATOM     20  C   UNL     1      14.362 -25.046 -41.421  1.00  0.00     0.099 C 
ATOM     21  O   UNL     1      14.916 -26.461 -43.316  1.00  0.00    -0.274 OA
ATOM     22  C   UNL     1      14.682 -24.298 -39.188  1.00  0.00     0.025 C 
ATOM     23  C   UNL     1      13.273 -25.529 -40.480  1.00  0.00     0.025 C 
ATOM     24  C   UNL     1      14.544 -25.679 -38.549  1.00  0.00    -0.027 C 
ATOM     25  C   UNL     1      13.212 -24.212 -39.645  1.00  0.00     0.017 C 
ATOM     26  C   UNL     1      13.768 -26.423 -39.362  1.00  0.00    -0.027 C 
ENDBRANCH  13  15
ENDBRANCH   8  13
ENDBRANCH   1   7
BRANCH   6  27
ATOM     27  O   UNL     1      12.292 -21.936 -45.934  1.00  0.00    -0.506 OA
ATOM     28  H   UNL     1      12.568 -21.322 -45.223  1.00  0.00     0.293 HD
ENDBRANCH   6  27
TORSDOF 4
ENDMDL
MODEL 2
REMARK VINA RESULT:    -7.904      1.538      2.445
REMARK INTER + INTRA:         -10.602
REMARK INTER:                 -10.606
REMARK INTRA:                   0.004
REMARK UNBOUND:                -1.082
REMARK SMILES C[C@@H](NC(=O)Nc1ccccc1O)N1C(=O)[C@@H]2[C@@H](C1=O)[C@H]1C=C[C@@H]2C1
REMARK SMILES IDX 7 1 8 2 9 3 10 4 11 5 12 6 6 7 3 8 4 9 5 10 2 13 1 14 14 15
REMARK SMILES IDX 15 16 19 17 16 18 17 19 18 20 20 21 24 22 21 23 23 24 25 25
REMARK SMILES IDX 22 26 13 27
REMARK H PARENT 3 11 6 12 13 28
ROOT
ATOM      1  C   UNL     1      12.827 -21.640 -47.921  1.00  0.00     0.084 A 
ATOM      2  C   UNL     1      13.777 -20.829 -48.569  1.00  0.00     0.030 A 
ATOM      3  C   UNL     1      13.589 -20.386 -49.883  1.00  0.00     0.002 A 
ATOM      4  C   UNL     1      12.438 -20.745 -50.574  1.00  0.00     0.004 A 
ATOM      5  C   UNL     1      11.483 -21.542 -49.949  1.00  0.00     0.048 A 
ATOM      6  C   UNL     1      11.672 -21.990 -48.636  1.00  0.00     0.139 A 
ENDROOT
BRANCH   1   7
ATOM      7  N   UNL     1      13.153 -21.988 -46.588  1.00  0.00    -0.305 N 
ATOM      8  N   UNL     1      14.220 -22.699 -44.720  1.00  0.00    -0.317 N 
ATOM      9  C   UNL     1      14.347 -22.383 -46.050  1.00  0.00     0.320 C 
ATOM     10  O   UNL     1      15.417 -22.442 -46.642  1.00  0.00    -0.248 OA
ATOM     11  H   UNL     1      13.317 -23.046 -44.422  1.00  0.00     0.167 HD
ATOM     12  H   UNL     1      12.424 -21.829 -45.906  1.00  0.00     0.172 HD
BRANCH   8  13
ATOM     13  C   UNL     1      15.342 -23.231 -43.972  1.00  0.00     0.188 C 
ATOM     14  C   UNL     1      15.962 -24.434 -44.689  1.00  0.00     0.056 C 
BRANCH  13  15
ATOM     15  N   UNL     1      14.934 -23.594 -42.632  1.00  0.00    -0.261 N 
ATOM     16  C   UNL     1      13.819 -24.377 -42.327  1.00  0.00     0.235 C 
ATOM     17  C   UNL     1      15.794 -23.481 -41.535  1.00  0.00     0.235 C 
ATOM     18  O   UNL     1      13.038 -24.918 -43.088  1.00  0.00    -0.274 OA
ATOM     19  C   UNL     1      13.752 -24.295 -40.839  1.00  0.00     0.099 C 
ATOM     20  C   UNL     1      15.252 -24.491 -40.579  1.00  0.00     0.099 C 
ATOM     21  O   UNL     1      16.831 -22.856 -41.435  1.00  0.00    -0.274 OA
ATOM     22  C   UNL     1      13.131 -25.112 -39.705  1.00  0.00     0.025 C 
ATOM     23  C   UNL     1      15.299 -24.799 -39.094  1.00  0.00     0.025 C 
ATOM     24  C   UNL     1      13.153 -24.118 -38.544  1.00  0.00    -0.027 C 
ATOM     25  C   UNL     1      14.282 -25.981 -39.162  1.00  0.00     0.017 C 
ATOM     26  C   UNL     1      14.446 -23.883 -38.241  1.00  0.00    -0.027 C 
ENDBRANCH  13  15
ENDBRANCH   8  13
ENDBRANCH   1   7
BRANCH   6  27
ATOM     27  O   UNL     1      10.644 -22.754 -48.166  1.00  0.00    -0.506 OA
ATOM     28  H   UNL     1      10.318 -22.368 -47.327  1.00  0.00     0.293 HD
ENDBRANCH   6  27
TORSDOF 4
ENDMDL
MODEL 3
REMARK VINA RESULT:    -7.323      4.053      6.441
REMARK INTER + INTRA:          -9.903
REMARK INTER:                  -8.988
REMARK INTRA:                  -0.915
REMARK UNBOUND:                -1.082
REMARK SMILES C[C@@H](NC(=O)Nc1ccccc1O)N1C(=O)[C@@H]2[C@@H](C1=O)[C@H]1C=C[C@@H]2C1
REMARK SMILES IDX 7 1 8 2 9 3 10 4 11 5 12 6 6 7 3 8 4 9 5 10 2 13 1 14 14 15
REMARK SMILES IDX 15 16 19 17 16 18 17 19 18 20 20 21 24 22 21 23 23 24 25 25
REMARK SMILES IDX 22 26 13 27
REMARK H PARENT 3 11 6 12 13 28
ROOT
ATOM      1  C   UNL     1      10.163 -23.441 -51.626  1.00  0.00     0.084 A 
ATOM      2  C   UNL     1      10.686 -24.368 -52.548  1.00  0.00     0.030 A 
ATOM      3  C   UNL     1       9.859 -25.074 -53.426  1.00  0.00     0.002 A 
ATOM      4  C   UNL     1       8.486 -24.863 -53.403  1.00  0.00     0.004 A 
ATOM      5  C   UNL     1       7.949 -23.947 -52.503  1.00  0.00     0.048 A 
ATOM      6  C   UNL     1       8.774 -23.242 -51.619  1.00  0.00     0.139 A 
ENDROOT
BRANCH   1   7
ATOM      7  N   UNL     1      11.130 -22.793 -50.820  1.00  0.00    -0.305 N 
ATOM      8  N   UNL     1      12.241 -21.841 -49.090  1.00  0.00    -0.317 N 
ATOM      9  C   UNL     1      11.147 -22.580 -49.469  1.00  0.00     0.320 C 
ATOM     10  O   UNL     1      10.322 -22.994 -48.666  1.00  0.00    -0.248 OA
ATOM     11  H   UNL     1      12.608 -21.193 -49.775  1.00  0.00     0.167 HD
ATOM     12  H   UNL     1      11.984 -22.531 -51.292  1.00  0.00     0.172 HD
BRANCH   8  13
ATOM     13  C   UNL     1      12.412 -21.419 -47.715  1.00  0.00     0.188 C 
ATOM     14  C   UNL     1      12.796 -19.938 -47.635  1.00  0.00     0.056 C 
BRANCH  13  15
ATOM     15  N   UNL     1      13.405 -22.237 -47.051  1.00  0.00    -0.261 N 
ATOM     16  C   UNL     1      14.717 -22.410 -47.498  1.00  0.00     0.235 C 
ATOM     17  C   UNL     1      13.255 -22.664 -45.728  1.00  0.00     0.235 C 
ATOM     18  O   UNL     1      15.269 -21.900 -48.455  1.00  0.00    -0.274 OA
ATOM     19  C   UNL     1      15.244 -23.462 -46.580  1.00  0.00     0.099 C 
ATOM     20  C   UNL     1      14.664 -22.879 -45.283  1.00  0.00     0.099 C 
ATOM     21  O   UNL     1      12.255 -22.688 -45.038  1.00  0.00    -0.274 OA
ATOM     22  C   UNL     1      16.617 -23.948 -46.115  1.00  0.00     0.025 C 
ATOM     23  C   UNL     1      15.420 -23.635 -44.207  1.00  0.00     0.025 C 
ATOM     24  C   UNL     1      16.291 -25.323 -45.534  1.00  0.00    -0.027 C 
ATOM     25  C   UNL     1      16.838 -23.272 -44.747  1.00  0.00     0.017 C 
ATOM     26  C   UNL     1      15.518 -25.127 -44.446  1.00  0.00    -0.027 C 
ENDBRANCH  13  15
ENDBRANCH   8  13
ENDBRANCH   1   7
BRANCH   6  27
ATOM     27  O   UNL     1       8.096 -22.379 -50.808  1.00  0.00    -0.506 OA
ATOM     28  H   UNL     1       8.436 -22.468 -49.894  1.00  0.00     0.293 HD
ENDBRANCH   6  27
TORSDOF 4
ENDMDL
MODEL 4
REMARK VINA RESULT:    -7.161      6.134      9.213
REMARK INTER + INTRA:          -9.707
REMARK INTER:                  -8.911
REMARK INTRA:                  -0.796
REMARK UNBOUND:                -1.082
REMARK SMILES C[C@@H](NC(=O)Nc1ccccc1O)N1C(=O)[C@@H]2[C@@H](C1=O)[C@H]1C=C[C@@H]2C1
REMARK SMILES IDX 7 1 8 2 9 3 10 4 11 5 12 6 6 7 3 8 4 9 5 10 2 13 1 14 14 15
REMARK SMILES IDX 15 16 19 17 16 18 17 19 18 20 20 21 24 22 21 23 23 24 25 25
REMARK SMILES IDX 22 26 13 27
REMARK H PARENT 3 11 6 12 13 28
ROOT
ATOM      1  C   UNL     1       5.713 -23.444 -50.449  1.00  0.00     0.084 A 
ATOM      2  C   UNL     1       4.985 -23.989 -49.374  1.00  0.00     0.030 A 
ATOM      3  C   UNL     1       3.627 -23.710 -49.193  1.00  0.00     0.002 A 
ATOM      4  C   UNL     1       2.965 -22.882 -50.091  1.00  0.00     0.004 A 
ATOM      5  C   UNL     1       3.665 -22.338 -51.165  1.00  0.00     0.048 A 
ATOM      6  C   UNL     1       5.026 -22.612 -51.345  1.00  0.00     0.139 A 
ENDROOT
BRANCH   1   7
ATOM      7  N   UNL     1       7.072 -23.836 -50.506  1.00  0.00    -0.305 N 
ATOM      8  N   UNL     1       9.305 -23.910 -50.884  1.00  0.00    -0.317 N 
ATOM      9  C   UNL     1       8.172 -23.135 -50.919  1.00  0.00     0.320 C 
ATOM     10  O   UNL     1       8.187 -21.961 -51.263  1.00  0.00    -0.248 OA
ATOM     11  H   UNL     1       9.177 -24.905 -51.023  1.00  0.00     0.167 HD
ATOM     12  H   UNL     1       7.284 -24.732 -50.090  1.00  0.00     0.172 HD
BRANCH   8  13
ATOM     13  C   UNL     1      10.571 -23.397 -51.367  1.00  0.00     0.188 C 
ATOM     14  C   UNL     1      11.178 -24.328 -52.421  1.00  0.00     0.056 C 
BRANCH  13  15
ATOM     15  N   UNL     1      11.494 -23.204 -50.269  1.00  0.00    -0.261 N 
ATOM     16  C   UNL     1      11.915 -21.959 -49.798  1.00  0.00     0.235 C 
ATOM     17  C   UNL     1      11.792 -24.222 -49.358  1.00  0.00     0.235 C 
ATOM     18  O   UNL     1      11.576 -20.850 -50.166  1.00  0.00    -0.274 OA
ATOM     19  C   UNL     1      12.971 -22.319 -48.807  1.00  0.00     0.099 C 
ATOM     20  C   UNL     1      12.207 -23.470 -48.138  1.00  0.00     0.099 C 
ATOM     21  O   UNL     1      11.599 -25.418 -49.455  1.00  0.00    -0.274 OA
ATOM     22  C   UNL     1      13.646 -21.655 -47.606  1.00  0.00     0.025 C 
ATOM     23  C   UNL     1      13.000 -23.705 -46.865  1.00  0.00     0.025 C 
ATOM     24  C   UNL     1      14.901 -22.508 -47.430  1.00  0.00    -0.027 C 
ATOM     25  C   UNL     1      12.919 -22.226 -46.373  1.00  0.00     0.017 C 
ATOM     26  C   UNL     1      14.501 -23.742 -47.064  1.00  0.00    -0.027 C 
ENDBRANCH  13  15
ENDBRANCH   8  13
ENDBRANCH   1   7
BRANCH   6  27
ATOM     27  O   UNL     1       5.564 -22.010 -52.446  1.00  0.00    -0.506 OA
ATOM     28  H   UNL     1       5.650 -22.673 -53.160  1.00  0.00     0.293 HD
ENDBRANCH   6  27
TORSDOF 4
ENDMDL
MODEL 5
REMARK VINA RESULT:    -7.122      3.517      8.551
REMARK INTER + INTRA:          -9.661
REMARK INTER:                  -9.311
REMARK INTRA:                  -0.350
REMARK UNBOUND:                -1.082
REMARK SMILES C[C@@H](NC(=O)Nc1ccccc1O)N1C(=O)[C@@H]2[C@@H](C1=O)[C@H]1C=C[C@@H]2C1
REMARK SMILES IDX 7 1 8 2 9 3 10 4 11 5 12 6 6 7 3 8 4 9 5 10 2 13 1 14 14 15
REMARK SMILES IDX 15 16 19 17 16 18 17 19 18 20 20 21 24 22 21 23 23 24 25 25
REMARK SMILES IDX 22 26 13 27
REMARK H PARENT 3 11 6 12 13 28
ROOT
ATOM      1  C   UNL     1      14.515 -23.066 -43.631  1.00  0.00     0.084 A 
ATOM      2  C   UNL     1      13.934 -23.984 -42.735  1.00  0.00     0.030 A 
ATOM      3  C   UNL     1      14.627 -24.452 -41.614  1.00  0.00     0.002 A 
ATOM      4  C   UNL     1      15.919 -24.005 -41.364  1.00  0.00     0.004 A 
ATOM      5  C   UNL     1      16.509 -23.094 -42.235  1.00  0.00     0.048 A 
ATOM      6  C   UNL     1      15.819 -22.628 -43.360  1.00  0.00     0.139 A 
ENDROOT
BRANCH   1   7
ATOM      7  N   UNL     1      13.679 -22.674 -44.705  1.00  0.00    -0.305 N 
ATOM      8  N   UNL     1      12.870 -22.123 -46.748  1.00  0.00    -0.317 N 
ATOM      9  C   UNL     1      13.932 -22.641 -46.048  1.00  0.00     0.320 C 
ATOM     10  O   UNL     1      14.954 -23.033 -46.597  1.00  0.00    -0.248 OA
ATOM     11  H   UNL     1      12.291 -21.451 -46.260  1.00  0.00     0.167 HD
ATOM     12  H   UNL     1      12.718 -22.479 -44.459  1.00  0.00     0.172 HD
BRANCH   8  13
ATOM     13  C   UNL     1      12.956 -21.911 -48.179  1.00  0.00     0.188 C 
ATOM     14  C   UNL     1      13.192 -20.433 -48.505  1.00  0.00     0.056 C 
BRANCH  13  15
ATOM     15  N   UNL     1      11.759 -22.391 -48.837  1.00  0.00    -0.261 N 
ATOM     16  C   UNL     1      11.496 -22.256 -50.202  1.00  0.00     0.235 C 
ATOM     17  C   UNL     1      10.906 -23.326 -48.243  1.00  0.00     0.235 C 
ATOM     18  O   UNL     1      12.202 -21.775 -51.069  1.00  0.00    -0.274 OA
ATOM     19  C   UNL     1      10.091 -22.742 -50.319  1.00  0.00     0.099 C 
ATOM     20  C   UNL     1      10.248 -23.973 -49.416  1.00  0.00     0.099 C 
ATOM     21  O   UNL     1      10.834 -23.667 -47.078  1.00  0.00    -0.274 OA
ATOM     22  C   UNL     1       9.188 -23.284 -51.428  1.00  0.00     0.025 C 
ATOM     23  C   UNL     1       9.001 -24.780 -49.726  1.00  0.00     0.025 C 
ATOM     24  C   UNL     1       7.797 -23.127 -50.815  1.00  0.00    -0.027 C 
ATOM     25  C   UNL     1       9.235 -24.816 -51.269  1.00  0.00     0.017 C 
ATOM     26  C   UNL     1       7.725 -23.965 -49.762  1.00  0.00    -0.027 C 
ENDBRANCH  13  15
ENDBRANCH   8  13
ENDBRANCH   1   7
BRANCH   6  27
ATOM     27  O   UNL     1      16.531 -21.735 -44.107  1.00  0.00    -0.506 OA
ATOM     28  H   UNL     1      16.191 -21.746 -45.025  1.00  0.00     0.293 HD
ENDBRANCH   6  27
TORSDOF 4
ENDMDL
MODEL 6
REMARK VINA RESULT:    -7.076      2.199      2.374
REMARK INTER + INTRA:          -9.606
REMARK INTER:                  -9.143
REMARK INTRA:                  -0.462
REMARK UNBOUND:                -1.082
REMARK SMILES C[C@@H](NC(=O)Nc1ccccc1O)N1C(=O)[C@@H]2[C@@H](C1=O)[C@H]1C=C[C@@H]2C1
REMARK SMILES IDX 7 1 8 2 9 3 10 4 11 5 12 6 6 7 3 8 4 9 5 10 2 13 1 14 14 15
REMARK SMILES IDX 15 16 19 17 16 18 17 19 18 20 20 21 24 22 21 23 23 24 25 25
REMARK SMILES IDX 22 26 13 27
REMARK H PARENT 3 11 6 12 13 28
ROOT
ATOM      1  C   UNL     1      11.915 -23.580 -48.295  1.00  0.00     0.084 A 
ATOM      2  C   UNL     1      11.789 -24.738 -49.084  1.00  0.00     0.030 A 
ATOM      3  C   UNL     1      11.279 -24.686 -50.386  1.00  0.00     0.002 A 
ATOM      4  C   UNL     1      10.889 -23.467 -50.926  1.00  0.00     0.004 A 
ATOM      5  C   UNL     1      11.011 -22.309 -50.164  1.00  0.00     0.048 A 
ATOM      6  C   UNL     1      11.516 -22.360 -48.859  1.00  0.00     0.139 A 
ENDROOT
BRANCH   1   7
ATOM      7  N   UNL     1      12.465 -23.795 -47.008  1.00  0.00    -0.305 N 
ATOM      8  N   UNL     1      13.873 -23.970 -45.241  1.00  0.00    -0.317 N 
ATOM      9  C   UNL     1      13.726 -23.546 -46.539  1.00  0.00     0.320 C 
ATOM     10  O   UNL     1      14.629 -23.001 -47.160  1.00  0.00    -0.248 OA
ATOM     11  H   UNL     1      13.302 -24.755 -44.954  1.00  0.00     0.167 HD
ATOM     12  H   UNL     1      11.808 -24.084 -46.297  1.00  0.00     0.172 HD
BRANCH   8  13
ATOM     13  C   UNL     1      15.157 -23.889 -44.575  1.00  0.00     0.188 C 
ATOM     14  C   UNL     1      16.189 -24.796 -45.252  1.00  0.00     0.056 C 
BRANCH  13  15
ATOM     15  N   UNL     1      15.025 -24.228 -43.174  1.00  0.00    -0.261 N 
ATOM     16  C   UNL     1      15.736 -23.616 -42.139  1.00  0.00     0.235 C 
ATOM     17  C   UNL     1      13.939 -24.960 -42.683  1.00  0.00     0.235 C 
ATOM     18  O   UNL     1      16.531 -22.697 -42.202  1.00  0.00    -0.274 OA
ATOM     19  C   UNL     1      15.370 -24.441 -40.951  1.00  0.00     0.099 C 
ATOM     20  C   UNL     1      13.868 -24.538 -41.254  1.00  0.00     0.099 C 
ATOM     21  O   UNL     1      13.133 -25.637 -43.292  1.00  0.00    -0.274 OA
ATOM     22  C   UNL     1      15.370 -24.268 -39.432  1.00  0.00     0.025 C 
ATOM     23  C   UNL     1      13.292 -25.038 -39.942  1.00  0.00     0.025 C 
ATOM     24  C   UNL     1      15.271 -25.712 -38.944  1.00  0.00    -0.027 C 
ATOM     25  C   UNL     1      13.916 -23.902 -39.071  1.00  0.00     0.017 C 
ATOM     26  C   UNL     1      14.064 -26.182 -39.318  1.00  0.00    -0.027 C 
ENDBRANCH  13  15
ENDBRANCH   8  13
ENDBRANCH   1   7
BRANCH   6  27
ATOM     27  O   UNL     1      11.578 -21.140 -48.249  1.00  0.00    -0.506 OA
ATOM     28  H   UNL     1      12.481 -21.008 -47.895  1.00  0.00     0.293 HD
ENDBRANCH   6  27
TORSDOF 4
ENDMDL
MODEL 7
REMARK VINA RESULT:    -6.934      2.807      7.821
REMARK INTER + INTRA:          -9.435
REMARK INTER:                  -8.498
REMARK INTRA:                  -0.937
REMARK UNBOUND:                -1.082
REMARK SMILES C[C@@H](NC(=O)Nc1ccccc1O)N1C(=O)[C@@H]2[C@@H](C1=O)[C@H]1C=C[C@@H]2C1
REMARK SMILES IDX 7 1 8 2 9 3 10 4 11 5 12 6 6 7 3 8 4 9 5 10 2 13 1 14 14 15
REMARK SMILES IDX 15 16 19 17 16 18 17 19 18 20 20 21 24 22 21 23 23 24 25 25
REMARK SMILES IDX 22 26 13 27
REMARK H PARENT 3 11 6 12 13 28
ROOT
ATOM      1  C   UNL     1      14.491 -24.161 -41.237  1.00  0.00     0.084 A 
ATOM      2  C   UNL     1      13.355 -24.199 -40.406  1.00  0.00     0.030 A 
ATOM      3  C   UNL     1      13.443 -24.575 -39.062  1.00  0.00     0.002 A 
ATOM      4  C   UNL     1      14.675 -24.918 -38.520  1.00  0.00     0.004 A 
ATOM      5  C   UNL     1      15.812 -24.882 -39.323  1.00  0.00     0.048 A 
ATOM      6  C   UNL     1      15.725 -24.510 -40.670  1.00  0.00     0.139 A 
ENDROOT
BRANCH   1   7
ATOM      7  N   UNL     1      14.242 -23.741 -42.566  1.00  0.00    -0.305 N 
ATOM      8  N   UNL     1      14.224 -23.547 -44.824  1.00  0.00    -0.317 N 
ATOM      9  C   UNL     1      14.602 -24.319 -43.752  1.00  0.00     0.320 C 
ATOM     10  O   UNL     1      15.172 -25.394 -43.884  1.00  0.00    -0.248 OA
ATOM     11  H   UNL     1      14.175 -22.548 -44.667  1.00  0.00     0.167 HD
ATOM     12  H   UNL     1      13.623 -22.948 -42.662  1.00  0.00     0.172 HD
BRANCH   8  13
ATOM     13  C   UNL     1      14.586 -23.924 -46.175  1.00  0.00     0.188 C 
ATOM     14  C   UNL     1      15.505 -22.878 -46.812  1.00  0.00     0.056 C 
BRANCH  13  15
ATOM     15  N   UNL     1      13.401 -24.118 -46.984  1.00  0.00    -0.261 N 
ATOM     16  C   UNL     1      13.051 -25.320 -47.602  1.00  0.00     0.235 C 
ATOM     17  C   UNL     1      12.323 -23.227 -46.952  1.00  0.00     0.235 C 
ATOM     18  O   UNL     1      13.618 -26.396 -47.551  1.00  0.00    -0.274 OA
ATOM     19  C   UNL     1      11.875 -24.935 -48.435  1.00  0.00     0.099 C 
ATOM     20  C   UNL     1      11.172 -24.079 -47.372  1.00  0.00     0.099 C 
ATOM     21  O   UNL     1      12.279 -22.092 -46.521  1.00  0.00    -0.274 OA
ATOM     22  C   UNL     1      10.692 -25.649 -49.091  1.00  0.00     0.025 C 
ATOM     23  C   UNL     1       9.776 -23.913 -47.943  1.00  0.00     0.025 C 
ATOM     24  C   UNL     1      10.215 -24.613 -50.108  1.00  0.00    -0.027 C 
ATOM     25  C   UNL     1       9.513 -25.441 -48.121  1.00  0.00     0.017 C 
ATOM     26  C   UNL     1       9.743 -23.557 -49.415  1.00  0.00    -0.027 C 
ENDBRANCH  13  15
ENDBRANCH   8  13
ENDBRANCH   1   7
BRANCH   6  27
ATOM     27  O   UNL     1      16.927 -24.517 -41.317  1.00  0.00    -0.506 OA
ATOM     28  H   UNL     1      17.001 -25.342 -41.840  1.00  0.00     0.293 HD
ENDBRANCH   6  27
TORSDOF 4
ENDMDL
MODEL 8
REMARK VINA RESULT:    -6.775      6.564      9.654
REMARK INTER + INTRA:          -9.242
REMARK INTER:                  -8.333
REMARK INTRA:                  -0.909
REMARK UNBOUND:                -1.082
REMARK SMILES C[C@@H](NC(=O)Nc1ccccc1O)N1C(=O)[C@@H]2[C@@H](C1=O)[C@H]1C=C[C@@H]2C1
REMARK SMILES IDX 7 1 8 2 9 3 10 4 11 5 12 6 6 7 3 8 4 9 5 10 2 13 1 14 14 15
REMARK SMILES IDX 15 16 19 17 16 18 17 19 18 20 20 21 24 22 21 23 23 24 25 25
REMARK SMILES IDX 22 26 13 27
REMARK H PARENT 3 11 6 12 13 28
ROOT
ATOM      1  C   UNL     1       4.799 -23.735 -50.281  1.00  0.00     0.084 A 
ATOM      2  C   UNL     1       4.195 -23.928 -51.538  1.00  0.00     0.030 A 
ATOM      3  C   UNL     1       2.825 -23.724 -51.732  1.00  0.00     0.002 A 
ATOM      4  C   UNL     1       2.030 -23.316 -50.668  1.00  0.00     0.004 A 
ATOM      5  C   UNL     1       2.609 -23.114 -49.418  1.00  0.00     0.048 A 
ATOM      6  C   UNL     1       3.979 -23.322 -49.221  1.00  0.00     0.139 A 
ENDROOT
BRANCH   1   7
ATOM      7  N   UNL     1       6.196 -23.963 -50.251  1.00  0.00    -0.305 N 
ATOM      8  N   UNL     1       8.441 -23.773 -50.494  1.00  0.00    -0.317 N 
ATOM      9  C   UNL     1       7.228 -23.139 -50.605  1.00  0.00     0.320 C 
ATOM     10  O   UNL     1       7.126 -21.972 -50.962  1.00  0.00    -0.248 OA
ATOM     11  H   UNL     1       8.440 -24.777 -50.628  1.00  0.00     0.167 HD
ATOM     12  H   UNL     1       6.486 -24.826 -49.813  1.00  0.00     0.172 HD
BRANCH   8  13
ATOM     13  C   UNL     1       9.664 -23.116 -50.905  1.00  0.00     0.188 C 
ATOM     14  C   UNL     1      10.303 -23.834 -52.098  1.00  0.00     0.056 C 
BRANCH  13  15
ATOM     15  N   UNL     1      10.597 -23.038 -49.801  1.00  0.00    -0.261 N 
ATOM     16  C   UNL     1      10.909 -24.101 -48.951  1.00  0.00     0.235 C 
ATOM     17  C   UNL     1      11.523 -21.998 -49.679  1.00  0.00     0.235 C 
ATOM     18  O   UNL     1      10.516 -25.252 -48.995  1.00  0.00    -0.274 OA
ATOM     19  C   UNL     1      11.755 -23.454 -47.906  1.00  0.00     0.099 C 
ATOM     20  C   UNL     1      12.611 -22.612 -48.863  1.00  0.00     0.099 C 
ATOM     21  O   UNL     1      11.543 -20.919 -50.239  1.00  0.00    -0.274 OA
ATOM     22  C   UNL     1      12.791 -23.903 -46.876  1.00  0.00     0.025 C 
ATOM     23  C   UNL     1      13.766 -22.172 -47.981  1.00  0.00     0.025 C 
ATOM     24  C   UNL     1      12.840 -22.707 -45.926  1.00  0.00    -0.027 C 
ATOM     25  C   UNL     1      14.156 -23.614 -47.529  1.00  0.00     0.017 C 
ATOM     26  C   UNL     1      13.349 -21.666 -46.615  1.00  0.00    -0.027 C 
ENDBRANCH  13  15
ENDBRANCH   8  13
ENDBRANCH   1   7
BRANCH   6  27
ATOM     27  O   UNL     1       4.391 -23.075 -47.943  1.00  0.00    -0.506 OA
ATOM     28  H   UNL     1       4.250 -23.878 -47.402  1.00  0.00     0.293 HD
ENDBRANCH   6  27
TORSDOF 4
ENDMDL
