REMARK SMILES COC(=O)c1c(C)[nH]c(C(=O)OCC(=O)Nc2cc3c(cc2[N+](=O)[O-])OCC(=O)N3)c1C
REMARK SMILES IDX 12 1 10 2 11 3 9 4 5 5 6 6 31 7 8 8 7 9 32 10 3 12 4 13 2 14
REMARK SMILES IDX 1 15 13 16 14 17 15 18 16 19 17 21 18 22 22 23 19 24 21 25
REMARK SMILES IDX 20 26 30 27 26 28 28 29 27 30 29 31 23 33 24 34 25 35
REMARK H PARENT 8 11 16 20 30 32
ROOT
ATOM      1  O   UNL     1      -1.653   0.148  -2.248  1.00  0.00    -0.451 OA
ENDROOT
BRANCH   1   2
ATOM      2  C   UNL     1      -2.025  -0.708  -3.235  1.00  0.00     0.355 C 
ATOM      3  O   UNL     1      -2.198  -0.385  -4.404  1.00  0.00    -0.244 OA
BRANCH   2   4
ATOM      4  C   UNL     1      -2.148  -2.062  -2.741  1.00  0.00     0.129 A 
ATOM      5  C   UNL     1      -2.250  -4.062  -1.620  1.00  0.00     0.084 A 
ATOM      6  C   UNL     1      -2.298  -4.305  -2.987  1.00  0.00     0.027 A 
ATOM      7  C   UNL     1      -2.203  -2.621  -1.463  1.00  0.00    -0.004 A 
ATOM      8  N   UNL     1      -2.257  -3.103  -3.635  1.00  0.00    -0.352 N 
ATOM      9  C   UNL     1      -2.373  -5.584  -3.746  1.00  0.00     0.065 C 
ATOM     10  C   UNL     1      -2.218  -1.895  -0.157  1.00  0.00     0.048 C 
ATOM     11  H   UNL     1      -2.272  -2.975  -4.640  1.00  0.00     0.166 HD
BRANCH   5  12
ATOM     12  C   UNL     1      -2.254  -5.119  -0.596  1.00  0.00     0.339 C 
ATOM     13  O   UNL     1      -2.445  -6.304  -0.848  1.00  0.00    -0.246 OA
BRANCH  12  14
ATOM     14  O   UNL     1      -2.005  -4.646   0.660  1.00  0.00    -0.465 OA
ATOM     15  C   UNL     1      -1.976  -5.655   1.669  1.00  0.00     0.282 C 
ENDBRANCH  12  14
ENDBRANCH   5  12
ENDBRANCH   2   4
ENDBRANCH   1   2
BRANCH   1  16
ATOM     16  C   UNL     1      -1.538   1.505  -2.679  1.00  0.00     0.333 C 
BRANCH  16  17
ATOM     17  C   UNL     1      -0.998   2.382  -1.550  1.00  0.00     0.262 C 
ATOM     18  O   UNL     1      -1.263   3.579  -1.498  1.00  0.00    -0.271 OA
ATOM     19  N   UNL     1      -0.177   1.688  -0.676  1.00  0.00    -0.317 N 
ATOM     20  H   UNL     1      -0.066   0.695  -0.901  1.00  0.00     0.170 HD
BRANCH  19  21
ATOM     21  C   UNL     1       0.536   2.169   0.452  1.00  0.00     0.122 A 
ATOM     22  C   UNL     1       0.483   3.520   0.830  1.00  0.00     0.063 A 
ATOM     23  C   UNL     1       1.326   1.302   1.244  1.00  0.00     0.296 A 
ATOM     24  C   UNL     1       1.193   3.989   1.942  1.00  0.00     0.086 A 
ATOM     25  C   UNL     1       2.034   1.775   2.364  1.00  0.00     0.136 A 
ATOM     26  C   UNL     1       1.969   3.121   2.706  1.00  0.00     0.150 A 
ATOM     27  N   UNL     1       1.099   5.335   2.290  1.00  0.00    -0.320 N 
ATOM     28  O   UNL     1       2.666   3.494   3.818  1.00  0.00    -0.481 OA
ATOM     29  C   UNL     1       1.796   5.860   3.341  1.00  0.00     0.262 C 
ATOM     30  C   UNL     1       2.740   4.892   4.053  1.00  0.00     0.329 C 
ATOM     31  O   UNL     1       1.688   7.043   3.654  1.00  0.00    -0.271 OA
ATOM     32  H   UNL     1       0.500   5.970   1.777  1.00  0.00     0.170 HD
BRANCH  23  33
ATOM     33  N   UNL     1       1.434  -0.131   0.942  1.00  0.00     0.065 N 
ATOM     34  O   UNL     1       1.175  -0.501  -0.214  1.00  0.00    -0.258 OA
ATOM     35  O   UNL     1       1.769  -0.892   1.860  1.00  0.00    -0.258 OA
ENDBRANCH  23  33
ENDBRANCH  19  21
ENDBRANCH  16  17
ENDBRANCH   1  16
TORSDOF 8
