REMARK SMILES CS(=O)(=O)Cc1ccc(C(=O)OCC(=O)NC(=O)NC[C@@H]2COc3ccccc3O2)cc1
REMARK SMILES IDX 10 1 11 2 9 3 6 4 7 5 32 6 8 7 31 8 5 9 2 10 3 11 4 12 1 13
REMARK SMILES IDX 12 14 13 15 14 16 15 17 16 18 17 19 18 20 19 21 20 24 21 25
REMARK SMILES IDX 22 26 30 27 23 28 29 29 24 30 28 31 25 32 27 33 26 34
REMARK H PARENT 16 22 19 23
ROOT
ATOM      1  C   UNL     1      -0.876   0.888   2.674  1.00  0.00     0.338 C 
ATOM      2  O   UNL     1      -1.790   1.632   2.363  1.00  0.00    -0.246 OA
ENDROOT
BRANCH   1   3
ATOM      3  C   UNL     1       0.538   1.330   2.802  1.00  0.00     0.060 A 
ATOM      4  C   UNL     1       3.187   2.271   3.015  1.00  0.00    -0.033 A 
ATOM      5  C   UNL     1       2.873   0.939   3.324  1.00  0.00     0.005 A 
ATOM      6  C   UNL     1       2.160   3.124   2.586  1.00  0.00     0.005 A 
ATOM      7  C   UNL     1       1.559   0.472   3.225  1.00  0.00     0.016 A 
ATOM      8  C   UNL     1       0.846   2.658   2.484  1.00  0.00     0.016 A 
BRANCH   4   9
ATOM      9  C   UNL     1       4.601   2.778   3.125  1.00  0.00     0.172 C 
BRANCH   9  10
ATOM     10  S   UNL     1       5.097   2.977   4.835  1.00  0.00     0.151 S 
ATOM     11  O   UNL     1       6.317   3.764   4.833  1.00  0.00    -0.229 OA
ATOM     12  O   UNL     1       5.074   1.681   5.488  1.00  0.00    -0.229 OA
ATOM     13  C   UNL     1       3.831   3.986   5.573  1.00  0.00     0.158 C 
ENDBRANCH   9  10
ENDBRANCH   4   9
ENDBRANCH   1   3
BRANCH   1  14
ATOM     14  O   UNL     1      -0.988  -0.445   2.903  1.00  0.00    -0.452 OA
BRANCH  14  15
ATOM     15  C   UNL     1      -2.330  -0.946   2.906  1.00  0.00     0.333 C 
BRANCH  15  16
ATOM     16  C   UNL     1      -2.869  -1.350   1.533  1.00  0.00     0.266 C 
ATOM     17  O   UNL     1      -4.068  -1.534   1.345  1.00  0.00    -0.271 OA
ATOM     18  N   UNL     1      -1.905  -1.421   0.551  1.00  0.00    -0.275 N 
ATOM     19  C   UNL     1      -1.799  -2.542  -0.230  1.00  0.00     0.321 C 
ATOM     20  O   UNL     1      -2.464  -3.563  -0.124  1.00  0.00    -0.248 OA
ATOM     21  N   UNL     1      -0.773  -2.407  -1.145  1.00  0.00    -0.334 N 
ATOM     22  H   UNL     1      -0.994  -1.083   0.822  1.00  0.00     0.174 HD
ATOM     23  H   UNL     1      -0.657  -1.467  -1.503  1.00  0.00     0.165 HD
BRANCH  21  24
ATOM     24  C   UNL     1      -0.548  -3.461  -2.128  1.00  0.00     0.166 C 
BRANCH  24  25
ATOM     25  C   UNL     1      -1.556  -3.405  -3.283  1.00  0.00     0.230 C 
ATOM     26  C   UNL     1      -1.369  -4.601  -4.213  1.00  0.00     0.276 C 
ATOM     27  O   UNL     1      -1.313  -2.179  -4.004  1.00  0.00    -0.481 OA
ATOM     28  O   UNL     1      -2.332  -4.581  -5.273  1.00  0.00    -0.486 OA
ATOM     29  C   UNL     1      -1.951  -2.175  -5.218  1.00  0.00     0.161 A 
ATOM     30  C   UNL     1      -2.452  -3.332  -5.823  1.00  0.00     0.161 A 
ATOM     31  C   UNL     1      -2.079  -0.942  -5.855  1.00  0.00     0.050 A 
ATOM     32  C   UNL     1      -3.118  -3.247  -7.044  1.00  0.00     0.050 A 
ATOM     33  C   UNL     1      -2.736  -0.860  -7.084  1.00  0.00     0.004 A 
ATOM     34  C   UNL     1      -3.259  -2.011  -7.676  1.00  0.00     0.004 A 
ENDBRANCH  24  25
ENDBRANCH  21  24
ENDBRANCH  15  16
ENDBRANCH  14  15
ENDBRANCH   1  14
TORSDOF 8
