REMARK SMILES Cc1noc(-c2ccc(C(=O)Nc3ccc4[nH]c(=O)[nH]c4c3)cc2)n1
REMARK SMILES IDX 6 1 7 2 8 3 9 4 23 5 24 6 5 7 2 8 3 9 25 10 4 11 1 12 10 13
REMARK SMILES IDX 11 14 12 15 13 17 14 18 22 19 15 20 21 21 16 22 20 23 17 24
REMARK SMILES IDX 18 25 19 26
REMARK H PARENT 12 16 20 27 17 28
ROOT
ATOM      1  C   UNL     1       2.173   2.675  -0.369  1.00  0.00     0.040 A 
ATOM      2  C   UNL     1       1.135   2.842   0.560  1.00  0.00     0.014 A 
ATOM      3  C   UNL     1       0.262   1.788   0.852  1.00  0.00     0.014 A 
ATOM      4  C   UNL     1       0.421   0.545   0.229  1.00  0.00     0.040 A 
ATOM      5  C   UNL     1       1.441   0.371  -0.713  1.00  0.00     0.014 A 
ATOM      6  C   UNL     1       2.310   1.429  -1.003  1.00  0.00     0.014 A 
ENDROOT
BRANCH   1   7
ATOM      7  C   UNL     1       3.101   3.752  -0.698  1.00  0.00     0.257 A 
ATOM      8  C   UNL     1       4.590   5.040  -1.403  1.00  0.00     0.169 A 
ATOM      9  N   UNL     1       3.919   5.806  -0.534  1.00  0.00    -0.062 NA
ATOM     10  N   UNL     1       4.118   3.759  -1.533  1.00  0.00    -0.192 NA
ATOM     11  O   UNL     1       2.923   4.950  -0.061  1.00  0.00    -0.334 OA
ATOM     12  C   UNL     1       5.752   5.540  -2.161  1.00  0.00     0.093 C 
ENDBRANCH   1   7
BRANCH   4  13
ATOM     13  C   UNL     1      -0.533  -0.549   0.568  1.00  0.00     0.255 C 
ATOM     14  O   UNL     1      -1.691  -0.247   0.829  1.00  0.00    -0.269 OA
ATOM     15  N   UNL     1       0.018  -1.818   0.589  1.00  0.00    -0.322 N 
ATOM     16  H   UNL     1       1.022  -1.884   0.484  1.00  0.00     0.170 HD
BRANCH  15  17
ATOM     17  C   UNL     1      -0.653  -3.036   0.839  1.00  0.00     0.043 A 
ATOM     18  C   UNL     1       0.152  -4.205   0.895  1.00  0.00     0.028 A 
ATOM     19  C   UNL     1      -2.039  -3.132   1.016  1.00  0.00     0.054 A 
ATOM     20  C   UNL     1      -0.399  -5.472   1.130  1.00  0.00     0.030 A 
ATOM     21  C   UNL     1      -2.556  -4.387   1.246  1.00  0.00     0.068 A 
ATOM     22  C   UNL     1      -1.759  -5.526   1.302  1.00  0.00     0.066 A 
ATOM     23  N   UNL     1      -3.875  -4.778   1.455  1.00  0.00    -0.306 N 
ATOM     24  N   UNL     1      -2.585  -6.617   1.546  1.00  0.00    -0.306 N 
ATOM     25  C   UNL     1      -3.910  -6.166   1.645  1.00  0.00     0.323 C 
ATOM     26  O   UNL     1      -4.895  -6.851   1.855  1.00  0.00    -0.248 OA
ATOM     27  H   UNL     1      -4.688  -4.184   1.476  1.00  0.00     0.171 HD
ATOM     28  H   UNL     1      -2.315  -7.582   1.643  1.00  0.00     0.171 HD
ENDBRANCH  15  17
ENDBRANCH   4  13
TORSDOF 3
