MODEL 1
REMARK VINA RESULT:    -8.724      0.000      0.000
REMARK INTER + INTRA:         -12.780
REMARK INTER:                 -12.039
REMARK INTRA:                  -0.740
REMARK UNBOUND:                -0.740
REMARK SMILES CCNC(=O)[C@H](C)OC(=O)c1ccc(-c2nc(N)c3c(C)c(C)sc3n2)cc1
REMARK SMILES IDX 9 1 10 2 8 3 6 4 7 5 4 6 3 7 5 8 2 10 1 11 11 12 12 13 28 14
REMARK SMILES IDX 13 15 27 16 14 17 15 18 16 19 26 20 17 21 25 22 19 23 24 24
REMARK SMILES IDX 20 25 22 26 21 27 23 28 18 29
REMARK H PARENT 3 9 18 30 18 31
ROOT
ATOM      1  C   UNL     1      12.966 -20.924 -50.206  1.00  0.00     0.338 C 
ATOM      2  O   UNL     1      11.804 -20.824 -50.561  1.00  0.00    -0.246 OA
ENDROOT
BRANCH   1   3
ATOM      3  O   UNL     1      14.053 -20.605 -50.948  1.00  0.00    -0.449 OA
BRANCH   3   4
ATOM      4  C   UNL     1      13.846 -19.597 -51.956  1.00  0.00     0.262 C 
ATOM      5  C   UNL     1      14.168 -18.224 -51.382  1.00  0.00     0.064 C 
BRANCH   4   6
ATOM      6  C   UNL     1      14.759 -19.934 -53.145  1.00  0.00     0.260 C 
ATOM      7  N   UNL     1      15.902 -19.150 -53.193  1.00  0.00    -0.353 N 
ATOM      8  O   UNL     1      14.534 -20.837 -53.944  1.00  0.00    -0.271 OA
ATOM      9  H   UNL     1      15.843 -18.267 -52.699  1.00  0.00     0.163 HD
BRANCH   7  10
ATOM     10  C   UNL     1      16.809 -19.242 -54.316  1.00  0.00     0.112 C 
ATOM     11  C   UNL     1      18.023 -20.085 -53.977  1.00  0.00     0.027 C 
ENDBRANCH   7  10
ENDBRANCH   4   6
ENDBRANCH   3   4
ENDBRANCH   1   3
BRANCH   1  12
ATOM     12  C   UNL     1      13.380 -21.449 -48.876  1.00  0.00     0.060 A 
ATOM     13  C   UNL     1      14.683 -21.874 -48.607  1.00  0.00     0.016 A 
ATOM     14  C   UNL     1      12.420 -21.513 -47.862  1.00  0.00     0.016 A 
ATOM     15  C   UNL     1      15.017 -22.363 -47.337  1.00  0.00     0.013 A 
ATOM     16  C   UNL     1      12.761 -22.003 -46.595  1.00  0.00     0.013 A 
ATOM     17  C   UNL     1      14.066 -22.442 -46.298  1.00  0.00     0.019 A 
BRANCH  17  18
ATOM     18  C   UNL     1      14.424 -22.961 -44.958  1.00  0.00     0.163 A 
ATOM     19  N   UNL     1      15.713 -22.852 -44.579  1.00  0.00    -0.211 NA
ATOM     20  N   UNL     1      13.442 -23.508 -44.232  1.00  0.00    -0.217 NA
ATOM     21  C   UNL     1      16.090 -23.302 -43.370  1.00  0.00     0.136 A 
ATOM     22  C   UNL     1      13.850 -23.941 -43.030  1.00  0.00     0.130 A 
ATOM     23  C   UNL     1      15.133 -23.877 -42.513  1.00  0.00     0.057 A 
ATOM     24  S   UNL     1      12.742 -24.662 -41.967  1.00  0.00    -0.120 S 
ATOM     25  C   UNL     1      15.179 -24.423 -41.165  1.00  0.00    -0.024 A 
ATOM     26  C   UNL     1      13.936 -24.898 -40.767  1.00  0.00     0.007 A 
ATOM     27  C   UNL     1      16.408 -24.459 -40.312  1.00  0.00     0.046 C 
ATOM     28  C   UNL     1      13.555 -25.541 -39.473  1.00  0.00     0.057 C 
BRANCH  21  29
ATOM     29  N   UNL     1      17.441 -23.174 -43.071  1.00  0.00    -0.383 N 
ATOM     30  H   UNL     1      17.607 -22.283 -42.615  1.00  0.00     0.158 HD
ATOM     31  H   UNL     1      18.062 -23.380 -43.841  1.00  0.00     0.158 HD
ENDBRANCH  21  29
ENDBRANCH  17  18
ENDBRANCH   1  12
TORSDOF 7
ENDMDL
MODEL 2
REMARK VINA RESULT:    -8.186      1.229      2.002
REMARK INTER + INTRA:         -12.037
REMARK INTER:                 -11.333
REMARK INTRA:                  -0.703
REMARK UNBOUND:                -0.740
REMARK SMILES CCNC(=O)[C@H](C)OC(=O)c1ccc(-c2nc(N)c3c(C)c(C)sc3n2)cc1
REMARK SMILES IDX 9 1 10 2 8 3 6 4 7 5 4 6 3 7 5 8 2 10 1 11 11 12 12 13 28 14
REMARK SMILES IDX 13 15 27 16 14 17 15 18 16 19 26 20 17 21 25 22 19 23 24 24
REMARK SMILES IDX 20 25 22 26 21 27 23 28 18 29
REMARK H PARENT 3 9 18 30 18 31
ROOT
ATOM      1  C   UNL     1      12.977 -20.647 -50.159  1.00  0.00     0.338 C 
ATOM      2  O   UNL     1      11.837 -20.329 -50.454  1.00  0.00    -0.246 OA
ENDROOT
BRANCH   1   3
ATOM      3  O   UNL     1      14.078 -20.445 -50.920  1.00  0.00    -0.449 OA
BRANCH   3   4
ATOM      4  C   UNL     1      13.929 -19.498 -51.995  1.00  0.00     0.262 C 
ATOM      5  C   UNL     1      14.267 -18.100 -51.497  1.00  0.00     0.064 C 
BRANCH   4   6
ATOM      6  C   UNL     1      14.871 -19.930 -53.129  1.00  0.00     0.260 C 
ATOM      7  N   UNL     1      16.006 -19.139 -53.225  1.00  0.00    -0.353 N 
ATOM      8  O   UNL     1      14.673 -20.904 -53.848  1.00  0.00    -0.271 OA
ATOM      9  H   UNL     1      15.927 -18.216 -52.814  1.00  0.00     0.163 HD
BRANCH   7  10
ATOM     10  C   UNL     1      16.938 -19.320 -54.316  1.00  0.00     0.112 C 
ATOM     11  C   UNL     1      18.112 -20.187 -53.901  1.00  0.00     0.027 C 
ENDBRANCH   7  10
ENDBRANCH   4   6
ENDBRANCH   3   4
ENDBRANCH   1   3
BRANCH   1  12
ATOM     12  C   UNL     1      13.338 -21.344 -48.895  1.00  0.00     0.060 A 
ATOM     13  C   UNL     1      14.634 -21.791 -48.625  1.00  0.00     0.016 A 
ATOM     14  C   UNL     1      12.335 -21.555 -47.945  1.00  0.00     0.016 A 
ATOM     15  C   UNL     1      14.918 -22.446 -47.419  1.00  0.00     0.013 A 
ATOM     16  C   UNL     1      12.626 -22.210 -46.741  1.00  0.00     0.013 A 
ATOM     17  C   UNL     1      13.923 -22.674 -46.446  1.00  0.00     0.019 A 
BRANCH  17  18
ATOM     18  C   UNL     1      14.228 -23.368 -45.174  1.00  0.00     0.163 A 
ATOM     19  N   UNL     1      13.187 -23.682 -44.379  1.00  0.00    -0.211 NA
ATOM     20  N   UNL     1      15.515 -23.620 -44.908  1.00  0.00    -0.217 NA
ATOM     21  C   UNL     1      13.408 -24.317 -43.215  1.00  0.00     0.136 A 
ATOM     22  C   UNL     1      15.700 -24.261 -43.745  1.00  0.00     0.130 A 
ATOM     23  C   UNL     1      14.723 -24.652 -42.845  1.00  0.00     0.057 A 
ATOM     24  S   UNL     1      17.268 -24.668 -43.241  1.00  0.00    -0.120 S 
ATOM     25  C   UNL     1      15.310 -25.348 -41.709  1.00  0.00    -0.024 A 
ATOM     26  C   UNL     1      16.695 -25.401 -41.808  1.00  0.00     0.007 A 
ATOM     27  C   UNL     1      14.521 -25.938 -40.583  1.00  0.00     0.046 C 
ATOM     28  C   UNL     1      17.674 -26.010 -40.856  1.00  0.00     0.057 C 
BRANCH  21  29
ATOM     29  N   UNL     1      12.281 -24.578 -42.445  1.00  0.00    -0.383 N 
ATOM     30  H   UNL     1      11.474 -24.696 -43.048  1.00  0.00     0.158 HD
ATOM     31  H   UNL     1      12.145 -23.941 -41.672  1.00  0.00     0.158 HD
ENDBRANCH  21  29
ENDBRANCH  17  18
ENDBRANCH   1  12
TORSDOF 7
ENDMDL
MODEL 3
REMARK VINA RESULT:    -7.567      4.672      9.270
REMARK INTER + INTRA:         -11.182
REMARK INTER:                 -10.665
REMARK INTRA:                  -0.517
REMARK UNBOUND:                -0.740
REMARK SMILES CCNC(=O)[C@H](C)OC(=O)c1ccc(-c2nc(N)c3c(C)c(C)sc3n2)cc1
REMARK SMILES IDX 9 1 10 2 8 3 6 4 7 5 4 6 3 7 5 8 2 10 1 11 11 12 12 13 28 14
REMARK SMILES IDX 13 15 27 16 14 17 15 18 16 19 26 20 17 21 25 22 19 23 24 24
REMARK SMILES IDX 20 25 22 26 21 27 23 28 18 29
REMARK H PARENT 3 9 18 30 18 31
ROOT
ATOM      1  C   UNL     1      17.228 -22.333 -44.130  1.00  0.00     0.338 C 
ATOM      2  O   UNL     1      18.219 -21.775 -44.570  1.00  0.00    -0.246 OA
ENDROOT
BRANCH   1   3
ATOM      3  O   UNL     1      17.110 -22.888 -42.900  1.00  0.00    -0.449 OA
BRANCH   3   4
ATOM      4  C   UNL     1      17.171 -24.326 -42.857  1.00  0.00     0.262 C 
ATOM      5  C   UNL     1      18.596 -24.788 -43.124  1.00  0.00     0.064 C 
BRANCH   4   6
ATOM      6  C   UNL     1      16.691 -24.769 -41.466  1.00  0.00     0.260 C 
ATOM      7  N   UNL     1      15.394 -24.368 -41.184  1.00  0.00    -0.353 N 
ATOM      8  O   UNL     1      17.361 -25.453 -40.699  1.00  0.00    -0.271 OA
ATOM      9  H   UNL     1      15.058 -23.579 -41.724  1.00  0.00     0.163 HD
BRANCH   7  10
ATOM     10  C   UNL     1      14.827 -24.586 -39.871  1.00  0.00     0.112 C 
ATOM     11  C   UNL     1      13.357 -24.214 -39.837  1.00  0.00     0.027 C 
ENDBRANCH   7  10
ENDBRANCH   4   6
ENDBRANCH   3   4
ENDBRANCH   1   3
BRANCH   1  12
ATOM     12  C   UNL     1      15.972 -22.516 -44.907  1.00  0.00     0.060 A 
ATOM     13  C   UNL     1      14.743 -22.783 -44.298  1.00  0.00     0.016 A 
ATOM     14  C   UNL     1      16.033 -22.413 -46.299  1.00  0.00     0.016 A 
ATOM     15  C   UNL     1      13.591 -22.950 -45.079  1.00  0.00     0.013 A 
ATOM     16  C   UNL     1      14.878 -22.581 -47.073  1.00  0.00     0.013 A 
ATOM     17  C   UNL     1      13.627 -22.855 -46.486  1.00  0.00     0.019 A 
BRANCH  17  18
ATOM     18  C   UNL     1      12.407 -23.034 -47.306  1.00  0.00     0.163 A 
ATOM     19  N   UNL     1      12.238 -22.198 -48.349  1.00  0.00    -0.211 NA
ATOM     20  N   UNL     1      11.563 -24.006 -46.942  1.00  0.00    -0.217 NA
ATOM     21  C   UNL     1      11.151 -22.321 -49.129  1.00  0.00     0.136 A 
ATOM     22  C   UNL     1      10.493 -24.107 -47.744  1.00  0.00     0.130 A 
ATOM     23  C   UNL     1      10.205 -23.326 -48.851  1.00  0.00     0.057 A 
ATOM     24  S   UNL     1       9.312 -25.286 -47.440  1.00  0.00    -0.120 S 
ATOM     25  C   UNL     1       8.968 -23.755 -49.484  1.00  0.00    -0.024 A 
ATOM     26  C   UNL     1       8.382 -24.807 -48.790  1.00  0.00     0.007 A 
ATOM     27  C   UNL     1       8.402 -23.147 -50.728  1.00  0.00     0.046 C 
ATOM     28  C   UNL     1       7.108 -25.528 -49.094  1.00  0.00     0.057 C 
BRANCH  21  29
ATOM     29  N   UNL     1      11.042 -21.402 -50.165  1.00  0.00    -0.383 N 
ATOM     30  H   UNL     1      11.862 -21.457 -50.760  1.00  0.00     0.158 HD
ATOM     31  H   UNL     1      10.792 -20.467 -49.872  1.00  0.00     0.158 HD
ENDBRANCH  21  29
ENDBRANCH  17  18
ENDBRANCH   1  12
TORSDOF 7
ENDMDL
MODEL 4
REMARK VINA RESULT:    -7.113      3.016      4.451
REMARK INTER + INTRA:         -10.556
REMARK INTER:                  -9.748
REMARK INTRA:                  -0.808
REMARK UNBOUND:                -0.740
REMARK SMILES CCNC(=O)[C@H](C)OC(=O)c1ccc(-c2nc(N)c3c(C)c(C)sc3n2)cc1
REMARK SMILES IDX 9 1 10 2 8 3 6 4 7 5 4 6 3 7 5 8 2 10 1 11 11 12 12 13 28 14
REMARK SMILES IDX 13 15 27 16 14 17 15 18 16 19 26 20 17 21 25 22 19 23 24 24
REMARK SMILES IDX 20 25 22 26 21 27 23 28 18 29
REMARK H PARENT 3 9 18 30 18 31
ROOT
ATOM      1  C   UNL     1      11.996 -21.910 -50.075  1.00  0.00     0.338 C 
ATOM      2  O   UNL     1      12.579 -21.228 -50.900  1.00  0.00    -0.246 OA
ENDROOT
BRANCH   1   3
ATOM      3  O   UNL     1      10.767 -22.459 -50.224  1.00  0.00    -0.449 OA
BRANCH   3   4
ATOM      4  C   UNL     1      10.622 -23.372 -51.329  1.00  0.00     0.262 C 
ATOM      5  C   UNL     1      11.085 -24.761 -50.912  1.00  0.00     0.064 C 
BRANCH   4   6
ATOM      6  C   UNL     1       9.141 -23.376 -51.737  1.00  0.00     0.260 C 
ATOM      7  N   UNL     1       8.344 -22.608 -50.901  1.00  0.00    -0.353 N 
ATOM      8  O   UNL     1       8.707 -23.953 -52.729  1.00  0.00    -0.271 OA
ATOM      9  H   UNL     1       8.723 -22.439 -49.976  1.00  0.00     0.163 HD
BRANCH   7  10
ATOM     10  C   UNL     1       6.906 -22.602 -51.059  1.00  0.00     0.112 C 
ATOM     11  C   UNL     1       6.259 -23.716 -50.260  1.00  0.00     0.027 C 
ENDBRANCH   7  10
ENDBRANCH   4   6
ENDBRANCH   3   4
ENDBRANCH   1   3
BRANCH   1  12
ATOM     12  C   UNL     1      12.550 -22.233 -48.732  1.00  0.00     0.060 A 
ATOM     13  C   UNL     1      13.857 -21.906 -48.358  1.00  0.00     0.016 A 
ATOM     14  C   UNL     1      11.724 -22.886 -47.813  1.00  0.00     0.016 A 
ATOM     15  C   UNL     1      14.328 -22.237 -47.081  1.00  0.00     0.013 A 
ATOM     16  C   UNL     1      12.202 -23.214 -46.538  1.00  0.00     0.013 A 
ATOM     17  C   UNL     1      13.515 -22.900 -46.138  1.00  0.00     0.019 A 
BRANCH  17  18
ATOM     18  C   UNL     1      14.019 -23.249 -44.789  1.00  0.00     0.163 A 
ATOM     19  N   UNL     1      15.295 -22.919 -44.504  1.00  0.00    -0.211 NA
ATOM     20  N   UNL     1      13.173 -23.873 -43.962  1.00  0.00    -0.217 NA
ATOM     21  C   UNL     1      15.800 -23.208 -43.293  1.00  0.00     0.136 A 
ATOM     22  C   UNL     1      13.705 -24.140 -42.762  1.00  0.00     0.130 A 
ATOM     23  C   UNL     1      14.990 -23.846 -42.335  1.00  0.00     0.057 A 
ATOM     24  S   UNL     1      12.779 -24.928 -41.578  1.00  0.00    -0.120 S 
ATOM     25  C   UNL     1      15.190 -24.266 -40.957  1.00  0.00    -0.024 A 
ATOM     26  C   UNL     1      14.057 -24.885 -40.445  1.00  0.00     0.007 A 
ATOM     27  C   UNL     1      16.454 -24.050 -40.186  1.00  0.00     0.046 C 
ATOM     28  C   UNL     1      13.848 -25.469 -39.085  1.00  0.00     0.057 C 
BRANCH  21  29
ATOM     29  N   UNL     1      17.130 -22.858 -43.093  1.00  0.00    -0.383 N 
ATOM     30  H   UNL     1      17.227 -21.848 -43.129  1.00  0.00     0.158 HD
ATOM     31  H   UNL     1      17.788 -23.369 -43.665  1.00  0.00     0.158 HD
ENDBRANCH  21  29
ENDBRANCH  17  18
ENDBRANCH   1  12
TORSDOF 7
ENDMDL
MODEL 5
REMARK VINA RESULT:    -7.099      6.808     10.062
REMARK INTER + INTRA:         -10.537
REMARK INTER:                  -9.665
REMARK INTRA:                  -0.872
REMARK UNBOUND:                -0.740
REMARK SMILES CCNC(=O)[C@H](C)OC(=O)c1ccc(-c2nc(N)c3c(C)c(C)sc3n2)cc1
REMARK SMILES IDX 9 1 10 2 8 3 6 4 7 5 4 6 3 7 5 8 2 10 1 11 11 12 12 13 28 14
REMARK SMILES IDX 13 15 27 16 14 17 15 18 16 19 26 20 17 21 25 22 19 23 24 24
REMARK SMILES IDX 20 25 22 26 21 27 23 28 18 29
REMARK H PARENT 3 9 18 30 18 31
ROOT
ATOM      1  C   UNL     1      12.315 -24.125 -47.906  1.00  0.00     0.338 C 
ATOM      2  O   UNL     1      12.401 -24.942 -47.004  1.00  0.00    -0.246 OA
ENDROOT
BRANCH   1   3
ATOM      3  O   UNL     1      13.300 -23.295 -48.321  1.00  0.00    -0.449 OA
BRANCH   3   4
ATOM      4  C   UNL     1      13.648 -22.235 -47.409  1.00  0.00     0.262 C 
ATOM      5  C   UNL     1      15.134 -22.302 -47.088  1.00  0.00     0.064 C 
BRANCH   4   6
ATOM      6  C   UNL     1      13.281 -20.904 -48.082  1.00  0.00     0.260 C 
ATOM      7  N   UNL     1      13.544 -20.892 -49.444  1.00  0.00    -0.353 N 
ATOM      8  O   UNL     1      12.761 -19.961 -47.494  1.00  0.00    -0.271 OA
ATOM      9  H   UNL     1      14.231 -21.567 -49.759  1.00  0.00     0.163 HD
BRANCH   7  10
ATOM     10  C   UNL     1      13.381 -19.677 -50.213  1.00  0.00     0.112 C 
ATOM     11  C   UNL     1      13.629 -19.921 -51.689  1.00  0.00     0.027 C 
ENDBRANCH   7  10
ENDBRANCH   4   6
ENDBRANCH   3   4
ENDBRANCH   1   3
BRANCH   1  12
ATOM     12  C   UNL     1      11.073 -23.894 -48.692  1.00  0.00     0.060 A 
ATOM     13  C   UNL     1      11.091 -23.418 -50.006  1.00  0.00     0.016 A 
ATOM     14  C   UNL     1       9.843 -24.166 -48.084  1.00  0.00     0.016 A 
ATOM     15  C   UNL     1       9.890 -23.215 -50.699  1.00  0.00     0.013 A 
ATOM     16  C   UNL     1       8.647 -23.960 -48.783  1.00  0.00     0.013 A 
ATOM     17  C   UNL     1       8.637 -23.479 -50.107  1.00  0.00     0.019 A 
BRANCH  17  18
ATOM     18  C   UNL     1       7.371 -23.260 -50.844  1.00  0.00     0.163 A 
ATOM     19  N   UNL     1       7.377 -23.510 -52.167  1.00  0.00    -0.211 NA
ATOM     20  N   UNL     1       6.322 -22.821 -50.139  1.00  0.00    -0.217 NA
ATOM     21  C   UNL     1       6.253 -23.333 -52.882  1.00  0.00     0.136 A 
ATOM     22  C   UNL     1       5.216 -22.661 -50.879  1.00  0.00     0.130 A 
ATOM     23  C   UNL     1       5.081 -22.894 -52.238  1.00  0.00     0.057 A 
ATOM     24  S   UNL     1       3.782 -22.113 -50.156  1.00  0.00    -0.120 S 
ATOM     25  C   UNL     1       3.719 -22.635 -52.679  1.00  0.00    -0.024 A 
ATOM     26  C   UNL     1       2.924 -22.186 -51.632  1.00  0.00     0.007 A 
ATOM     27  C   UNL     1       3.235 -22.835 -54.080  1.00  0.00     0.046 C 
ATOM     28  C   UNL     1       1.480 -21.798 -51.659  1.00  0.00     0.057 C 
BRANCH  21  29
ATOM     29  N   UNL     1       6.355 -23.589 -54.244  1.00  0.00    -0.383 N 
ATOM     30  H   UNL     1       7.178 -23.128 -54.618  1.00  0.00     0.158 HD
ATOM     31  H   UNL     1       5.504 -23.428 -54.765  1.00  0.00     0.158 HD
ENDBRANCH  21  29
ENDBRANCH  17  18
ENDBRANCH   1  12
TORSDOF 7
ENDMDL
MODEL 6
REMARK VINA RESULT:    -6.935      5.086      9.523
REMARK INTER + INTRA:         -10.310
REMARK INTER:                  -9.854
REMARK INTRA:                  -0.456
REMARK UNBOUND:                -0.740
REMARK SMILES CCNC(=O)[C@H](C)OC(=O)c1ccc(-c2nc(N)c3c(C)c(C)sc3n2)cc1
REMARK SMILES IDX 9 1 10 2 8 3 6 4 7 5 4 6 3 7 5 8 2 10 1 11 11 12 12 13 28 14
REMARK SMILES IDX 13 15 27 16 14 17 15 18 16 19 26 20 17 21 25 22 19 23 24 24
REMARK SMILES IDX 20 25 22 26 21 27 23 28 18 29
REMARK H PARENT 3 9 18 30 18 31
ROOT
ATOM      1  C   UNL     1      16.710 -22.315 -43.981  1.00  0.00     0.338 C 
ATOM      2  O   UNL     1      17.658 -21.664 -44.387  1.00  0.00    -0.246 OA
ENDROOT
BRANCH   1   3
ATOM      3  O   UNL     1      16.592 -22.858 -42.746  1.00  0.00    -0.449 OA
BRANCH   3   4
ATOM      4  C   UNL     1      16.750 -24.288 -42.675  1.00  0.00     0.262 C 
ATOM      5  C   UNL     1      18.174 -24.666 -43.060  1.00  0.00     0.064 C 
BRANCH   4   6
ATOM      6  C   UNL     1      16.426 -24.720 -41.237  1.00  0.00     0.260 C 
ATOM      7  N   UNL     1      15.122 -24.433 -40.862  1.00  0.00    -0.353 N 
ATOM      8  O   UNL     1      17.217 -25.307 -40.506  1.00  0.00    -0.271 OA
ATOM      9  H   UNL     1      14.670 -23.700 -41.397  1.00  0.00     0.163 HD
BRANCH   7  10
ATOM     10  C   UNL     1      14.683 -24.653 -39.501  1.00  0.00     0.112 C 
ATOM     11  C   UNL     1      13.304 -24.068 -39.266  1.00  0.00     0.027 C 
ENDBRANCH   7  10
ENDBRANCH   4   6
ENDBRANCH   3   4
ENDBRANCH   1   3
BRANCH   1  12
ATOM     12  C   UNL     1      15.519 -22.642 -44.810  1.00  0.00     0.060 A 
ATOM     13  C   UNL     1      15.559 -22.675 -46.207  1.00  0.00     0.016 A 
ATOM     14  C   UNL     1      14.316 -22.929 -44.158  1.00  0.00     0.016 A 
ATOM     15  C   UNL     1      14.405 -22.986 -46.938  1.00  0.00     0.013 A 
ATOM     16  C   UNL     1      13.167 -23.239 -44.896  1.00  0.00     0.013 A 
ATOM     17  C   UNL     1      13.179 -23.275 -46.304  1.00  0.00     0.019 A 
BRANCH  17  18
ATOM     18  C   UNL     1      11.962 -23.602 -47.083  1.00  0.00     0.163 A 
ATOM     19  N   UNL     1      11.146 -24.549 -46.581  1.00  0.00    -0.211 NA
ATOM     20  N   UNL     1      11.773 -22.938 -48.229  1.00  0.00    -0.217 NA
ATOM     21  C   UNL     1      10.025 -24.879 -47.245  1.00  0.00     0.136 A 
ATOM     22  C   UNL     1      10.644 -23.285 -48.863  1.00  0.00     0.130 A 
ATOM     23  C   UNL     1       9.715 -24.227 -48.453  1.00  0.00     0.057 A 
ATOM     24  S   UNL     1      10.235 -22.547 -50.334  1.00  0.00    -0.120 S 
ATOM     25  C   UNL     1       8.605 -24.306 -49.391  1.00  0.00    -0.024 A 
ATOM     26  C   UNL     1       8.788 -23.447 -50.467  1.00  0.00     0.007 A 
ATOM     27  C   UNL     1       7.414 -25.194 -49.214  1.00  0.00     0.046 C 
ATOM     28  C   UNL     1       7.898 -23.231 -51.648  1.00  0.00     0.057 C 
BRANCH  21  29
ATOM     29  N   UNL     1       9.255 -25.883 -46.671  1.00  0.00    -0.383 N 
ATOM     30  H   UNL     1       8.366 -25.500 -46.366  1.00  0.00     0.158 HD
ATOM     31  H   UNL     1       9.738 -26.438 -45.978  1.00  0.00     0.158 HD
ENDBRANCH  21  29
ENDBRANCH  17  18
ENDBRANCH   1  12
TORSDOF 7
ENDMDL
MODEL 7
REMARK VINA RESULT:    -6.903      3.597      5.158
REMARK INTER + INTRA:         -10.266
REMARK INTER:                  -9.291
REMARK INTRA:                  -0.975
REMARK UNBOUND:                -0.740
REMARK SMILES CCNC(=O)[C@H](C)OC(=O)c1ccc(-c2nc(N)c3c(C)c(C)sc3n2)cc1
REMARK SMILES IDX 9 1 10 2 8 3 6 4 7 5 4 6 3 7 5 8 2 10 1 11 11 12 12 13 28 14
REMARK SMILES IDX 13 15 27 16 14 17 15 18 16 19 26 20 17 21 25 22 19 23 24 24
REMARK SMILES IDX 20 25 22 26 21 27 23 28 18 29
REMARK H PARENT 3 9 18 30 18 31
ROOT
ATOM      1  C   UNL     1      11.575 -22.182 -49.775  1.00  0.00     0.338 C 
ATOM      2  O   UNL     1      11.507 -21.019 -50.136  1.00  0.00    -0.246 OA
ENDROOT
BRANCH   1   3
ATOM      3  O   UNL     1      10.903 -23.223 -50.321  1.00  0.00    -0.449 OA
BRANCH   3   4
ATOM      4  C   UNL     1       9.466 -23.142 -50.255  1.00  0.00     0.262 C 
ATOM      5  C   UNL     1       8.864 -23.639 -51.562  1.00  0.00     0.064 C 
BRANCH   4   6
ATOM      6  C   UNL     1       9.006 -23.998 -49.066  1.00  0.00     0.260 C 
ATOM      7  N   UNL     1       9.380 -25.329 -49.176  1.00  0.00    -0.353 N 
ATOM      8  O   UNL     1       8.414 -23.549 -48.090  1.00  0.00    -0.271 OA
ATOM      9  H   UNL     1       9.577 -25.647 -50.118  1.00  0.00     0.163 HD
BRANCH   7  10
ATOM     10  C   UNL     1       8.920 -26.304 -48.211  1.00  0.00     0.112 C 
ATOM     11  C   UNL     1       9.909 -26.462 -47.073  1.00  0.00     0.027 C 
ENDBRANCH   7  10
ENDBRANCH   4   6
ENDBRANCH   3   4
ENDBRANCH   1   3
BRANCH   1  12
ATOM     12  C   UNL     1      12.411 -22.643 -48.634  1.00  0.00     0.060 A 
ATOM     13  C   UNL     1      13.011 -21.758 -47.734  1.00  0.00     0.016 A 
ATOM     14  C   UNL     1      12.597 -24.018 -48.461  1.00  0.00     0.016 A 
ATOM     15  C   UNL     1      13.792 -22.247 -46.678  1.00  0.00     0.013 A 
ATOM     16  C   UNL     1      13.378 -24.500 -47.404  1.00  0.00     0.013 A 
ATOM     17  C   UNL     1      13.997 -23.629 -46.485  1.00  0.00     0.019 A 
BRANCH  17  18
ATOM     18  C   UNL     1      14.825 -24.141 -45.368  1.00  0.00     0.163 A 
ATOM     19  N   UNL     1      15.991 -24.736 -45.688  1.00  0.00    -0.211 NA
ATOM     20  N   UNL     1      14.346 -23.981 -44.129  1.00  0.00    -0.217 NA
ATOM     21  C   UNL     1      16.782 -25.213 -44.712  1.00  0.00     0.136 A 
ATOM     22  C   UNL     1      15.162 -24.461 -43.180  1.00  0.00     0.130 A 
ATOM     23  C   UNL     1      16.387 -25.079 -43.368  1.00  0.00     0.057 A 
ATOM     24  S   UNL     1      14.723 -24.345 -41.545  1.00  0.00    -0.120 S 
ATOM     25  C   UNL     1      16.991 -25.437 -42.094  1.00  0.00    -0.024 A 
ATOM     26  C   UNL     1      16.165 -25.101 -41.029  1.00  0.00     0.007 A 
ATOM     27  C   UNL     1      18.335 -26.079 -41.949  1.00  0.00     0.046 C 
ATOM     28  C   UNL     1      16.401 -25.307 -39.567  1.00  0.00     0.057 C 
BRANCH  21  29
ATOM     29  N   UNL     1      17.952 -25.835 -45.131  1.00  0.00    -0.383 N 
ATOM     30  H   UNL     1      17.945 -26.808 -44.841  1.00  0.00     0.158 HD
ATOM     31  H   UNL     1      18.798 -25.331 -44.907  1.00  0.00     0.158 HD
ENDBRANCH  21  29
ENDBRANCH  17  18
ENDBRANCH   1  12
TORSDOF 7
ENDMDL
MODEL 8
REMARK VINA RESULT:    -6.846      5.708      7.638
REMARK INTER + INTRA:         -10.188
REMARK INTER:                  -9.512
REMARK INTRA:                  -0.676
REMARK UNBOUND:                -0.740
REMARK SMILES CCNC(=O)[C@H](C)OC(=O)c1ccc(-c2nc(N)c3c(C)c(C)sc3n2)cc1
REMARK SMILES IDX 9 1 10 2 8 3 6 4 7 5 4 6 3 7 5 8 2 10 1 11 11 12 12 13 28 14
REMARK SMILES IDX 13 15 27 16 14 17 15 18 16 19 26 20 17 21 25 22 19 23 24 24
REMARK SMILES IDX 20 25 22 26 21 27 23 28 18 29
REMARK H PARENT 3 9 18 30 18 31
ROOT
ATOM      1  C   UNL     1       7.953 -23.373 -51.318  1.00  0.00     0.338 C 
ATOM      2  O   UNL     1       8.173 -23.832 -52.427  1.00  0.00    -0.246 OA
ENDROOT
BRANCH   1   3
ATOM      3  O   UNL     1       6.801 -22.787 -50.916  1.00  0.00    -0.449 OA
BRANCH   3   4
ATOM      4  C   UNL     1       5.592 -23.499 -51.244  1.00  0.00     0.262 C 
ATOM      5  C   UNL     1       5.553 -24.819 -50.488  1.00  0.00     0.064 C 
BRANCH   4   6
ATOM      6  C   UNL     1       4.406 -22.601 -50.861  1.00  0.00     0.260 C 
ATOM      7  N   UNL     1       3.433 -22.533 -51.847  1.00  0.00    -0.353 N 
ATOM      8  O   UNL     1       4.297 -22.038 -49.776  1.00  0.00    -0.271 OA
ATOM      9  H   UNL     1       3.748 -22.765 -52.783  1.00  0.00     0.163 HD
BRANCH   7  10
ATOM     10  C   UNL     1       2.309 -21.633 -51.711  1.00  0.00     0.112 C 
ATOM     11  C   UNL     1       1.063 -22.371 -51.262  1.00  0.00     0.027 C 
ENDBRANCH   7  10
ENDBRANCH   4   6
ENDBRANCH   3   4
ENDBRANCH   1   3
BRANCH   1  12
ATOM     12  C   UNL     1       8.954 -23.365 -50.217  1.00  0.00     0.060 A 
ATOM     13  C   UNL     1       8.693 -23.914 -48.958  1.00  0.00     0.016 A 
ATOM     14  C   UNL     1      10.202 -22.783 -50.459  1.00  0.00     0.016 A 
ATOM     15  C   UNL     1       9.671 -23.876 -47.956  1.00  0.00     0.013 A 
ATOM     16  C   UNL     1      11.174 -22.748 -49.452  1.00  0.00     0.013 A 
ATOM     17  C   UNL     1      10.936 -23.292 -48.174  1.00  0.00     0.019 A 
BRANCH  17  18
ATOM     18  C   UNL     1      11.965 -23.252 -47.110  1.00  0.00     0.163 A 
ATOM     19  N   UNL     1      11.585 -23.624 -45.872  1.00  0.00    -0.211 NA
ATOM     20  N   UNL     1      13.190 -22.841 -47.459  1.00  0.00    -0.217 NA
ATOM     21  C   UNL     1      12.482 -23.612 -44.871  1.00  0.00     0.136 A 
ATOM     22  C   UNL     1      14.061 -22.847 -46.440  1.00  0.00     0.130 A 
ATOM     23  C   UNL     1      13.808 -23.217 -45.129  1.00  0.00     0.057 A 
ATOM     24  S   UNL     1      15.666 -22.359 -46.692  1.00  0.00    -0.120 S 
ATOM     25  C   UNL     1      15.012 -23.118 -44.318  1.00  0.00    -0.024 A 
ATOM     26  C   UNL     1      16.086 -22.643 -45.060  1.00  0.00     0.007 A 
ATOM     27  C   UNL     1      15.085 -23.489 -42.870  1.00  0.00     0.046 C 
ATOM     28  C   UNL     1      17.488 -22.385 -44.610  1.00  0.00     0.057 C 
BRANCH  21  29
ATOM     29  N   UNL     1      12.000 -23.984 -43.622  1.00  0.00    -0.383 N 
ATOM     30  H   UNL     1      11.150 -24.527 -43.731  1.00  0.00     0.158 HD
ATOM     31  H   UNL     1      11.937 -23.227 -42.954  1.00  0.00     0.158 HD
ENDBRANCH  21  29
ENDBRANCH  17  18
ENDBRANCH   1  12
TORSDOF 7
ENDMDL
MODEL 9
REMARK VINA RESULT:    -6.684      4.820      9.560
REMARK INTER + INTRA:          -9.964
REMARK INTER:                  -9.249
REMARK INTRA:                  -0.715
REMARK UNBOUND:                -0.740
REMARK SMILES CCNC(=O)[C@H](C)OC(=O)c1ccc(-c2nc(N)c3c(C)c(C)sc3n2)cc1
REMARK SMILES IDX 9 1 10 2 8 3 6 4 7 5 4 6 3 7 5 8 2 10 1 11 11 12 12 13 28 14
REMARK SMILES IDX 13 15 27 16 14 17 15 18 16 19 26 20 17 21 25 22 19 23 24 24
REMARK SMILES IDX 20 25 22 26 21 27 23 28 18 29
REMARK H PARENT 3 9 18 30 18 31
ROOT
ATOM      1  C   UNL     1      16.638 -23.968 -45.524  1.00  0.00     0.338 C 
ATOM      2  O   UNL     1      17.759 -23.692 -45.916  1.00  0.00    -0.246 OA
ENDROOT
BRANCH   1   3
ATOM      3  O   UNL     1      16.318 -24.419 -44.288  1.00  0.00    -0.449 OA
BRANCH   3   4
ATOM      4  C   UNL     1      16.596 -23.514 -43.203  1.00  0.00     0.262 C 
ATOM      5  C   UNL     1      15.670 -22.309 -43.289  1.00  0.00     0.064 C 
BRANCH   4   6
ATOM      6  C   UNL     1      16.390 -24.284 -41.890  1.00  0.00     0.260 C 
ATOM      7  N   UNL     1      15.109 -24.152 -41.376  1.00  0.00    -0.353 N 
ATOM      8  O   UNL     1      17.248 -24.989 -41.370  1.00  0.00    -0.271 OA
ATOM      9  H   UNL     1      14.597 -23.336 -41.693  1.00  0.00     0.163 HD
BRANCH   7  10
ATOM     10  C   UNL     1      14.776 -24.703 -40.081  1.00  0.00     0.112 C 
ATOM     11  C   UNL     1      13.360 -24.340 -39.675  1.00  0.00     0.027 C 
ENDBRANCH   7  10
ENDBRANCH   4   6
ENDBRANCH   3   4
ENDBRANCH   1   3
BRANCH   1  12
ATOM     12  C   UNL     1      15.421 -23.873 -46.375  1.00  0.00     0.060 A 
ATOM     13  C   UNL     1      15.100 -22.726 -47.106  1.00  0.00     0.016 A 
ATOM     14  C   UNL     1      14.570 -24.981 -46.441  1.00  0.00     0.016 A 
ATOM     15  C   UNL     1      13.938 -22.689 -47.888  1.00  0.00     0.013 A 
ATOM     16  C   UNL     1      13.411 -24.938 -47.225  1.00  0.00     0.013 A 
ATOM     17  C   UNL     1      13.063 -23.792 -47.969  1.00  0.00     0.019 A 
BRANCH  17  18
ATOM     18  C   UNL     1      11.835 -23.748 -48.796  1.00  0.00     0.163 A 
ATOM     19  N   UNL     1      11.986 -23.480 -50.108  1.00  0.00    -0.211 NA
ATOM     20  N   UNL     1      10.670 -23.967 -48.174  1.00  0.00    -0.217 NA
ATOM     21  C   UNL     1      10.905 -23.434 -50.904  1.00  0.00     0.136 A 
ATOM     22  C   UNL     1       9.613 -23.921 -48.998  1.00  0.00     0.130 A 
ATOM     23  C   UNL     1       9.629 -23.671 -50.360  1.00  0.00     0.057 A 
ATOM     24  S   UNL     1       8.051 -24.178 -48.389  1.00  0.00    -0.120 S 
ATOM     25  C   UNL     1       8.285 -23.732 -50.916  1.00  0.00    -0.024 A 
ATOM     26  C   UNL     1       7.339 -23.984 -49.930  1.00  0.00     0.007 A 
ATOM     27  C   UNL     1       7.964 -23.553 -52.366  1.00  0.00     0.046 C 
ATOM     28  C   UNL     1       5.857 -24.110 -50.072  1.00  0.00     0.057 C 
BRANCH  21  29
ATOM     29  N   UNL     1      11.147 -23.125 -52.237  1.00  0.00    -0.383 N 
ATOM     30  H   UNL     1      10.750 -23.844 -52.833  1.00  0.00     0.158 HD
ATOM     31  H   UNL     1      12.107 -22.886 -52.444  1.00  0.00     0.158 HD
ENDBRANCH  21  29
ENDBRANCH  17  18
ENDBRANCH   1  12
TORSDOF 7
ENDMDL
