MODEL 1
REMARK VINA RESULT:    -6.748      0.000      0.000
REMARK INTER + INTRA:          -8.056
REMARK INTER:                  -7.537
REMARK INTRA:                  -0.519
REMARK UNBOUND:                -0.519
REMARK SMILES C/C(=N\NC(N)=O)[C@@]1(C)CC2=C(CCCC2(C)C)C[C@@H]1C
REMARK SMILES IDX 1 1 2 2 3 3 8 4 10 5 20 6 11 7 19 8 12 9 16 10 13 11 15 12
REMARK SMILES IDX 14 13 9 14 21 15 17 16 18 17 4 18 5 19 6 20 7 21
REMARK H PARENT 4 22 6 23 6 24
ROOT
ATOM      1  C   UNL     1      15.189 -22.065 -48.038  1.00  0.00     0.064 C 
ATOM      2  C   UNL     1      13.716 -22.423 -48.046  1.00  0.00     0.042 C 
ATOM      3  N   UNL     1      12.786 -21.693 -48.603  1.00  0.00    -0.181 NA
ENDROOT
BRANCH   2   4
ATOM      4  C   UNL     1      13.255 -23.775 -47.404  1.00  0.00     0.014 C 
ATOM      5  C   UNL     1      14.416 -24.634 -46.841  1.00  0.00     0.044 C 
ATOM      6  C   UNL     1      12.237 -23.486 -46.260  1.00  0.00     0.002 C 
ATOM      7  C   UNL     1      14.962 -24.199 -45.486  1.00  0.00    -0.064 C 
ATOM      8  C   UNL     1      12.947 -22.732 -45.119  1.00  0.00     0.035 C 
ATOM      9  C   UNL     1      14.291 -23.305 -44.725  1.00  0.00    -0.070 C 
ATOM     10  C   UNL     1      16.288 -24.837 -45.029  1.00  0.00    -0.014 C 
ATOM     11  C   UNL     1      14.805 -22.792 -43.400  1.00  0.00     0.031 C 
ATOM     12  C   UNL     1      16.540 -24.590 -43.517  1.00  0.00     0.011 C 
ATOM     13  C   UNL     1      16.257 -23.150 -43.113  1.00  0.00     0.005 C 
ATOM     14  C   UNL     1      12.601 -24.554 -48.567  1.00  0.00     0.018 C 
ATOM     15  C   UNL     1      11.531 -24.738 -45.712  1.00  0.00     0.009 C 
ATOM     16  C   UNL     1      16.283 -26.367 -45.237  1.00  0.00     0.016 C 
ATOM     17  C   UNL     1      17.459 -24.242 -45.841  1.00  0.00     0.016 C 
ENDBRANCH   2   4
BRANCH   3  18
ATOM     18  N   UNL     1      13.146 -20.594 -49.338  1.00  0.00    -0.229 N 
ATOM     19  C   UNL     1      12.886 -20.560 -50.700  1.00  0.00     0.332 C 
ATOM     20  N   UNL     1      13.118 -19.322 -51.229  1.00  0.00    -0.350 N 
ATOM     21  O   UNL     1      12.515 -21.486 -51.410  1.00  0.00    -0.247 OA
ATOM     22  H   UNL     1      12.842 -19.733 -48.895  1.00  0.00     0.195 HD
ATOM     23  H   UNL     1      13.922 -18.831 -50.865  1.00  0.00     0.161 HD
ATOM     24  H   UNL     1      13.053 -19.320 -52.240  1.00  0.00     0.161 HD
ENDBRANCH   3  18
TORSDOF 2
ENDMDL
MODEL 2
REMARK VINA RESULT:    -6.456     24.559     26.196
REMARK INTER + INTRA:          -7.730
REMARK INTER:                  -7.160
REMARK INTRA:                  -0.569
REMARK UNBOUND:                -0.519
REMARK SMILES C/C(=N\NC(N)=O)[C@@]1(C)CC2=C(CCCC2(C)C)C[C@@H]1C
REMARK SMILES IDX 1 1 2 2 3 3 8 4 10 5 20 6 11 7 19 8 12 9 16 10 13 11 15 12
REMARK SMILES IDX 14 13 9 14 21 15 17 16 18 17 4 18 5 19 6 20 7 21
REMARK H PARENT 4 22 6 23 6 24
ROOT
ATOM      1  C   UNL     1       2.509  -7.102 -33.514  1.00  0.00     0.064 C 
ATOM      2  C   UNL     1       1.175  -6.888 -32.826  1.00  0.00     0.042 C 
ATOM      3  N   UNL     1       0.028  -7.283 -33.310  1.00  0.00    -0.181 NA
ENDROOT
BRANCH   2   4
ATOM      4  C   UNL     1       1.143  -6.201 -31.419  1.00  0.00     0.014 C 
ATOM      5  C   UNL     1       2.518  -5.658 -30.951  1.00  0.00     0.044 C 
ATOM      6  C   UNL     1       0.114  -5.031 -31.435  1.00  0.00     0.002 C 
ATOM      7  C   UNL     1       2.947  -4.332 -31.567  1.00  0.00    -0.064 C 
ATOM      8  C   UNL     1       0.602  -3.930 -32.397  1.00  0.00     0.035 C 
ATOM      9  C   UNL     1       2.064  -3.569 -32.251  1.00  0.00    -0.070 C 
ATOM     10  C   UNL     1       4.413  -3.904 -31.355  1.00  0.00    -0.014 C 
ATOM     11  C   UNL     1       2.440  -2.272 -32.931  1.00  0.00     0.031 C 
ATOM     12  C   UNL     1       4.619  -2.406 -31.710  1.00  0.00     0.011 C 
ATOM     13  C   UNL     1       3.940  -2.025 -33.018  1.00  0.00     0.005 C 
ATOM     14  C   UNL     1       0.715  -7.324 -30.449  1.00  0.00     0.018 C 
ATOM     15  C   UNL     1      -0.184  -4.433 -30.050  1.00  0.00     0.009 C 
ATOM     16  C   UNL     1       4.847  -4.077 -29.883  1.00  0.00     0.016 C 
ATOM     17  C   UNL     1       5.339  -4.767 -32.239  1.00  0.00     0.016 C 
ENDBRANCH   2   4
BRANCH   3  18
ATOM     18  N   UNL     1       0.007  -8.050 -34.446  1.00  0.00    -0.229 N 
ATOM     19  C   UNL     1      -0.264  -9.408 -34.356  1.00  0.00     0.332 C 
ATOM     20  N   UNL     1      -0.448  -9.969 -35.588  1.00  0.00    -0.350 N 
ATOM     21  O   UNL     1      -0.324 -10.089 -33.341  1.00  0.00    -0.247 OA
ATOM     22  H   UNL     1      -0.554  -7.621 -35.175  1.00  0.00     0.195 HD
ATOM     23  H   UNL     1       0.158  -9.631 -36.322  1.00  0.00     0.161 HD
ATOM     24  H   UNL     1      -0.521 -10.979 -35.541  1.00  0.00     0.161 HD
ENDBRANCH   3  18
TORSDOF 2
ENDMDL
MODEL 3
REMARK VINA RESULT:    -6.446      4.391      6.552
REMARK INTER + INTRA:          -7.718
REMARK INTER:                  -7.193
REMARK INTRA:                  -0.525
REMARK UNBOUND:                -0.519
REMARK SMILES C/C(=N\NC(N)=O)[C@@]1(C)CC2=C(CCCC2(C)C)C[C@@H]1C
REMARK SMILES IDX 1 1 2 2 3 3 8 4 10 5 20 6 11 7 19 8 12 9 16 10 13 11 15 12
REMARK SMILES IDX 14 13 9 14 21 15 17 16 18 17 4 18 5 19 6 20 7 21
REMARK H PARENT 4 22 6 23 6 24
ROOT
ATOM      1  C   UNL     1      17.112 -23.795 -45.946  1.00  0.00     0.064 C 
ATOM      2  C   UNL     1      16.459 -24.252 -44.656  1.00  0.00     0.042 C 
ATOM      3  N   UNL     1      16.972 -25.142 -43.848  1.00  0.00    -0.181 NA
ENDROOT
BRANCH   2   4
ATOM      4  C   UNL     1      15.110 -23.595 -44.209  1.00  0.00     0.014 C 
ATOM      5  C   UNL     1      14.468 -22.679 -45.284  1.00  0.00     0.044 C 
ATOM      6  C   UNL     1      14.093 -24.710 -43.820  1.00  0.00     0.002 C 
ATOM      7  C   UNL     1      13.725 -23.397 -46.404  1.00  0.00    -0.064 C 
ATOM      8  C   UNL     1      13.731 -25.535 -45.070  1.00  0.00     0.035 C 
ATOM      9  C   UNL     1      13.423 -24.711 -46.302  1.00  0.00    -0.070 C 
ATOM     10  C   UNL     1      13.325 -22.554 -47.630  1.00  0.00    -0.014 C 
ATOM     11  C   UNL     1      12.736 -25.493 -47.398  1.00  0.00     0.031 C 
ATOM     12  C   UNL     1      12.284 -23.298 -48.511  1.00  0.00     0.011 C 
ATOM     13  C   UNL     1      12.654 -24.758 -48.730  1.00  0.00     0.005 C 
ATOM     14  C   UNL     1      15.489 -22.719 -42.995  1.00  0.00     0.018 C 
ATOM     15  C   UNL     1      12.816 -24.189 -43.139  1.00  0.00     0.009 C 
ATOM     16  C   UNL     1      12.680 -21.215 -47.212  1.00  0.00     0.016 C 
ATOM     17  C   UNL     1      14.577 -22.245 -48.479  1.00  0.00     0.016 C 
ENDBRANCH   2   4
BRANCH   3  18
ATOM     18  N   UNL     1      18.234 -25.618 -44.090  1.00  0.00    -0.229 N 
ATOM     19  C   UNL     1      19.119 -25.791 -43.035  1.00  0.00     0.332 C 
ATOM     20  N   UNL     1      20.244 -26.462 -43.423  1.00  0.00    -0.350 N 
ATOM     21  O   UNL     1      18.988 -25.402 -41.882  1.00  0.00    -0.247 OA
ATOM     22  H   UNL     1      18.214 -26.445 -44.679  1.00  0.00     0.195 HD
ATOM     23  H   UNL     1      20.601 -26.230 -44.339  1.00  0.00     0.161 HD
ATOM     24  H   UNL     1      20.948 -26.482 -42.695  1.00  0.00     0.161 HD
ENDBRANCH   3  18
TORSDOF 2
ENDMDL
MODEL 4
REMARK VINA RESULT:    -6.274      1.558      1.762
REMARK INTER + INTRA:          -7.526
REMARK INTER:                  -6.981
REMARK INTRA:                  -0.546
REMARK UNBOUND:                -0.519
REMARK SMILES C/C(=N\NC(N)=O)[C@@]1(C)CC2=C(CCCC2(C)C)C[C@@H]1C
REMARK SMILES IDX 1 1 2 2 3 3 8 4 10 5 20 6 11 7 19 8 12 9 16 10 13 11 15 12
REMARK SMILES IDX 14 13 9 14 21 15 17 16 18 17 4 18 5 19 6 20 7 21
REMARK H PARENT 4 22 6 23 6 24
ROOT
ATOM      1  C   UNL     1      14.476 -22.799 -47.509  1.00  0.00     0.064 C 
ATOM      2  C   UNL     1      13.284 -23.686 -47.204  1.00  0.00     0.042 C 
ATOM      3  N   UNL     1      12.057 -23.416 -47.559  1.00  0.00    -0.181 NA
ENDROOT
BRANCH   2   4
ATOM      4  C   UNL     1      13.516 -25.047 -46.465  1.00  0.00     0.014 C 
ATOM      5  C   UNL     1      14.997 -25.321 -46.096  1.00  0.00     0.044 C 
ATOM      6  C   UNL     1      12.655 -25.086 -45.167  1.00  0.00     0.002 C 
ATOM      7  C   UNL     1      15.517 -24.587 -44.866  1.00  0.00    -0.064 C 
ATOM      8  C   UNL     1      13.161 -24.015 -44.181  1.00  0.00     0.035 C 
ATOM      9  C   UNL     1      14.665 -23.969 -44.017  1.00  0.00    -0.070 C 
ATOM     10  C   UNL     1      17.041 -24.602 -44.634  1.00  0.00    -0.014 C 
ATOM     11  C   UNL     1      15.120 -23.180 -42.812  1.00  0.00     0.031 C 
ATOM     12  C   UNL     1      17.397 -24.142 -43.194  1.00  0.00     0.011 C 
ATOM     13  C   UNL     1      16.617 -22.904 -42.776  1.00  0.00     0.005 C 
ATOM     14  C   UNL     1      13.067 -26.121 -47.480  1.00  0.00     0.018 C 
ATOM     15  C   UNL     1      12.611 -26.462 -44.479  1.00  0.00     0.009 C 
ATOM     16  C   UNL     1      17.627 -26.020 -44.808  1.00  0.00     0.016 C 
ATOM     17  C   UNL     1      17.730 -23.665 -45.650  1.00  0.00     0.016 C 
ENDBRANCH   2   4
BRANCH   3  18
ATOM     18  N   UNL     1      11.815 -22.334 -48.366  1.00  0.00    -0.229 N 
ATOM     19  C   UNL     1      11.377 -22.529 -49.668  1.00  0.00     0.332 C 
ATOM     20  N   UNL     1      10.991 -21.356 -50.252  1.00  0.00    -0.350 N 
ATOM     21  O   UNL     1      11.334 -23.583 -50.288  1.00  0.00    -0.247 OA
ATOM     22  H   UNL     1      11.242 -21.640 -47.896  1.00  0.00     0.195 HD
ATOM     23  H   UNL     1      11.556 -20.548 -50.034  1.00  0.00     0.161 HD
ATOM     24  H   UNL     1      10.791 -21.468 -51.239  1.00  0.00     0.161 HD
ENDBRANCH   3  18
TORSDOF 2
ENDMDL
MODEL 5
REMARK VINA RESULT:    -6.126      4.616      6.822
REMARK INTER + INTRA:          -7.361
REMARK INTER:                  -6.958
REMARK INTRA:                  -0.403
REMARK UNBOUND:                -0.519
REMARK SMILES C/C(=N\NC(N)=O)[C@@]1(C)CC2=C(CCCC2(C)C)C[C@@H]1C
REMARK SMILES IDX 1 1 2 2 3 3 8 4 10 5 20 6 11 7 19 8 12 9 16 10 13 11 15 12
REMARK SMILES IDX 14 13 9 14 21 15 17 16 18 17 4 18 5 19 6 20 7 21
REMARK H PARENT 4 22 6 23 6 24
ROOT
ATOM      1  C   UNL     1      12.966 -24.402 -43.202  1.00  0.00     0.064 C 
ATOM      2  C   UNL     1      14.473 -24.561 -43.183  1.00  0.00     0.042 C 
ATOM      3  N   UNL     1      15.214 -24.411 -42.117  1.00  0.00    -0.181 NA
ENDROOT
BRANCH   2   4
ATOM      4  C   UNL     1      15.213 -24.985 -44.496  1.00  0.00     0.014 C 
ATOM      5  C   UNL     1      14.263 -25.324 -45.674  1.00  0.00     0.044 C 
ATOM      6  C   UNL     1      16.182 -23.847 -44.936  1.00  0.00     0.002 C 
ATOM      7  C   UNL     1      13.677 -24.127 -46.414  1.00  0.00    -0.064 C 
ATOM      8  C   UNL     1      15.366 -22.601 -45.332  1.00  0.00     0.035 C 
ATOM      9  C   UNL     1      14.175 -22.884 -46.222  1.00  0.00    -0.070 C 
ATOM     10  C   UNL     1      12.519 -24.408 -47.391  1.00  0.00    -0.014 C 
ATOM     11  C   UNL     1      13.604 -21.651 -46.883  1.00  0.00     0.031 C 
ATOM     12  C   UNL     1      12.263 -23.194 -48.324  1.00  0.00     0.011 C 
ATOM     13  C   UNL     1      12.261 -21.874 -47.566  1.00  0.00     0.005 C 
ATOM     14  C   UNL     1      15.980 -26.270 -44.112  1.00  0.00     0.018 C 
ATOM     15  C   UNL     1      17.139 -24.238 -46.075  1.00  0.00     0.009 C 
ATOM     16  C   UNL     1      12.826 -25.615 -48.303  1.00  0.00     0.016 C 
ATOM     17  C   UNL     1      11.232 -24.716 -46.596  1.00  0.00     0.016 C 
ENDBRANCH   2   4
BRANCH   3  18
ATOM     18  N   UNL     1      14.609 -24.221 -40.901  1.00  0.00    -0.229 N 
ATOM     19  C   UNL     1      15.367 -24.262 -39.740  1.00  0.00     0.332 C 
ATOM     20  N   UNL     1      14.650 -23.849 -38.653  1.00  0.00    -0.350 N 
ATOM     21  O   UNL     1      16.529 -24.629 -39.622  1.00  0.00    -0.247 OA
ATOM     22  H   UNL     1      14.009 -23.402 -40.908  1.00  0.00     0.195 HD
ATOM     23  H   UNL     1      13.683 -24.142 -38.626  1.00  0.00     0.161 HD
ATOM     24  H   UNL     1      15.152 -23.995 -37.785  1.00  0.00     0.161 HD
ENDBRANCH   3  18
TORSDOF 2
ENDMDL
MODEL 6
REMARK VINA RESULT:    -6.084     23.934     25.585
REMARK INTER + INTRA:          -7.314
REMARK INTER:                  -6.801
REMARK INTRA:                  -0.513
REMARK UNBOUND:                -0.519
REMARK SMILES C/C(=N\NC(N)=O)[C@@]1(C)CC2=C(CCCC2(C)C)C[C@@H]1C
REMARK SMILES IDX 1 1 2 2 3 3 8 4 10 5 20 6 11 7 19 8 12 9 16 10 13 11 15 12
REMARK SMILES IDX 14 13 9 14 21 15 17 16 18 17 4 18 5 19 6 20 7 21
REMARK H PARENT 4 22 6 23 6 24
ROOT
ATOM      1  C   UNL     1       1.777  -8.240 -34.108  1.00  0.00     0.064 C 
ATOM      2  C   UNL     1       0.365  -8.191 -33.558  1.00  0.00     0.042 C 
ATOM      3  N   UNL     1      -0.653  -8.813 -34.090  1.00  0.00    -0.181 NA
ENDROOT
BRANCH   2   4
ATOM      4  C   UNL     1       0.088  -7.397 -32.237  1.00  0.00     0.014 C 
ATOM      5  C   UNL     1       1.322  -6.635 -31.688  1.00  0.00     0.044 C 
ATOM      6  C   UNL     1      -1.071  -6.383 -32.473  1.00  0.00     0.002 C 
ATOM      7  C   UNL     1       1.649  -5.320 -32.386  1.00  0.00    -0.064 C 
ATOM      8  C   UNL     1      -0.618  -5.312 -33.486  1.00  0.00     0.035 C 
ATOM      9  C   UNL     1       0.762  -4.745 -33.229  1.00  0.00    -0.070 C 
ATOM     10  C   UNL     1       3.016  -4.682 -32.070  1.00  0.00    -0.014 C 
ATOM     11  C   UNL     1       1.047  -3.473 -33.992  1.00  0.00     0.031 C 
ATOM     12  C   UNL     1       3.073  -3.206 -32.550  1.00  0.00     0.011 C 
ATOM     13  C   UNL     1       2.505  -3.034 -33.951  1.00  0.00     0.005 C 
ATOM     14  C   UNL     1      -0.304  -8.481 -31.208  1.00  0.00     0.018 C 
ATOM     15  C   UNL     1      -1.596  -5.714 -31.192  1.00  0.00     0.009 C 
ATOM     16  C   UNL     1       3.299  -4.669 -30.552  1.00  0.00     0.016 C 
ATOM     17  C   UNL     1       4.137  -5.484 -32.765  1.00  0.00     0.016 C 
ENDBRANCH   2   4
BRANCH   3  18
ATOM     18  N   UNL     1      -0.441  -9.670 -35.139  1.00  0.00    -0.229 N 
ATOM     19  C   UNL     1      -1.472  -9.943 -36.026  1.00  0.00     0.332 C 
ATOM     20  N   UNL     1      -1.032 -10.642 -37.114  1.00  0.00    -0.350 N 
ATOM     21  O   UNL     1      -2.653  -9.646 -35.907  1.00  0.00    -0.247 OA
ATOM     22  H   UNL     1       0.412  -9.441 -35.641  1.00  0.00     0.195 HD
ATOM     23  H   UNL     1      -0.335 -11.349 -36.930  1.00  0.00     0.161 HD
ATOM     24  H   UNL     1      -1.796 -10.954 -37.702  1.00  0.00     0.161 HD
ENDBRANCH   3  18
TORSDOF 2
ENDMDL
MODEL 7
REMARK VINA RESULT:    -5.866     24.795     26.500
REMARK INTER + INTRA:          -7.070
REMARK INTER:                  -6.530
REMARK INTRA:                  -0.540
REMARK UNBOUND:                -0.519
REMARK SMILES C/C(=N\NC(N)=O)[C@@]1(C)CC2=C(CCCC2(C)C)C[C@@H]1C
REMARK SMILES IDX 1 1 2 2 3 3 8 4 10 5 20 6 11 7 19 8 12 9 16 10 13 11 15 12
REMARK SMILES IDX 14 13 9 14 21 15 17 16 18 17 4 18 5 19 6 20 7 21
REMARK H PARENT 4 22 6 23 6 24
ROOT
ATOM      1  C   UNL     1       1.080  -6.383 -30.498  1.00  0.00     0.064 C 
ATOM      2  C   UNL     1       0.652  -5.951 -31.887  1.00  0.00     0.042 C 
ATOM      3  N   UNL     1       0.140  -6.755 -32.781  1.00  0.00    -0.181 NA
ENDROOT
BRANCH   2   4
ATOM      4  C   UNL     1       0.769  -4.441 -32.287  1.00  0.00     0.014 C 
ATOM      5  C   UNL     1       1.705  -3.616 -31.367  1.00  0.00     0.044 C 
ATOM      6  C   UNL     1       1.274  -4.330 -33.757  1.00  0.00     0.002 C 
ATOM      7  C   UNL     1       3.198  -3.779 -31.629  1.00  0.00    -0.064 C 
ATOM      8  C   UNL     1       2.714  -4.871 -33.848  1.00  0.00     0.035 C 
ATOM      9  C   UNL     1       3.641  -4.384 -32.755  1.00  0.00    -0.070 C 
ATOM     10  C   UNL     1       4.160  -3.212 -30.567  1.00  0.00    -0.014 C 
ATOM     11  C   UNL     1       5.103  -4.625 -33.047  1.00  0.00     0.031 C 
ATOM     12  C   UNL     1       5.611  -3.122 -31.113  1.00  0.00     0.011 C 
ATOM     13  C   UNL     1       6.025  -4.382 -31.859  1.00  0.00     0.005 C 
ATOM     14  C   UNL     1      -0.666  -3.888 -32.133  1.00  0.00     0.018 C 
ATOM     15  C   UNL     1       1.201  -2.911 -34.344  1.00  0.00     0.009 C 
ATOM     16  C   UNL     1       3.755  -1.784 -30.140  1.00  0.00     0.016 C 
ATOM     17  C   UNL     1       4.145  -4.115 -29.315  1.00  0.00     0.016 C 
ENDBRANCH   2   4
BRANCH   3  18
ATOM     18  N   UNL     1      -0.157  -8.046 -32.430  1.00  0.00    -0.229 N 
ATOM     19  C   UNL     1       0.340  -9.098 -33.187  1.00  0.00     0.332 C 
ATOM     20  N   UNL     1       0.123 -10.303 -32.582  1.00  0.00    -0.350 N 
ATOM     21  O   UNL     1       0.894  -9.033 -34.277  1.00  0.00    -0.247 OA
ATOM     22  H   UNL     1       0.005  -8.210 -31.441  1.00  0.00     0.195 HD
ATOM     23  H   UNL     1      -0.765 -10.406 -32.111  1.00  0.00     0.161 HD
ATOM     24  H   UNL     1       0.367 -11.082 -33.183  1.00  0.00     0.161 HD
ENDBRANCH   3  18
TORSDOF 2
ENDMDL
MODEL 8
REMARK VINA RESULT:    -5.436      2.071      5.124
REMARK INTER + INTRA:          -6.590
REMARK INTER:                  -6.120
REMARK INTRA:                  -0.471
REMARK UNBOUND:                -0.519
REMARK SMILES C/C(=N\NC(N)=O)[C@@]1(C)CC2=C(CCCC2(C)C)C[C@@H]1C
REMARK SMILES IDX 1 1 2 2 3 3 8 4 10 5 20 6 11 7 19 8 12 9 16 10 13 11 15 12
REMARK SMILES IDX 14 13 9 14 21 15 17 16 18 17 4 18 5 19 6 20 7 21
REMARK H PARENT 4 22 6 23 6 24
ROOT
ATOM      1  C   UNL     1      15.135 -22.700 -46.886  1.00  0.00     0.064 C 
ATOM      2  C   UNL     1      13.650 -22.743 -47.188  1.00  0.00     0.042 C 
ATOM      3  N   UNL     1      13.070 -22.037 -48.122  1.00  0.00    -0.181 NA
ENDROOT
BRANCH   2   4
ATOM      4  C   UNL     1      12.735 -23.728 -46.384  1.00  0.00     0.014 C 
ATOM      5  C   UNL     1      11.301 -23.865 -46.956  1.00  0.00     0.044 C 
ATOM      6  C   UNL     1      13.401 -25.136 -46.340  1.00  0.00     0.002 C 
ATOM      7  C   UNL     1      11.161 -24.765 -48.178  1.00  0.00    -0.064 C 
ATOM      8  C   UNL     1      13.453 -25.725 -47.763  1.00  0.00     0.035 C 
ATOM      9  C   UNL     1      12.168 -25.587 -48.550  1.00  0.00    -0.070 C 
ATOM     10  C   UNL     1       9.824 -24.702 -48.943  1.00  0.00    -0.014 C 
ATOM     11  C   UNL     1      12.113 -26.462 -49.780  1.00  0.00     0.031 C 
ATOM     12  C   UNL     1       9.680 -25.898 -49.923  1.00  0.00     0.011 C 
ATOM     13  C   UNL     1      10.953 -26.150 -50.717  1.00  0.00     0.005 C 
ATOM     14  C   UNL     1      12.634 -23.100 -44.976  1.00  0.00     0.018 C 
ATOM     15  C   UNL     1      12.720 -26.126 -45.380  1.00  0.00     0.009 C 
ATOM     16  C   UNL     1       8.617 -24.764 -47.982  1.00  0.00     0.016 C 
ATOM     17  C   UNL     1       9.743 -23.382 -49.740  1.00  0.00     0.016 C 
ENDBRANCH   2   4
BRANCH   3  18
ATOM     18  N   UNL     1      13.842 -21.296 -48.979  1.00  0.00    -0.229 N 
ATOM     19  C   UNL     1      13.292 -20.810 -50.157  1.00  0.00     0.332 C 
ATOM     20  N   UNL     1      14.129 -19.929 -50.780  1.00  0.00    -0.350 N 
ATOM     21  O   UNL     1      12.210 -21.103 -50.649  1.00  0.00    -0.247 OA
ATOM     22  H   UNL     1      14.343 -20.562 -48.489  1.00  0.00     0.195 HD
ATOM     23  H   UNL     1      15.113 -20.159 -50.749  1.00  0.00     0.161 HD
ATOM     24  H   UNL     1      13.793 -19.667 -51.700  1.00  0.00     0.161 HD
ENDBRANCH   3  18
TORSDOF 2
ENDMDL
MODEL 9
REMARK VINA RESULT:    -5.020     25.079     26.845
REMARK INTER + INTRA:          -6.126
REMARK INTER:                  -5.651
REMARK INTRA:                  -0.474
REMARK UNBOUND:                -0.519
REMARK SMILES C/C(=N\NC(N)=O)[C@@]1(C)CC2=C(CCCC2(C)C)C[C@@H]1C
REMARK SMILES IDX 1 1 2 2 3 3 8 4 10 5 20 6 11 7 19 8 12 9 16 10 13 11 15 12
REMARK SMILES IDX 14 13 9 14 21 15 17 16 18 17 4 18 5 19 6 20 7 21
REMARK H PARENT 4 22 6 23 6 24
ROOT
ATOM      1  C   UNL     1       0.485  -7.719 -30.654  1.00  0.00     0.064 C 
ATOM      2  C   UNL     1       0.180  -7.200 -32.046  1.00  0.00     0.042 C 
ATOM      3  N   UNL     1      -1.019  -6.913 -32.476  1.00  0.00    -0.181 NA
ENDROOT
BRANCH   2   4
ATOM      4  C   UNL     1       1.363  -6.929 -33.035  1.00  0.00     0.014 C 
ATOM      5  C   UNL     1       0.995  -5.999 -34.220  1.00  0.00     0.044 C 
ATOM      6  C   UNL     1       2.560  -6.307 -32.255  1.00  0.00     0.002 C 
ATOM      7  C   UNL     1       0.947  -4.510 -33.899  1.00  0.00    -0.064 C 
ATOM      8  C   UNL     1       2.162  -4.914 -31.729  1.00  0.00     0.035 C 
ATOM      9  C   UNL     1       1.459  -4.035 -32.741  1.00  0.00    -0.070 C 
ATOM     10  C   UNL     1       0.312  -3.587 -34.957  1.00  0.00    -0.014 C 
ATOM     11  C   UNL     1       1.395  -2.579 -32.341  1.00  0.00     0.031 C 
ATOM     12  C   UNL     1       0.645  -2.096 -34.678  1.00  0.00     0.011 C 
ATOM     13  C   UNL     1       0.474  -1.733 -33.210  1.00  0.00     0.005 C 
ATOM     14  C   UNL     1       1.717  -8.320 -33.607  1.00  0.00     0.018 C 
ATOM     15  C   UNL     1       3.864  -6.216 -33.065  1.00  0.00     0.009 C 
ATOM     16  C   UNL     1       0.837  -3.903 -36.375  1.00  0.00     0.016 C 
ATOM     17  C   UNL     1      -1.221  -3.772 -34.956  1.00  0.00     0.016 C 
ENDBRANCH   2   4
BRANCH   3  18
ATOM     18  N   UNL     1      -2.074  -6.954 -31.601  1.00  0.00    -0.229 N 
ATOM     19  C   UNL     1      -3.161  -7.772 -31.870  1.00  0.00     0.332 C 
ATOM     20  N   UNL     1      -4.013  -7.848 -30.804  1.00  0.00    -0.350 N 
ATOM     21  O   UNL     1      -3.405  -8.367 -32.911  1.00  0.00    -0.247 OA
ATOM     22  H   UNL     1      -1.759  -7.080 -30.644  1.00  0.00     0.195 HD
ATOM     23  H   UNL     1      -4.152  -6.990 -30.290  1.00  0.00     0.161 HD
ATOM     24  H   UNL     1      -4.869  -8.339 -31.033  1.00  0.00     0.161 HD
ENDBRANCH   3  18
TORSDOF 2
ENDMDL
