REMARK SMILES C[C@H](Oc1ccc(C(=O)c2ccccc2)cc1)C(=O)NNC(=O)CN1C(=O)C[N-]C1=O
REMARK SMILES IDX 1 1 2 2 3 3 4 4 5 5 17 6 6 7 16 8 7 9 8 10 9 11 10 12 11 13
REMARK SMILES IDX 15 14 12 15 14 16 13 17 18 18 19 19 20 20 21 22 22 23 23 24
REMARK SMILES IDX 24 26 25 27 26 28 30 29 27 30 28 31 29 32 31 33
REMARK H PARENT 20 21 21 25
ROOT
ATOM      1  C   UNL     1       1.998   2.298   4.998  1.00  0.00     0.064 C 
ATOM      2  C   UNL     1       1.053   1.777   3.919  1.00  0.00     0.260 C 
ENDROOT
BRANCH   2   3
ATOM      3  O   UNL     1       0.884   0.379   4.152  1.00  0.00    -0.481 OA
BRANCH   3   4
ATOM      4  C   UNL     1      -0.042  -0.295   3.402  1.00  0.00     0.120 A 
ATOM      5  C   UNL     1      -0.922   0.267   2.475  1.00  0.00     0.047 A 
ATOM      6  C   UNL     1      -0.061  -1.678   3.609  1.00  0.00     0.047 A 
ATOM      7  C   UNL     1      -1.789  -0.549   1.739  1.00  0.00     0.016 A 
ATOM      8  C   UNL     1      -0.929  -2.496   2.881  1.00  0.00     0.016 A 
ATOM      9  C   UNL     1      -1.779  -1.935   1.925  1.00  0.00     0.023 A 
BRANCH   9  10
ATOM     10  C   UNL     1      -2.689  -2.829   1.166  1.00  0.00     0.193 C 
ATOM     11  O   UNL     1      -3.206  -3.780   1.750  1.00  0.00    -0.289 OA
BRANCH  10  12
ATOM     12  C   UNL     1      -3.001  -2.592  -0.269  1.00  0.00     0.022 A 
ATOM     13  C   UNL     1      -4.238  -3.022  -0.766  1.00  0.00     0.012 A 
ATOM     14  C   UNL     1      -2.086  -1.983  -1.134  1.00  0.00     0.012 A 
ATOM     15  C   UNL     1      -4.568  -2.814  -2.107  1.00  0.00     0.001 A 
ATOM     16  C   UNL     1      -2.420  -1.772  -2.473  1.00  0.00     0.001 A 
ATOM     17  C   UNL     1      -3.661  -2.183  -2.958  1.00  0.00     0.000 A 
ENDBRANCH  10  12
ENDBRANCH   9  10
ENDBRANCH   3   4
ENDBRANCH   2   3
BRANCH   2  18
ATOM     18  C   UNL     1       1.645   2.107   2.540  1.00  0.00     0.279 C 
ATOM     19  O   UNL     1       1.223   3.039   1.858  1.00  0.00    -0.269 OA
ATOM     20  N   UNL     1       2.693   1.285   2.168  1.00  0.00    -0.264 N 
ATOM     21  H   UNL     1       2.808   0.392   2.651  1.00  0.00     0.191 HD
BRANCH  20  22
ATOM     22  N   UNL     1       3.038   1.250   0.800  1.00  0.00    -0.268 N 
ATOM     23  C   UNL     1       3.809   0.178   0.382  1.00  0.00     0.238 C 
ATOM     24  O   UNL     1       4.470  -0.498   1.177  1.00  0.00    -0.273 OA
ATOM     25  H   UNL     1       2.323   1.598   0.153  1.00  0.00     0.191 HD
BRANCH  23  26
ATOM     26  C   UNL     1       3.886  -0.041  -1.128  1.00  0.00     0.114 C 
BRANCH  26  27
ATOM     27  N   UNL     1       2.772   0.555  -1.828  1.00  0.00    -0.373 N 
ATOM     28  C   UNL     1       2.827   1.701  -2.552  1.00  0.00     0.149 C 
ATOM     29  C   UNL     1       1.529   0.015  -1.854  1.00  0.00     0.162 C 
ATOM     30  O   UNL     1       3.796   2.426  -2.724  1.00  0.00    -0.299 OA
ATOM     31  C   UNL     1       1.444   1.921  -3.100  1.00  0.00     0.080 C 
ATOM     32  N   UNL     1       0.700   0.768  -2.566  1.00  0.00    -0.423 NA
ATOM     33  O   UNL     1       1.238  -1.012  -1.253  1.00  0.00    -0.298 OA
ENDBRANCH  26  27
ENDBRANCH  23  26
ENDBRANCH  20  22
ENDBRANCH   2  18
TORSDOF 8
