MODEL 1
REMARK VINA RESULT:    -6.579      0.000      0.000
REMARK INTER + INTRA:         -11.442
REMARK INTER:                 -10.810
REMARK INTRA:                  -0.632
REMARK UNBOUND:                -0.632
REMARK SMILES COC(=O)CCCCC/N=C(/[c-]1c(=O)[nH]c(=S)[nH]c1=O)[C@@H](F)C(=O)OC
REMARK SMILES IDX 8 1 7 2 6 3 5 4 3 5 4 6 2 7 1 8 9 9 10 10 11 11 12 12 13 13
REMARK SMILES IDX 19 14 14 15 15 16 18 17 20 18 16 19 17 20 21 23 22 24 23 25
REMARK SMILES IDX 24 26 25 27 26 28
REMARK H PARENT 15 21 18 22
ROOT
ATOM      1  C   UNL     1      13.763 -20.433 -49.414  1.00  0.00     0.023 C 
ENDROOT
BRANCH   1   2
ATOM      2  C   UNL     1      13.284 -20.120 -50.833  1.00  0.00     0.002 C 
BRANCH   2   3
ATOM      3  C   UNL     1      13.826 -18.777 -51.331  1.00  0.00     0.012 C 
BRANCH   3   4
ATOM      4  C   UNL     1      14.145 -18.806 -52.824  1.00  0.00     0.123 C 
BRANCH   4   5
ATOM      5  C   UNL     1      14.918 -17.581 -53.246  1.00  0.00     0.305 C 
ATOM      6  O   UNL     1      14.493 -16.736 -54.021  1.00  0.00    -0.252 OA
BRANCH   5   7
ATOM      7  O   UNL     1      16.128 -17.542 -52.624  1.00  0.00    -0.469 OA
ATOM      8  C   UNL     1      16.893 -16.375 -52.923  1.00  0.00     0.282 C 
ENDBRANCH   5   7
ENDBRANCH   4   5
ENDBRANCH   3   4
ENDBRANCH   2   3
ENDBRANCH   1   2
BRANCH   1   9
ATOM      9  C   UNL     1      12.611 -20.852 -48.499  1.00  0.00     0.139 C 
BRANCH   9  10
ATOM     10  N   UNL     1      13.165 -21.352 -47.246  1.00  0.00    -0.321 NA
ATOM     11  C   UNL     1      13.364 -22.612 -47.032  1.00  0.00    -0.059 C 
BRANCH  11  12
ATOM     12  C   UNL     1      13.932 -22.994 -45.718  1.00  0.00    -0.162 C 
ATOM     13  C   UNL     1      13.040 -23.318 -44.599  1.00  0.00     0.105 C 
ATOM     14  C   UNL     1      15.388 -23.098 -45.558  1.00  0.00     0.105 C 
ATOM     15  O   UNL     1      11.819 -23.332 -44.706  1.00  0.00    -0.310 OA
ATOM     16  N   UNL     1      13.669 -23.635 -43.424  1.00  0.00    -0.327 N 
ATOM     17  N   UNL     1      15.813 -23.455 -44.306  1.00  0.00    -0.327 N 
ATOM     18  O   UNL     1      16.171 -22.885 -46.475  1.00  0.00    -0.310 OA
ATOM     19  C   UNL     1      15.015 -23.724 -43.234  1.00  0.00     0.175 C 
ATOM     20  S   UNL     1      15.656 -24.149 -41.762  1.00  0.00    -0.040 S 
ATOM     21  H   UNL     1      13.064 -23.855 -42.642  1.00  0.00     0.169 HD
ATOM     22  H   UNL     1      16.816 -23.525 -44.182  1.00  0.00     0.169 HD
ENDBRANCH  11  12
BRANCH  11  23
ATOM     23  C   UNL     1      13.083 -23.770 -47.970  1.00  0.00     0.291 C 
ATOM     24  F   UNL     1      13.511 -24.953 -47.415  1.00  0.00    -0.231 F 
BRANCH  23  25
ATOM     25  C   UNL     1      11.611 -23.855 -48.325  1.00  0.00     0.343 C 
ATOM     26  O   UNL     1      10.691 -23.663 -47.539  1.00  0.00    -0.248 OA
BRANCH  25  27
ATOM     27  O   UNL     1      11.455 -24.206 -49.635  1.00  0.00    -0.467 OA
ATOM     28  C   UNL     1      10.720 -23.257 -50.408  1.00  0.00     0.282 C 
ENDBRANCH  25  27
ENDBRANCH  23  25
ENDBRANCH  11  23
ENDBRANCH   9  10
ENDBRANCH   1   9
TORSDOF 11
ENDMDL
MODEL 2
REMARK VINA RESULT:    -6.483      4.439      9.371
REMARK INTER + INTRA:         -11.285
REMARK INTER:                 -10.696
REMARK INTRA:                  -0.589
REMARK UNBOUND:                -0.632
REMARK SMILES COC(=O)CCCCC/N=C(/[c-]1c(=O)[nH]c(=S)[nH]c1=O)[C@@H](F)C(=O)OC
REMARK SMILES IDX 8 1 7 2 6 3 5 4 3 5 4 6 2 7 1 8 9 9 10 10 11 11 12 12 13 13
REMARK SMILES IDX 19 14 14 15 15 16 18 17 20 18 16 19 17 20 21 23 22 24 23 25
REMARK SMILES IDX 24 26 25 27 26 28
REMARK H PARENT 15 21 18 22
ROOT
ATOM      1  C   UNL     1      13.312 -26.245 -42.742  1.00  0.00     0.023 C 
ENDROOT
BRANCH   1   2
ATOM      2  C   UNL     1      13.062 -25.998 -41.252  1.00  0.00     0.002 C 
BRANCH   2   3
ATOM      3  C   UNL     1      13.066 -24.505 -40.916  1.00  0.00     0.012 C 
BRANCH   3   4
ATOM      4  C   UNL     1      13.318 -24.251 -39.433  1.00  0.00     0.123 C 
BRANCH   4   5
ATOM      5  C   UNL     1      14.533 -25.000 -38.944  1.00  0.00     0.305 C 
ATOM      6  O   UNL     1      14.492 -25.929 -38.149  1.00  0.00    -0.252 OA
BRANCH   5   7
ATOM      7  O   UNL     1      15.662 -24.514 -39.530  1.00  0.00    -0.469 OA
ATOM      8  C   UNL     1      16.620 -25.520 -39.858  1.00  0.00     0.282 C 
ENDBRANCH   5   7
ENDBRANCH   4   5
ENDBRANCH   3   4
ENDBRANCH   2   3
ENDBRANCH   1   2
BRANCH   1   9
ATOM      9  C   UNL     1      14.603 -25.582 -43.224  1.00  0.00     0.139 C 
BRANCH   9  10
ATOM     10  N   UNL     1      14.314 -24.817 -44.432  1.00  0.00    -0.321 NA
ATOM     11  C   UNL     1      14.712 -23.596 -44.588  1.00  0.00    -0.059 C 
BRANCH  11  12
ATOM     12  C   UNL     1      14.355 -22.925 -45.860  1.00  0.00    -0.162 C 
ATOM     13  C   UNL     1      15.372 -22.733 -46.899  1.00  0.00     0.105 C 
ATOM     14  C   UNL     1      12.968 -22.504 -46.095  1.00  0.00     0.105 C 
ATOM     15  O   UNL     1      16.521 -23.144 -46.788  1.00  0.00    -0.310 OA
ATOM     16  N   UNL     1      14.940 -22.081 -48.025  1.00  0.00    -0.327 N 
ATOM     17  N   UNL     1      12.739 -21.892 -47.298  1.00  0.00    -0.327 N 
ATOM     18  O   UNL     1      12.073 -22.687 -45.278  1.00  0.00    -0.310 OA
ATOM     19  C   UNL     1      13.668 -21.661 -48.270  1.00  0.00     0.175 C 
ATOM     20  S   UNL     1      13.263 -20.907 -49.693  1.00  0.00    -0.040 S 
ATOM     21  H   UNL     1      15.635 -21.937 -48.748  1.00  0.00     0.169 HD
ATOM     22  H   UNL     1      11.787 -21.593 -47.470  1.00  0.00     0.169 HD
ENDBRANCH  11  12
BRANCH  11  23
ATOM     23  C   UNL     1      15.508 -22.746 -43.617  1.00  0.00     0.291 C 
ATOM     24  F   UNL     1      15.060 -22.939 -42.331  1.00  0.00    -0.231 F 
BRANCH  23  25
ATOM     25  C   UNL     1      16.993 -23.037 -43.709  1.00  0.00     0.343 C 
ATOM     26  O   UNL     1      17.513 -24.108 -43.417  1.00  0.00    -0.248 OA
BRANCH  25  27
ATOM     27  O   UNL     1      17.672 -21.932 -44.132  1.00  0.00    -0.467 OA
ATOM     28  C   UNL     1      19.038 -22.179 -44.467  1.00  0.00     0.282 C 
ENDBRANCH  25  27
ENDBRANCH  23  25
ENDBRANCH  11  23
ENDBRANCH   9  10
ENDBRANCH   1   9
TORSDOF 11
ENDMDL
MODEL 3
REMARK VINA RESULT:    -6.299      4.435      9.153
REMARK INTER + INTRA:         -10.982
REMARK INTER:                 -10.079
REMARK INTRA:                  -0.903
REMARK UNBOUND:                -0.632
REMARK SMILES COC(=O)CCCCC/N=C(/[c-]1c(=O)[nH]c(=S)[nH]c1=O)[C@@H](F)C(=O)OC
REMARK SMILES IDX 8 1 7 2 6 3 5 4 3 5 4 6 2 7 1 8 9 9 10 10 11 11 12 12 13 13
REMARK SMILES IDX 19 14 14 15 15 16 18 17 20 18 16 19 17 20 21 23 22 24 23 25
REMARK SMILES IDX 24 26 25 27 26 28
REMARK H PARENT 15 21 18 22
ROOT
ATOM      1  C   UNL     1      14.607 -26.367 -42.812  1.00  0.00     0.023 C 
ENDROOT
BRANCH   1   2
ATOM      2  C   UNL     1      13.255 -25.654 -42.727  1.00  0.00     0.002 C 
BRANCH   2   3
ATOM      3  C   UNL     1      13.056 -24.976 -41.370  1.00  0.00     0.012 C 
BRANCH   3   4
ATOM      4  C   UNL     1      13.682 -25.776 -40.231  1.00  0.00     0.123 C 
BRANCH   4   5
ATOM      5  C   UNL     1      14.753 -24.985 -39.523  1.00  0.00     0.305 C 
ATOM      6  O   UNL     1      15.705 -24.462 -40.086  1.00  0.00    -0.252 OA
BRANCH   5   7
ATOM      7  O   UNL     1      14.492 -24.915 -38.189  1.00  0.00    -0.469 OA
ATOM      8  C   UNL     1      13.422 -24.030 -37.856  1.00  0.00     0.282 C 
ENDBRANCH   5   7
ENDBRANCH   4   5
ENDBRANCH   3   4
ENDBRANCH   2   3
ENDBRANCH   1   2
BRANCH   1   9
ATOM      9  C   UNL     1      15.664 -25.511 -43.513  1.00  0.00     0.139 C 
BRANCH   9  10
ATOM     10  N   UNL     1      15.041 -24.824 -44.638  1.00  0.00    -0.321 NA
ATOM     11  C   UNL     1      14.979 -23.534 -44.712  1.00  0.00    -0.059 C 
BRANCH  11  12
ATOM     12  C   UNL     1      14.320 -22.955 -45.906  1.00  0.00    -0.162 C 
ATOM     13  C   UNL     1      12.879 -22.679 -45.887  1.00  0.00     0.105 C 
ATOM     14  C   UNL     1      15.124 -22.611 -47.085  1.00  0.00     0.105 C 
ATOM     15  O   UNL     1      12.180 -22.865 -44.898  1.00  0.00    -0.310 OA
ATOM     16  N   UNL     1      12.368 -22.167 -47.051  1.00  0.00    -0.327 N 
ATOM     17  N   UNL     1      14.423 -22.085 -48.137  1.00  0.00    -0.327 N 
ATOM     18  O   UNL     1      16.337 -22.778 -47.131  1.00  0.00    -0.310 OA
ATOM     19  C   UNL     1      13.080 -21.852 -48.169  1.00  0.00     0.175 C 
ATOM     20  S   UNL     1      12.345 -21.206 -49.511  1.00  0.00    -0.040 S 
ATOM     21  H   UNL     1      11.373 -21.977 -47.053  1.00  0.00     0.169 HD
ATOM     22  H   UNL     1      14.966 -21.849 -48.958  1.00  0.00     0.169 HD
ENDBRANCH  11  12
BRANCH  11  23
ATOM     23  C   UNL     1      15.502 -22.520 -43.713  1.00  0.00     0.291 C 
ATOM     24  F   UNL     1      14.889 -22.686 -42.493  1.00  0.00    -0.231 F 
BRANCH  23  25
ATOM     25  C   UNL     1      17.008 -22.609 -43.564  1.00  0.00     0.343 C 
ATOM     26  O   UNL     1      17.586 -23.109 -42.606  1.00  0.00    -0.248 OA
BRANCH  25  27
ATOM     27  O   UNL     1      17.630 -22.027 -44.631  1.00  0.00    -0.467 OA
ATOM     28  C   UNL     1      19.055 -22.046 -44.557  1.00  0.00     0.282 C 
ENDBRANCH  25  27
ENDBRANCH  23  25
ENDBRANCH  11  23
ENDBRANCH   9  10
ENDBRANCH   1   9
TORSDOF 11
ENDMDL
MODEL 4
REMARK VINA RESULT:    -6.295      3.812      7.230
REMARK INTER + INTRA:         -10.975
REMARK INTER:                  -9.943
REMARK INTRA:                  -1.032
REMARK UNBOUND:                -0.632
REMARK SMILES COC(=O)CCCCC/N=C(/[c-]1c(=O)[nH]c(=S)[nH]c1=O)[C@@H](F)C(=O)OC
REMARK SMILES IDX 8 1 7 2 6 3 5 4 3 5 4 6 2 7 1 8 9 9 10 10 11 11 12 12 13 13
REMARK SMILES IDX 19 14 14 15 15 16 18 17 20 18 16 19 17 20 21 23 22 24 23 25
REMARK SMILES IDX 24 26 25 27 26 28
REMARK H PARENT 15 21 18 22
ROOT
ATOM      1  C   UNL     1      13.300 -23.357 -43.895  1.00  0.00     0.023 C 
ENDROOT
BRANCH   1   2
ATOM      2  C   UNL     1      13.294 -24.350 -42.730  1.00  0.00     0.002 C 
BRANCH   2   3
ATOM      3  C   UNL     1      14.677 -24.475 -42.085  1.00  0.00     0.012 C 
BRANCH   3   4
ATOM      4  C   UNL     1      15.795 -24.076 -43.044  1.00  0.00     0.123 C 
BRANCH   4   5
ATOM      5  C   UNL     1      16.720 -23.061 -42.421  1.00  0.00     0.305 C 
ATOM      6  O   UNL     1      16.785 -22.838 -41.220  1.00  0.00    -0.252 OA
BRANCH   5   7
ATOM      7  O   UNL     1      17.481 -22.459 -43.376  1.00  0.00    -0.469 OA
ATOM      8  C   UNL     1      16.825 -22.327 -44.637  1.00  0.00     0.282 C 
ENDBRANCH   5   7
ENDBRANCH   4   5
ENDBRANCH   3   4
ENDBRANCH   2   3
ENDBRANCH   1   2
BRANCH   1   9
ATOM      9  C   UNL     1      12.183 -23.646 -44.900  1.00  0.00     0.139 C 
BRANCH   9  10
ATOM     10  N   UNL     1      12.392 -22.821 -46.084  1.00  0.00    -0.321 NA
ATOM     11  C   UNL     1      12.831 -23.310 -47.199  1.00  0.00    -0.059 C 
BRANCH  11  12
ATOM     12  C   UNL     1      13.002 -22.369 -48.330  1.00  0.00    -0.162 C 
ATOM     13  C   UNL     1      11.847 -21.989 -49.151  1.00  0.00     0.105 C 
ATOM     14  C   UNL     1      14.321 -21.779 -48.590  1.00  0.00     0.105 C 
ATOM     15  O   UNL     1      10.710 -22.385 -48.920  1.00  0.00    -0.310 OA
ATOM     16  N   UNL     1      12.121 -21.132 -50.185  1.00  0.00    -0.327 N 
ATOM     17  N   UNL     1      14.377 -20.924 -49.659  1.00  0.00    -0.327 N 
ATOM     18  O   UNL     1      15.304 -22.027 -47.904  1.00  0.00    -0.310 OA
ATOM     19  C   UNL     1      13.334 -20.579 -50.466  1.00  0.00     0.175 C 
ATOM     20  S   UNL     1      13.531 -19.525 -51.735  1.00  0.00    -0.040 S 
ATOM     21  H   UNL     1      11.333 -20.867 -50.762  1.00  0.00     0.169 HD
ATOM     22  H   UNL     1      15.283 -20.514 -49.852  1.00  0.00     0.169 HD
ENDBRANCH  11  12
BRANCH  11  23
ATOM     23  C   UNL     1      13.201 -24.749 -47.500  1.00  0.00     0.291 C 
ATOM     24  F   UNL     1      13.742 -25.349 -46.387  1.00  0.00    -0.231 F 
BRANCH  23  25
ATOM     25  C   UNL     1      12.008 -25.540 -48.000  1.00  0.00     0.343 C 
ATOM     26  O   UNL     1      11.645 -25.590 -49.170  1.00  0.00    -0.248 OA
BRANCH  25  27
ATOM     27  O   UNL     1      11.378 -26.162 -46.962  1.00  0.00    -0.467 OA
ATOM     28  C   UNL     1       9.963 -25.967 -46.938  1.00  0.00     0.282 C 
ENDBRANCH  25  27
ENDBRANCH  23  25
ENDBRANCH  11  23
ENDBRANCH   9  10
ENDBRANCH   1   9
TORSDOF 11
ENDMDL
MODEL 5
REMARK VINA RESULT:    -6.222      3.787      7.372
REMARK INTER + INTRA:         -10.855
REMARK INTER:                  -9.956
REMARK INTRA:                  -0.900
REMARK UNBOUND:                -0.632
REMARK SMILES COC(=O)CCCCC/N=C(/[c-]1c(=O)[nH]c(=S)[nH]c1=O)[C@@H](F)C(=O)OC
REMARK SMILES IDX 8 1 7 2 6 3 5 4 3 5 4 6 2 7 1 8 9 9 10 10 11 11 12 12 13 13
REMARK SMILES IDX 19 14 14 15 15 16 18 17 20 18 16 19 17 20 21 23 22 24 23 25
REMARK SMILES IDX 24 26 25 27 26 28
REMARK H PARENT 15 21 18 22
ROOT
ATOM      1  C   UNL     1      13.239 -23.466 -44.130  1.00  0.00     0.023 C 
ENDROOT
BRANCH   1   2
ATOM      2  C   UNL     1      13.023 -24.303 -42.866  1.00  0.00     0.002 C 
BRANCH   2   3
ATOM      3  C   UNL     1      14.242 -24.258 -41.941  1.00  0.00     0.012 C 
BRANCH   3   4
ATOM      4  C   UNL     1      15.554 -24.254 -42.721  1.00  0.00     0.123 C 
BRANCH   4   5
ATOM      5  C   UNL     1      16.417 -23.075 -42.345  1.00  0.00     0.305 C 
ATOM      6  O   UNL     1      16.783 -22.831 -41.204  1.00  0.00    -0.252 OA
BRANCH   5   7
ATOM      7  O   UNL     1      16.745 -22.352 -43.450  1.00  0.00    -0.469 OA
ATOM      8  C   UNL     1      16.930 -23.144 -44.623  1.00  0.00     0.282 C 
ENDBRANCH   5   7
ENDBRANCH   4   5
ENDBRANCH   3   4
ENDBRANCH   2   3
ENDBRANCH   1   2
BRANCH   1   9
ATOM      9  C   UNL     1      12.057 -23.570 -45.095  1.00  0.00     0.139 C 
BRANCH   9  10
ATOM     10  N   UNL     1      12.321 -22.724 -46.252  1.00  0.00    -0.321 NA
ATOM     11  C   UNL     1      12.752 -23.201 -47.375  1.00  0.00    -0.059 C 
BRANCH  11  12
ATOM     12  C   UNL     1      12.982 -22.238 -48.476  1.00  0.00    -0.162 C 
ATOM     13  C   UNL     1      14.313 -21.653 -48.674  1.00  0.00     0.105 C 
ATOM     14  C   UNL     1      11.887 -21.914 -49.399  1.00  0.00     0.105 C 
ATOM     15  O   UNL     1      15.281 -21.958 -47.987  1.00  0.00    -0.310 OA
ATOM     16  N   UNL     1      14.409 -20.756 -49.707  1.00  0.00    -0.327 N 
ATOM     17  N   UNL     1      12.198 -21.012 -50.381  1.00  0.00    -0.327 N 
ATOM     18  O   UNL     1      10.772 -22.412 -49.304  1.00  0.00    -0.310 OA
ATOM     19  C   UNL     1      13.412 -20.419 -50.571  1.00  0.00     0.175 C 
ATOM     20  S   UNL     1      13.664 -19.338 -51.806  1.00  0.00    -0.040 S 
ATOM     21  H   UNL     1      15.322 -20.342 -49.850  1.00  0.00     0.169 HD
ATOM     22  H   UNL     1      11.449 -20.776 -51.021  1.00  0.00     0.169 HD
ENDBRANCH  11  12
BRANCH  11  23
ATOM     23  C   UNL     1      13.061 -24.647 -47.712  1.00  0.00     0.291 C 
ATOM     24  F   UNL     1      13.641 -25.277 -46.636  1.00  0.00    -0.231 F 
BRANCH  23  25
ATOM     25  C   UNL     1      11.818 -25.394 -48.155  1.00  0.00     0.343 C 
ATOM     26  O   UNL     1      10.923 -25.766 -47.405  1.00  0.00    -0.248 OA
BRANCH  25  27
ATOM     27  O   UNL     1      11.850 -25.620 -49.500  1.00  0.00    -0.467 OA
ATOM     28  C   UNL     1      10.598 -26.025 -50.053  1.00  0.00     0.282 C 
ENDBRANCH  25  27
ENDBRANCH  23  25
ENDBRANCH  11  23
ENDBRANCH   9  10
ENDBRANCH   1   9
TORSDOF 11
ENDMDL
MODEL 6
REMARK VINA RESULT:    -6.214      3.043      6.147
REMARK INTER + INTRA:         -10.841
REMARK INTER:                  -9.982
REMARK INTRA:                  -0.859
REMARK UNBOUND:                -0.632
REMARK SMILES COC(=O)CCCCC/N=C(/[c-]1c(=O)[nH]c(=S)[nH]c1=O)[C@@H](F)C(=O)OC
REMARK SMILES IDX 8 1 7 2 6 3 5 4 3 5 4 6 2 7 1 8 9 9 10 10 11 11 12 12 13 13
REMARK SMILES IDX 19 14 14 15 15 16 18 17 20 18 16 19 17 20 21 23 22 24 23 25
REMARK SMILES IDX 24 26 25 27 26 28
REMARK H PARENT 15 21 18 22
ROOT
ATOM      1  C   UNL     1      10.099 -24.896 -49.138  1.00  0.00     0.023 C 
ENDROOT
BRANCH   1   2
ATOM      2  C   UNL     1       9.075 -24.075 -48.348  1.00  0.00     0.002 C 
BRANCH   2   3
ATOM      3  C   UNL     1       7.668 -24.209 -48.933  1.00  0.00     0.012 C 
BRANCH   3   4
ATOM      4  C   UNL     1       7.681 -24.238 -50.459  1.00  0.00     0.123 C 
BRANCH   4   5
ATOM      5  C   UNL     1       6.876 -23.103 -51.040  1.00  0.00     0.305 C 
ATOM      6  O   UNL     1       7.336 -22.000 -51.302  1.00  0.00    -0.252 OA
BRANCH   5   7
ATOM      7  O   UNL     1       5.588 -23.490 -51.253  1.00  0.00    -0.469 OA
ATOM      8  C   UNL     1       4.630 -22.741 -50.506  1.00  0.00     0.282 C 
ENDBRANCH   5   7
ENDBRANCH   4   5
ENDBRANCH   3   4
ENDBRANCH   2   3
ENDBRANCH   1   2
BRANCH   1   9
ATOM      9  C   UNL     1      11.258 -24.035 -49.641  1.00  0.00     0.139 C 
BRANCH   9  10
ATOM     10  N   UNL     1      12.222 -23.868 -48.560  1.00  0.00    -0.321 NA
ATOM     11  C   UNL     1      12.500 -22.710 -48.053  1.00  0.00    -0.059 C 
BRANCH  11  12
ATOM     12  C   UNL     1      13.498 -22.672 -46.959  1.00  0.00    -0.162 C 
ATOM     13  C   UNL     1      14.909 -22.410 -47.261  1.00  0.00     0.105 C 
ATOM     14  C   UNL     1      13.058 -22.845 -45.569  1.00  0.00     0.105 C 
ATOM     15  O   UNL     1      15.313 -22.172 -48.393  1.00  0.00    -0.310 OA
ATOM     16  N   UNL     1      15.750 -22.420 -46.178  1.00  0.00    -0.327 N 
ATOM     17  N   UNL     1      14.055 -22.796 -44.631  1.00  0.00    -0.327 N 
ATOM     18  O   UNL     1      11.885 -23.018 -45.262  1.00  0.00    -0.310 OA
ATOM     19  C   UNL     1      15.380 -22.594 -44.879  1.00  0.00     0.175 C 
ATOM     20  S   UNL     1      16.496 -22.554 -43.649  1.00  0.00    -0.040 S 
ATOM     21  H   UNL     1      16.728 -22.246 -46.374  1.00  0.00     0.169 HD
ATOM     22  H   UNL     1      13.764 -22.919 -43.668  1.00  0.00     0.169 HD
ENDBRANCH  11  12
BRANCH  11  23
ATOM     23  C   UNL     1      11.927 -21.363 -48.446  1.00  0.00     0.291 C 
ATOM     24  F   UNL     1      12.115 -20.448 -47.436  1.00  0.00    -0.231 F 
BRANCH  23  25
ATOM     25  C   UNL     1      12.534 -20.854 -49.739  1.00  0.00     0.343 C 
ATOM     26  O   UNL     1      12.388 -21.385 -50.834  1.00  0.00    -0.248 OA
BRANCH  25  27
ATOM     27  O   UNL     1      13.288 -19.740 -49.508  1.00  0.00    -0.467 OA
ATOM     28  C   UNL     1      13.699 -19.058 -50.693  1.00  0.00     0.282 C 
ENDBRANCH  25  27
ENDBRANCH  23  25
ENDBRANCH  11  23
ENDBRANCH   9  10
ENDBRANCH   1   9
TORSDOF 11
ENDMDL
MODEL 7
REMARK VINA RESULT:    -6.145      3.923      8.734
REMARK INTER + INTRA:         -10.729
REMARK INTER:                 -10.072
REMARK INTRA:                  -0.657
REMARK UNBOUND:                -0.632
REMARK SMILES COC(=O)CCCCC/N=C(/[c-]1c(=O)[nH]c(=S)[nH]c1=O)[C@@H](F)C(=O)OC
REMARK SMILES IDX 8 1 7 2 6 3 5 4 3 5 4 6 2 7 1 8 9 9 10 10 11 11 12 12 13 13
REMARK SMILES IDX 19 14 14 15 15 16 18 17 20 18 16 19 17 20 21 23 22 24 23 25
REMARK SMILES IDX 24 26 25 27 26 28
REMARK H PARENT 15 21 18 22
ROOT
ATOM      1  C   UNL     1      13.226 -23.747 -43.494  1.00  0.00     0.023 C 
ENDROOT
BRANCH   1   2
ATOM      2  C   UNL     1      13.208 -24.810 -42.392  1.00  0.00     0.002 C 
BRANCH   2   3
ATOM      3  C   UNL     1      13.413 -24.193 -41.006  1.00  0.00     0.012 C 
BRANCH   3   4
ATOM      4  C   UNL     1      13.508 -25.255 -39.914  1.00  0.00     0.123 C 
BRANCH   4   5
ATOM      5  C   UNL     1      14.288 -24.754 -38.724  1.00  0.00     0.305 C 
ATOM      6  O   UNL     1      13.776 -24.312 -37.705  1.00  0.00    -0.252 OA
BRANCH   5   7
ATOM      7  O   UNL     1      15.626 -24.892 -38.938  1.00  0.00    -0.469 OA
ATOM      8  C   UNL     1      16.045 -26.245 -39.114  1.00  0.00     0.282 C 
ENDBRANCH   5   7
ENDBRANCH   4   5
ENDBRANCH   3   4
ENDBRANCH   2   3
ENDBRANCH   1   2
BRANCH   1   9
ATOM      9  C   UNL     1      12.084 -23.938 -44.493  1.00  0.00     0.139 C 
BRANCH   9  10
ATOM     10  N   UNL     1      12.316 -23.071 -45.642  1.00  0.00    -0.321 NA
ATOM     11  C   UNL     1      12.776 -23.519 -46.765  1.00  0.00    -0.059 C 
BRANCH  11  12
ATOM     12  C   UNL     1      12.969 -22.537 -47.858  1.00  0.00    -0.162 C 
ATOM     13  C   UNL     1      11.823 -22.098 -48.661  1.00  0.00     0.105 C 
ATOM     14  C   UNL     1      14.301 -21.967 -48.095  1.00  0.00     0.105 C 
ATOM     15  O   UNL     1      10.678 -22.476 -48.446  1.00  0.00    -0.310 OA
ATOM     16  N   UNL     1      12.117 -21.207 -49.660  1.00  0.00    -0.327 N 
ATOM     17  N   UNL     1      14.377 -21.071 -49.129  1.00  0.00    -0.327 N 
ATOM     18  O   UNL     1      15.279 -22.265 -47.421  1.00  0.00    -0.310 OA
ATOM     19  C   UNL     1      13.342 -20.671 -49.921  1.00  0.00     0.175 C 
ATOM     20  S   UNL     1      13.563 -19.572 -51.146  1.00  0.00    -0.040 S 
ATOM     21  H   UNL     1      11.335 -20.900 -50.226  1.00  0.00     0.169 HD
ATOM     22  H   UNL     1      15.292 -20.675 -49.306  1.00  0.00     0.169 HD
ENDBRANCH  11  12
BRANCH  11  23
ATOM     23  C   UNL     1      13.154 -24.946 -47.111  1.00  0.00     0.291 C 
ATOM     24  F   UNL     1      13.556 -25.623 -45.984  1.00  0.00    -0.231 F 
BRANCH  23  25
ATOM     25  C   UNL     1      12.011 -25.677 -47.788  1.00  0.00     0.343 C 
ATOM     26  O   UNL     1      11.822 -25.707 -48.998  1.00  0.00    -0.248 OA
BRANCH  25  27
ATOM     27  O   UNL     1      11.207 -26.272 -46.859  1.00  0.00    -0.467 OA
ATOM     28  C   UNL     1       9.860 -25.798 -46.865  1.00  0.00     0.282 C 
ENDBRANCH  25  27
ENDBRANCH  23  25
ENDBRANCH  11  23
ENDBRANCH   9  10
ENDBRANCH   1   9
TORSDOF 11
ENDMDL
MODEL 8
REMARK VINA RESULT:    -6.014      4.457      9.224
REMARK INTER + INTRA:         -10.513
REMARK INTER:                  -9.794
REMARK INTRA:                  -0.718
REMARK UNBOUND:                -0.632
REMARK SMILES COC(=O)CCCCC/N=C(/[c-]1c(=O)[nH]c(=S)[nH]c1=O)[C@@H](F)C(=O)OC
REMARK SMILES IDX 8 1 7 2 6 3 5 4 3 5 4 6 2 7 1 8 9 9 10 10 11 11 12 12 13 13
REMARK SMILES IDX 19 14 14 15 15 16 18 17 20 18 16 19 17 20 21 23 22 24 23 25
REMARK SMILES IDX 24 26 25 27 26 28
REMARK H PARENT 15 21 18 22
ROOT
ATOM      1  C   UNL     1      12.946 -24.091 -43.132  1.00  0.00     0.023 C 
ENDROOT
BRANCH   1   2
ATOM      2  C   UNL     1      13.833 -24.193 -41.889  1.00  0.00     0.002 C 
BRANCH   2   3
ATOM      3  C   UNL     1      13.138 -24.957 -40.759  1.00  0.00     0.012 C 
BRANCH   3   4
ATOM      4  C   UNL     1      13.471 -24.379 -39.386  1.00  0.00     0.123 C 
BRANCH   4   5
ATOM      5  C   UNL     1      14.548 -25.179 -38.696  1.00  0.00     0.305 C 
ATOM      6  O   UNL     1      14.328 -26.117 -37.942  1.00  0.00    -0.252 OA
BRANCH   5   7
ATOM      7  O   UNL     1      15.781 -24.728 -39.055  1.00  0.00    -0.469 OA
ATOM      8  C   UNL     1      16.678 -25.763 -39.459  1.00  0.00     0.282 C 
ENDBRANCH   5   7
ENDBRANCH   4   5
ENDBRANCH   3   4
ENDBRANCH   2   3
ENDBRANCH   1   2
BRANCH   1   9
ATOM      9  C   UNL     1      13.524 -23.128 -44.171  1.00  0.00     0.139 C 
BRANCH   9  10
ATOM     10  N   UNL     1      12.668 -23.142 -45.351  1.00  0.00    -0.321 NA
ATOM     11  C   UNL     1      13.146 -23.121 -46.553  1.00  0.00    -0.059 C 
BRANCH  11  12
ATOM     12  C   UNL     1      12.172 -23.137 -47.670  1.00  0.00    -0.162 C 
ATOM     13  C   UNL     1      11.759 -21.880 -48.303  1.00  0.00     0.105 C 
ATOM     14  C   UNL     1      11.665 -24.420 -48.172  1.00  0.00     0.105 C 
ATOM     15  O   UNL     1      12.220 -20.791 -47.979  1.00  0.00    -0.310 OA
ATOM     16  N   UNL     1      10.837 -22.007 -49.308  1.00  0.00    -0.327 N 
ATOM     17  N   UNL     1      10.768 -24.330 -49.203  1.00  0.00    -0.327 N 
ATOM     18  O   UNL     1      12.016 -25.498 -47.709  1.00  0.00    -0.310 OA
ATOM     19  C   UNL     1      10.332 -23.178 -49.789  1.00  0.00     0.175 C 
ATOM     20  S   UNL     1       9.239 -23.201 -51.038  1.00  0.00    -0.040 S 
ATOM     21  H   UNL     1      10.540 -21.145 -49.750  1.00  0.00     0.169 HD
ATOM     22  H   UNL     1      10.407 -25.208 -49.555  1.00  0.00     0.169 HD
ENDBRANCH  11  12
BRANCH  11  23
ATOM     23  C   UNL     1      14.602 -23.077 -46.973  1.00  0.00     0.291 C 
ATOM     24  F   UNL     1      15.205 -21.936 -46.498  1.00  0.00    -0.231 F 
BRANCH  23  25
ATOM     25  C   UNL     1      15.355 -24.307 -46.505  1.00  0.00     0.343 C 
ATOM     26  O   UNL     1      14.876 -25.433 -46.433  1.00  0.00    -0.248 OA
BRANCH  25  27
ATOM     27  O   UNL     1      16.630 -23.979 -46.146  1.00  0.00    -0.467 OA
ATOM     28  C   UNL     1      16.972 -24.347 -44.809  1.00  0.00     0.282 C 
ENDBRANCH  25  27
ENDBRANCH  23  25
ENDBRANCH  11  23
ENDBRANCH   9  10
ENDBRANCH   1   9
TORSDOF 11
ENDMDL
