REMARK SMILES Cc1nnc(NC(=O)CSc2nnc(N/N=C/c3c(C)nn(C(C)C)c3C)n2N)s1
REMARK SMILES IDX 11 1 12 2 13 3 14 4 28 5 10 6 9 7 7 8 6 9 8 10 5 12 2 13
REMARK SMILES IDX 3 14 30 15 4 16 1 17 29 18 15 21 16 23 17 24 18 25 19 26
REMARK SMILES IDX 26 27 21 28 22 29 20 30 27 31 23 32 24 33 25 34
REMARK H PARENT 6 11 29 19 29 20 15 22
ROOT
ATOM      1  C   UNL     1      -0.437  -3.445  -2.014  1.00  0.00     0.211 A 
ATOM      2  N   UNL     1       0.488  -2.731  -1.412  1.00  0.00    -0.119 NA
ATOM      3  N   UNL     1       0.010  -1.444  -1.306  1.00  0.00    -0.107 NA
ATOM      4  C   UNL     1      -1.189  -1.396  -1.861  1.00  0.00     0.264 A 
ATOM      5  N   UNL     1      -1.508  -2.654  -2.334  1.00  0.00    -0.202 N 
ENDROOT
BRANCH   1   6
ATOM      6  S   UNL     1      -0.379  -5.144  -2.324  1.00  0.00    -0.074 SA
BRANCH   6   7
ATOM      7  C   UNL     1       1.022  -5.635  -1.270  1.00  0.00     0.178 C 
BRANCH   7   8
ATOM      8  C   UNL     1       0.633  -5.587   0.200  1.00  0.00     0.236 C 
ATOM      9  N   UNL     1       0.897  -4.369   0.789  1.00  0.00    -0.300 N 
ATOM     10  O   UNL     1       0.128  -6.564   0.745  1.00  0.00    -0.274 OA
ATOM     11  H   UNL     1       1.163  -3.570   0.221  1.00  0.00     0.172 HD
BRANCH   9  12
ATOM     12  C   UNL     1       0.599  -4.111   2.097  1.00  0.00     0.212 A 
ATOM     13  C   UNL     1       0.308  -2.953   4.136  1.00  0.00     0.116 A 
ATOM     14  N   UNL     1      -0.009  -4.226   4.240  1.00  0.00    -0.142 NA
ATOM     15  S   UNL     1       0.841  -2.487   2.569  1.00  0.00    -0.080 S 
ATOM     16  N   UNL     1       0.163  -4.903   3.045  1.00  0.00    -0.120 NA
ATOM     17  C   UNL     1       0.231  -1.965   5.240  1.00  0.00     0.081 C 
ENDBRANCH   9  12
ENDBRANCH   7   8
ENDBRANCH   6   7
ENDBRANCH   1   6
BRANCH   5  18
ATOM     18  N   UNL     1      -2.737  -3.031  -2.995  1.00  0.00    -0.334 N 
ATOM     19  H   UNL     1      -3.281  -3.647  -2.390  1.00  0.00     0.178 HD
ATOM     20  H   UNL     1      -2.530  -3.593  -3.822  1.00  0.00     0.178 HD
ENDBRANCH   5  18
BRANCH   4  21
ATOM     21  N   UNL     1      -2.070  -0.366  -2.002  1.00  0.00    -0.244 N 
ATOM     22  H   UNL     1      -2.839  -0.550  -2.653  1.00  0.00     0.193 HD
BRANCH  21  23
ATOM     23  N   UNL     1      -1.767   0.965  -1.871  1.00  0.00    -0.180 NA
ATOM     24  C   UNL     1      -1.108   1.311  -0.809  1.00  0.00     0.145 C 
BRANCH  24  25
ATOM     25  C   UNL     1      -0.734   2.696  -0.617  1.00  0.00     0.038 A 
ATOM     26  C   UNL     1      -0.988   3.823  -1.444  1.00  0.00     0.068 A 
ATOM     27  C   UNL     1      -0.020   3.206   0.461  1.00  0.00     0.045 A 
ATOM     28  N   UNL     1      -0.482   4.946  -0.924  1.00  0.00    -0.177 NA
ATOM     29  N   UNL     1       0.100   4.556   0.224  1.00  0.00    -0.266 N 
ATOM     30  C   UNL     1      -1.710   3.877  -2.740  1.00  0.00     0.069 C 
ATOM     31  C   UNL     1       0.549   2.543   1.663  1.00  0.00     0.067 C 
BRANCH  29  32
ATOM     32  C   UNL     1       0.766   5.561   1.052  1.00  0.00     0.101 C 
ATOM     33  C   UNL     1       1.958   6.181   0.323  1.00  0.00     0.033 C 
ATOM     34  C   UNL     1      -0.215   6.632   1.530  1.00  0.00     0.033 C 
ENDBRANCH  29  32
ENDBRANCH  24  25
ENDBRANCH  21  23
ENDBRANCH   4  21
TORSDOF 9
