REMARK SMILES CC1(C)C[C@@H]2C[C@@](C)(CN2/C([O-])=C2\C=CC=C\C2=N/S(=O)(=O)c2ccc(Br)cc2)C1
REMARK SMILES IDX 11 1 12 2 13 3 14 4 15 5 16 6 17 7 18 8 19 9 10 10 2 11 4 12
REMARK SMILES IDX 30 13 5 14 7 15 6 16 9 17 1 18 3 19 8 20 20 21 21 22 22 23
REMARK SMILES IDX 23 24 24 25 29 26 25 27 28 28 26 29 27 30
REMARK H PARENT
ROOT
ATOM      1  C   UNL     1      -0.972  -0.269  -0.135  1.00  0.00    -0.032 C 
ATOM      2  O   UNL     1      -0.961  -1.237  -0.945  1.00  0.00    -0.860 OA
ATOM      3  C   UNL     1      -1.577  -0.142   1.080  1.00  0.00     0.009 C 
ATOM      4  C   UNL     1      -1.351   0.997   1.962  1.00  0.00     0.011 C 
ATOM      5  C   UNL     1      -1.479   0.873   3.289  1.00  0.00     0.001 C 
ATOM      6  C   UNL     1      -1.799  -0.407   3.872  1.00  0.00     0.002 C 
ATOM      7  C   UNL     1      -2.246  -1.431   3.129  1.00  0.00     0.030 C 
ATOM      8  C   UNL     1      -2.463  -1.248   1.649  1.00  0.00     0.085 C 
ATOM      9  N   UNL     1      -3.315  -1.883   0.910  1.00  0.00    -0.159 NA
ENDROOT
BRANCH   1  10
ATOM     10  N   UNL     1      -0.126   0.758  -0.623  1.00  0.00    -0.380 N 
ATOM     11  C   UNL     1       1.789   3.136  -0.517  1.00  0.00    -0.033 C 
ATOM     12  C   UNL     1       1.986   1.758   0.179  1.00  0.00     0.031 C 
ATOM     13  C   UNL     1       1.586   3.014  -2.055  1.00  0.00     0.015 C 
ATOM     14  C   UNL     1       1.342   0.560  -0.539  1.00  0.00     0.082 C 
ATOM     15  C   UNL     1       0.979   1.680  -2.556  1.00  0.00    -0.013 C 
ATOM     16  C   UNL     1       1.804   0.527  -1.993  1.00  0.00     0.033 C 
ATOM     17  C   UNL     1      -0.408   1.376  -1.949  1.00  0.00     0.122 C 
ATOM     18  C   UNL     1       3.043   4.002  -0.250  1.00  0.00     0.011 C 
ATOM     19  C   UNL     1       0.604   3.901   0.112  1.00  0.00     0.011 C 
ATOM     20  C   UNL     1       0.940   1.662  -4.084  1.00  0.00     0.013 C 
ENDBRANCH   1  10
BRANCH   9  21
ATOM     21  S   UNL     1      -4.217  -3.120   1.371  1.00  0.00     0.282 S 
ATOM     22  O   UNL     1      -4.705  -2.932   2.729  1.00  0.00    -0.199 OA
ATOM     23  O   UNL     1      -5.173  -3.464   0.333  1.00  0.00    -0.199 OA
BRANCH  21  24
ATOM     24  C   UNL     1      -3.094  -4.513   1.437  1.00  0.00     0.089 A 
ATOM     25  C   UNL     1      -1.997  -4.563   0.572  1.00  0.00     0.023 A 
ATOM     26  C   UNL     1      -3.306  -5.520   2.384  1.00  0.00     0.023 A 
ATOM     27  C   UNL     1      -1.105  -5.634   0.652  1.00  0.00     0.017 A 
ATOM     28  C   UNL     1      -2.414  -6.592   2.457  1.00  0.00     0.017 A 
ATOM     29  C   UNL     1      -1.319  -6.642   1.591  1.00  0.00     0.018 A 
ATOM     30  Br  UNL     1      -0.111  -8.094   1.700  1.00  0.00    -0.051 Br
ENDBRANCH  21  24
ENDBRANCH   9  21
TORSDOF 3
