REMARK SMILES Cc1ccc(C)c(NC(=O)[C@H](C)OC(=O)CNS(=O)(=O)c2ccc3c(c2)nnn3[O-])c1
REMARK SMILES IDX 14 1 15 2 13 3 11 4 12 5 9 6 8 7 10 8 7 10 2 11 3 12 31 13
REMARK SMILES IDX 4 14 5 15 1 16 6 17 16 18 17 19 18 21 19 22 20 23 21 24
REMARK SMILES IDX 22 25 26 26 23 27 25 28 24 29 27 30 29 31 28 32 30 33
REMARK H PARENT 8 9 17 20
ROOT
ATOM      1  C   UNL     1       2.285  -1.639  -1.395  1.00  0.00     0.321 C 
ATOM      2  O   UNL     1       3.138  -2.223  -0.731  1.00  0.00    -0.251 OA
ENDROOT
BRANCH   1   3
ATOM      3  O   UNL     1       1.214  -0.962  -0.919  1.00  0.00    -0.452 OA
BRANCH   3   4
ATOM      4  C   UNL     1       1.000  -0.985   0.504  1.00  0.00     0.262 C 
ATOM      5  C   UNL     1       2.001  -0.208   1.338  1.00  0.00     0.064 C 
BRANCH   4   6
ATOM      6  C   UNL     1      -0.467  -0.614   0.772  1.00  0.00     0.265 C 
ATOM      7  N   UNL     1      -0.875   0.681   0.492  1.00  0.00    -0.323 N 
ATOM      8  O   UNL     1      -1.213  -1.510   1.198  1.00  0.00    -0.270 OA
ATOM      9  H   UNL     1      -0.133   1.417   0.342  1.00  0.00     0.170 HD
BRANCH   7  10
ATOM     10  C   UNL     1      -2.238   1.103   0.458  1.00  0.00     0.044 A 
ATOM     11  C   UNL     1      -4.622   0.564   0.128  1.00  0.00    -0.049 A 
ATOM     12  C   UNL     1      -4.948   1.910   0.268  1.00  0.00     0.004 A 
ATOM     13  C   UNL     1      -3.272   0.181   0.208  1.00  0.00     0.029 A 
ATOM     14  C   UNL     1      -3.943   2.843   0.515  1.00  0.00     0.006 A 
ATOM     15  C   UNL     1      -2.592   2.454   0.628  1.00  0.00    -0.027 A 
ATOM     16  C   UNL     1      -5.676  -0.454  -0.179  1.00  0.00     0.044 C 
ATOM     17  C   UNL     1      -1.587   3.529   0.934  1.00  0.00     0.046 C 
ENDBRANCH   7  10
ENDBRANCH   4   6
ENDBRANCH   3   4
ENDBRANCH   1   3
BRANCH   1  18
ATOM     18  C   UNL     1       2.263  -1.692  -2.912  1.00  0.00     0.221 C 
BRANCH  18  19
ATOM     19  N   UNL     1       3.628  -1.565  -3.484  1.00  0.00    -0.200 NA
ATOM     20  H   UNL     1       4.362  -1.864  -2.836  1.00  0.00     0.142 HD
BRANCH  19  21
ATOM     21  S   UNL     1       4.027  -0.113  -4.253  1.00  0.00     0.241 S 
ATOM     22  O   UNL     1       3.051   0.117  -5.296  1.00  0.00    -0.207 OA
ATOM     23  O   UNL     1       5.439  -0.208  -4.567  1.00  0.00    -0.207 OA
BRANCH  21  24
ATOM     24  C   UNL     1       3.809   1.076  -2.969  1.00  0.00     0.084 A 
ATOM     25  C   UNL     1       4.907   1.418  -2.150  1.00  0.00     0.024 A 
ATOM     26  C   UNL     1       2.504   1.522  -2.723  1.00  0.00     0.054 A 
ATOM     27  C   UNL     1       4.712   2.160  -0.982  1.00  0.00     0.031 A 
ATOM     28  C   UNL     1       2.292   2.147  -1.497  1.00  0.00     0.114 A 
ATOM     29  C   UNL     1       3.390   2.458  -0.677  1.00  0.00     0.084 A 
ATOM     30  N   UNL     1       1.119   2.457  -0.845  1.00  0.00    -0.131 NA
ATOM     31  N   UNL     1       2.871   3.035   0.527  1.00  0.00    -0.273 N 
ATOM     32  N   UNL     1       1.420   2.934   0.438  1.00  0.00    -0.071 NA
ATOM     33  O   UNL     1       3.601   3.324   1.717  1.00  0.00    -0.789 OA
ENDBRANCH  21  24
ENDBRANCH  19  21
ENDBRANCH  18  19
ENDBRANCH   1  18
TORSDOF 8
