MODEL 1
REMARK VINA RESULT:    -7.551      0.000      0.000
REMARK INTER + INTRA:         -13.051
REMARK INTER:                 -12.185
REMARK INTRA:                  -0.866
REMARK UNBOUND:                -0.866
REMARK SMILES CCCCn1c(N)c(N(CCC(C)C)C(=O)Cn2cnc3ccc(F)cc3c2=O)c(=O)[nH]c1=O
REMARK SMILES IDX 5 1 6 2 8 3 30 4 31 5 32 6 33 7 34 8 4 10 3 11 2 12 1 13
REMARK SMILES IDX 7 14 9 17 10 18 11 19 12 20 13 21 14 22 15 23 16 24 17 25
REMARK SMILES IDX 18 26 19 27 28 28 20 29 27 30 29 31 21 32 26 33 22 34 24 35
REMARK SMILES IDX 23 36 25 37
REMARK H PARENT 32 9 7 15 7 16
ROOT
ATOM      1  N   UNL     1      15.039 -24.848 -41.666  1.00  0.00    -0.278 N 
ATOM      2  C   UNL     1      14.422 -24.849 -42.920  1.00  0.00     0.137 C 
ATOM      3  C   UNL     1      14.635 -23.816 -43.781  1.00  0.00     0.151 C 
ATOM      4  C   UNL     1      15.573 -22.727 -43.359  1.00  0.00     0.279 C 
ATOM      5  O   UNL     1      15.685 -21.669 -43.971  1.00  0.00    -0.267 OA
ATOM      6  N   UNL     1      16.268 -22.940 -42.215  1.00  0.00    -0.272 N 
ATOM      7  C   UNL     1      15.926 -23.852 -41.267  1.00  0.00     0.330 C 
ATOM      8  O   UNL     1      16.405 -23.756 -40.140  1.00  0.00    -0.248 OA
ATOM      9  H   UNL     1      16.835 -22.173 -41.890  1.00  0.00     0.175 HD
ENDROOT
BRANCH   1  10
ATOM     10  C   UNL     1      14.710 -25.860 -40.651  1.00  0.00     0.129 C 
BRANCH  10  11
ATOM     11  C   UNL     1      13.355 -25.595 -39.988  1.00  0.00     0.022 C 
BRANCH  11  12
ATOM     12  C   UNL     1      13.221 -24.176 -39.434  1.00  0.00    -0.002 C 
ATOM     13  C   UNL     1      13.497 -24.081 -37.941  1.00  0.00     0.004 C 
ENDBRANCH  11  12
ENDBRANCH  10  11
ENDBRANCH   1  10
BRANCH   2  14
ATOM     14  N   UNL     1      13.607 -25.918 -43.295  1.00  0.00    -0.383 N 
ATOM     15  H   UNL     1      13.758 -26.187 -44.270  1.00  0.00     0.158 HD
ATOM     16  H   UNL     1      13.765 -26.738 -42.716  1.00  0.00     0.158 HD
ENDBRANCH   2  14
BRANCH   3  17
ATOM     17  N   UNL     1      14.024 -23.741 -45.042  1.00  0.00    -0.303 N 
BRANCH  17  18
ATOM     18  C   UNL     1      14.828 -23.945 -46.258  1.00  0.00     0.126 C 
BRANCH  18  19
ATOM     19  C   UNL     1      15.661 -25.236 -46.271  1.00  0.00     0.025 C 
BRANCH  19  20
ATOM     20  C   UNL     1      17.172 -25.033 -46.046  1.00  0.00    -0.016 C 
ATOM     21  C   UNL     1      17.569 -25.589 -44.675  1.00  0.00     0.007 C 
ATOM     22  C   UNL     1      17.581 -23.564 -46.140  1.00  0.00     0.007 C 
ENDBRANCH  19  20
ENDBRANCH  18  19
ENDBRANCH  17  18
BRANCH  17  23
ATOM     23  C   UNL     1      12.675 -23.429 -45.240  1.00  0.00     0.247 C 
ATOM     24  O   UNL     1      11.966 -23.065 -44.294  1.00  0.00    -0.272 OA
BRANCH  23  25
ATOM     25  C   UNL     1      12.081 -23.446 -46.663  1.00  0.00     0.227 C 
BRANCH  25  26
ATOM     26  N   UNL     1      12.452 -22.316 -47.503  1.00  0.00    -0.289 N 
ATOM     27  C   UNL     1      12.715 -21.090 -46.946  1.00  0.00     0.203 C 
ATOM     28  C   UNL     1      12.426 -22.488 -48.880  1.00  0.00     0.261 C 
ATOM     29  N   UNL     1      13.072 -20.040 -47.604  1.00  0.00    -0.238 NA
ATOM     30  C   UNL     1      12.865 -21.331 -49.680  1.00  0.00     0.069 A 
ATOM     31  O   UNL     1      12.072 -23.526 -49.430  1.00  0.00    -0.269 OA
ATOM     32  C   UNL     1      13.183 -20.153 -48.996  1.00  0.00     0.078 A 
ATOM     33  C   UNL     1      12.973 -21.416 -51.069  1.00  0.00     0.055 A 
ATOM     34  C   UNL     1      13.618 -19.045 -49.728  1.00  0.00     0.032 A 
ATOM     35  C   UNL     1      13.407 -20.303 -51.774  1.00  0.00     0.124 A 
ATOM     36  C   UNL     1      13.730 -19.118 -51.119  1.00  0.00     0.041 A 
ATOM     37  F   UNL     1      13.516 -20.366 -53.108  1.00  0.00    -0.207 F 
ENDBRANCH  25  26
ENDBRANCH  23  25
ENDBRANCH  17  23
ENDBRANCH   3  17
TORSDOF 11
ENDMDL
MODEL 2
REMARK VINA RESULT:    -7.246      3.247      8.201
REMARK INTER + INTRA:         -12.559
REMARK INTER:                 -10.809
REMARK INTRA:                  -1.750
REMARK UNBOUND:                -0.866
REMARK SMILES CCCCn1c(N)c(N(CCC(C)C)C(=O)Cn2cnc3ccc(F)cc3c2=O)c(=O)[nH]c1=O
REMARK SMILES IDX 5 1 6 2 8 3 30 4 31 5 32 6 33 7 34 8 4 10 3 11 2 12 1 13
REMARK SMILES IDX 7 14 9 17 10 18 11 19 12 20 13 21 14 22 15 23 16 24 17 25
REMARK SMILES IDX 18 26 19 27 28 28 20 29 27 30 29 31 21 32 26 33 22 34 24 35
REMARK SMILES IDX 23 36 25 37
REMARK H PARENT 32 9 7 15 7 16
ROOT
ATOM      1  N   UNL     1      12.276 -21.407 -49.084  1.00  0.00    -0.278 N 
ATOM      2  C   UNL     1      11.940 -22.740 -48.829  1.00  0.00     0.137 C 
ATOM      3  C   UNL     1      12.079 -23.245 -47.573  1.00  0.00     0.151 C 
ATOM      4  C   UNL     1      12.549 -22.324 -46.489  1.00  0.00     0.279 C 
ATOM      5  O   UNL     1      12.886 -22.719 -45.377  1.00  0.00    -0.267 OA
ATOM      6  N   UNL     1      12.641 -21.011 -46.812  1.00  0.00    -0.272 N 
ATOM      7  C   UNL     1      12.696 -20.535 -48.084  1.00  0.00     0.330 C 
ATOM      8  O   UNL     1      13.101 -19.391 -48.281  1.00  0.00    -0.248 OA
ATOM      9  H   UNL     1      13.035 -20.406 -46.108  1.00  0.00     0.175 HD
ENDROOT
BRANCH   1  10
ATOM     10  C   UNL     1      12.292 -20.870 -50.453  1.00  0.00     0.129 C 
BRANCH  10  11
ATOM     11  C   UNL     1      13.715 -20.725 -51.000  1.00  0.00     0.022 C 
BRANCH  11  12
ATOM     12  C   UNL     1      13.820 -19.725 -52.152  1.00  0.00    -0.002 C 
ATOM     13  C   UNL     1      14.207 -18.324 -51.702  1.00  0.00     0.004 C 
ENDBRANCH  11  12
ENDBRANCH  10  11
ENDBRANCH   1  10
BRANCH   2  14
ATOM     14  N   UNL     1      11.445 -23.542 -49.858  1.00  0.00    -0.383 N 
ATOM     15  H   UNL     1      10.948 -24.359 -49.496  1.00  0.00     0.158 HD
ATOM     16  H   UNL     1      10.809 -23.033 -50.465  1.00  0.00     0.158 HD
ENDBRANCH   2  14
BRANCH   3  17
ATOM     17  N   UNL     1      11.789 -24.581 -47.255  1.00  0.00    -0.303 N 
BRANCH  17  18
ATOM     18  C   UNL     1      10.611 -24.898 -46.432  1.00  0.00     0.126 C 
BRANCH  18  19
ATOM     19  C   UNL     1       9.779 -26.090 -46.930  1.00  0.00     0.025 C 
BRANCH  19  20
ATOM     20  C   UNL     1       8.736 -25.745 -48.011  1.00  0.00    -0.016 C 
ATOM     21  C   UNL     1       9.190 -26.302 -49.364  1.00  0.00     0.007 C 
ATOM     22  C   UNL     1       8.501 -24.239 -48.131  1.00  0.00     0.007 C 
ENDBRANCH  19  20
ENDBRANCH  18  19
ENDBRANCH  17  18
BRANCH  17  23
ATOM     23  C   UNL     1      12.587 -25.665 -47.635  1.00  0.00     0.247 C 
ATOM     24  O   UNL     1      12.719 -25.966 -48.827  1.00  0.00    -0.272 OA
BRANCH  23  25
ATOM     25  C   UNL     1      13.388 -26.441 -46.569  1.00  0.00     0.227 C 
BRANCH  25  26
ATOM     26  N   UNL     1      14.278 -25.630 -45.751  1.00  0.00    -0.289 N 
ATOM     27  C   UNL     1      15.291 -24.907 -46.328  1.00  0.00     0.203 C 
ATOM     28  C   UNL     1      14.139 -25.696 -44.371  1.00  0.00     0.261 C 
ATOM     29  N   UNL     1      16.113 -24.145 -45.690  1.00  0.00    -0.238 NA
ATOM     30  C   UNL     1      15.027 -24.813 -43.594  1.00  0.00     0.069 A 
ATOM     31  O   UNL     1      13.334 -26.426 -43.802  1.00  0.00    -0.269 OA
ATOM     32  C   UNL     1      15.973 -24.061 -44.299  1.00  0.00     0.078 A 
ATOM     33  C   UNL     1      14.913 -24.720 -42.205  1.00  0.00     0.055 A 
ATOM     34  C   UNL     1      16.817 -23.203 -43.588  1.00  0.00     0.032 A 
ATOM     35  C   UNL     1      15.762 -23.861 -41.522  1.00  0.00     0.124 A 
ATOM     36  C   UNL     1      16.712 -23.102 -42.199  1.00  0.00     0.041 A 
ATOM     37  F   UNL     1      15.668 -23.760 -40.190  1.00  0.00    -0.207 F 
ENDBRANCH  25  26
ENDBRANCH  23  25
ENDBRANCH  17  23
ENDBRANCH   3  17
TORSDOF 11
ENDMDL
MODEL 3
REMARK VINA RESULT:    -7.196      1.587      2.417
REMARK INTER + INTRA:         -12.479
REMARK INTER:                 -11.379
REMARK INTRA:                  -1.100
REMARK UNBOUND:                -0.866
REMARK SMILES CCCCn1c(N)c(N(CCC(C)C)C(=O)Cn2cnc3ccc(F)cc3c2=O)c(=O)[nH]c1=O
REMARK SMILES IDX 5 1 6 2 8 3 30 4 31 5 32 6 33 7 34 8 4 10 3 11 2 12 1 13
REMARK SMILES IDX 7 14 9 17 10 18 11 19 12 20 13 21 14 22 15 23 16 24 17 25
REMARK SMILES IDX 18 26 19 27 28 28 20 29 27 30 29 31 21 32 26 33 22 34 24 35
REMARK SMILES IDX 23 36 25 37
REMARK H PARENT 32 9 7 15 7 16
ROOT
ATOM      1  N   UNL     1      15.463 -24.266 -43.088  1.00  0.00    -0.278 N 
ATOM      2  C   UNL     1      14.485 -24.416 -44.075  1.00  0.00     0.137 C 
ATOM      3  C   UNL     1      14.562 -23.685 -45.221  1.00  0.00     0.151 C 
ATOM      4  C   UNL     1      15.735 -22.771 -45.399  1.00  0.00     0.279 C 
ATOM      5  O   UNL     1      15.802 -21.937 -46.297  1.00  0.00    -0.267 OA
ATOM      6  N   UNL     1      16.720 -22.868 -44.472  1.00  0.00    -0.272 N 
ATOM      7  C   UNL     1      16.568 -23.435 -43.246  1.00  0.00     0.330 C 
ATOM      8  O   UNL     1      17.391 -23.194 -42.366  1.00  0.00    -0.248 OA
ATOM      9  H   UNL     1      17.468 -22.196 -44.547  1.00  0.00     0.175 HD
ENDROOT
BRANCH   1  10
ATOM     10  C   UNL     1      15.331 -24.915 -41.775  1.00  0.00     0.129 C 
BRANCH  10  11
ATOM     11  C   UNL     1      14.192 -24.314 -40.946  1.00  0.00     0.022 C 
BRANCH  11  12
ATOM     12  C   UNL     1      14.162 -24.820 -39.503  1.00  0.00    -0.002 C 
ATOM     13  C   UNL     1      13.419 -23.893 -38.552  1.00  0.00     0.004 C 
ENDBRANCH  11  12
ENDBRANCH  10  11
ENDBRANCH   1  10
BRANCH   2  14
ATOM     14  N   UNL     1      13.444 -25.328 -43.892  1.00  0.00    -0.383 N 
ATOM     15  H   UNL     1      13.669 -26.022 -43.177  1.00  0.00     0.158 HD
ATOM     16  H   UNL     1      12.580 -24.869 -43.622  1.00  0.00     0.158 HD
ENDBRANCH   2  14
BRANCH   3  17
ATOM     17  N   UNL     1      13.598 -23.765 -46.238  1.00  0.00    -0.303 N 
BRANCH  17  18
ATOM     18  C   UNL     1      13.878 -24.550 -47.452  1.00  0.00     0.126 C 
BRANCH  18  19
ATOM     19  C   UNL     1      13.561 -26.048 -47.337  1.00  0.00     0.025 C 
BRANCH  19  20
ATOM     20  C   UNL     1      12.182 -26.462 -47.887  1.00  0.00    -0.016 C 
ATOM     21  C   UNL     1      11.903 -25.717 -49.196  1.00  0.00     0.007 C 
ATOM     22  C   UNL     1      11.054 -26.187 -46.893  1.00  0.00     0.007 C 
ENDBRANCH  19  20
ENDBRANCH  18  19
ENDBRANCH  17  18
BRANCH  17  23
ATOM     23  C   UNL     1      12.371 -23.095 -46.206  1.00  0.00     0.247 C 
ATOM     24  O   UNL     1      11.889 -22.711 -45.135  1.00  0.00    -0.272 OA
BRANCH  23  25
ATOM     25  C   UNL     1      11.651 -22.744 -47.525  1.00  0.00     0.227 C 
BRANCH  25  26
ATOM     26  N   UNL     1      12.241 -21.647 -48.280  1.00  0.00    -0.289 N 
ATOM     27  C   UNL     1      12.624 -20.492 -47.648  1.00  0.00     0.203 C 
ATOM     28  C   UNL     1      12.301 -21.764 -49.662  1.00  0.00     0.261 C 
ATOM     29  N   UNL     1      13.174 -19.479 -48.227  1.00  0.00    -0.238 NA
ATOM     30  C   UNL     1      12.958 -20.652 -50.371  1.00  0.00     0.069 A 
ATOM     31  O   UNL     1      11.853 -22.722 -50.285  1.00  0.00    -0.269 OA
ATOM     32  C   UNL     1      13.380 -19.556 -49.611  1.00  0.00     0.078 A 
ATOM     33  C   UNL     1      13.165 -20.701 -51.751  1.00  0.00     0.055 A 
ATOM     34  C   UNL     1      14.020 -18.494 -50.255  1.00  0.00     0.032 A 
ATOM     35  C   UNL     1      13.804 -19.635 -52.369  1.00  0.00     0.124 A 
ATOM     36  C   UNL     1      14.233 -18.533 -51.636  1.00  0.00     0.041 A 
ATOM     37  F   UNL     1      14.009 -19.665 -53.692  1.00  0.00    -0.207 F 
ENDBRANCH  25  26
ENDBRANCH  23  25
ENDBRANCH  17  23
ENDBRANCH   3  17
TORSDOF 11
ENDMDL
MODEL 4
REMARK VINA RESULT:    -6.936      3.691      8.856
REMARK INTER + INTRA:         -12.060
REMARK INTER:                 -11.474
REMARK INTRA:                  -0.586
REMARK UNBOUND:                -0.866
REMARK SMILES CCCCn1c(N)c(N(CCC(C)C)C(=O)Cn2cnc3ccc(F)cc3c2=O)c(=O)[nH]c1=O
REMARK SMILES IDX 5 1 6 2 8 3 30 4 31 5 32 6 33 7 34 8 4 10 3 11 2 12 1 13
REMARK SMILES IDX 7 14 9 17 10 18 11 19 12 20 13 21 14 22 15 23 16 24 17 25
REMARK SMILES IDX 18 26 19 27 28 28 20 29 27 30 29 31 21 32 26 33 22 34 24 35
REMARK SMILES IDX 23 36 25 37
REMARK H PARENT 32 9 7 15 7 16
ROOT
ATOM      1  N   UNL     1       9.690 -23.800 -49.962  1.00  0.00    -0.278 N 
ATOM      2  C   UNL     1      10.567 -22.721 -49.824  1.00  0.00     0.137 C 
ATOM      3  C   UNL     1      11.818 -22.924 -49.328  1.00  0.00     0.151 C 
ATOM      4  C   UNL     1      12.224 -24.325 -48.987  1.00  0.00     0.279 C 
ATOM      5  O   UNL     1      13.246 -24.590 -48.362  1.00  0.00    -0.267 OA
ATOM      6  N   UNL     1      11.367 -25.307 -49.358  1.00  0.00    -0.272 N 
ATOM      7  C   UNL     1      10.058 -25.109 -49.667  1.00  0.00     0.330 C 
ATOM      8  O   UNL     1       9.289 -26.068 -49.671  1.00  0.00    -0.248 OA
ATOM      9  H   UNL     1      11.601 -26.240 -49.055  1.00  0.00     0.175 HD
ENDROOT
BRANCH   1  10
ATOM     10  C   UNL     1       8.283 -23.599 -50.342  1.00  0.00     0.129 C 
BRANCH  10  11
ATOM     11  C   UNL     1       8.114 -23.421 -51.854  1.00  0.00     0.022 C 
BRANCH  11  12
ATOM     12  C   UNL     1       7.800 -24.727 -52.585  1.00  0.00    -0.002 C 
ATOM     13  C   UNL     1       6.324 -24.895 -52.914  1.00  0.00     0.004 C 
ENDBRANCH  11  12
ENDBRANCH  10  11
ENDBRANCH   1  10
BRANCH   2  14
ATOM     14  N   UNL     1      10.167 -21.442 -50.216  1.00  0.00    -0.383 N 
ATOM     15  H   UNL     1       9.808 -21.434 -51.173  1.00  0.00     0.158 HD
ATOM     16  H   UNL     1       9.445 -21.067 -49.608  1.00  0.00     0.158 HD
ENDBRANCH   2  14
BRANCH   3  17
ATOM     17  N   UNL     1      12.738 -21.881 -49.136  1.00  0.00    -0.303 N 
BRANCH  17  18
ATOM     18  C   UNL     1      13.467 -21.327 -50.288  1.00  0.00     0.126 C 
BRANCH  18  19
ATOM     19  C   UNL     1      13.436 -19.795 -50.395  1.00  0.00     0.025 C 
BRANCH  19  20
ATOM     20  C   UNL     1      13.497 -19.245 -51.833  1.00  0.00    -0.016 C 
ATOM     21  C   UNL     1      13.849 -20.376 -52.805  1.00  0.00     0.007 C 
ATOM     22  C   UNL     1      14.512 -18.112 -51.978  1.00  0.00     0.007 C 
ENDBRANCH  19  20
ENDBRANCH  18  19
ENDBRANCH  17  18
BRANCH  17  23
ATOM     23  C   UNL     1      13.059 -21.343 -47.886  1.00  0.00     0.247 C 
ATOM     24  O   UNL     1      12.377 -20.436 -47.394  1.00  0.00    -0.272 OA
BRANCH  23  25
ATOM     25  C   UNL     1      14.218 -21.944 -47.063  1.00  0.00     0.227 C 
BRANCH  25  26
ATOM     26  N   UNL     1      13.825 -22.578 -45.812  1.00  0.00    -0.289 N 
ATOM     27  C   UNL     1      12.520 -22.939 -45.593  1.00  0.00     0.203 C 
ATOM     28  C   UNL     1      14.782 -22.703 -44.815  1.00  0.00     0.261 C 
ATOM     29  N   UNL     1      12.083 -23.524 -44.530  1.00  0.00    -0.238 NA
ATOM     30  C   UNL     1      14.347 -23.402 -43.592  1.00  0.00     0.069 A 
ATOM     31  O   UNL     1      15.929 -22.278 -44.914  1.00  0.00    -0.269 OA
ATOM     32  C   UNL     1      13.007 -23.795 -43.512  1.00  0.00     0.078 A 
ATOM     33  C   UNL     1      15.247 -23.674 -42.560  1.00  0.00     0.055 A 
ATOM     34  C   UNL     1      12.571 -24.474 -42.371  1.00  0.00     0.032 A 
ATOM     35  C   UNL     1      14.791 -24.350 -41.438  1.00  0.00     0.124 A 
ATOM     36  C   UNL     1      13.463 -24.752 -41.332  1.00  0.00     0.041 A 
ATOM     37  F   UNL     1      15.640 -24.618 -40.437  1.00  0.00    -0.207 F 
ENDBRANCH  25  26
ENDBRANCH  23  25
ENDBRANCH  17  23
ENDBRANCH   3  17
TORSDOF 11
ENDMDL
MODEL 5
REMARK VINA RESULT:    -6.933      4.564      9.235
REMARK INTER + INTRA:         -12.055
REMARK INTER:                 -10.133
REMARK INTRA:                  -1.922
REMARK UNBOUND:                -0.866
REMARK SMILES CCCCn1c(N)c(N(CCC(C)C)C(=O)Cn2cnc3ccc(F)cc3c2=O)c(=O)[nH]c1=O
REMARK SMILES IDX 5 1 6 2 8 3 30 4 31 5 32 6 33 7 34 8 4 10 3 11 2 12 1 13
REMARK SMILES IDX 7 14 9 17 10 18 11 19 12 20 13 21 14 22 15 23 16 24 17 25
REMARK SMILES IDX 18 26 19 27 28 28 20 29 27 30 29 31 21 32 26 33 22 34 24 35
REMARK SMILES IDX 23 36 25 37
REMARK H PARENT 32 9 7 15 7 16
ROOT
ATOM      1  N   UNL     1       7.195 -23.888 -51.013  1.00  0.00    -0.278 N 
ATOM      2  C   UNL     1       8.097 -23.977 -49.950  1.00  0.00     0.137 C 
ATOM      3  C   UNL     1       9.436 -23.982 -50.196  1.00  0.00     0.151 C 
ATOM      4  C   UNL     1       9.894 -23.843 -51.616  1.00  0.00     0.279 C 
ATOM      5  O   UNL     1      11.057 -24.025 -51.963  1.00  0.00    -0.267 OA
ATOM      6  N   UNL     1       8.937 -23.554 -52.531  1.00  0.00    -0.272 N 
ATOM      7  C   UNL     1       7.605 -23.740 -52.335  1.00  0.00     0.330 C 
ATOM      8  O   UNL     1       6.852 -23.764 -53.306  1.00  0.00    -0.248 OA
ATOM      9  H   UNL     1       9.233 -23.543 -53.496  1.00  0.00     0.175 HD
ENDROOT
BRANCH   1  10
ATOM     10  C   UNL     1       5.747 -24.039 -50.804  1.00  0.00     0.129 C 
BRANCH  10  11
ATOM     11  C   UNL     1       5.040 -22.688 -50.658  1.00  0.00     0.022 C 
BRANCH  11  12
ATOM     12  C   UNL     1       3.758 -22.585 -51.484  1.00  0.00    -0.002 C 
ATOM     13  C   UNL     1       3.959 -21.903 -52.829  1.00  0.00     0.004 C 
ENDBRANCH  11  12
ENDBRANCH  10  11
ENDBRANCH   1  10
BRANCH   2  14
ATOM     14  N   UNL     1       7.625 -24.040 -48.638  1.00  0.00    -0.383 N 
ATOM     15  H   UNL     1       7.527 -23.110 -48.225  1.00  0.00     0.158 HD
ATOM     16  H   UNL     1       6.723 -24.504 -48.581  1.00  0.00     0.158 HD
ENDBRANCH   2  14
BRANCH   3  17
ATOM     17  N   UNL     1      10.395 -24.099 -49.178  1.00  0.00    -0.303 N 
BRANCH  17  18
ATOM     18  C   UNL     1      11.120 -22.905 -48.714  1.00  0.00     0.126 C 
BRANCH  18  19
ATOM     19  C   UNL     1      12.625 -22.904 -49.023  1.00  0.00     0.025 C 
BRANCH  19  20
ATOM     20  C   UNL     1      13.384 -21.653 -48.540  1.00  0.00    -0.016 C 
ATOM     21  C   UNL     1      14.771 -22.054 -48.030  1.00  0.00     0.007 C 
ATOM     22  C   UNL     1      12.631 -20.906 -47.439  1.00  0.00     0.007 C 
ENDBRANCH  19  20
ENDBRANCH  18  19
ENDBRANCH  17  18
BRANCH  17  23
ATOM     23  C   UNL     1      10.760 -25.312 -48.584  1.00  0.00     0.247 C 
ATOM     24  O   UNL     1      11.083 -26.283 -49.278  1.00  0.00    -0.272 OA
BRANCH  23  25
ATOM     25  C   UNL     1      10.853 -25.420 -47.048  1.00  0.00     0.227 C 
BRANCH  25  26
ATOM     26  N   UNL     1      12.192 -25.263 -46.497  1.00  0.00    -0.289 N 
ATOM     27  C   UNL     1      13.185 -26.155 -46.812  1.00  0.00     0.203 C 
ATOM     28  C   UNL     1      12.401 -24.256 -45.565  1.00  0.00     0.261 C 
ATOM     29  N   UNL     1      14.403 -26.086 -46.392  1.00  0.00    -0.238 NA
ATOM     30  C   UNL     1      13.785 -24.105 -45.082  1.00  0.00     0.069 A 
ATOM     31  O   UNL     1      11.514 -23.514 -45.153  1.00  0.00    -0.269 OA
ATOM     32  C   UNL     1      14.734 -25.029 -45.533  1.00  0.00     0.078 A 
ATOM     33  C   UNL     1      14.137 -23.066 -44.218  1.00  0.00     0.055 A 
ATOM     34  C   UNL     1      16.058 -24.901 -45.105  1.00  0.00     0.032 A 
ATOM     35  C   UNL     1      15.458 -22.959 -43.806  1.00  0.00     0.124 A 
ATOM     36  C   UNL     1      16.421 -23.865 -44.240  1.00  0.00     0.041 A 
ATOM     37  F   UNL     1      15.813 -21.969 -42.977  1.00  0.00    -0.207 F 
ENDBRANCH  25  26
ENDBRANCH  23  25
ENDBRANCH  17  23
ENDBRANCH   3  17
TORSDOF 11
ENDMDL
MODEL 6
REMARK VINA RESULT:    -6.754      3.461      8.246
REMARK INTER + INTRA:         -11.766
REMARK INTER:                 -10.289
REMARK INTRA:                  -1.477
REMARK UNBOUND:                -0.866
REMARK SMILES CCCCn1c(N)c(N(CCC(C)C)C(=O)Cn2cnc3ccc(F)cc3c2=O)c(=O)[nH]c1=O
REMARK SMILES IDX 5 1 6 2 8 3 30 4 31 5 32 6 33 7 34 8 4 10 3 11 2 12 1 13
REMARK SMILES IDX 7 14 9 17 10 18 11 19 12 20 13 21 14 22 15 23 16 24 17 25
REMARK SMILES IDX 18 26 19 27 28 28 20 29 27 30 29 31 21 32 26 33 22 34 24 35
REMARK SMILES IDX 23 36 25 37
REMARK H PARENT 32 9 7 15 7 16
ROOT
ATOM      1  N   UNL     1      11.208 -25.547 -47.538  1.00  0.00    -0.278 N 
ATOM      2  C   UNL     1      12.277 -24.655 -47.659  1.00  0.00     0.137 C 
ATOM      3  C   UNL     1      12.596 -23.836 -46.620  1.00  0.00     0.151 C 
ATOM      4  C   UNL     1      11.805 -23.959 -45.354  1.00  0.00     0.279 C 
ATOM      5  O   UNL     1      11.884 -23.148 -44.436  1.00  0.00    -0.267 OA
ATOM      6  N   UNL     1      10.937 -24.997 -45.286  1.00  0.00    -0.272 N 
ATOM      7  C   UNL     1      10.476 -25.686 -46.363  1.00  0.00     0.330 C 
ATOM      8  O   UNL     1       9.466 -26.377 -46.248  1.00  0.00    -0.248 OA
ATOM      9  H   UNL     1      10.346 -25.031 -44.469  1.00  0.00     0.175 HD
ENDROOT
BRANCH   1  10
ATOM     10  C   UNL     1      10.733 -26.332 -48.688  1.00  0.00     0.129 C 
BRANCH  10  11
ATOM     11  C   UNL     1       9.836 -25.510 -49.618  1.00  0.00     0.022 C 
BRANCH  11  12
ATOM     12  C   UNL     1      10.245 -25.603 -51.089  1.00  0.00    -0.002 C 
ATOM     13  C   UNL     1      10.427 -24.246 -51.752  1.00  0.00     0.004 C 
ENDBRANCH  11  12
ENDBRANCH  10  11
ENDBRANCH   1  10
BRANCH   2  14
ATOM     14  N   UNL     1      13.027 -24.621 -48.835  1.00  0.00    -0.383 N 
ATOM     15  H   UNL     1      12.599 -25.181 -49.575  1.00  0.00     0.158 HD
ATOM     16  H   UNL     1      13.142 -23.674 -49.186  1.00  0.00     0.158 HD
ENDBRANCH   2  14
BRANCH   3  17
ATOM     17  N   UNL     1      13.637 -22.897 -46.685  1.00  0.00    -0.303 N 
BRANCH  17  18
ATOM     18  C   UNL     1      13.369 -21.539 -47.186  1.00  0.00     0.126 C 
BRANCH  18  19
ATOM     19  C   UNL     1      13.872 -21.267 -48.612  1.00  0.00     0.025 C 
BRANCH  19  20
ATOM     20  C   UNL     1      12.849 -20.584 -49.540  1.00  0.00    -0.016 C 
ATOM     21  C   UNL     1      11.634 -21.497 -49.730  1.00  0.00     0.007 C 
ATOM     22  C   UNL     1      13.445 -20.236 -50.904  1.00  0.00     0.007 C 
ENDBRANCH  19  20
ENDBRANCH  18  19
ENDBRANCH  17  18
BRANCH  17  23
ATOM     23  C   UNL     1      14.965 -23.176 -46.343  1.00  0.00     0.247 C 
ATOM     24  O   UNL     1      15.856 -22.342 -46.537  1.00  0.00    -0.272 OA
BRANCH  23  25
ATOM     25  C   UNL     1      15.314 -24.500 -45.631  1.00  0.00     0.227 C 
BRANCH  25  26
ATOM     26  N   UNL     1      15.464 -24.404 -44.185  1.00  0.00    -0.289 N 
ATOM     27  C   UNL     1      16.478 -23.661 -43.637  1.00  0.00     0.203 C 
ATOM     28  C   UNL     1      14.623 -25.170 -43.389  1.00  0.00     0.261 C 
ATOM     29  N   UNL     1      16.677 -23.499 -42.373  1.00  0.00    -0.238 NA
ATOM     30  C   UNL     1      14.779 -24.992 -41.935  1.00  0.00     0.069 A 
ATOM     31  O   UNL     1      13.786 -25.949 -43.834  1.00  0.00    -0.269 OA
ATOM     32  C   UNL     1      15.802 -24.146 -41.491  1.00  0.00     0.078 A 
ATOM     33  C   UNL     1      13.926 -25.634 -41.035  1.00  0.00     0.055 A 
ATOM     34  C   UNL     1      15.963 -23.946 -40.117  1.00  0.00     0.032 A 
ATOM     35  C   UNL     1      14.106 -25.420 -39.676  1.00  0.00     0.124 A 
ATOM     36  C   UNL     1      15.115 -24.584 -39.208  1.00  0.00     0.041 A 
ATOM     37  F   UNL     1      13.297 -26.029 -38.799  1.00  0.00    -0.207 F 
ENDBRANCH  25  26
ENDBRANCH  23  25
ENDBRANCH  17  23
ENDBRANCH   3  17
TORSDOF 11
ENDMDL
MODEL 7
REMARK VINA RESULT:    -6.746     23.523     25.359
REMARK INTER + INTRA:         -11.753
REMARK INTER:                 -10.009
REMARK INTRA:                  -1.744
REMARK UNBOUND:                -0.866
REMARK SMILES CCCCn1c(N)c(N(CCC(C)C)C(=O)Cn2cnc3ccc(F)cc3c2=O)c(=O)[nH]c1=O
REMARK SMILES IDX 5 1 6 2 8 3 30 4 31 5 32 6 33 7 34 8 4 10 3 11 2 12 1 13
REMARK SMILES IDX 7 14 9 17 10 18 11 19 12 20 13 21 14 22 15 23 16 24 17 25
REMARK SMILES IDX 18 26 19 27 28 28 20 29 27 30 29 31 21 32 26 33 22 34 24 35
REMARK SMILES IDX 23 36 25 37
REMARK H PARENT 32 9 7 15 7 16
ROOT
ATOM      1  N   UNL     1      -0.162  -8.708 -33.583  1.00  0.00    -0.278 N 
ATOM      2  C   UNL     1       0.164  -7.350 -33.520  1.00  0.00     0.137 C 
ATOM      3  C   UNL     1       0.563  -6.803 -32.340  1.00  0.00     0.151 C 
ATOM      4  C   UNL     1       0.682  -7.703 -31.148  1.00  0.00     0.279 C 
ATOM      5  O   UNL     1       0.847  -7.281 -30.007  1.00  0.00    -0.267 OA
ATOM      6  N   UNL     1       0.543  -9.031 -31.380  1.00  0.00    -0.272 N 
ATOM      7  C   UNL     1      -0.038  -9.560 -32.489  1.00  0.00     0.330 C 
ATOM      8  O   UNL     1      -0.413 -10.731 -32.472  1.00  0.00    -0.248 OA
ATOM      9  H   UNL     1       0.541  -9.627 -30.567  1.00  0.00     0.175 HD
ENDROOT
BRANCH   1  10
ATOM     10  C   UNL     1      -0.747  -9.300 -34.795  1.00  0.00     0.129 C 
BRANCH  10  11
ATOM     11  C   UNL     1      -2.276  -9.212 -34.801  1.00  0.00     0.022 C 
BRANCH  11  12
ATOM     12  C   UNL     1      -2.894  -9.532 -36.163  1.00  0.00    -0.002 C 
ATOM     13  C   UNL     1      -1.947 -10.267 -37.099  1.00  0.00     0.004 C 
ENDBRANCH  11  12
ENDBRANCH  10  11
ENDBRANCH   1  10
BRANCH   2  14
ATOM     14  N   UNL     1       0.099  -6.565 -34.672  1.00  0.00    -0.383 N 
ATOM     15  H   UNL     1      -0.432  -5.705 -34.516  1.00  0.00     0.158 HD
ATOM     16  H   UNL     1       1.022  -6.305 -35.008  1.00  0.00     0.158 HD
ENDBRANCH   2  14
BRANCH   3  17
ATOM     17  N   UNL     1       0.875  -5.442 -32.201  1.00  0.00    -0.303 N 
BRANCH  17  18
ATOM     18  C   UNL     1       2.258  -5.035 -31.902  1.00  0.00     0.126 C 
BRANCH  18  19
ATOM     19  C   UNL     1       3.315  -5.585 -32.872  1.00  0.00     0.025 C 
BRANCH  19  20
ATOM     20  C   UNL     1       4.424  -4.585 -33.256  1.00  0.00    -0.016 C 
ATOM     21  C   UNL     1       5.703  -4.908 -32.478  1.00  0.00     0.007 C 
ATOM     22  C   UNL     1       4.016  -3.136 -32.991  1.00  0.00     0.007 C 
ENDBRANCH  19  20
ENDBRANCH  18  19
ENDBRANCH  17  18
BRANCH  17  23
ATOM     23  C   UNL     1      -0.067  -4.411 -32.281  1.00  0.00     0.247 C 
ATOM     24  O   UNL     1      -1.190  -4.542 -31.780  1.00  0.00    -0.272 OA
BRANCH  23  25
ATOM     25  C   UNL     1       0.321  -3.060 -32.917  1.00  0.00     0.227 C 
BRANCH  25  26
ATOM     26  N   UNL     1      -0.263  -2.802 -34.227  1.00  0.00    -0.289 N 
ATOM     27  C   UNL     1      -1.492  -2.204 -34.337  1.00  0.00     0.203 C 
ATOM     28  C   UNL     1       0.409  -3.276 -35.345  1.00  0.00     0.261 C 
ATOM     29  N   UNL     1      -2.077  -1.916 -35.449  1.00  0.00    -0.238 NA
ATOM     30  C   UNL     1      -0.195  -2.938 -36.647  1.00  0.00     0.069 A 
ATOM     31  O   UNL     1       1.446  -3.930 -35.291  1.00  0.00    -0.269 OA
ATOM     32  C   UNL     1      -1.416  -2.255 -36.637  1.00  0.00     0.078 A 
ATOM     33  C   UNL     1       0.440  -3.275 -37.844  1.00  0.00     0.055 A 
ATOM     34  C   UNL     1      -2.003  -1.908 -37.857  1.00  0.00     0.032 A 
ATOM     35  C   UNL     1      -0.163  -2.919 -39.042  1.00  0.00     0.124 A 
ATOM     36  C   UNL     1      -1.377  -2.240 -39.061  1.00  0.00     0.041 A 
ATOM     37  F   UNL     1       0.432  -3.236 -40.200  1.00  0.00    -0.207 F 
ENDBRANCH  25  26
ENDBRANCH  23  25
ENDBRANCH  17  23
ENDBRANCH   3  17
TORSDOF 11
ENDMDL
MODEL 8
REMARK VINA RESULT:    -6.738      5.028      9.134
REMARK INTER + INTRA:         -11.740
REMARK INTER:                 -10.467
REMARK INTRA:                  -1.273
REMARK UNBOUND:                -0.866
REMARK SMILES CCCCn1c(N)c(N(CCC(C)C)C(=O)Cn2cnc3ccc(F)cc3c2=O)c(=O)[nH]c1=O
REMARK SMILES IDX 5 1 6 2 8 3 30 4 31 5 32 6 33 7 34 8 4 10 3 11 2 12 1 13
REMARK SMILES IDX 7 14 9 17 10 18 11 19 12 20 13 21 14 22 15 23 16 24 17 25
REMARK SMILES IDX 18 26 19 27 28 28 20 29 27 30 29 31 21 32 26 33 22 34 24 35
REMARK SMILES IDX 23 36 25 37
REMARK H PARENT 32 9 7 15 7 16
ROOT
ATOM      1  N   UNL     1       6.628 -23.926 -50.687  1.00  0.00    -0.278 N 
ATOM      2  C   UNL     1       7.585 -24.803 -50.169  1.00  0.00     0.137 C 
ATOM      3  C   UNL     1       8.900 -24.454 -50.182  1.00  0.00     0.151 C 
ATOM      4  C   UNL     1       9.268 -23.104 -50.717  1.00  0.00     0.279 C 
ATOM      5  O   UNL     1      10.427 -22.771 -50.947  1.00  0.00    -0.267 OA
ATOM      6  N   UNL     1       8.240 -22.266 -50.994  1.00  0.00    -0.272 N 
ATOM      7  C   UNL     1       6.952 -22.662 -51.170  1.00  0.00     0.330 C 
ATOM      8  O   UNL     1       6.161 -21.905 -51.729  1.00  0.00    -0.248 OA
ATOM      9  H   UNL     1       8.485 -21.390 -51.430  1.00  0.00     0.175 HD
ENDROOT
BRANCH   1  10
ATOM     10  C   UNL     1       5.221 -24.329 -50.837  1.00  0.00     0.129 C 
BRANCH  10  11
ATOM     11  C   UNL     1       4.512 -24.465 -49.486  1.00  0.00     0.022 C 
BRANCH  11  12
ATOM     12  C   UNL     1       3.985 -23.135 -48.944  1.00  0.00    -0.002 C 
ATOM     13  C   UNL     1       3.180 -22.343 -49.964  1.00  0.00     0.004 C 
ENDBRANCH  11  12
ENDBRANCH  10  11
ENDBRANCH   1  10
BRANCH   2  14
ATOM     14  N   UNL     1       7.188 -26.024 -49.622  1.00  0.00    -0.383 N 
ATOM     15  H   UNL     1       6.195 -26.026 -49.378  1.00  0.00     0.158 HD
ATOM     16  H   UNL     1       7.355 -26.798 -50.258  1.00  0.00     0.158 HD
ENDBRANCH   2  14
BRANCH   3  17
ATOM     17  N   UNL     1       9.915 -25.299 -49.706  1.00  0.00    -0.303 N 
BRANCH  17  18
ATOM     18  C   UNL     1      10.436 -26.373 -50.567  1.00  0.00     0.126 C 
BRANCH  18  19
ATOM     19  C   UNL     1      11.572 -25.948 -51.511  1.00  0.00     0.025 C 
BRANCH  19  20
ATOM     20  C   UNL     1      11.215 -25.984 -53.010  1.00  0.00    -0.016 C 
ATOM     21  C   UNL     1      11.570 -24.643 -53.657  1.00  0.00     0.007 C 
ATOM     22  C   UNL     1       9.737 -26.291 -53.247  1.00  0.00     0.007 C 
ENDBRANCH  19  20
ENDBRANCH  18  19
ENDBRANCH  17  18
BRANCH  17  23
ATOM     23  C   UNL     1      10.452 -25.226 -48.417  1.00  0.00     0.247 C 
ATOM     24  O   UNL     1      10.890 -26.238 -47.856  1.00  0.00    -0.272 OA
BRANCH  23  25
ATOM     25  C   UNL     1      10.590 -23.858 -47.717  1.00  0.00     0.227 C 
BRANCH  25  26
ATOM     26  N   UNL     1      11.944 -23.501 -47.317  1.00  0.00    -0.289 N 
ATOM     27  C   UNL     1      12.897 -23.215 -48.261  1.00  0.00     0.203 C 
ATOM     28  C   UNL     1      12.265 -23.566 -45.968  1.00  0.00     0.261 C 
ATOM     29  N   UNL     1      14.113 -22.868 -48.003  1.00  0.00    -0.238 NA
ATOM     30  C   UNL     1      13.631 -23.139 -45.613  1.00  0.00     0.069 A 
ATOM     31  O   UNL     1      11.485 -23.941 -45.099  1.00  0.00    -0.269 OA
ATOM     32  C   UNL     1      14.495 -22.795 -46.657  1.00  0.00     0.078 A 
ATOM     33  C   UNL     1      14.038 -23.068 -44.279  1.00  0.00     0.055 A 
ATOM     34  C   UNL     1      15.791 -22.372 -46.348  1.00  0.00     0.032 A 
ATOM     35  C   UNL     1      15.329 -22.645 -43.998  1.00  0.00     0.124 A 
ATOM     36  C   UNL     1      16.209 -22.297 -45.018  1.00  0.00     0.041 A 
ATOM     37  F   UNL     1      15.737 -22.572 -42.724  1.00  0.00    -0.207 F 
ENDBRANCH  25  26
ENDBRANCH  23  25
ENDBRANCH  17  23
ENDBRANCH   3  17
TORSDOF 11
ENDMDL
MODEL 9
REMARK VINA RESULT:    -6.522      2.662      4.244
REMARK INTER + INTRA:         -11.391
REMARK INTER:                 -10.026
REMARK INTRA:                  -1.365
REMARK UNBOUND:                -0.866
REMARK SMILES CCCCn1c(N)c(N(CCC(C)C)C(=O)Cn2cnc3ccc(F)cc3c2=O)c(=O)[nH]c1=O
REMARK SMILES IDX 5 1 6 2 8 3 30 4 31 5 32 6 33 7 34 8 4 10 3 11 2 12 1 13
REMARK SMILES IDX 7 14 9 17 10 18 11 19 12 20 13 21 14 22 15 23 16 24 17 25
REMARK SMILES IDX 18 26 19 27 28 28 20 29 27 30 29 31 21 32 26 33 22 34 24 35
REMARK SMILES IDX 23 36 25 37
REMARK H PARENT 32 9 7 15 7 16
ROOT
ATOM      1  N   UNL     1      17.816 -25.119 -43.625  1.00  0.00    -0.278 N 
ATOM      2  C   UNL     1      16.489 -25.125 -44.063  1.00  0.00     0.137 C 
ATOM      3  C   UNL     1      15.866 -23.950 -44.353  1.00  0.00     0.151 C 
ATOM      4  C   UNL     1      16.656 -22.683 -44.233  1.00  0.00     0.279 C 
ATOM      5  O   UNL     1      16.142 -21.569 -44.285  1.00  0.00    -0.267 OA
ATOM      6  N   UNL     1      17.984 -22.821 -44.003  1.00  0.00    -0.272 N 
ATOM      7  C   UNL     1      18.568 -23.952 -43.526  1.00  0.00     0.330 C 
ATOM      8  O   UNL     1      19.698 -23.889 -43.046  1.00  0.00    -0.248 OA
ATOM      9  H   UNL     1      18.498 -21.969 -43.840  1.00  0.00     0.175 HD
ENDROOT
BRANCH   1  10
ATOM     10  C   UNL     1      18.471 -26.347 -43.151  1.00  0.00     0.129 C 
BRANCH  10  11
ATOM     11  C   UNL     1      18.455 -26.458 -41.624  1.00  0.00     0.022 C 
BRANCH  11  12
ATOM     12  C   UNL     1      17.045 -26.462 -41.033  1.00  0.00    -0.002 C 
ATOM     13  C   UNL     1      16.763 -25.268 -40.134  1.00  0.00     0.004 C 
ENDBRANCH  11  12
ENDBRANCH  10  11
ENDBRANCH   1  10
BRANCH   2  14
ATOM     14  N   UNL     1      15.813 -26.336 -44.222  1.00  0.00    -0.383 N 
ATOM     15  H   UNL     1      15.991 -26.975 -43.444  1.00  0.00     0.158 HD
ATOM     16  H   UNL     1      14.809 -26.204 -44.296  1.00  0.00     0.158 HD
ENDBRANCH   2  14
BRANCH   3  17
ATOM     17  N   UNL     1      14.527 -23.883 -44.769  1.00  0.00    -0.303 N 
BRANCH  17  18
ATOM     18  C   UNL     1      13.459 -23.698 -43.773  1.00  0.00     0.126 C 
BRANCH  18  19
ATOM     19  C   UNL     1      13.915 -23.816 -42.311  1.00  0.00     0.025 C 
BRANCH  19  20
ATOM     20  C   UNL     1      13.019 -24.700 -41.422  1.00  0.00    -0.016 C 
ATOM     21  C   UNL     1      13.401 -24.509 -39.951  1.00  0.00     0.007 C 
ATOM     22  C   UNL     1      13.121 -26.181 -41.788  1.00  0.00     0.007 C 
ENDBRANCH  19  20
ENDBRANCH  18  19
ENDBRANCH  17  18
BRANCH  17  23
ATOM     23  C   UNL     1      14.113 -24.031 -46.097  1.00  0.00     0.247 C 
ATOM     24  O   UNL     1      14.308 -25.089 -46.706  1.00  0.00    -0.272 OA
BRANCH  23  25
ATOM     25  C   UNL     1      13.321 -22.900 -46.787  1.00  0.00     0.227 C 
BRANCH  25  26
ATOM     26  N   UNL     1      12.029 -23.293 -47.333  1.00  0.00    -0.289 N 
ATOM     27  C   UNL     1      11.221 -24.168 -46.652  1.00  0.00     0.203 C 
ATOM     28  C   UNL     1      11.693 -22.845 -48.603  1.00  0.00     0.261 C 
ATOM     29  N   UNL     1      10.055 -24.556 -47.043  1.00  0.00    -0.238 NA
ATOM     30  C   UNL     1      10.353 -23.225 -49.083  1.00  0.00     0.069 A 
ATOM     31  O   UNL     1      12.437 -22.168 -49.305  1.00  0.00    -0.269 OA
ATOM     32  C   UNL     1       9.583 -24.060 -48.266  1.00  0.00     0.078 A 
ATOM     33  C   UNL     1       9.865 -22.752 -50.303  1.00  0.00     0.055 A 
ATOM     34  C   UNL     1       8.302 -24.423 -48.690  1.00  0.00     0.032 A 
ATOM     35  C   UNL     1       8.590 -23.126 -50.702  1.00  0.00     0.124 A 
ATOM     36  C   UNL     1       7.804 -23.956 -49.908  1.00  0.00     0.041 A 
ATOM     37  F   UNL     1       8.106 -22.683 -51.870  1.00  0.00    -0.207 F 
ENDBRANCH  25  26
ENDBRANCH  23  25
ENDBRANCH  17  23
ENDBRANCH   3  17
TORSDOF 11
ENDMDL
