REMARK SMILES Cc1nn(C)c(C)c1NC(=O)[C@H](C)OC(=O)c1ccccc1SC[C@]1(C)[N-]C(=O)NC1=O
REMARK SMILES IDX 15 1 16 2 14 3 12 4 13 5 10 6 9 7 11 8 8 10 2 11 3 12 4 13
REMARK SMILES IDX 6 14 1 15 5 16 7 17 17 18 18 19 22 20 19 21 21 22 20 23
REMARK SMILES IDX 23 24 24 25 25 26 27 27 31 28 28 29 30 30 32 31 29 32 26 33
REMARK H PARENT 9 9 30 34
ROOT
ATOM      1  C   UNL     1      -1.222   1.784   2.374  1.00  0.00     0.340 C 
ATOM      2  O   UNL     1      -1.700   2.883   2.141  1.00  0.00    -0.246 OA
ENDROOT
BRANCH   1   3
ATOM      3  O   UNL     1       0.062   1.414   2.153  1.00  0.00    -0.449 OA
BRANCH   3   4
ATOM      4  C   UNL     1       0.881   2.410   1.534  1.00  0.00     0.262 C 
ATOM      5  C   UNL     1       2.325   1.935   1.633  1.00  0.00     0.064 C 
BRANCH   4   6
ATOM      6  C   UNL     1       0.542   2.688   0.055  1.00  0.00     0.265 C 
ATOM      7  N   UNL     1       0.244   1.547  -0.663  1.00  0.00    -0.320 N 
ATOM      8  O   UNL     1       0.642   3.829  -0.393  1.00  0.00    -0.270 OA
ATOM      9  H   UNL     1       0.304   0.656  -0.174  1.00  0.00     0.170 HD
BRANCH   7  10
ATOM     10  C   UNL     1      -0.094   1.470  -2.007  1.00  0.00     0.085 A 
ATOM     11  C   UNL     1      -0.454   2.441  -2.989  1.00  0.00     0.083 A 
ATOM     12  N   UNL     1      -0.711   1.869  -4.177  1.00  0.00    -0.176 NA
ATOM     13  N   UNL     1      -0.546   0.557  -3.954  1.00  0.00    -0.271 N 
ATOM     14  C   UNL     1      -0.152   0.260  -2.678  1.00  0.00     0.059 A 
ATOM     15  C   UNL     1      -0.618   3.911  -2.878  1.00  0.00     0.071 C 
ATOM     16  C   UNL     1      -0.779  -0.373  -5.034  1.00  0.00     0.174 C 
ATOM     17  C   UNL     1       0.136  -1.132  -2.237  1.00  0.00     0.068 C 
ENDBRANCH   7  10
ENDBRANCH   4   6
ENDBRANCH   3   4
ENDBRANCH   1   3
BRANCH   1  18
ATOM     18  C   UNL     1      -1.969   0.715   3.079  1.00  0.00     0.073 A 
ATOM     19  C   UNL     1      -2.784   1.151   4.141  1.00  0.00     0.017 A 
ATOM     20  C   UNL     1      -1.928  -0.648   2.734  1.00  0.00     0.022 A 
ATOM     21  C   UNL     1      -3.547   0.242   4.872  1.00  0.00     0.001 A 
ATOM     22  C   UNL     1      -2.722  -1.544   3.471  1.00  0.00     0.016 A 
ATOM     23  C   UNL     1      -3.515  -1.106   4.536  1.00  0.00     0.001 A 
BRANCH  20  24
ATOM     24  S   UNL     1      -0.999  -1.271   1.333  1.00  0.00    -0.124 SA
BRANCH  24  25
ATOM     25  C   UNL     1      -0.198  -2.761   2.064  1.00  0.00     0.088 C 
BRANCH  25  26
ATOM     26  C   UNL     1       1.051  -3.246   1.313  1.00  0.00     0.043 C 
ATOM     27  N   UNL     1       0.754  -3.728  -0.064  1.00  0.00    -0.416 NA
ATOM     28  C   UNL     1       1.528  -4.528   1.971  1.00  0.00     0.153 C 
ATOM     29  C   UNL     1       1.084  -5.011  -0.160  1.00  0.00     0.159 C 
ATOM     30  N   UNL     1       1.598  -5.463   0.999  1.00  0.00    -0.395 N 
ATOM     31  O   UNL     1       1.792  -4.695   3.154  1.00  0.00    -0.299 OA
ATOM     32  O   UNL     1       0.942  -5.737  -1.136  1.00  0.00    -0.299 OA
ATOM     33  C   UNL     1       2.198  -2.234   1.301  1.00  0.00     0.020 C 
ATOM     34  H   UNL     1       1.835  -6.424   1.148  1.00  0.00     0.032 HD
ENDBRANCH  25  26
ENDBRANCH  24  25
ENDBRANCH  20  24
ENDBRANCH   1  18
TORSDOF 8
