MODEL 1
REMARK VINA RESULT:    -7.857      0.000      0.000
REMARK INTER + INTRA:         -12.397
REMARK INTER:                 -11.531
REMARK INTRA:                  -0.866
REMARK UNBOUND:                -0.866
REMARK SMILES CCOC(=O)C1=C(COC(=O)CN2C(=O)[N-][C@]3(C[C@H](C)CC(C)(C)C3)C2=O)NC(=O)N[C@@H]1C
REMARK SMILES IDX 8 1 7 2 6 3 32 4 28 5 31 6 29 7 30 8 33 9 4 12 5 13 3 14
REMARK SMILES IDX 2 15 1 16 9 17 10 18 11 19 12 20 13 21 14 22 26 23 15 24
REMARK SMILES IDX 16 25 17 26 27 27 18 28 25 29 19 30 22 31 21 32 20 33 23 34
REMARK SMILES IDX 24 35
REMARK H PARENT 28 10 31 11
ROOT
ATOM      1  C   UNL     1      12.301 -23.645 -44.162  1.00  0.00     0.287 C 
ENDROOT
BRANCH   1   2
ATOM      2  C   UNL     1      13.681 -23.584 -43.543  1.00  0.00     0.070 C 
ATOM      3  C   UNL     1      14.124 -24.252 -42.455  1.00  0.00     0.082 C 
ATOM      4  C   UNL     1      15.577 -24.178 -42.053  1.00  0.00     0.120 C 
ATOM      5  N   UNL     1      14.571 -22.759 -44.213  1.00  0.00    -0.308 N 
ATOM      6  N   UNL     1      16.192 -22.978 -42.590  1.00  0.00    -0.331 N 
ATOM      7  C   UNL     1      15.806 -22.403 -43.760  1.00  0.00     0.319 C 
ATOM      8  O   UNL     1      16.524 -21.599 -44.343  1.00  0.00    -0.248 OA
ATOM      9  C   UNL     1      16.359 -25.403 -42.538  1.00  0.00     0.036 C 
ATOM     10  H   UNL     1      14.236 -22.221 -45.012  1.00  0.00     0.171 HD
ATOM     11  H   UNL     1      17.114 -22.709 -42.279  1.00  0.00     0.166 HD
BRANCH   3  12
ATOM     12  C   UNL     1      13.302 -25.103 -41.549  1.00  0.00     0.338 C 
ATOM     13  O   UNL     1      12.944 -26.234 -41.849  1.00  0.00    -0.246 OA
BRANCH  12  14
ATOM     14  O   UNL     1      13.051 -24.493 -40.374  1.00  0.00    -0.463 OA
BRANCH  14  15
ATOM     15  C   UNL     1      13.701 -25.042 -39.221  1.00  0.00     0.230 C 
ATOM     16  C   UNL     1      13.498 -24.083 -38.065  1.00  0.00     0.049 C 
ENDBRANCH  14  15
ENDBRANCH  12  14
ENDBRANCH   3  12
ENDBRANCH   1   2
BRANCH   1  17
ATOM     17  O   UNL     1      12.297 -22.919 -45.392  1.00  0.00    -0.459 OA
BRANCH  17  18
ATOM     18  C   UNL     1      11.813 -23.571 -46.480  1.00  0.00     0.306 C 
ATOM     19  O   UNL     1      10.819 -24.298 -46.454  1.00  0.00    -0.252 OA
BRANCH  18  20
ATOM     20  C   UNL     1      12.614 -23.315 -47.748  1.00  0.00     0.135 C 
BRANCH  20  21
ATOM     21  N   UNL     1      11.801 -23.122 -48.923  1.00  0.00    -0.370 N 
ATOM     22  C   UNL     1      11.502 -21.916 -49.459  1.00  0.00     0.162 C 
ATOM     23  C   UNL     1      11.370 -24.135 -49.715  1.00  0.00     0.156 C 
ATOM     24  O   UNL     1      11.871 -20.855 -48.967  1.00  0.00    -0.298 OA
ATOM     25  N   UNL     1      10.792 -22.057 -50.573  1.00  0.00    -0.416 NA
ATOM     26  C   UNL     1      10.577 -23.508 -50.859  1.00  0.00     0.037 C 
ATOM     27  O   UNL     1      11.592 -25.327 -49.543  1.00  0.00    -0.298 OA
ATOM     28  C   UNL     1       9.082 -23.830 -50.721  1.00  0.00     0.017 C 
ATOM     29  C   UNL     1      11.201 -23.869 -52.222  1.00  0.00     0.020 C 
ATOM     30  C   UNL     1       8.658 -25.225 -51.216  1.00  0.00    -0.013 C 
ATOM     31  C   UNL     1      10.444 -24.942 -53.045  1.00  0.00    -0.034 C 
ATOM     32  C   UNL     1       9.697 -25.912 -52.113  1.00  0.00     0.009 C 
ATOM     33  C   UNL     1       8.265 -26.143 -50.055  1.00  0.00     0.007 C 
ATOM     34  C   UNL     1      11.462 -25.743 -53.883  1.00  0.00     0.011 C 
ATOM     35  C   UNL     1       9.466 -24.268 -54.029  1.00  0.00     0.011 C 
ENDBRANCH  20  21
ENDBRANCH  18  20
ENDBRANCH  17  18
ENDBRANCH   1  17
TORSDOF 8
ENDMDL
MODEL 2
REMARK VINA RESULT:    -7.631      3.435      5.435
REMARK INTER + INTRA:         -12.065
REMARK INTER:                 -10.815
REMARK INTRA:                  -1.251
REMARK UNBOUND:                -0.866
REMARK SMILES CCOC(=O)C1=C(COC(=O)CN2C(=O)[N-][C@]3(C[C@H](C)CC(C)(C)C3)C2=O)NC(=O)N[C@@H]1C
REMARK SMILES IDX 8 1 7 2 6 3 32 4 28 5 31 6 29 7 30 8 33 9 4 12 5 13 3 14
REMARK SMILES IDX 2 15 1 16 9 17 10 18 11 19 12 20 13 21 14 22 26 23 15 24
REMARK SMILES IDX 16 25 17 26 27 27 18 28 25 29 19 30 22 31 21 32 20 33 23 34
REMARK SMILES IDX 24 35
REMARK H PARENT 28 10 31 11
ROOT
ATOM      1  C   UNL     1      10.742 -24.400 -47.466  1.00  0.00     0.287 C 
ENDROOT
BRANCH   1   2
ATOM      2  C   UNL     1      11.652 -23.203 -47.639  1.00  0.00     0.070 C 
ATOM      3  C   UNL     1      12.569 -22.735 -46.764  1.00  0.00     0.082 C 
ATOM      4  C   UNL     1      13.491 -21.606 -47.156  1.00  0.00     0.120 C 
ATOM      5  N   UNL     1      11.517 -22.554 -48.857  1.00  0.00    -0.308 N 
ATOM      6  N   UNL     1      12.911 -20.828 -48.236  1.00  0.00    -0.331 N 
ATOM      7  C   UNL     1      12.090 -21.361 -49.179  1.00  0.00     0.319 C 
ATOM      8  O   UNL     1      11.871 -20.781 -50.236  1.00  0.00    -0.248 OA
ATOM      9  C   UNL     1      14.865 -22.125 -47.593  1.00  0.00     0.036 C 
ATOM     10  H   UNL     1      10.800 -22.876 -49.507  1.00  0.00     0.171 HD
ATOM     11  H   UNL     1      13.334 -19.951 -48.500  1.00  0.00     0.166 HD
BRANCH   3  12
ATOM     12  C   UNL     1      12.796 -23.228 -45.377  1.00  0.00     0.338 C 
ATOM     13  O   UNL     1      11.949 -23.141 -44.497  1.00  0.00    -0.246 OA
BRANCH  12  14
ATOM     14  O   UNL     1      14.006 -23.804 -45.236  1.00  0.00    -0.463 OA
BRANCH  14  15
ATOM     15  C   UNL     1      14.583 -23.758 -43.926  1.00  0.00     0.230 C 
ATOM     16  C   UNL     1      15.541 -22.585 -43.875  1.00  0.00     0.049 C 
ENDBRANCH  14  15
ENDBRANCH  12  14
ENDBRANCH   3  12
ENDBRANCH   1   2
BRANCH   1  17
ATOM     17  O   UNL     1       9.443 -24.088 -47.970  1.00  0.00    -0.459 OA
BRANCH  17  18
ATOM     18  C   UNL     1       8.754 -25.107 -48.546  1.00  0.00     0.306 C 
ATOM     19  O   UNL     1       8.186 -25.993 -47.908  1.00  0.00    -0.252 OA
BRANCH  18  20
ATOM     20  C   UNL     1       8.744 -25.049 -50.067  1.00  0.00     0.135 C 
BRANCH  20  21
ATOM     21  N   UNL     1       7.782 -24.121 -50.609  1.00  0.00    -0.370 N 
ATOM     22  C   UNL     1       8.085 -22.889 -51.076  1.00  0.00     0.162 C 
ATOM     23  C   UNL     1       6.487 -24.439 -50.856  1.00  0.00     0.156 C 
ATOM     24  O   UNL     1       9.219 -22.423 -51.048  1.00  0.00    -0.298 OA
ATOM     25  N   UNL     1       7.006 -22.292 -51.571  1.00  0.00    -0.416 NA
ATOM     26  C   UNL     1       5.825 -23.199 -51.453  1.00  0.00     0.037 C 
ATOM     27  O   UNL     1       5.959 -25.524 -50.646  1.00  0.00    -0.298 OA
ATOM     28  C   UNL     1       4.822 -22.591 -50.463  1.00  0.00     0.017 C 
ATOM     29  C   UNL     1       5.257 -23.502 -52.854  1.00  0.00     0.020 C 
ATOM     30  C   UNL     1       3.445 -23.278 -50.408  1.00  0.00    -0.013 C 
ATOM     31  C   UNL     1       3.718 -23.663 -52.936  1.00  0.00    -0.034 C 
ATOM     32  C   UNL     1       3.157 -24.193 -51.606  1.00  0.00     0.009 C 
ATOM     33  C   UNL     1       3.242 -24.037 -49.094  1.00  0.00     0.007 C 
ATOM     34  C   UNL     1       3.377 -24.668 -54.056  1.00  0.00     0.011 C 
ATOM     35  C   UNL     1       3.060 -22.318 -53.309  1.00  0.00     0.011 C 
ENDBRANCH  20  21
ENDBRANCH  18  20
ENDBRANCH  17  18
ENDBRANCH   1  17
TORSDOF 8
ENDMDL
MODEL 3
REMARK VINA RESULT:    -7.474      1.668      3.202
REMARK INTER + INTRA:         -11.835
REMARK INTER:                 -10.689
REMARK INTRA:                  -1.146
REMARK UNBOUND:                -0.866
REMARK SMILES CCOC(=O)C1=C(COC(=O)CN2C(=O)[N-][C@]3(C[C@H](C)CC(C)(C)C3)C2=O)NC(=O)N[C@@H]1C
REMARK SMILES IDX 8 1 7 2 6 3 32 4 28 5 31 6 29 7 30 8 33 9 4 12 5 13 3 14
REMARK SMILES IDX 2 15 1 16 9 17 10 18 11 19 12 20 13 21 14 22 26 23 15 24
REMARK SMILES IDX 16 25 17 26 27 27 18 28 25 29 19 30 22 31 21 32 20 33 23 34
REMARK SMILES IDX 24 35
REMARK H PARENT 28 10 31 11
ROOT
ATOM      1  C   UNL     1      14.351 -22.881 -44.058  1.00  0.00     0.287 C 
ENDROOT
BRANCH   1   2
ATOM      2  C   UNL     1      14.566 -23.894 -42.955  1.00  0.00     0.070 C 
ATOM      3  C   UNL     1      15.736 -24.242 -42.376  1.00  0.00     0.082 C 
ATOM      4  C   UNL     1      15.753 -25.175 -41.190  1.00  0.00     0.120 C 
ATOM      5  N   UNL     1      13.403 -24.493 -42.495  1.00  0.00    -0.308 N 
ATOM      6  N   UNL     1      14.548 -25.985 -41.163  1.00  0.00    -0.331 N 
ATOM      7  C   UNL     1      13.351 -25.553 -41.640  1.00  0.00     0.319 C 
ATOM      8  O   UNL     1      12.303 -26.108 -41.330  1.00  0.00    -0.248 OA
ATOM      9  C   UNL     1      15.871 -24.408 -39.869  1.00  0.00     0.036 C 
ATOM     10  H   UNL     1      12.521 -24.267 -42.953  1.00  0.00     0.171 HD
ATOM     11  H   UNL     1      14.485 -26.762 -40.523  1.00  0.00     0.166 HD
BRANCH   3  12
ATOM     12  C   UNL     1      17.094 -23.788 -42.790  1.00  0.00     0.338 C 
ATOM     13  O   UNL     1      17.521 -22.669 -42.541  1.00  0.00    -0.246 OA
BRANCH  12  14
ATOM     14  O   UNL     1      17.781 -24.762 -43.419  1.00  0.00    -0.463 OA
BRANCH  14  15
ATOM     15  C   UNL     1      17.276 -25.175 -44.693  1.00  0.00     0.230 C 
ATOM     16  C   UNL     1      17.566 -24.074 -45.694  1.00  0.00     0.049 C 
ENDBRANCH  14  15
ENDBRANCH  12  14
ENDBRANCH   3  12
ENDBRANCH   1   2
BRANCH   1  17
ATOM     17  O   UNL     1      14.082 -23.561 -45.285  1.00  0.00    -0.459 OA
BRANCH  17  18
ATOM     18  C   UNL     1      13.160 -22.994 -46.105  1.00  0.00     0.306 C 
ATOM     19  O   UNL     1      12.032 -22.665 -45.738  1.00  0.00    -0.252 OA
BRANCH  18  20
ATOM     20  C   UNL     1      13.655 -22.796 -47.530  1.00  0.00     0.135 C 
BRANCH  20  21
ATOM     21  N   UNL     1      12.597 -22.658 -48.500  1.00  0.00    -0.370 N 
ATOM     22  C   UNL     1      12.190 -21.480 -49.027  1.00  0.00     0.162 C 
ATOM     23  C   UNL     1      11.995 -23.707 -49.112  1.00  0.00     0.156 C 
ATOM     24  O   UNL     1      12.665 -20.399 -48.696  1.00  0.00    -0.298 OA
ATOM     25  N   UNL     1      11.245 -21.673 -49.941  1.00  0.00    -0.416 NA
ATOM     26  C   UNL     1      10.966 -23.134 -50.083  1.00  0.00     0.037 C 
ATOM     27  O   UNL     1      12.246 -24.891 -48.923  1.00  0.00    -0.298 OA
ATOM     28  C   UNL     1       9.540 -23.422 -49.593  1.00  0.00     0.017 C 
ATOM     29  C   UNL     1      11.264 -23.584 -51.528  1.00  0.00     0.020 C 
ATOM     30  C   UNL     1       9.009 -24.835 -49.894  1.00  0.00    -0.013 C 
ATOM     31  C   UNL     1      10.336 -24.690 -52.093  1.00  0.00    -0.034 C 
ATOM     32  C   UNL     1       9.816 -25.590 -50.960  1.00  0.00     0.009 C 
ATOM     33  C   UNL     1       8.886 -25.678 -48.621  1.00  0.00     0.007 C 
ATOM     34  C   UNL     1      11.135 -25.555 -53.089  1.00  0.00     0.011 C 
ATOM     35  C   UNL     1       9.163 -24.057 -52.870  1.00  0.00     0.011 C 
ENDBRANCH  20  21
ENDBRANCH  18  20
ENDBRANCH  17  18
ENDBRANCH   1  17
TORSDOF 8
ENDMDL
MODEL 4
REMARK VINA RESULT:    -7.385      2.119      3.999
REMARK INTER + INTRA:         -11.704
REMARK INTER:                 -10.389
REMARK INTRA:                  -1.314
REMARK UNBOUND:                -0.866
REMARK SMILES CCOC(=O)C1=C(COC(=O)CN2C(=O)[N-][C@]3(C[C@H](C)CC(C)(C)C3)C2=O)NC(=O)N[C@@H]1C
REMARK SMILES IDX 8 1 7 2 6 3 32 4 28 5 31 6 29 7 30 8 33 9 4 12 5 13 3 14
REMARK SMILES IDX 2 15 1 16 9 17 10 18 11 19 12 20 13 21 14 22 26 23 15 24
REMARK SMILES IDX 16 25 17 26 27 27 18 28 25 29 19 30 22 31 21 32 20 33 23 34
REMARK SMILES IDX 24 35
REMARK H PARENT 28 10 31 11
ROOT
ATOM      1  C   UNL     1      15.010 -22.300 -46.751  1.00  0.00     0.287 C 
ENDROOT
BRANCH   1   2
ATOM      2  C   UNL     1      14.674 -23.030 -45.468  1.00  0.00     0.070 C 
ATOM      3  C   UNL     1      15.503 -23.781 -44.710  1.00  0.00     0.082 C 
ATOM      4  C   UNL     1      15.036 -24.329 -43.383  1.00  0.00     0.120 C 
ATOM      5  N   UNL     1      13.365 -22.865 -45.043  1.00  0.00    -0.308 N 
ATOM      6  N   UNL     1      13.587 -24.412 -43.349  1.00  0.00    -0.331 N 
ATOM      7  C   UNL     1      12.777 -23.555 -44.026  1.00  0.00     0.319 C 
ATOM      8  O   UNL     1      11.590 -23.440 -43.742  1.00  0.00    -0.248 OA
ATOM      9  C   UNL     1      15.517 -23.464 -42.215  1.00  0.00     0.036 C 
ATOM     10  H   UNL     1      12.722 -22.333 -45.629  1.00  0.00     0.171 HD
ATOM     11  H   UNL     1      13.134 -24.902 -42.593  1.00  0.00     0.166 HD
BRANCH   3  12
ATOM     12  C   UNL     1      16.906 -24.156 -45.044  1.00  0.00     0.338 C 
ATOM     13  O   UNL     1      17.230 -25.295 -45.355  1.00  0.00    -0.246 OA
BRANCH  12  14
ATOM     14  O   UNL     1      17.736 -23.096 -44.999  1.00  0.00    -0.463 OA
BRANCH  14  15
ATOM     15  C   UNL     1      18.729 -23.109 -43.966  1.00  0.00     0.230 C 
ATOM     16  C   UNL     1      19.732 -22.013 -44.264  1.00  0.00     0.049 C 
ENDBRANCH  14  15
ENDBRANCH  12  14
ENDBRANCH   3  12
ENDBRANCH   1   2
BRANCH   1  17
ATOM     17  O   UNL     1      14.217 -22.820 -47.818  1.00  0.00    -0.459 OA
BRANCH  17  18
ATOM     18  C   UNL     1      13.540 -21.914 -48.570  1.00  0.00     0.306 C 
ATOM     19  O   UNL     1      14.051 -21.271 -49.488  1.00  0.00    -0.252 OA
BRANCH  18  20
ATOM     20  C   UNL     1      12.078 -21.768 -48.176  1.00  0.00     0.135 C 
BRANCH  20  21
ATOM     21  N   UNL     1      11.234 -22.833 -48.661  1.00  0.00    -0.370 N 
ATOM     22  C   UNL     1      10.816 -23.879 -47.914  1.00  0.00     0.162 C 
ATOM     23  C   UNL     1      10.636 -22.823 -49.878  1.00  0.00     0.156 C 
ATOM     24  O   UNL     1      11.150 -24.044 -46.746  1.00  0.00    -0.298 OA
ATOM     25  N   UNL     1       9.999 -24.661 -48.612  1.00  0.00    -0.416 NA
ATOM     26  C   UNL     1       9.812 -24.104 -49.985  1.00  0.00     0.037 C 
ATOM     27  O   UNL     1      10.736 -21.942 -50.722  1.00  0.00    -0.298 OA
ATOM     28  C   UNL     1      10.436 -25.066 -51.006  1.00  0.00     0.017 C 
ATOM     29  C   UNL     1       8.323 -23.780 -50.218  1.00  0.00     0.020 C 
ATOM     30  C   UNL     1      10.120 -24.761 -52.482  1.00  0.00    -0.013 C 
ATOM     31  C   UNL     1       7.803 -24.003 -51.662  1.00  0.00    -0.034 C 
ATOM     32  C   UNL     1       8.937 -23.804 -52.682  1.00  0.00     0.009 C 
ATOM     33  C   UNL     1      11.354 -24.249 -53.231  1.00  0.00     0.007 C 
ATOM     34  C   UNL     1       6.684 -22.983 -51.956  1.00  0.00     0.011 C 
ATOM     35  C   UNL     1       7.190 -25.412 -51.796  1.00  0.00     0.011 C 
ENDBRANCH  20  21
ENDBRANCH  18  20
ENDBRANCH  17  18
ENDBRANCH   1  17
TORSDOF 8
ENDMDL
MODEL 5
REMARK VINA RESULT:    -7.183      4.258      6.531
REMARK INTER + INTRA:         -11.408
REMARK INTER:                 -10.496
REMARK INTRA:                  -0.912
REMARK UNBOUND:                -0.866
REMARK SMILES CCOC(=O)C1=C(COC(=O)CN2C(=O)[N-][C@]3(C[C@H](C)CC(C)(C)C3)C2=O)NC(=O)N[C@@H]1C
REMARK SMILES IDX 8 1 7 2 6 3 32 4 28 5 31 6 29 7 30 8 33 9 4 12 5 13 3 14
REMARK SMILES IDX 2 15 1 16 9 17 10 18 11 19 12 20 13 21 14 22 26 23 15 24
REMARK SMILES IDX 16 25 17 26 27 27 18 28 25 29 19 30 22 31 21 32 20 33 23 34
REMARK SMILES IDX 24 35
REMARK H PARENT 28 10 31 11
ROOT
ATOM      1  C   UNL     1      11.006 -23.883 -49.297  1.00  0.00     0.287 C 
ENDROOT
BRANCH   1   2
ATOM      2  C   UNL     1      11.986 -22.772 -48.986  1.00  0.00     0.070 C 
ATOM      3  C   UNL     1      12.706 -22.605 -47.855  1.00  0.00     0.082 C 
ATOM      4  C   UNL     1      13.743 -21.512 -47.766  1.00  0.00     0.120 C 
ATOM      5  N   UNL     1      12.155 -21.856 -50.013  1.00  0.00    -0.308 N 
ATOM      6  N   UNL     1      13.454 -20.458 -48.722  1.00  0.00    -0.331 N 
ATOM      7  C   UNL     1      12.841 -20.683 -49.914  1.00  0.00     0.319 C 
ATOM      8  O   UNL     1      12.890 -19.861 -50.822  1.00  0.00    -0.248 OA
ATOM      9  C   UNL     1      15.154 -22.050 -48.022  1.00  0.00     0.036 C 
ATOM     10  H   UNL     1      11.587 -21.952 -50.855  1.00  0.00     0.171 HD
ATOM     11  H   UNL     1      13.966 -19.590 -48.675  1.00  0.00     0.166 HD
BRANCH   3  12
ATOM     12  C   UNL     1      12.594 -23.417 -46.611  1.00  0.00     0.338 C 
ATOM     13  O   UNL     1      12.422 -24.629 -46.625  1.00  0.00    -0.246 OA
BRANCH  12  14
ATOM     14  O   UNL     1      12.747 -22.666 -45.503  1.00  0.00    -0.463 OA
BRANCH  14  15
ATOM     15  C   UNL     1      13.082 -23.369 -44.300  1.00  0.00     0.230 C 
ATOM     16  C   UNL     1      14.531 -23.071 -43.970  1.00  0.00     0.049 C 
ENDBRANCH  14  15
ENDBRANCH  12  14
ENDBRANCH   3  12
ENDBRANCH   1   2
BRANCH   1  17
ATOM     17  O   UNL     1       9.785 -23.321 -49.781  1.00  0.00    -0.459 OA
BRANCH  17  18
ATOM     18  C   UNL     1       8.638 -23.791 -49.227  1.00  0.00     0.306 C 
ATOM     19  O   UNL     1       8.340 -23.638 -48.042  1.00  0.00    -0.252 OA
BRANCH  18  20
ATOM     20  C   UNL     1       7.744 -24.527 -50.214  1.00  0.00     0.135 C 
BRANCH  20  21
ATOM     21  N   UNL     1       6.548 -23.803 -50.569  1.00  0.00    -0.370 N 
ATOM     22  C   UNL     1       6.449 -22.953 -51.616  1.00  0.00     0.162 C 
ATOM     23  C   UNL     1       5.342 -24.012 -49.986  1.00  0.00     0.156 C 
ATOM     24  O   UNL     1       7.393 -22.685 -52.353  1.00  0.00    -0.298 OA
ATOM     25  N   UNL     1       5.210 -22.487 -51.731  1.00  0.00    -0.416 NA
ATOM     26  C   UNL     1       4.345 -23.077 -50.666  1.00  0.00     0.037 C 
ATOM     27  O   UNL     1       5.105 -24.811 -49.089  1.00  0.00    -0.298 OA
ATOM     28  C   UNL     1       3.903 -21.964 -49.705  1.00  0.00     0.017 C 
ATOM     29  C   UNL     1       3.195 -23.877 -51.311  1.00  0.00     0.020 C 
ATOM     30  C   UNL     1       2.814 -22.359 -48.691  1.00  0.00    -0.013 C 
ATOM     31  C   UNL     1       1.842 -23.840 -50.555  1.00  0.00    -0.034 C 
ATOM     32  C   UNL     1       2.071 -23.654 -49.046  1.00  0.00     0.009 C 
ATOM     33  C   UNL     1       3.367 -22.433 -47.265  1.00  0.00     0.007 C 
ATOM     34  C   UNL     1       1.102 -25.175 -50.785  1.00  0.00     0.011 C 
ATOM     35  C   UNL     1       0.948 -22.715 -51.115  1.00  0.00     0.011 C 
ENDBRANCH  20  21
ENDBRANCH  18  20
ENDBRANCH  17  18
ENDBRANCH   1  17
TORSDOF 8
ENDMDL
MODEL 6
REMARK VINA RESULT:    -7.163      2.810      9.605
REMARK INTER + INTRA:         -11.379
REMARK INTER:                 -10.330
REMARK INTRA:                  -1.048
REMARK UNBOUND:                -0.866
REMARK SMILES CCOC(=O)C1=C(COC(=O)CN2C(=O)[N-][C@]3(C[C@H](C)CC(C)(C)C3)C2=O)NC(=O)N[C@@H]1C
REMARK SMILES IDX 8 1 7 2 6 3 32 4 28 5 31 6 29 7 30 8 33 9 4 12 5 13 3 14
REMARK SMILES IDX 2 15 1 16 9 17 10 18 11 19 12 20 13 21 14 22 26 23 15 24
REMARK SMILES IDX 16 25 17 26 27 27 18 28 25 29 19 30 22 31 21 32 20 33 23 34
REMARK SMILES IDX 24 35
REMARK H PARENT 28 10 31 11
ROOT
ATOM      1  C   UNL     1       7.443 -24.573 -48.773  1.00  0.00     0.287 C 
ENDROOT
BRANCH   1   2
ATOM      2  C   UNL     1       6.993 -23.871 -50.036  1.00  0.00     0.070 C 
ATOM      3  C   UNL     1       7.762 -23.479 -51.076  1.00  0.00     0.082 C 
ATOM      4  C   UNL     1       7.127 -22.912 -52.323  1.00  0.00     0.120 C 
ATOM      5  N   UNL     1       5.627 -23.646 -50.109  1.00  0.00    -0.308 N 
ATOM      6  N   UNL     1       5.810 -22.379 -52.025  1.00  0.00    -0.331 N 
ATOM      7  C   UNL     1       5.006 -22.884 -51.052  1.00  0.00     0.319 C 
ATOM      8  O   UNL     1       3.805 -22.638 -51.026  1.00  0.00    -0.248 OA
ATOM      9  C   UNL     1       7.004 -23.969 -53.424  1.00  0.00     0.036 C 
ATOM     10  H   UNL     1       5.045 -23.903 -49.312  1.00  0.00     0.171 HD
ATOM     11  H   UNL     1       5.328 -21.828 -52.719  1.00  0.00     0.166 HD
BRANCH   3  12
ATOM     12  C   UNL     1       9.249 -23.542 -51.146  1.00  0.00     0.338 C 
ATOM     13  O   UNL     1       9.963 -22.574 -50.920  1.00  0.00    -0.246 OA
BRANCH  12  14
ATOM     14  O   UNL     1       9.688 -24.781 -51.441  1.00  0.00    -0.463 OA
BRANCH  14  15
ATOM     15  C   UNL     1      10.948 -24.865 -52.117  1.00  0.00     0.230 C 
ATOM     16  C   UNL     1      10.711 -24.595 -53.589  1.00  0.00     0.049 C 
ENDBRANCH  14  15
ENDBRANCH  12  14
ENDBRANCH   3  12
ENDBRANCH   1   2
BRANCH   1  17
ATOM     17  O   UNL     1       8.374 -23.747 -48.073  1.00  0.00    -0.459 OA
BRANCH  17  18
ATOM     18  C   UNL     1       9.499 -24.352 -47.615  1.00  0.00     0.306 C 
ATOM     19  O   UNL     1       9.502 -25.441 -47.039  1.00  0.00    -0.252 OA
BRANCH  18  20
ATOM     20  C   UNL     1      10.769 -23.559 -47.884  1.00  0.00     0.135 C 
BRANCH  20  21
ATOM     21  N   UNL     1      11.952 -24.133 -47.293  1.00  0.00    -0.370 N 
ATOM     22  C   UNL     1      12.671 -25.139 -47.839  1.00  0.00     0.162 C 
ATOM     23  C   UNL     1      12.568 -23.624 -46.197  1.00  0.00     0.156 C 
ATOM     24  O   UNL     1      12.359 -25.692 -48.889  1.00  0.00    -0.298 OA
ATOM     25  N   UNL     1      13.742 -25.411 -47.100  1.00  0.00    -0.416 NA
ATOM     26  C   UNL     1      13.790 -24.497 -45.920  1.00  0.00     0.037 C 
ATOM     27  O   UNL     1      12.209 -22.641 -45.561  1.00  0.00    -0.298 OA
ATOM     28  C   UNL     1      13.589 -25.319 -44.639  1.00  0.00     0.017 C 
ATOM     29  C   UNL     1      15.083 -23.658 -45.962  1.00  0.00     0.020 C 
ATOM     30  C   UNL     1      13.850 -24.567 -43.322  1.00  0.00    -0.013 C 
ATOM     31  C   UNL     1      15.717 -23.330 -44.585  1.00  0.00    -0.034 C 
ATOM     32  C   UNL     1      14.635 -23.260 -43.495  1.00  0.00     0.009 C 
ATOM     33  C   UNL     1      12.554 -24.313 -42.547  1.00  0.00     0.007 C 
ATOM     34  C   UNL     1      16.425 -21.962 -44.673  1.00  0.00     0.011 C 
ATOM     35  C   UNL     1      16.788 -24.382 -44.227  1.00  0.00     0.011 C 
ENDBRANCH  20  21
ENDBRANCH  18  20
ENDBRANCH  17  18
ENDBRANCH   1  17
TORSDOF 8
ENDMDL
MODEL 7
REMARK VINA RESULT:    -7.070      2.443      9.115
REMARK INTER + INTRA:         -11.242
REMARK INTER:                 -10.358
REMARK INTRA:                  -0.884
REMARK UNBOUND:                -0.866
REMARK SMILES CCOC(=O)C1=C(COC(=O)CN2C(=O)[N-][C@]3(C[C@H](C)CC(C)(C)C3)C2=O)NC(=O)N[C@@H]1C
REMARK SMILES IDX 8 1 7 2 6 3 32 4 28 5 31 6 29 7 30 8 33 9 4 12 5 13 3 14
REMARK SMILES IDX 2 15 1 16 9 17 10 18 11 19 12 20 13 21 14 22 26 23 15 24
REMARK SMILES IDX 16 25 17 26 27 27 18 28 25 29 19 30 22 31 21 32 20 33 23 34
REMARK SMILES IDX 24 35
REMARK H PARENT 28 10 31 11
ROOT
ATOM      1  C   UNL     1      11.646 -23.537 -47.680  1.00  0.00     0.287 C 
ENDROOT
BRANCH   1   2
ATOM      2  C   UNL     1      10.514 -23.438 -48.680  1.00  0.00     0.070 C 
ATOM      3  C   UNL     1      10.515 -22.781 -49.861  1.00  0.00     0.082 C 
ATOM      4  C   UNL     1       9.341 -22.899 -50.801  1.00  0.00     0.120 C 
ATOM      5  N   UNL     1       9.370 -24.134 -48.318  1.00  0.00    -0.308 N 
ATOM      6  N   UNL     1       8.144 -23.283 -50.074  1.00  0.00    -0.331 N 
ATOM      7  C   UNL     1       8.169 -24.057 -48.957  1.00  0.00     0.319 C 
ATOM      8  O   UNL     1       7.160 -24.621 -48.549  1.00  0.00    -0.248 OA
ATOM      9  C   UNL     1       9.606 -23.923 -51.909  1.00  0.00     0.036 C 
ATOM     10  H   UNL     1       9.345 -24.599 -47.411  1.00  0.00     0.171 HD
ATOM     11  H   UNL     1       7.249 -23.250 -50.538  1.00  0.00     0.166 HD
BRANCH   3  12
ATOM     12  C   UNL     1      11.601 -21.902 -50.378  1.00  0.00     0.338 C 
ATOM     13  O   UNL     1      12.073 -22.025 -51.501  1.00  0.00    -0.246 OA
BRANCH  12  14
ATOM     14  O   UNL     1      11.953 -20.955 -49.486  1.00  0.00    -0.463 OA
BRANCH  14  15
ATOM     15  C   UNL     1      13.252 -20.375 -49.654  1.00  0.00     0.230 C 
ATOM     16  C   UNL     1      14.247 -21.218 -48.883  1.00  0.00     0.049 C 
ENDBRANCH  14  15
ENDBRANCH  12  14
ENDBRANCH   3  12
ENDBRANCH   1   2
BRANCH   1  17
ATOM     17  O   UNL     1      12.689 -24.349 -48.220  1.00  0.00    -0.459 OA
BRANCH  17  18
ATOM     18  C   UNL     1      12.569 -25.690 -48.041  1.00  0.00     0.306 C 
ATOM     19  O   UNL     1      11.668 -26.367 -48.537  1.00  0.00    -0.252 OA
BRANCH  18  20
ATOM     20  C   UNL     1      13.664 -26.286 -47.169  1.00  0.00     0.135 C 
BRANCH  20  21
ATOM     21  N   UNL     1      13.703 -25.749 -45.832  1.00  0.00    -0.370 N 
ATOM     22  C   UNL     1      12.678 -25.808 -44.952  1.00  0.00     0.162 C 
ATOM     23  C   UNL     1      14.826 -25.260 -45.250  1.00  0.00     0.156 C 
ATOM     24  O   UNL     1      11.588 -26.300 -45.225  1.00  0.00    -0.298 OA
ATOM     25  N   UNL     1      13.030 -25.288 -43.780  1.00  0.00    -0.416 NA
ATOM     26  C   UNL     1      14.449 -24.826 -43.835  1.00  0.00     0.037 C 
ATOM     27  O   UNL     1      15.934 -25.193 -45.767  1.00  0.00    -0.298 OA
ATOM     28  C   UNL     1      14.485 -23.297 -43.710  1.00  0.00     0.017 C 
ATOM     29  C   UNL     1      15.286 -25.588 -42.787  1.00  0.00     0.020 C 
ATOM     30  C   UNL     1      15.881 -22.681 -43.506  1.00  0.00    -0.013 C 
ATOM     31  C   UNL     1      16.425 -24.777 -42.117  1.00  0.00    -0.034 C 
ATOM     32  C   UNL     1      16.951 -23.693 -43.073  1.00  0.00     0.009 C 
ATOM     33  C   UNL     1      16.346 -21.909 -44.744  1.00  0.00     0.007 C 
ATOM     34  C   UNL     1      17.582 -25.734 -41.765  1.00  0.00     0.011 C 
ATOM     35  C   UNL     1      15.929 -24.148 -40.799  1.00  0.00     0.011 C 
ENDBRANCH  20  21
ENDBRANCH  18  20
ENDBRANCH  17  18
ENDBRANCH   1  17
TORSDOF 8
ENDMDL
MODEL 8
REMARK VINA RESULT:    -6.909      5.742     11.215
REMARK INTER + INTRA:         -11.006
REMARK INTER:                 -10.202
REMARK INTRA:                  -0.803
REMARK UNBOUND:                -0.866
REMARK SMILES CCOC(=O)C1=C(COC(=O)CN2C(=O)[N-][C@]3(C[C@H](C)CC(C)(C)C3)C2=O)NC(=O)N[C@@H]1C
REMARK SMILES IDX 8 1 7 2 6 3 32 4 28 5 31 6 29 7 30 8 33 9 4 12 5 13 3 14
REMARK SMILES IDX 2 15 1 16 9 17 10 18 11 19 12 20 13 21 14 22 26 23 15 24
REMARK SMILES IDX 16 25 17 26 27 27 18 28 25 29 19 30 22 31 21 32 20 33 23 34
REMARK SMILES IDX 24 35
REMARK H PARENT 28 10 31 11
ROOT
ATOM      1  C   UNL     1       4.691 -22.299 -50.599  1.00  0.00     0.287 C 
ENDROOT
BRANCH   1   2
ATOM      2  C   UNL     1       3.425 -23.129 -50.566  1.00  0.00     0.070 C 
ATOM      3  C   UNL     1       2.430 -23.146 -51.480  1.00  0.00     0.082 C 
ATOM      4  C   UNL     1       1.300 -24.139 -51.357  1.00  0.00     0.120 C 
ATOM      5  N   UNL     1       3.325 -23.973 -49.471  1.00  0.00    -0.308 N 
ATOM      6  N   UNL     1       1.165 -24.589 -49.984  1.00  0.00    -0.331 N 
ATOM      7  C   UNL     1       2.214 -24.683 -49.125  1.00  0.00     0.319 C 
ATOM      8  O   UNL     1       2.141 -25.348 -48.098  1.00  0.00    -0.248 OA
ATOM      9  C   UNL     1       1.515 -25.354 -52.265  1.00  0.00     0.036 C 
ATOM     10  H   UNL     1       4.052 -23.938 -48.756  1.00  0.00     0.171 HD
ATOM     11  H   UNL     1       0.358 -25.132 -49.715  1.00  0.00     0.166 HD
BRANCH   3  12
ATOM     12  C   UNL     1       2.305 -22.251 -52.664  1.00  0.00     0.338 C 
ATOM     13  O   UNL     1       3.009 -22.368 -53.659  1.00  0.00    -0.246 OA
BRANCH  12  14
ATOM     14  O   UNL     1       1.315 -21.350 -52.514  1.00  0.00    -0.463 OA
BRANCH  14  15
ATOM     15  C   UNL     1       0.274 -21.381 -53.498  1.00  0.00     0.230 C 
ATOM     16  C   UNL     1      -0.596 -20.155 -53.300  1.00  0.00     0.049 C 
ENDBRANCH  14  15
ENDBRANCH  12  14
ENDBRANCH   3  12
ENDBRANCH   1   2
BRANCH   1  17
ATOM     17  O   UNL     1       5.740 -23.002 -49.933  1.00  0.00    -0.459 OA
BRANCH  17  18
ATOM     18  C   UNL     1       6.960 -22.980 -50.529  1.00  0.00     0.306 C 
ATOM     19  O   UNL     1       7.365 -22.045 -51.221  1.00  0.00    -0.252 OA
BRANCH  18  20
ATOM     20  C   UNL     1       7.791 -24.226 -50.259  1.00  0.00     0.135 C 
BRANCH  20  21
ATOM     21  N   UNL     1       9.214 -23.992 -50.271  1.00  0.00    -0.370 N 
ATOM     22  C   UNL     1       9.973 -23.947 -51.390  1.00  0.00     0.162 C 
ATOM     23  C   UNL     1       9.927 -23.634 -49.175  1.00  0.00     0.156 C 
ATOM     24  O   UNL     1       9.522 -24.142 -52.513  1.00  0.00    -0.298 OA
ATOM     25  N   UNL     1      11.234 -23.650 -51.093  1.00  0.00    -0.416 NA
ATOM     26  C   UNL     1      11.376 -23.453 -49.620  1.00  0.00     0.037 C 
ATOM     27  O   UNL     1       9.481 -23.478 -48.046  1.00  0.00    -0.298 OA
ATOM     28  C   UNL     1      12.262 -24.568 -49.047  1.00  0.00     0.017 C 
ATOM     29  C   UNL     1      11.863 -22.018 -49.330  1.00  0.00     0.020 C 
ATOM     30  C   UNL     1      12.706 -24.377 -47.585  1.00  0.00    -0.013 C 
ATOM     31  C   UNL     1      12.816 -21.863 -48.117  1.00  0.00    -0.034 C 
ATOM     32  C   UNL     1      12.529 -22.944 -47.062  1.00  0.00     0.009 C 
ATOM     33  C   UNL     1      12.020 -25.376 -46.650  1.00  0.00     0.007 C 
ATOM     34  C   UNL     1      12.594 -20.475 -47.480  1.00  0.00     0.011 C 
ATOM     35  C   UNL     1      14.285 -21.928 -48.581  1.00  0.00     0.011 C 
ENDBRANCH  20  21
ENDBRANCH  18  20
ENDBRANCH  17  18
ENDBRANCH   1  17
TORSDOF 8
ENDMDL
MODEL 9
REMARK VINA RESULT:    -6.801      2.013      3.282
REMARK INTER + INTRA:         -10.847
REMARK INTER:                  -9.675
REMARK INTRA:                  -1.172
REMARK UNBOUND:                -0.866
REMARK SMILES CCOC(=O)C1=C(COC(=O)CN2C(=O)[N-][C@]3(C[C@H](C)CC(C)(C)C3)C2=O)NC(=O)N[C@@H]1C
REMARK SMILES IDX 8 1 7 2 6 3 32 4 28 5 31 6 29 7 30 8 33 9 4 12 5 13 3 14
REMARK SMILES IDX 2 15 1 16 9 17 10 18 11 19 12 20 13 21 14 22 26 23 15 24
REMARK SMILES IDX 16 25 17 26 27 27 18 28 25 29 19 30 22 31 21 32 20 33 23 34
REMARK SMILES IDX 24 35
REMARK H PARENT 28 10 31 11
ROOT
ATOM      1  C   UNL     1      14.967 -22.651 -45.157  1.00  0.00     0.287 C 
ENDROOT
BRANCH   1   2
ATOM      2  C   UNL     1      16.232 -23.133 -44.482  1.00  0.00     0.070 C 
ATOM      3  C   UNL     1      16.342 -24.067 -43.512  1.00  0.00     0.082 C 
ATOM      4  C   UNL     1      17.702 -24.526 -43.045  1.00  0.00     0.120 C 
ATOM      5  N   UNL     1      17.393 -22.541 -44.957  1.00  0.00    -0.308 N 
ATOM      6  N   UNL     1      18.705 -23.517 -43.333  1.00  0.00    -0.331 N 
ATOM      7  C   UNL     1      18.628 -22.674 -44.397  1.00  0.00     0.319 C 
ATOM      8  O   UNL     1      19.611 -22.061 -44.797  1.00  0.00    -0.248 OA
ATOM      9  C   UNL     1      18.111 -25.845 -43.707  1.00  0.00     0.036 C 
ATOM     10  H   UNL     1      17.317 -21.806 -45.660  1.00  0.00     0.171 HD
ATOM     11  H   UNL     1      19.631 -23.609 -42.942  1.00  0.00     0.166 HD
BRANCH   3  12
ATOM     12  C   UNL     1      15.216 -24.742 -42.807  1.00  0.00     0.338 C 
ATOM     13  O   UNL     1      14.670 -25.747 -43.243  1.00  0.00    -0.246 OA
BRANCH  12  14
ATOM     14  O   UNL     1      14.918 -24.138 -41.639  1.00  0.00    -0.463 OA
BRANCH  14  15
ATOM     15  C   UNL     1      14.659 -25.002 -40.526  1.00  0.00     0.230 C 
ATOM     16  C   UNL     1      13.597 -24.350 -39.663  1.00  0.00     0.049 C 
ENDBRANCH  14  15
ENDBRANCH  12  14
ENDBRANCH   3  12
ENDBRANCH   1   2
BRANCH   1  17
ATOM     17  O   UNL     1      15.284 -22.123 -46.445  1.00  0.00    -0.459 OA
BRANCH  17  18
ATOM     18  C   UNL     1      14.309 -22.190 -47.387  1.00  0.00     0.306 C 
ATOM     19  O   UNL     1      14.517 -22.070 -48.595  1.00  0.00    -0.252 OA
BRANCH  18  20
ATOM     20  C   UNL     1      12.922 -22.436 -46.810  1.00  0.00     0.135 C 
BRANCH  20  21
ATOM     21  N   UNL     1      12.230 -23.549 -47.409  1.00  0.00    -0.370 N 
ATOM     22  C   UNL     1      12.364 -24.836 -47.016  1.00  0.00     0.162 C 
ATOM     23  C   UNL     1      11.247 -23.415 -48.333  1.00  0.00     0.156 C 
ATOM     24  O   UNL     1      13.128 -25.187 -46.122  1.00  0.00    -0.298 OA
ATOM     25  N   UNL     1      11.553 -25.629 -47.709  1.00  0.00    -0.416 NA
ATOM     26  C   UNL     1      10.759 -24.819 -48.680  1.00  0.00     0.037 C 
ATOM     27  O   UNL     1      10.828 -22.359 -48.790  1.00  0.00    -0.298 OA
ATOM     28  C   UNL     1      11.173 -25.200 -50.108  1.00  0.00     0.017 C 
ATOM     29  C   UNL     1       9.254 -24.968 -48.375  1.00  0.00     0.020 C 
ATOM     30  C   UNL     1      10.283 -24.633 -51.229  1.00  0.00    -0.013 C 
ATOM     31  C   UNL     1       8.313 -24.956 -49.607  1.00  0.00    -0.034 C 
ATOM     32  C   UNL     1       8.922 -24.117 -50.744  1.00  0.00     0.009 C 
ATOM     33  C   UNL     1      11.007 -23.553 -52.037  1.00  0.00     0.007 C 
ATOM     34  C   UNL     1       6.961 -24.335 -49.200  1.00  0.00     0.011 C 
ATOM     35  C   UNL     1       8.035 -26.397 -50.081  1.00  0.00     0.011 C 
ENDBRANCH  20  21
ENDBRANCH  18  20
ENDBRANCH  17  18
ENDBRANCH   1  17
TORSDOF 8
ENDMDL
