REMARK SMILES NC(=O)NC(=O)CSc1nnc(N2CCCCC2)n1C[C@@H]1CCCO1
REMARK SMILES IDX 8 1 7 2 5 3 1 4 2 5 3 6 4 7 6 8 9 12 10 13 19 14 11 15 12 16
REMARK SMILES IDX 20 17 21 18 22 19 25 20 23 21 24 22 13 23 14 24 18 25 15 26
REMARK SMILES IDX 17 27 16 28
REMARK H PARENT 1 9 1 10 4 11
ROOT
ATOM      1  S   UNL     1      -2.692   1.632   1.717  1.00  0.00    -0.076 SA
ENDROOT
BRANCH   1   2
ATOM      2  C   UNL     1      -2.397   2.197   3.422  1.00  0.00     0.178 C 
BRANCH   2   3
ATOM      3  C   UNL     1      -1.924   1.044   4.297  1.00  0.00     0.238 C 
ATOM      4  N   UNL     1       1.359  -0.163   4.144  1.00  0.00    -0.351 N 
ATOM      5  C   UNL     1       0.127  -0.138   4.737  1.00  0.00     0.318 C 
ATOM      6  O   UNL     1      -0.203  -1.027   5.507  1.00  0.00    -0.249 OA
ATOM      7  N   UNL     1      -0.549   1.017   4.455  1.00  0.00    -0.278 N 
ATOM      8  O   UNL     1      -2.725   0.272   4.815  1.00  0.00    -0.274 OA
ATOM      9  H   UNL     1       1.422   0.184   3.188  1.00  0.00     0.161 HD
ATOM     10  H   UNL     1       1.845  -1.039   4.291  1.00  0.00     0.161 HD
ATOM     11  H   UNL     1      -0.036   1.587   3.793  1.00  0.00     0.174 HD
ENDBRANCH   2   3
ENDBRANCH   1   2
BRANCH   1  12
ATOM     12  C   UNL     1      -1.108   1.119   1.259  1.00  0.00     0.193 A 
ATOM     13  N   UNL     1       0.009   1.530   1.815  1.00  0.00    -0.121 NA
ATOM     14  N   UNL     1      -0.835   0.186   0.298  1.00  0.00    -0.286 N 
ATOM     15  N   UNL     1       1.036   0.814   1.258  1.00  0.00    -0.111 NA
ATOM     16  C   UNL     1       0.528  -0.014   0.367  1.00  0.00     0.228 A 
BRANCH  14  17
ATOM     17  C   UNL     1      -1.742  -0.420  -0.649  1.00  0.00     0.160 C 
BRANCH  17  18
ATOM     18  C   UNL     1      -1.562   0.086  -2.079  1.00  0.00     0.138 C 
ATOM     19  C   UNL     1      -1.863   1.565  -2.269  1.00  0.00     0.036 C 
ATOM     20  O   UNL     1      -2.474  -0.609  -2.955  1.00  0.00    -0.376 OA
ATOM     21  C   UNL     1      -2.208   1.615  -3.736  1.00  0.00     0.031 C 
ATOM     22  C   UNL     1      -2.978   0.325  -3.923  1.00  0.00     0.160 C 
ENDBRANCH  17  18
ENDBRANCH  14  17
BRANCH  16  23
ATOM     23  N   UNL     1       1.171  -0.898  -0.442  1.00  0.00    -0.341 N 
ATOM     24  C   UNL     1       1.082  -2.314  -0.061  1.00  0.00     0.119 C 
ATOM     25  C   UNL     1       2.528  -0.492  -0.861  1.00  0.00     0.119 C 
ATOM     26  C   UNL     1       1.289  -3.174  -1.310  1.00  0.00     0.022 C 
ATOM     27  C   UNL     1       3.279  -1.638  -1.551  1.00  0.00     0.022 C 
ATOM     28  C   UNL     1       2.330  -2.589  -2.269  1.00  0.00     0.004 C 
ENDBRANCH  16  23
ENDBRANCH   1  12
TORSDOF 6
