MODEL 1
REMARK VINA RESULT:    -7.875      0.000      0.000
REMARK INTER + INTRA:          -9.898
REMARK INTER:                  -9.716
REMARK INTRA:                  -0.182
REMARK UNBOUND:                -0.182
REMARK SMILES N#Cc1cc([N+](=O)[O-])cn(CC(=O)NC(=O)N[C@]23C[C@H]4C[C@H](C[C@H](C4)C2)C3)c1=O
REMARK SMILES IDX 1 1 2 2 3 3 4 4 5 5 9 6 10 7 28 8 29 9 6 10 7 11 8 12 11 13
REMARK SMILES IDX 12 14 13 15 14 16 15 17 16 18 17 19 18 22 26 23 27 24 19 25
REMARK SMILES IDX 24 26 22 27 20 28 25 29 23 30 21 31
REMARK H PARENT 14 20 17 21
ROOT
ATOM      1  N   UNL     1      18.049 -21.713 -44.587  1.00  0.00    -0.192 NA
ATOM      2  C   UNL     1      16.987 -22.053 -44.909  1.00  0.00     0.105 C 
ATOM      3  C   UNL     1      15.676 -22.481 -45.249  1.00  0.00     0.124 C 
ATOM      4  C   UNL     1      14.820 -22.932 -44.313  1.00  0.00     0.112 C 
ATOM      5  C   UNL     1      13.488 -23.369 -44.678  1.00  0.00     0.287 C 
ATOM      6  C   UNL     1      13.081 -23.314 -45.956  1.00  0.00     0.175 C 
ATOM      7  N   UNL     1      13.933 -22.838 -46.946  1.00  0.00    -0.298 N 
ATOM      8  C   UNL     1      15.246 -22.434 -46.681  1.00  0.00     0.269 C 
ATOM      9  O   UNL     1      16.015 -22.090 -47.578  1.00  0.00    -0.268 OA
ENDROOT
BRANCH   5  10
ATOM     10  N   UNL     1      12.548 -23.869 -43.673  1.00  0.00     0.064 N 
ATOM     11  O   UNL     1      12.972 -24.640 -42.802  1.00  0.00    -0.258 OA
ATOM     12  O   UNL     1      11.374 -23.490 -43.769  1.00  0.00    -0.258 OA
ENDBRANCH   5  10
BRANCH   7  13
ATOM     13  C   UNL     1      13.477 -22.786 -48.338  1.00  0.00     0.226 C 
BRANCH  13  14
ATOM     14  C   UNL     1      12.351 -21.761 -48.456  1.00  0.00     0.248 C 
ATOM     15  O   UNL     1      12.563 -20.550 -48.421  1.00  0.00    -0.273 OA
ATOM     16  N   UNL     1      11.088 -22.304 -48.444  1.00  0.00    -0.277 N 
ATOM     17  C   UNL     1      10.578 -22.651 -49.668  1.00  0.00     0.321 C 
ATOM     18  O   UNL     1      11.138 -22.437 -50.734  1.00  0.00    -0.248 OA
ATOM     19  N   UNL     1       9.376 -23.308 -49.527  1.00  0.00    -0.332 N 
ATOM     20  H   UNL     1      11.015 -23.118 -47.836  1.00  0.00     0.174 HD
ATOM     21  H   UNL     1       8.861 -23.016 -48.706  1.00  0.00     0.165 HD
BRANCH  19  22
ATOM     22  C   UNL     1       8.552 -23.768 -50.653  1.00  0.00     0.043 C 
ATOM     23  C   UNL     1       7.465 -24.726 -50.096  1.00  0.00     0.032 C 
ATOM     24  C   UNL     1       9.384 -24.558 -51.697  1.00  0.00     0.032 C 
ATOM     25  C   UNL     1       7.839 -22.589 -51.358  1.00  0.00     0.032 C 
ATOM     26  C   UNL     1       6.556 -25.245 -51.222  1.00  0.00    -0.008 C 
ATOM     27  C   UNL     1       8.480 -25.071 -52.833  1.00  0.00    -0.008 C 
ATOM     28  C   UNL     1       6.937 -23.105 -52.493  1.00  0.00    -0.008 C 
ATOM     29  C   UNL     1       5.875 -24.051 -51.910  1.00  0.00     0.007 C 
ATOM     30  C   UNL     1       7.409 -26.005 -52.248  1.00  0.00     0.007 C 
ATOM     31  C   UNL     1       7.794 -23.874 -53.513  1.00  0.00     0.007 C 
ENDBRANCH  19  22
ENDBRANCH  13  14
ENDBRANCH   7  13
TORSDOF 4
ENDMDL
MODEL 2
REMARK VINA RESULT:    -7.590      3.248      9.612
REMARK INTER + INTRA:          -9.547
REMARK INTER:                  -9.657
REMARK INTRA:                   0.110
REMARK UNBOUND:                -0.182
REMARK SMILES N#Cc1cc([N+](=O)[O-])cn(CC(=O)NC(=O)N[C@]23C[C@H]4C[C@H](C[C@H](C4)C2)C3)c1=O
REMARK SMILES IDX 1 1 2 2 3 3 4 4 5 5 9 6 10 7 28 8 29 9 6 10 7 11 8 12 11 13
REMARK SMILES IDX 12 14 13 15 14 16 15 17 16 18 17 19 18 22 26 23 27 24 19 25
REMARK SMILES IDX 24 26 22 27 20 28 25 29 23 30 21 31
REMARK H PARENT 14 20 17 21
ROOT
ATOM      1  N   UNL     1       9.311 -23.996 -50.399  1.00  0.00    -0.192 NA
ATOM      2  C   UNL     1      10.195 -23.343 -50.031  1.00  0.00     0.105 C 
ATOM      3  C   UNL     1      11.281 -22.520 -49.630  1.00  0.00     0.124 C 
ATOM      4  C   UNL     1      11.889 -21.688 -50.497  1.00  0.00     0.112 C 
ATOM      5  C   UNL     1      12.999 -20.860 -50.074  1.00  0.00     0.287 C 
ATOM      6  C   UNL     1      13.428 -20.897 -48.802  1.00  0.00     0.175 C 
ATOM      7  N   UNL     1      12.813 -21.732 -47.876  1.00  0.00    -0.298 N 
ATOM      8  C   UNL     1      11.762 -22.590 -48.215  1.00  0.00     0.269 C 
ATOM      9  O   UNL     1      11.279 -23.381 -47.405  1.00  0.00    -0.268 OA
ENDROOT
BRANCH   5  10
ATOM     10  N   UNL     1      13.675 -19.956 -51.006  1.00  0.00     0.064 N 
ATOM     11  O   UNL     1      13.913 -18.799 -50.635  1.00  0.00    -0.258 OA
ATOM     12  O   UNL     1      13.956 -20.412 -52.121  1.00  0.00    -0.258 OA
ENDBRANCH   5  10
BRANCH   7  13
ATOM     13  C   UNL     1      13.294 -21.765 -46.492  1.00  0.00     0.226 C 
BRANCH  13  14
ATOM     14  C   UNL     1      14.433 -22.775 -46.383  1.00  0.00     0.248 C 
ATOM     15  O   UNL     1      15.435 -22.710 -47.092  1.00  0.00    -0.273 OA
ATOM     16  N   UNL     1      14.171 -23.837 -45.549  1.00  0.00    -0.277 N 
ATOM     17  C   UNL     1      14.520 -23.661 -44.235  1.00  0.00     0.321 C 
ATOM     18  O   UNL     1      15.102 -22.677 -43.802  1.00  0.00    -0.248 OA
ATOM     19  N   UNL     1      14.088 -24.722 -43.470  1.00  0.00    -0.332 N 
ATOM     20  H   UNL     1      13.194 -24.124 -45.574  1.00  0.00     0.174 HD
ATOM     21  H   UNL     1      14.052 -25.591 -43.986  1.00  0.00     0.165 HD
BRANCH  19  22
ATOM     22  C   UNL     1      14.347 -24.858 -42.031  1.00  0.00     0.043 C 
ATOM     23  C   UNL     1      13.174 -24.190 -41.264  1.00  0.00     0.032 C 
ATOM     24  C   UNL     1      15.655 -24.142 -41.605  1.00  0.00     0.032 C 
ATOM     25  C   UNL     1      14.418 -26.343 -41.601  1.00  0.00     0.032 C 
ATOM     26  C   UNL     1      13.374 -24.300 -39.743  1.00  0.00    -0.008 C 
ATOM     27  C   UNL     1      15.866 -24.257 -40.084  1.00  0.00    -0.008 C 
ATOM     28  C   UNL     1      14.630 -26.456 -40.081  1.00  0.00    -0.008 C 
ATOM     29  C   UNL     1      13.455 -25.784 -39.352  1.00  0.00     0.007 C 
ATOM     30  C   UNL     1      14.684 -23.599 -39.356  1.00  0.00     0.007 C 
ATOM     31  C   UNL     1      15.938 -25.743 -39.696  1.00  0.00     0.007 C 
ENDBRANCH  19  22
ENDBRANCH  13  14
ENDBRANCH   7  13
TORSDOF 4
ENDMDL
MODEL 3
REMARK VINA RESULT:    -7.481      2.573      4.942
REMARK INTER + INTRA:          -9.413
REMARK INTER:                  -9.236
REMARK INTRA:                  -0.177
REMARK UNBOUND:                -0.182
REMARK SMILES N#Cc1cc([N+](=O)[O-])cn(CC(=O)NC(=O)N[C@]23C[C@H]4C[C@H](C[C@H](C4)C2)C3)c1=O
REMARK SMILES IDX 1 1 2 2 3 3 4 4 5 5 9 6 10 7 28 8 29 9 6 10 7 11 8 12 11 13
REMARK SMILES IDX 12 14 13 15 14 16 15 17 16 18 17 19 18 22 26 23 27 24 19 25
REMARK SMILES IDX 24 26 22 27 20 28 25 29 23 30 21 31
REMARK H PARENT 14 20 17 21
ROOT
ATOM      1  N   UNL     1      16.011 -22.687 -46.427  1.00  0.00    -0.192 NA
ATOM      2  C   UNL     1      15.136 -22.429 -47.143  1.00  0.00     0.105 C 
ATOM      3  C   UNL     1      14.098 -22.077 -48.047  1.00  0.00     0.124 C 
ATOM      4  C   UNL     1      14.284 -21.148 -49.002  1.00  0.00     0.112 C 
ATOM      5  C   UNL     1      13.213 -20.797 -49.912  1.00  0.00     0.287 C 
ATOM      6  C   UNL     1      12.021 -21.408 -49.826  1.00  0.00     0.175 C 
ATOM      7  N   UNL     1      11.799 -22.385 -48.862  1.00  0.00    -0.298 N 
ATOM      8  C   UNL     1      12.768 -22.752 -47.923  1.00  0.00     0.269 C 
ATOM      9  O   UNL     1      12.533 -23.560 -47.025  1.00  0.00    -0.268 OA
ENDROOT
BRANCH   5  10
ATOM     10  N   UNL     1      13.398 -19.783 -50.952  1.00  0.00     0.064 N 
ATOM     11  O   UNL     1      13.104 -20.077 -52.119  1.00  0.00    -0.258 OA
ATOM     12  O   UNL     1      13.851 -18.690 -50.592  1.00  0.00    -0.258 OA
ENDBRANCH   5  10
BRANCH   7  13
ATOM     13  C   UNL     1      10.492 -23.042 -48.777  1.00  0.00     0.226 C 
BRANCH  13  14
ATOM     14  C   UNL     1      10.104 -23.562 -50.159  1.00  0.00     0.248 C 
ATOM     15  O   UNL     1      10.847 -24.289 -50.816  1.00  0.00    -0.273 OA
ATOM     16  N   UNL     1       8.942 -23.026 -50.662  1.00  0.00    -0.277 N 
ATOM     17  C   UNL     1       7.791 -23.701 -50.347  1.00  0.00     0.321 C 
ATOM     18  O   UNL     1       7.758 -24.758 -49.734  1.00  0.00    -0.248 OA
ATOM     19  N   UNL     1       6.684 -23.005 -50.779  1.00  0.00    -0.332 N 
ATOM     20  H   UNL     1       8.812 -22.052 -50.395  1.00  0.00     0.174 HD
ATOM     21  H   UNL     1       6.866 -22.449 -51.605  1.00  0.00     0.165 HD
BRANCH  19  22
ATOM     22  C   UNL     1       5.303 -23.484 -50.638  1.00  0.00     0.043 C 
ATOM     23  C   UNL     1       4.348 -22.345 -51.083  1.00  0.00     0.032 C 
ATOM     24  C   UNL     1       4.958 -23.839 -49.168  1.00  0.00     0.032 C 
ATOM     25  C   UNL     1       5.032 -24.717 -51.534  1.00  0.00     0.032 C 
ATOM     26  C   UNL     1       2.877 -22.779 -50.968  1.00  0.00    -0.008 C 
ATOM     27  C   UNL     1       3.490 -24.285 -49.048  1.00  0.00    -0.008 C 
ATOM     28  C   UNL     1       3.563 -25.161 -51.412  1.00  0.00    -0.008 C 
ATOM     29  C   UNL     1       2.646 -24.011 -51.857  1.00  0.00     0.007 C 
ATOM     30  C   UNL     1       2.572 -23.141 -49.507  1.00  0.00     0.007 C 
ATOM     31  C   UNL     1       3.260 -25.512 -49.945  1.00  0.00     0.007 C 
ENDBRANCH  19  22
ENDBRANCH  13  14
ENDBRANCH   7  13
TORSDOF 4
ENDMDL
MODEL 4
REMARK VINA RESULT:    -7.369      2.625      4.878
REMARK INTER + INTRA:          -9.274
REMARK INTER:                  -9.365
REMARK INTRA:                   0.091
REMARK UNBOUND:                -0.182
REMARK SMILES N#Cc1cc([N+](=O)[O-])cn(CC(=O)NC(=O)N[C@]23C[C@H]4C[C@H](C[C@H](C4)C2)C3)c1=O
REMARK SMILES IDX 1 1 2 2 3 3 4 4 5 5 9 6 10 7 28 8 29 9 6 10 7 11 8 12 11 13
REMARK SMILES IDX 12 14 13 15 14 16 15 17 16 18 17 19 18 22 26 23 27 24 19 25
REMARK SMILES IDX 24 26 22 27 20 28 25 29 23 30 21 31
REMARK H PARENT 14 20 17 21
ROOT
ATOM      1  N   UNL     1      15.789 -22.818 -46.503  1.00  0.00    -0.192 NA
ATOM      2  C   UNL     1      14.949 -22.517 -47.244  1.00  0.00     0.105 C 
ATOM      3  C   UNL     1      13.955 -22.111 -48.173  1.00  0.00     0.124 C 
ATOM      4  C   UNL     1      14.184 -21.126 -49.061  1.00  0.00     0.112 C 
ATOM      5  C   UNL     1      13.158 -20.721 -49.999  1.00  0.00     0.287 C 
ATOM      6  C   UNL     1      11.964 -21.335 -50.007  1.00  0.00     0.175 C 
ATOM      7  N   UNL     1      11.698 -22.368 -49.115  1.00  0.00    -0.298 N 
ATOM      8  C   UNL     1      12.622 -22.791 -48.154  1.00  0.00     0.269 C 
ATOM      9  O   UNL     1      12.346 -23.652 -47.319  1.00  0.00    -0.268 OA
ENDROOT
BRANCH   5  10
ATOM     10  N   UNL     1      13.389 -19.646 -50.966  1.00  0.00     0.064 N 
ATOM     11  O   UNL     1      13.808 -18.558 -50.548  1.00  0.00    -0.258 OA
ATOM     12  O   UNL     1      13.136 -19.896 -52.151  1.00  0.00    -0.258 OA
ENDBRANCH   5  10
BRANCH   7  13
ATOM     13  C   UNL     1      10.390 -23.028 -49.133  1.00  0.00     0.226 C 
BRANCH  13  14
ATOM     14  C   UNL     1       9.933 -23.191 -50.581  1.00  0.00     0.248 C 
ATOM     15  O   UNL     1      10.647 -23.708 -51.438  1.00  0.00    -0.273 OA
ATOM     16  N   UNL     1       8.739 -22.574 -50.871  1.00  0.00    -0.277 N 
ATOM     17  C   UNL     1       7.615 -23.335 -50.681  1.00  0.00     0.321 C 
ATOM     18  O   UNL     1       7.627 -24.514 -50.356  1.00  0.00    -0.248 OA
ATOM     19  N   UNL     1       6.478 -22.579 -50.865  1.00  0.00    -0.332 N 
ATOM     20  H   UNL     1       8.612 -21.702 -50.359  1.00  0.00     0.174 HD
ATOM     21  H   UNL     1       6.607 -21.828 -51.531  1.00  0.00     0.165 HD
BRANCH  19  22
ATOM     22  C   UNL     1       5.112 -23.114 -50.781  1.00  0.00     0.043 C 
ATOM     23  C   UNL     1       4.923 -23.738 -49.372  1.00  0.00     0.032 C 
ATOM     24  C   UNL     1       4.859 -24.230 -51.827  1.00  0.00     0.032 C 
ATOM     25  C   UNL     1       4.051 -22.001 -50.959  1.00  0.00     0.032 C 
ATOM     26  C   UNL     1       3.508 -24.314 -49.207  1.00  0.00    -0.008 C 
ATOM     27  C   UNL     1       3.439 -24.805 -51.674  1.00  0.00    -0.008 C 
ATOM     28  C   UNL     1       2.633 -22.578 -50.807  1.00  0.00    -0.008 C 
ATOM     29  C   UNL     1       2.480 -23.189 -49.405  1.00  0.00     0.007 C 
ATOM     30  C   UNL     1       3.281 -25.402 -50.268  1.00  0.00     0.007 C 
ATOM     31  C   UNL     1       2.414 -23.674 -51.863  1.00  0.00     0.007 C 
ENDBRANCH  19  22
ENDBRANCH  13  14
ENDBRANCH   7  13
TORSDOF 4
ENDMDL
MODEL 5
REMARK VINA RESULT:    -7.343      2.207      9.401
REMARK INTER + INTRA:          -9.242
REMARK INTER:                  -9.212
REMARK INTRA:                  -0.030
REMARK UNBOUND:                -0.182
REMARK SMILES N#Cc1cc([N+](=O)[O-])cn(CC(=O)NC(=O)N[C@]23C[C@H]4C[C@H](C[C@H](C4)C2)C3)c1=O
REMARK SMILES IDX 1 1 2 2 3 3 4 4 5 5 9 6 10 7 28 8 29 9 6 10 7 11 8 12 11 13
REMARK SMILES IDX 12 14 13 15 14 16 15 17 16 18 17 19 18 22 26 23 27 24 19 25
REMARK SMILES IDX 24 26 22 27 20 28 25 29 23 30 21 31
REMARK H PARENT 14 20 17 21
ROOT
ATOM      1  N   UNL     1       5.190 -23.757 -51.858  1.00  0.00    -0.192 NA
ATOM      2  C   UNL     1       6.334 -23.779 -51.673  1.00  0.00     0.105 C 
ATOM      3  C   UNL     1       7.744 -23.813 -51.500  1.00  0.00     0.124 C 
ATOM      4  C   UNL     1       8.573 -24.030 -52.538  1.00  0.00     0.112 C 
ATOM      5  C   UNL     1      10.007 -24.068 -52.344  1.00  0.00     0.287 C 
ATOM      6  C   UNL     1      10.534 -23.868 -51.126  1.00  0.00     0.175 C 
ATOM      7  N   UNL     1       9.708 -23.624 -50.034  1.00  0.00    -0.298 N 
ATOM      8  C   UNL     1       8.313 -23.611 -50.131  1.00  0.00     0.269 C 
ATOM      9  O   UNL     1       7.592 -23.473 -49.144  1.00  0.00    -0.268 OA
ENDROOT
BRANCH   5  10
ATOM     10  N   UNL     1      10.922 -24.310 -53.462  1.00  0.00     0.064 N 
ATOM     11  O   UNL     1      11.952 -23.627 -53.538  1.00  0.00    -0.258 OA
ATOM     12  O   UNL     1      10.594 -25.186 -54.272  1.00  0.00    -0.258 OA
ENDBRANCH   5  10
BRANCH   7  13
ATOM     13  C   UNL     1      10.296 -23.411 -48.709  1.00  0.00     0.226 C 
BRANCH  13  14
ATOM     14  C   UNL     1      11.373 -22.333 -48.807  1.00  0.00     0.248 C 
ATOM     15  O   UNL     1      11.123 -21.193 -49.197  1.00  0.00    -0.273 OA
ATOM     16  N   UNL     1      12.651 -22.785 -48.579  1.00  0.00    -0.277 N 
ATOM     17  C   UNL     1      13.071 -22.748 -47.275  1.00  0.00     0.321 C 
ATOM     18  O   UNL     1      12.419 -22.277 -46.354  1.00  0.00    -0.248 OA
ATOM     19  N   UNL     1      14.302 -23.351 -47.143  1.00  0.00    -0.332 N 
ATOM     20  H   UNL     1      12.800 -23.731 -48.926  1.00  0.00     0.174 HD
ATOM     21  H   UNL     1      14.872 -23.270 -47.975  1.00  0.00     0.165 HD
BRANCH  19  22
ATOM     22  C   UNL     1      15.047 -23.432 -45.879  1.00  0.00     0.043 C 
ATOM     23  C   UNL     1      16.030 -24.629 -45.974  1.00  0.00     0.032 C 
ATOM     24  C   UNL     1      14.112 -23.686 -44.668  1.00  0.00     0.032 C 
ATOM     25  C   UNL     1      15.875 -22.150 -45.621  1.00  0.00     0.032 C 
ATOM     26  C   UNL     1      16.853 -24.773 -44.683  1.00  0.00    -0.008 C 
ATOM     27  C   UNL     1      14.930 -23.820 -43.371  1.00  0.00    -0.008 C 
ATOM     28  C   UNL     1      16.691 -22.286 -44.323  1.00  0.00    -0.008 C 
ATOM     29  C   UNL     1      17.650 -23.480 -44.449  1.00  0.00     0.007 C 
ATOM     30  C   UNL     1      15.900 -25.004 -43.501  1.00  0.00     0.007 C 
ATOM     31  C   UNL     1      15.733 -22.528 -43.144  1.00  0.00     0.007 C 
ENDBRANCH  19  22
ENDBRANCH  13  14
ENDBRANCH   7  13
TORSDOF 4
ENDMDL
MODEL 6
REMARK VINA RESULT:    -7.276      2.326      3.905
REMARK INTER + INTRA:          -9.160
REMARK INTER:                  -8.905
REMARK INTRA:                  -0.255
REMARK UNBOUND:                -0.182
REMARK SMILES N#Cc1cc([N+](=O)[O-])cn(CC(=O)NC(=O)N[C@]23C[C@H]4C[C@H](C[C@H](C4)C2)C3)c1=O
REMARK SMILES IDX 1 1 2 2 3 3 4 4 5 5 9 6 10 7 28 8 29 9 6 10 7 11 8 12 11 13
REMARK SMILES IDX 12 14 13 15 14 16 15 17 16 18 17 19 18 22 26 23 27 24 19 25
REMARK SMILES IDX 24 26 22 27 20 28 25 29 23 30 21 31
REMARK H PARENT 14 20 17 21
ROOT
ATOM      1  N   UNL     1      15.822 -24.307 -39.532  1.00  0.00    -0.192 NA
ATOM      2  C   UNL     1      15.577 -24.210 -40.661  1.00  0.00     0.105 C 
ATOM      3  C   UNL     1      15.320 -24.056 -42.050  1.00  0.00     0.124 C 
ATOM      4  C   UNL     1      16.067 -23.239 -42.815  1.00  0.00     0.112 C 
ATOM      5  C   UNL     1      15.788 -23.089 -44.228  1.00  0.00     0.287 C 
ATOM      6  C   UNL     1      14.787 -23.777 -44.800  1.00  0.00     0.175 C 
ATOM      7  N   UNL     1      14.006 -24.643 -44.043  1.00  0.00    -0.298 N 
ATOM      8  C   UNL     1      14.187 -24.813 -42.667  1.00  0.00     0.269 C 
ATOM      9  O   UNL     1      13.438 -25.521 -41.994  1.00  0.00    -0.268 OA
ENDROOT
BRANCH   5  10
ATOM     10  N   UNL     1      16.587 -22.199 -45.073  1.00  0.00     0.064 N 
ATOM     11  O   UNL     1      17.531 -21.588 -44.556  1.00  0.00    -0.258 OA
ATOM     12  O   UNL     1      16.252 -22.107 -46.261  1.00  0.00    -0.258 OA
ENDBRANCH   5  10
BRANCH   7  13
ATOM     13  C   UNL     1      12.915 -25.386 -44.679  1.00  0.00     0.226 C 
BRANCH  13  14
ATOM     14  C   UNL     1      11.728 -24.449 -44.890  1.00  0.00     0.248 C 
ATOM     15  O   UNL     1      11.557 -23.445 -44.200  1.00  0.00    -0.273 OA
ATOM     16  N   UNL     1      10.799 -24.905 -45.795  1.00  0.00    -0.277 N 
ATOM     17  C   UNL     1      11.011 -24.541 -47.099  1.00  0.00     0.321 C 
ATOM     18  O   UNL     1      11.906 -23.795 -47.470  1.00  0.00    -0.248 OA
ATOM     19  N   UNL     1      10.108 -25.164 -47.932  1.00  0.00    -0.332 N 
ATOM     20  H   UNL     1      10.690 -25.917 -45.769  1.00  0.00     0.174 HD
ATOM     21  H   UNL     1       9.221 -25.352 -47.481  1.00  0.00     0.165 HD
BRANCH  19  22
ATOM     22  C   UNL     1      10.040 -24.946 -49.383  1.00  0.00     0.043 C 
ATOM     23  C   UNL     1       8.834 -25.752 -49.937  1.00  0.00     0.032 C 
ATOM     24  C   UNL     1      11.315 -25.452 -50.107  1.00  0.00     0.032 C 
ATOM     25  C   UNL     1       9.819 -23.453 -49.727  1.00  0.00     0.032 C 
ATOM     26  C   UNL     1       8.696 -25.566 -51.456  1.00  0.00    -0.008 C 
ATOM     27  C   UNL     1      11.187 -25.258 -51.629  1.00  0.00    -0.008 C 
ATOM     28  C   UNL     1       9.693 -23.262 -51.248  1.00  0.00    -0.008 C 
ATOM     29  C   UNL     1       8.493 -24.073 -51.764  1.00  0.00     0.007 C 
ATOM     30  C   UNL     1       9.979 -26.057 -52.143  1.00  0.00     0.007 C 
ATOM     31  C   UNL     1      10.975 -23.766 -51.932  1.00  0.00     0.007 C 
ENDBRANCH  19  22
ENDBRANCH  13  14
ENDBRANCH   7  13
TORSDOF 4
ENDMDL
MODEL 7
REMARK VINA RESULT:    -7.083      1.735      3.053
REMARK INTER + INTRA:          -8.921
REMARK INTER:                  -8.544
REMARK INTRA:                  -0.377
REMARK UNBOUND:                -0.182
REMARK SMILES N#Cc1cc([N+](=O)[O-])cn(CC(=O)NC(=O)N[C@]23C[C@H]4C[C@H](C[C@H](C4)C2)C3)c1=O
REMARK SMILES IDX 1 1 2 2 3 3 4 4 5 5 9 6 10 7 28 8 29 9 6 10 7 11 8 12 11 13
REMARK SMILES IDX 12 14 13 15 14 16 15 17 16 18 17 19 18 22 26 23 27 24 19 25
REMARK SMILES IDX 24 26 22 27 20 28 25 29 23 30 21 31
REMARK H PARENT 14 20 17 21
ROOT
ATOM      1  N   UNL     1      12.754 -24.676 -41.468  1.00  0.00    -0.192 NA
ATOM      2  C   UNL     1      13.394 -24.307 -42.362  1.00  0.00     0.105 C 
ATOM      3  C   UNL     1      14.219 -23.841 -43.421  1.00  0.00     0.124 C 
ATOM      4  C   UNL     1      15.445 -23.336 -43.186  1.00  0.00     0.112 C 
ATOM      5  C   UNL     1      16.271 -22.861 -44.276  1.00  0.00     0.287 C 
ATOM      6  C   UNL     1      15.832 -22.934 -45.542  1.00  0.00     0.175 C 
ATOM      7  N   UNL     1      14.578 -23.465 -45.824  1.00  0.00    -0.298 N 
ATOM      8  C   UNL     1      13.706 -23.908 -44.824  1.00  0.00     0.269 C 
ATOM      9  O   UNL     1      12.569 -24.302 -45.080  1.00  0.00    -0.268 OA
ENDROOT
BRANCH   5  10
ATOM     10  N   UNL     1      17.603 -22.303 -44.036  1.00  0.00     0.064 N 
ATOM     11  O   UNL     1      18.249 -22.718 -43.065  1.00  0.00    -0.258 OA
ATOM     12  O   UNL     1      17.994 -21.433 -44.824  1.00  0.00    -0.258 OA
ENDBRANCH   5  10
BRANCH   7  13
ATOM     13  C   UNL     1      14.110 -23.535 -47.210  1.00  0.00     0.226 C 
BRANCH  13  14
ATOM     14  C   UNL     1      13.230 -22.322 -47.502  1.00  0.00     0.248 C 
ATOM     15  O   UNL     1      13.695 -21.189 -47.617  1.00  0.00    -0.273 OA
ATOM     16  N   UNL     1      11.880 -22.580 -47.467  1.00  0.00    -0.277 N 
ATOM     17  C   UNL     1      11.318 -22.973 -48.654  1.00  0.00     0.321 C 
ATOM     18  O   UNL     1      11.920 -23.027 -49.717  1.00  0.00    -0.248 OA
ATOM     19  N   UNL     1      10.002 -23.338 -48.473  1.00  0.00    -0.332 N 
ATOM     20  H   UNL     1      11.630 -23.271 -46.762  1.00  0.00     0.174 HD
ATOM     21  H   UNL     1       9.555 -22.836 -47.717  1.00  0.00     0.165 HD
BRANCH  19  22
ATOM     22  C   UNL     1       9.109 -23.762 -49.559  1.00  0.00     0.043 C 
ATOM     23  C   UNL     1       7.736 -24.135 -48.938  1.00  0.00     0.032 C 
ATOM     24  C   UNL     1       9.647 -25.015 -50.299  1.00  0.00     0.032 C 
ATOM     25  C   UNL     1       8.880 -22.626 -50.586  1.00  0.00     0.032 C 
ATOM     26  C   UNL     1       6.743 -24.584 -50.022  1.00  0.00    -0.008 C 
ATOM     27  C   UNL     1       8.661 -25.463 -51.393  1.00  0.00    -0.008 C 
ATOM     28  C   UNL     1       7.894 -23.077 -51.679  1.00  0.00    -0.008 C 
ATOM     29  C   UNL     1       6.549 -23.441 -51.031  1.00  0.00     0.007 C 
ATOM     30  C   UNL     1       7.310 -25.812 -50.748  1.00  0.00     0.007 C 
ATOM     31  C   UNL     1       8.462 -24.314 -52.395  1.00  0.00     0.007 C 
ENDBRANCH  19  22
ENDBRANCH  13  14
ENDBRANCH   7  13
TORSDOF 4
ENDMDL
MODEL 8
REMARK VINA RESULT:    -7.023      2.351      3.396
REMARK INTER + INTRA:          -8.848
REMARK INTER:                  -8.668
REMARK INTRA:                  -0.180
REMARK UNBOUND:                -0.182
REMARK SMILES N#Cc1cc([N+](=O)[O-])cn(CC(=O)NC(=O)N[C@]23C[C@H]4C[C@H](C[C@H](C4)C2)C3)c1=O
REMARK SMILES IDX 1 1 2 2 3 3 4 4 5 5 9 6 10 7 28 8 29 9 6 10 7 11 8 12 11 13
REMARK SMILES IDX 12 14 13 15 14 16 15 17 16 18 17 19 18 22 26 23 27 24 19 25
REMARK SMILES IDX 24 26 22 27 20 28 25 29 23 30 21 31
REMARK H PARENT 14 20 17 21
ROOT
ATOM      1  N   UNL     1      18.130 -21.657 -44.718  1.00  0.00    -0.192 NA
ATOM      2  C   UNL     1      17.317 -22.329 -44.236  1.00  0.00     0.105 C 
ATOM      3  C   UNL     1      16.341 -23.140 -43.597  1.00  0.00     0.124 C 
ATOM      4  C   UNL     1      16.327 -23.298 -42.260  1.00  0.00     0.112 C 
ATOM      5  C   UNL     1      15.329 -24.133 -41.624  1.00  0.00     0.287 C 
ATOM      6  C   UNL     1      14.390 -24.750 -42.359  1.00  0.00     0.175 C 
ATOM      7  N   UNL     1      14.365 -24.596 -43.741  1.00  0.00    -0.298 N 
ATOM      8  C   UNL     1      15.316 -23.839 -44.433  1.00  0.00     0.269 C 
ATOM      9  O   UNL     1      15.330 -23.775 -45.662  1.00  0.00    -0.268 OA
ENDROOT
BRANCH   5  10
ATOM     10  N   UNL     1      15.304 -24.320 -40.172  1.00  0.00     0.064 N 
ATOM     11  O   UNL     1      16.360 -24.175 -39.542  1.00  0.00    -0.258 OA
ATOM     12  O   UNL     1      14.217 -24.627 -39.667  1.00  0.00    -0.258 OA
ENDBRANCH   5  10
BRANCH   7  13
ATOM     13  C   UNL     1      13.337 -25.277 -44.532  1.00  0.00     0.226 C 
BRANCH  13  14
ATOM     14  C   UNL     1      12.114 -24.370 -44.649  1.00  0.00     0.248 C 
ATOM     15  O   UNL     1      11.962 -23.381 -43.933  1.00  0.00    -0.273 OA
ATOM     16  N   UNL     1      11.139 -24.839 -45.497  1.00  0.00    -0.277 N 
ATOM     17  C   UNL     1      11.255 -24.451 -46.807  1.00  0.00     0.321 C 
ATOM     18  O   UNL     1      12.103 -23.675 -47.224  1.00  0.00    -0.248 OA
ATOM     19  N   UNL     1      10.315 -25.087 -47.588  1.00  0.00    -0.332 N 
ATOM     20  H   UNL     1      11.059 -25.854 -45.481  1.00  0.00     0.174 HD
ATOM     21  H   UNL     1       9.465 -25.305 -47.084  1.00  0.00     0.165 HD
BRANCH  19  22
ATOM     22  C   UNL     1      10.146 -24.850 -49.028  1.00  0.00     0.043 C 
ATOM     23  C   UNL     1       8.955 -25.714 -49.523  1.00  0.00     0.032 C 
ATOM     24  C   UNL     1      11.400 -25.271 -49.838  1.00  0.00     0.032 C 
ATOM     25  C   UNL     1       9.820 -23.367 -49.329  1.00  0.00     0.032 C 
ATOM     26  C   UNL     1       8.712 -25.513 -51.027  1.00  0.00    -0.008 C 
ATOM     27  C   UNL     1      11.167 -25.061 -51.345  1.00  0.00    -0.008 C 
ATOM     28  C   UNL     1       9.589 -23.160 -50.836  1.00  0.00    -0.008 C 
ATOM     29  C   UNL     1       8.408 -24.030 -51.293  1.00  0.00     0.007 C 
ATOM     30  C   UNL     1       9.976 -25.919 -51.800  1.00  0.00     0.007 C 
ATOM     31  C   UNL     1      10.853 -23.578 -51.606  1.00  0.00     0.007 C 
ENDBRANCH  19  22
ENDBRANCH  13  14
ENDBRANCH   7  13
TORSDOF 4
ENDMDL
MODEL 9
REMARK VINA RESULT:    -6.701      1.498      2.337
REMARK INTER + INTRA:          -8.451
REMARK INTER:                  -8.296
REMARK INTRA:                  -0.155
REMARK UNBOUND:                -0.182
REMARK SMILES N#Cc1cc([N+](=O)[O-])cn(CC(=O)NC(=O)N[C@]23C[C@H]4C[C@H](C[C@H](C4)C2)C3)c1=O
REMARK SMILES IDX 1 1 2 2 3 3 4 4 5 5 9 6 10 7 28 8 29 9 6 10 7 11 8 12 11 13
REMARK SMILES IDX 12 14 13 15 14 16 15 17 16 18 17 19 18 22 26 23 27 24 19 25
REMARK SMILES IDX 24 26 22 27 20 28 25 29 23 30 21 31
REMARK H PARENT 14 20 17 21
ROOT
ATOM      1  N   UNL     1      19.307 -21.932 -44.375  1.00  0.00    -0.192 NA
ATOM      2  C   UNL     1      18.227 -22.354 -44.417  1.00  0.00     0.105 C 
ATOM      3  C   UNL     1      16.905 -22.872 -44.413  1.00  0.00     0.124 C 
ATOM      4  C   UNL     1      16.273 -23.175 -43.264  1.00  0.00     0.112 C 
ATOM      5  C   UNL     1      14.926 -23.707 -43.277  1.00  0.00     0.287 C 
ATOM      6  C   UNL     1      14.280 -23.891 -44.439  1.00  0.00     0.175 C 
ATOM      7  N   UNL     1      14.896 -23.573 -45.645  1.00  0.00    -0.298 N 
ATOM      8  C   UNL     1      16.207 -23.092 -45.718  1.00  0.00     0.269 C 
ATOM      9  O   UNL     1      16.768 -22.890 -46.795  1.00  0.00    -0.268 OA
ENDROOT
BRANCH   5  10
ATOM     10  N   UNL     1      14.228 -24.048 -42.036  1.00  0.00     0.064 N 
ATOM     11  O   UNL     1      14.897 -24.176 -41.001  1.00  0.00    -0.258 OA
ATOM     12  O   UNL     1      13.003 -24.198 -42.108  1.00  0.00    -0.258 OA
ENDBRANCH   5  10
BRANCH   7  13
ATOM     13  C   UNL     1      14.180 -23.781 -46.906  1.00  0.00     0.226 C 
BRANCH  13  14
ATOM     14  C   UNL     1      13.262 -22.588 -47.162  1.00  0.00     0.248 C 
ATOM     15  O   UNL     1      13.691 -21.438 -47.239  1.00  0.00    -0.273 OA
ATOM     16  N   UNL     1      11.921 -22.890 -47.141  1.00  0.00    -0.277 N 
ATOM     17  C   UNL     1      11.376 -23.262 -48.342  1.00  0.00     0.321 C 
ATOM     18  O   UNL     1      11.982 -23.262 -49.404  1.00  0.00    -0.248 OA
ATOM     19  N   UNL     1      10.072 -23.674 -48.178  1.00  0.00    -0.332 N 
ATOM     20  H   UNL     1      11.692 -23.611 -46.459  1.00  0.00     0.174 HD
ATOM     21  H   UNL     1       9.606 -23.212 -47.408  1.00  0.00     0.165 HD
BRANCH  19  22
ATOM     22  C   UNL     1       9.195 -24.091 -49.281  1.00  0.00     0.043 C 
ATOM     23  C   UNL     1       9.272 -23.011 -50.393  1.00  0.00     0.032 C 
ATOM     24  C   UNL     1       7.714 -24.204 -48.836  1.00  0.00     0.032 C 
ATOM     25  C   UNL     1       9.646 -25.440 -49.890  1.00  0.00     0.032 C 
ATOM     26  C   UNL     1       8.381 -23.384 -51.589  1.00  0.00    -0.008 C 
ATOM     27  C   UNL     1       6.818 -24.588 -50.027  1.00  0.00    -0.008 C 
ATOM     28  C   UNL     1       8.749 -25.822 -51.080  1.00  0.00    -0.008 C 
ATOM     29  C   UNL     1       8.845 -24.733 -52.160  1.00  0.00     0.007 C 
ATOM     30  C   UNL     1       6.926 -23.506 -51.114  1.00  0.00     0.007 C 
ATOM     31  C   UNL     1       7.291 -25.933 -50.602  1.00  0.00     0.007 C 
ENDBRANCH  19  22
ENDBRANCH  13  14
ENDBRANCH   7  13
TORSDOF 4
ENDMDL
