REMARK SMILES [H]/N=C1C(=N/Nc2ccc(Cl)c(C(F)(F)F)c2)/C(=N\[H])NN/1C
REMARK SMILES IDX 7 1 8 2 9 3 10 4 11 5 12 6 17 7 6 8 5 10 2 11 3 12 4 13
REMARK SMILES IDX 22 14 18 15 21 16 19 17 1 18 23 19 20 21 13 22 14 23 15 24
REMARK SMILES IDX 16 25
REMARK H PARENT 6 9 21 20
ROOT
ATOM      1  C   UNL     1      -0.194   1.216  -2.183  1.00  0.00     0.057 A 
ATOM      2  C   UNL     1       0.378   1.895  -3.265  1.00  0.00     0.029 A 
ATOM      3  C   UNL     1       0.554   1.257  -4.494  1.00  0.00     0.023 A 
ATOM      4  C   UNL     1       0.184  -0.081  -4.654  1.00  0.00     0.053 A 
ATOM      5  Cl  UNL     1       0.431  -0.796  -6.206  1.00  0.00    -0.084 Cl
ATOM      6  C   UNL     1      -0.357  -0.798  -3.582  1.00  0.00     0.076 A 
ATOM      7  C   UNL     1      -0.529  -0.136  -2.349  1.00  0.00     0.042 A 
ENDROOT
BRANCH   1   8
ATOM      8  N   UNL     1      -0.282   1.879  -0.924  1.00  0.00    -0.278 N 
ATOM      9  H   UNL     1      -0.545   2.853  -1.119  1.00  0.00     0.190 HD
BRANCH   8  10
ATOM     10  N   UNL     1      -1.111   1.309   0.004  1.00  0.00    -0.168 NA
ATOM     11  N   UNL     1      -2.560  -0.034   2.206  1.00  0.00    -0.281 NA
ATOM     12  C   UNL     1      -1.284   0.131   2.207  1.00  0.00     0.171 C 
ATOM     13  C   UNL     1      -0.546   0.794   1.053  1.00  0.00     0.170 C 
ATOM     14  N   UNL     1      -0.310  -0.226   3.146  1.00  0.00    -0.271 N 
ATOM     15  C   UNL     1       0.915   0.711   1.435  1.00  0.00     0.169 C 
ATOM     16  N   UNL     1       0.976  -0.010   2.613  1.00  0.00    -0.279 N 
ATOM     17  N   UNL     1       1.885   1.270   0.797  1.00  0.00    -0.281 NA
ATOM     18  H   UNL     1      -2.858  -0.483   3.073  1.00  0.00     0.190 HD
ATOM     19  C   UNL     1      -0.479  -1.378   4.015  1.00  0.00     0.174 C 
ATOM     20  H   UNL     1       1.734   0.260   3.237  1.00  0.00     0.190 HD
ATOM     21  H   UNL     1       1.468   1.717  -0.038  1.00  0.00     0.190 HD
ENDBRANCH   8  10
ENDBRANCH   1   8
BRANCH   6  22
ATOM     22  C   UNL     1      -0.748  -2.243  -3.717  1.00  0.00     0.417 C 
ATOM     23  F   UNL     1      -1.723  -2.448  -4.645  1.00  0.00    -0.166 F 
ATOM     24  F   UNL     1       0.294  -3.046  -4.072  1.00  0.00    -0.166 F 
ATOM     25  F   UNL     1      -1.233  -2.782  -2.560  1.00  0.00    -0.166 F 
ENDBRANCH   6  22
TORSDOF 3
