MODEL 1
REMARK VINA RESULT:    -7.126      0.000      0.000
REMARK INTER + INTRA:         -12.530
REMARK INTER:                 -10.876
REMARK INTRA:                  -1.654
REMARK UNBOUND:                -1.654
REMARK SMILES C=C(NNC(=O)[C@@H](C)n1nc(C)c([N+](=O)[O-])c1C)c1ccc(OCC(N)=O)cc1
REMARK SMILES IDX 1 1 2 2 3 3 4 5 5 6 6 7 7 9 8 10 9 11 10 12 17 13 11 14
REMARK SMILES IDX 13 15 18 16 12 17 14 18 15 19 16 20 19 21 20 22 29 23 21 24
REMARK SMILES IDX 28 25 22 26 23 27 24 28 25 29 26 30 27 31
REMARK H PARENT 3 4 4 8 26 32 26 33
ROOT
ATOM      1  C   UNL     1      11.906 -26.112 -48.518  1.00  0.00     0.039 C 
ATOM      2  C   UNL     1      11.747 -24.992 -47.799  1.00  0.00     0.054 C 
ENDROOT
BRANCH   2   3
ATOM      3  N   UNL     1      11.081 -24.886 -46.593  1.00  0.00    -0.299 N 
ATOM      4  H   UNL     1      10.098 -25.180 -46.650  1.00  0.00     0.188 HD
BRANCH   3   5
ATOM      5  N   UNL     1      11.684 -25.294 -45.391  1.00  0.00    -0.268 N 
ATOM      6  C   UNL     1      12.137 -24.282 -44.557  1.00  0.00     0.262 C 
ATOM      7  O   UNL     1      11.849 -23.094 -44.729  1.00  0.00    -0.271 OA
ATOM      8  H   UNL     1      12.257 -26.141 -45.460  1.00  0.00     0.191 HD
BRANCH   6   9
ATOM      9  C   UNL     1      12.984 -24.746 -43.384  1.00  0.00     0.195 C 
ATOM     10  C   UNL     1      12.751 -26.224 -43.074  1.00  0.00     0.044 C 
BRANCH   9  11
ATOM     11  N   UNL     1      14.394 -24.442 -43.624  1.00  0.00    -0.250 N 
ATOM     12  N   UNL     1      14.840 -24.423 -44.901  1.00  0.00    -0.170 NA
ATOM     13  C   UNL     1      15.374 -24.149 -42.703  1.00  0.00     0.114 A 
ATOM     14  C   UNL     1      16.153 -24.177 -44.798  1.00  0.00     0.137 A 
ATOM     15  C   UNL     1      16.542 -24.013 -43.445  1.00  0.00     0.312 A 
ATOM     16  C   UNL     1      15.112 -24.030 -41.242  1.00  0.00     0.074 C 
ATOM     17  C   UNL     1      16.987 -24.118 -46.026  1.00  0.00     0.076 C 
BRANCH  15  18
ATOM     18  N   UNL     1      17.867 -23.755 -42.949  1.00  0.00     0.066 N 
ATOM     19  O   UNL     1      18.591 -24.736 -42.744  1.00  0.00    -0.258 OA
ATOM     20  O   UNL     1      18.181 -22.576 -42.750  1.00  0.00    -0.258 OA
ENDBRANCH  15  18
ENDBRANCH   9  11
ENDBRANCH   6   9
ENDBRANCH   3   5
ENDBRANCH   2   3
BRANCH   2  21
ATOM     21  C   UNL     1      12.329 -23.742 -48.327  1.00  0.00    -0.001 A 
ATOM     22  C   UNL     1      13.629 -23.364 -47.967  1.00  0.00     0.014 A 
ATOM     23  C   UNL     1      11.601 -22.923 -49.198  1.00  0.00     0.014 A 
ATOM     24  C   UNL     1      14.194 -22.184 -48.466  1.00  0.00     0.047 A 
ATOM     25  C   UNL     1      12.168 -21.745 -49.694  1.00  0.00     0.047 A 
ATOM     26  C   UNL     1      13.465 -21.370 -49.333  1.00  0.00     0.120 A 
BRANCH  26  27
ATOM     27  O   UNL     1      13.895 -20.197 -49.890  1.00  0.00    -0.484 OA
BRANCH  27  28
ATOM     28  C   UNL     1      13.110 -19.666 -50.956  1.00  0.00     0.329 C 
BRANCH  28  29
ATOM     29  C   UNL     1      13.823 -19.852 -52.293  1.00  0.00     0.255 C 
ATOM     30  N   UNL     1      13.349 -19.102 -53.331  1.00  0.00    -0.367 N 
ATOM     31  O   UNL     1      14.742 -20.649 -52.458  1.00  0.00    -0.271 OA
ATOM     32  H   UNL     1      13.860 -19.129 -54.203  1.00  0.00     0.159 HD
ATOM     33  H   UNL     1      12.753 -18.306 -53.134  1.00  0.00     0.159 HD
ENDBRANCH  28  29
ENDBRANCH  27  28
ENDBRANCH  26  27
ENDBRANCH   2  21
TORSDOF 9
ENDMDL
MODEL 2
REMARK VINA RESULT:    -6.769      4.767      6.555
REMARK INTER + INTRA:         -11.985
REMARK INTER:                 -10.755
REMARK INTRA:                  -1.229
REMARK UNBOUND:                -1.654
REMARK SMILES C=C(NNC(=O)[C@@H](C)n1nc(C)c([N+](=O)[O-])c1C)c1ccc(OCC(N)=O)cc1
REMARK SMILES IDX 1 1 2 2 3 3 4 5 5 6 6 7 7 9 8 10 9 11 10 12 17 13 11 14
REMARK SMILES IDX 13 15 18 16 12 17 14 18 15 19 16 20 19 21 20 22 29 23 21 24
REMARK SMILES IDX 28 25 22 26 23 27 24 28 25 29 26 30 27 31
REMARK H PARENT 3 4 4 8 26 32 26 33
ROOT
ATOM      1  C   UNL     1      10.219 -23.371 -51.272  1.00  0.00     0.039 C 
ATOM      2  C   UNL     1       9.538 -23.452 -50.119  1.00  0.00     0.054 C 
ENDROOT
BRANCH   2   3
ATOM      3  N   UNL     1      10.086 -23.533 -48.854  1.00  0.00    -0.299 N 
ATOM      4  H   UNL     1      10.342 -24.492 -48.587  1.00  0.00     0.188 HD
BRANCH   3   5
ATOM      5  N   UNL     1      11.032 -22.593 -48.410  1.00  0.00    -0.268 N 
ATOM      6  C   UNL     1      12.340 -23.040 -48.306  1.00  0.00     0.262 C 
ATOM      7  O   UNL     1      12.718 -24.119 -48.771  1.00  0.00    -0.271 OA
ATOM      8  H   UNL     1      10.694 -21.947 -47.689  1.00  0.00     0.191 HD
BRANCH   6   9
ATOM      9  C   UNL     1      13.295 -22.083 -47.611  1.00  0.00     0.195 C 
ATOM     10  C   UNL     1      12.734 -20.662 -47.574  1.00  0.00     0.044 C 
BRANCH   9  11
ATOM     11  N   UNL     1      13.636 -22.582 -46.280  1.00  0.00    -0.250 N 
ATOM     12  N   UNL     1      12.635 -23.016 -45.479  1.00  0.00    -0.170 NA
ATOM     13  C   UNL     1      14.880 -22.692 -45.701  1.00  0.00     0.114 A 
ATOM     14  C   UNL     1      13.240 -23.352 -44.333  1.00  0.00     0.137 A 
ATOM     15  C   UNL     1      14.642 -23.154 -44.412  1.00  0.00     0.312 A 
ATOM     16  C   UNL     1      16.143 -22.354 -46.412  1.00  0.00     0.074 C 
ATOM     17  C   UNL     1      12.428 -23.849 -43.192  1.00  0.00     0.076 C 
BRANCH  15  18
ATOM     18  N   UNL     1      15.611 -23.388 -43.375  1.00  0.00     0.066 N 
ATOM     19  O   UNL     1      16.137 -22.392 -42.863  1.00  0.00    -0.258 OA
ATOM     20  O   UNL     1      15.858 -24.563 -43.081  1.00  0.00    -0.258 OA
ENDBRANCH  15  18
ENDBRANCH   9  11
ENDBRANCH   6   9
ENDBRANCH   3   5
ENDBRANCH   2   3
BRANCH   2  21
ATOM     21  C   UNL     1       8.063 -23.461 -50.186  1.00  0.00    -0.001 A 
ATOM     22  C   UNL     1       7.327 -24.319 -49.359  1.00  0.00     0.014 A 
ATOM     23  C   UNL     1       7.379 -22.613 -51.063  1.00  0.00     0.014 A 
ATOM     24  C   UNL     1       5.928 -24.332 -49.408  1.00  0.00     0.047 A 
ATOM     25  C   UNL     1       5.982 -22.629 -51.111  1.00  0.00     0.047 A 
ATOM     26  C   UNL     1       5.249 -23.486 -50.286  1.00  0.00     0.120 A 
BRANCH  26  27
ATOM     27  O   UNL     1       3.893 -23.399 -50.434  1.00  0.00    -0.484 OA
BRANCH  27  28
ATOM     28  C   UNL     1       3.240 -22.326 -49.758  1.00  0.00     0.329 C 
BRANCH  28  29
ATOM     29  C   UNL     1       3.106 -22.631 -48.268  1.00  0.00     0.255 C 
ATOM     30  N   UNL     1       2.042 -23.410 -47.913  1.00  0.00    -0.367 N 
ATOM     31  O   UNL     1       3.871 -22.183 -47.420  1.00  0.00    -0.271 OA
ATOM     32  H   UNL     1       1.980 -23.710 -46.950  1.00  0.00     0.159 HD
ATOM     33  H   UNL     1       1.559 -23.942 -48.627  1.00  0.00     0.159 HD
ENDBRANCH  28  29
ENDBRANCH  27  28
ENDBRANCH  26  27
ENDBRANCH   2  21
TORSDOF 9
ENDMDL
MODEL 3
REMARK VINA RESULT:    -6.742      4.704      9.522
REMARK INTER + INTRA:         -11.944
REMARK INTER:                 -10.786
REMARK INTRA:                  -1.158
REMARK UNBOUND:                -1.654
REMARK SMILES C=C(NNC(=O)[C@@H](C)n1nc(C)c([N+](=O)[O-])c1C)c1ccc(OCC(N)=O)cc1
REMARK SMILES IDX 1 1 2 2 3 3 4 5 5 6 6 7 7 9 8 10 9 11 10 12 17 13 11 14
REMARK SMILES IDX 13 15 18 16 12 17 14 18 15 19 16 20 19 21 20 22 29 23 21 24
REMARK SMILES IDX 28 25 22 26 23 27 24 28 25 29 26 30 27 31
REMARK H PARENT 3 4 4 8 26 32 26 33
ROOT
ATOM      1  C   UNL     1      13.095 -20.957 -50.358  1.00  0.00     0.039 C 
ATOM      2  C   UNL     1      12.499 -21.434 -49.255  1.00  0.00     0.054 C 
ENDROOT
BRANCH   2   3
ATOM      3  N   UNL     1      11.137 -21.535 -49.045  1.00  0.00    -0.299 N 
ATOM      4  H   UNL     1      10.686 -20.624 -48.888  1.00  0.00     0.188 HD
BRANCH   3   5
ATOM      5  N   UNL     1      10.342 -22.389 -49.828  1.00  0.00    -0.268 N 
ATOM      6  C   UNL     1       9.672 -23.396 -49.150  1.00  0.00     0.262 C 
ATOM      7  O   UNL     1       9.586 -23.433 -47.920  1.00  0.00    -0.271 OA
ATOM      8  H   UNL     1      10.729 -22.616 -50.749  1.00  0.00     0.191 HD
BRANCH   6   9
ATOM      9  C   UNL     1       9.009 -24.438 -50.036  1.00  0.00     0.195 C 
ATOM     10  C   UNL     1       9.128 -25.839 -49.437  1.00  0.00     0.044 C 
BRANCH   9  11
ATOM     11  N   UNL     1       7.622 -24.065 -50.310  1.00  0.00    -0.250 N 
ATOM     12  N   UNL     1       6.738 -24.078 -49.286  1.00  0.00    -0.170 NA
ATOM     13  C   UNL     1       7.063 -23.673 -51.504  1.00  0.00     0.114 A 
ATOM     14  C   UNL     1       5.566 -23.751 -49.846  1.00  0.00     0.137 A 
ATOM     15  C   UNL     1       5.709 -23.503 -51.234  1.00  0.00     0.312 A 
ATOM     16  C   UNL     1       7.849 -23.503 -52.757  1.00  0.00     0.074 C 
ATOM     17  C   UNL     1       4.341 -23.699 -49.007  1.00  0.00     0.076 C 
BRANCH  15  18
ATOM     18  N   UNL     1       4.671 -23.146 -52.164  1.00  0.00     0.066 N 
ATOM     19  O   UNL     1       3.932 -24.056 -52.557  1.00  0.00    -0.258 OA
ATOM     20  O   UNL     1       4.601 -21.961 -52.511  1.00  0.00    -0.258 OA
ENDBRANCH  15  18
ENDBRANCH   9  11
ENDBRANCH   6   9
ENDBRANCH   3   5
ENDBRANCH   2   3
BRANCH   2  21
ATOM     21  C   UNL     1      13.359 -21.897 -48.149  1.00  0.00    -0.001 A 
ATOM     22  C   UNL     1      12.788 -22.300 -46.935  1.00  0.00     0.014 A 
ATOM     23  C   UNL     1      14.750 -21.951 -48.294  1.00  0.00     0.014 A 
ATOM     24  C   UNL     1      13.593 -22.748 -45.880  1.00  0.00     0.047 A 
ATOM     25  C   UNL     1      15.551 -22.397 -47.239  1.00  0.00     0.047 A 
ATOM     26  C   UNL     1      14.979 -22.798 -46.029  1.00  0.00     0.120 A 
BRANCH  26  27
ATOM     27  O   UNL     1      15.876 -23.212 -45.083  1.00  0.00    -0.484 OA
BRANCH  27  28
ATOM     28  C   UNL     1      16.221 -22.271 -44.068  1.00  0.00     0.329 C 
BRANCH  28  29
ATOM     29  C   UNL     1      16.259 -22.946 -42.700  1.00  0.00     0.255 C 
ATOM     30  N   UNL     1      15.236 -23.812 -42.433  1.00  0.00    -0.367 N 
ATOM     31  O   UNL     1      17.123 -22.712 -41.860  1.00  0.00    -0.271 OA
ATOM     32  H   UNL     1      15.284 -24.347 -41.578  1.00  0.00     0.159 HD
ATOM     33  H   UNL     1      14.669 -24.156 -43.199  1.00  0.00     0.159 HD
ENDBRANCH  28  29
ENDBRANCH  27  28
ENDBRANCH  26  27
ENDBRANCH   2  21
TORSDOF 9
ENDMDL
MODEL 4
REMARK VINA RESULT:    -6.632      4.685      6.960
REMARK INTER + INTRA:         -11.776
REMARK INTER:                 -10.547
REMARK INTRA:                  -1.230
REMARK UNBOUND:                -1.654
REMARK SMILES C=C(NNC(=O)[C@@H](C)n1nc(C)c([N+](=O)[O-])c1C)c1ccc(OCC(N)=O)cc1
REMARK SMILES IDX 1 1 2 2 3 3 4 5 5 6 6 7 7 9 8 10 9 11 10 12 17 13 11 14
REMARK SMILES IDX 13 15 18 16 12 17 14 18 15 19 16 20 19 21 20 22 29 23 21 24
REMARK SMILES IDX 28 25 22 26 23 27 24 28 25 29 26 30 27 31
REMARK H PARENT 3 4 4 8 26 32 26 33
ROOT
ATOM      1  C   UNL     1      10.652 -24.049 -51.477  1.00  0.00     0.039 C 
ATOM      2  C   UNL     1       9.921 -23.138 -50.816  1.00  0.00     0.054 C 
ENDROOT
BRANCH   2   3
ATOM      3  N   UNL     1      10.316 -21.853 -50.497  1.00  0.00    -0.299 N 
ATOM      4  H   UNL     1       9.551 -21.170 -50.561  1.00  0.00     0.188 HD
BRANCH   3   5
ATOM      5  N   UNL     1      11.156 -21.602 -49.399  1.00  0.00    -0.268 N 
ATOM      6  C   UNL     1      12.487 -21.342 -49.691  1.00  0.00     0.262 C 
ATOM      7  O   UNL     1      12.891 -21.124 -50.836  1.00  0.00    -0.271 OA
ATOM      8  H   UNL     1      10.956 -22.162 -48.564  1.00  0.00     0.191 HD
BRANCH   6   9
ATOM      9  C   UNL     1      13.414 -21.302 -48.487  1.00  0.00     0.195 C 
ATOM     10  C   UNL     1      12.941 -20.285 -47.449  1.00  0.00     0.044 C 
BRANCH   9  11
ATOM     11  N   UNL     1      13.572 -22.642 -47.923  1.00  0.00    -0.250 N 
ATOM     12  N   UNL     1      12.720 -23.614 -48.324  1.00  0.00    -0.170 NA
ATOM     13  C   UNL     1      14.506 -23.082 -47.014  1.00  0.00     0.114 A 
ATOM     14  C   UNL     1      13.071 -24.690 -47.608  1.00  0.00     0.137 A 
ATOM     15  C   UNL     1      14.173 -24.408 -46.761  1.00  0.00     0.312 A 
ATOM     16  C   UNL     1      15.599 -22.221 -46.485  1.00  0.00     0.074 C 
ATOM     17  C   UNL     1      12.314 -25.958 -47.768  1.00  0.00     0.076 C 
BRANCH  15  18
ATOM     18  N   UNL     1      14.811 -25.309 -45.839  1.00  0.00     0.066 N 
ATOM     19  O   UNL     1      14.152 -25.664 -44.854  1.00  0.00    -0.258 OA
ATOM     20  O   UNL     1      15.972 -25.651 -46.089  1.00  0.00    -0.258 OA
ENDBRANCH  15  18
ENDBRANCH   9  11
ENDBRANCH   6   9
ENDBRANCH   3   5
ENDBRANCH   2   3
BRANCH   2  21
ATOM     21  C   UNL     1       8.566 -23.525 -50.376  1.00  0.00    -0.001 A 
ATOM     22  C   UNL     1       7.449 -23.158 -51.136  1.00  0.00     0.014 A 
ATOM     23  C   UNL     1       8.376 -24.266 -49.205  1.00  0.00     0.014 A 
ATOM     24  C   UNL     1       6.159 -23.524 -50.733  1.00  0.00     0.047 A 
ATOM     25  C   UNL     1       7.087 -24.630 -48.804  1.00  0.00     0.047 A 
ATOM     26  C   UNL     1       5.973 -24.262 -49.563  1.00  0.00     0.120 A 
BRANCH  26  27
ATOM     27  O   UNL     1       4.774 -24.683 -49.058  1.00  0.00    -0.484 OA
BRANCH  27  28
ATOM     28  C   UNL     1       3.617 -23.945 -49.449  1.00  0.00     0.329 C 
BRANCH  28  29
ATOM     29  C   UNL     1       3.140 -23.049 -48.308  1.00  0.00     0.255 C 
ATOM     30  N   UNL     1       1.800 -23.077 -48.048  1.00  0.00    -0.367 N 
ATOM     31  O   UNL     1       3.891 -22.312 -47.676  1.00  0.00    -0.271 OA
ATOM     32  H   UNL     1       1.467 -22.571 -47.240  1.00  0.00     0.159 HD
ATOM     33  H   UNL     1       1.241 -23.836 -48.420  1.00  0.00     0.159 HD
ENDBRANCH  28  29
ENDBRANCH  27  28
ENDBRANCH  26  27
ENDBRANCH   2  21
TORSDOF 9
ENDMDL
MODEL 5
REMARK VINA RESULT:    -6.588      3.175      4.582
REMARK INTER + INTRA:         -11.709
REMARK INTER:                 -10.379
REMARK INTRA:                  -1.330
REMARK UNBOUND:                -1.654
REMARK SMILES C=C(NNC(=O)[C@@H](C)n1nc(C)c([N+](=O)[O-])c1C)c1ccc(OCC(N)=O)cc1
REMARK SMILES IDX 1 1 2 2 3 3 4 5 5 6 6 7 7 9 8 10 9 11 10 12 17 13 11 14
REMARK SMILES IDX 13 15 18 16 12 17 14 18 15 19 16 20 19 21 20 22 29 23 21 24
REMARK SMILES IDX 28 25 22 26 23 27 24 28 25 29 26 30 27 31
REMARK H PARENT 3 4 4 8 26 32 26 33
ROOT
ATOM      1  C   UNL     1      13.029 -20.453 -47.599  1.00  0.00     0.039 C 
ATOM      2  C   UNL     1      12.562 -21.673 -47.296  1.00  0.00     0.054 C 
ENDROOT
BRANCH   2   3
ATOM      3  N   UNL     1      12.783 -22.360 -46.118  1.00  0.00    -0.299 N 
ATOM      4  H   UNL     1      12.389 -23.310 -46.127  1.00  0.00     0.188 HD
BRANCH   3   5
ATOM      5  N   UNL     1      14.030 -22.313 -45.472  1.00  0.00    -0.268 N 
ATOM      6  C   UNL     1      14.783 -23.477 -45.506  1.00  0.00     0.262 C 
ATOM      7  O   UNL     1      14.503 -24.435 -46.231  1.00  0.00    -0.271 OA
ATOM      8  H   UNL     1      14.048 -21.763 -44.607  1.00  0.00     0.191 HD
BRANCH   6   9
ATOM      9  C   UNL     1      16.013 -23.474 -44.613  1.00  0.00     0.195 C 
ATOM     10  C   UNL     1      16.665 -22.092 -44.562  1.00  0.00     0.044 C 
BRANCH   9  11
ATOM     11  N   UNL     1      15.676 -23.980 -43.283  1.00  0.00    -0.250 N 
ATOM     12  N   UNL     1      14.416 -23.799 -42.826  1.00  0.00    -0.170 NA
ATOM     13  C   UNL     1      16.484 -24.653 -42.395  1.00  0.00     0.114 A 
ATOM     14  C   UNL     1      14.429 -24.309 -41.587  1.00  0.00     0.137 A 
ATOM     15  C   UNL     1      15.701 -24.842 -41.262  1.00  0.00     0.312 A 
ATOM     16  C   UNL     1      17.888 -25.042 -42.702  1.00  0.00     0.074 C 
ATOM     17  C   UNL     1      13.198 -24.252 -40.757  1.00  0.00     0.076 C 
BRANCH  15  18
ATOM     18  N   UNL     1      16.095 -25.453 -40.021  1.00  0.00     0.066 N 
ATOM     19  O   UNL     1      17.033 -24.928 -39.409  1.00  0.00    -0.258 OA
ATOM     20  O   UNL     1      15.478 -26.462 -39.662  1.00  0.00    -0.258 OA
ENDBRANCH  15  18
ENDBRANCH   9  11
ENDBRANCH   6   9
ENDBRANCH   3   5
ENDBRANCH   2   3
BRANCH   2  21
ATOM     21  C   UNL     1      11.734 -22.367 -48.303  1.00  0.00    -0.001 A 
ATOM     22  C   UNL     1      11.751 -21.943 -49.639  1.00  0.00     0.014 A 
ATOM     23  C   UNL     1      10.931 -23.456 -47.947  1.00  0.00     0.014 A 
ATOM     24  C   UNL     1      10.975 -22.596 -50.605  1.00  0.00     0.047 A 
ATOM     25  C   UNL     1      10.158 -24.105 -48.913  1.00  0.00     0.047 A 
ATOM     26  C   UNL     1      10.174 -23.681 -50.244  1.00  0.00     0.120 A 
BRANCH  26  27
ATOM     27  O   UNL     1       9.373 -24.404 -51.084  1.00  0.00    -0.484 OA
BRANCH  27  28
ATOM     28  C   UNL     1       8.454 -23.667 -51.889  1.00  0.00     0.329 C 
BRANCH  28  29
ATOM     29  C   UNL     1       7.301 -23.135 -51.040  1.00  0.00     0.255 C 
ATOM     30  N   UNL     1       6.566 -24.076 -50.377  1.00  0.00    -0.367 N 
ATOM     31  O   UNL     1       7.011 -21.945 -50.974  1.00  0.00    -0.271 OA
ATOM     32  H   UNL     1       5.859 -23.751 -49.732  1.00  0.00     0.159 HD
ATOM     33  H   UNL     1       6.944 -25.009 -50.265  1.00  0.00     0.159 HD
ENDBRANCH  28  29
ENDBRANCH  27  28
ENDBRANCH  26  27
ENDBRANCH   2  21
TORSDOF 9
ENDMDL
MODEL 6
REMARK VINA RESULT:    -6.546      3.642      8.426
REMARK INTER + INTRA:         -11.645
REMARK INTER:                 -10.493
REMARK INTRA:                  -1.152
REMARK UNBOUND:                -1.654
REMARK SMILES C=C(NNC(=O)[C@@H](C)n1nc(C)c([N+](=O)[O-])c1C)c1ccc(OCC(N)=O)cc1
REMARK SMILES IDX 1 1 2 2 3 3 4 5 5 6 6 7 7 9 8 10 9 11 10 12 17 13 11 14
REMARK SMILES IDX 13 15 18 16 12 17 14 18 15 19 16 20 19 21 20 22 29 23 21 24
REMARK SMILES IDX 28 25 22 26 23 27 24 28 25 29 26 30 27 31
REMARK H PARENT 3 4 4 8 26 32 26 33
ROOT
ATOM      1  C   UNL     1      13.396 -20.097 -50.677  1.00  0.00     0.039 C 
ATOM      2  C   UNL     1      12.618 -20.894 -49.928  1.00  0.00     0.054 C 
ENDROOT
BRANCH   2   3
ATOM      3  N   UNL     1      11.297 -21.212 -50.180  1.00  0.00    -0.299 N 
ATOM      4  H   UNL     1      10.860 -20.593 -50.875  1.00  0.00     0.188 HD
BRANCH   3   5
ATOM      5  N   UNL     1      10.888 -22.548 -50.332  1.00  0.00    -0.268 N 
ATOM      6  C   UNL     1      11.102 -23.117 -51.579  1.00  0.00     0.262 C 
ATOM      7  O   UNL     1      11.798 -22.584 -52.448  1.00  0.00    -0.271 OA
ATOM      8  H   UNL     1      10.022 -22.793 -49.843  1.00  0.00     0.191 HD
BRANCH   6   9
ATOM      9  C   UNL     1      10.448 -24.473 -51.788  1.00  0.00     0.195 C 
ATOM     10  C   UNL     1      11.488 -25.591 -51.852  1.00  0.00     0.044 C 
BRANCH   9  11
ATOM     11  N   UNL     1       9.435 -24.712 -50.762  1.00  0.00    -0.250 N 
ATOM     12  N   UNL     1       9.814 -25.310 -49.609  1.00  0.00    -0.170 NA
ATOM     13  C   UNL     1       8.096 -24.394 -50.792  1.00  0.00     0.114 A 
ATOM     14  C   UNL     1       8.682 -25.441 -48.906  1.00  0.00     0.137 A 
ATOM     15  C   UNL     1       7.575 -24.899 -49.606  1.00  0.00     0.312 A 
ATOM     16  C   UNL     1       7.457 -23.660 -51.919  1.00  0.00     0.074 C 
ATOM     17  C   UNL     1       8.716 -26.099 -47.574  1.00  0.00     0.076 C 
BRANCH  15  18
ATOM     18  N   UNL     1       6.203 -24.874 -49.175  1.00  0.00     0.066 N 
ATOM     19  O   UNL     1       5.541 -25.904 -49.349  1.00  0.00    -0.258 OA
ATOM     20  O   UNL     1       5.782 -23.825 -48.675  1.00  0.00    -0.258 OA
ENDBRANCH  15  18
ENDBRANCH   9  11
ENDBRANCH   6   9
ENDBRANCH   3   5
ENDBRANCH   2   3
BRANCH   2  21
ATOM     21  C   UNL     1      13.207 -21.495 -48.716  1.00  0.00    -0.001 A 
ATOM     22  C   UNL     1      12.427 -21.661 -47.563  1.00  0.00     0.014 A 
ATOM     23  C   UNL     1      14.542 -21.913 -48.697  1.00  0.00     0.014 A 
ATOM     24  C   UNL     1      12.973 -22.236 -46.409  1.00  0.00     0.047 A 
ATOM     25  C   UNL     1      15.084 -22.486 -47.542  1.00  0.00     0.047 A 
ATOM     26  C   UNL     1      14.305 -22.650 -46.394  1.00  0.00     0.120 A 
BRANCH  26  27
ATOM     27  O   UNL     1      14.959 -23.223 -45.339  1.00  0.00    -0.484 OA
BRANCH  27  28
ATOM     28  C   UNL     1      16.306 -23.636 -45.564  1.00  0.00     0.329 C 
BRANCH  28  29
ATOM     29  C   UNL     1      17.279 -22.720 -44.826  1.00  0.00     0.255 C 
ATOM     30  N   UNL     1      18.597 -23.073 -44.892  1.00  0.00    -0.367 N 
ATOM     31  O   UNL     1      16.919 -21.744 -44.175  1.00  0.00    -0.271 OA
ATOM     32  H   UNL     1      19.275 -22.437 -44.497  1.00  0.00     0.159 HD
ATOM     33  H   UNL     1      18.895 -23.736 -45.598  1.00  0.00     0.159 HD
ENDBRANCH  28  29
ENDBRANCH  27  28
ENDBRANCH  26  27
ENDBRANCH   2  21
TORSDOF 9
ENDMDL
MODEL 7
REMARK VINA RESULT:    -6.507      3.084      3.932
REMARK INTER + INTRA:         -11.585
REMARK INTER:                 -10.501
REMARK INTRA:                  -1.084
REMARK UNBOUND:                -1.654
REMARK SMILES C=C(NNC(=O)[C@@H](C)n1nc(C)c([N+](=O)[O-])c1C)c1ccc(OCC(N)=O)cc1
REMARK SMILES IDX 1 1 2 2 3 3 4 5 5 6 6 7 7 9 8 10 9 11 10 12 17 13 11 14
REMARK SMILES IDX 13 15 18 16 12 17 14 18 15 19 16 20 19 21 20 22 29 23 21 24
REMARK SMILES IDX 28 25 22 26 23 27 24 28 25 29 26 30 27 31
REMARK H PARENT 3 4 4 8 26 32 26 33
ROOT
ATOM      1  C   UNL     1      14.800 -21.950 -48.226  1.00  0.00     0.039 C 
ATOM      2  C   UNL     1      13.643 -22.401 -47.720  1.00  0.00     0.054 C 
ENDROOT
BRANCH   2   3
ATOM      3  N   UNL     1      13.326 -22.504 -46.379  1.00  0.00    -0.299 N 
ATOM      4  H   UNL     1      12.442 -22.038 -46.138  1.00  0.00     0.188 HD
BRANCH   3   5
ATOM      5  N   UNL     1      13.489 -23.716 -45.685  1.00  0.00    -0.268 N 
ATOM      6  C   UNL     1      12.576 -23.971 -44.673  1.00  0.00     0.262 C 
ATOM      7  O   UNL     1      11.551 -23.304 -44.512  1.00  0.00    -0.271 OA
ATOM      8  H   UNL     1      14.462 -23.995 -45.526  1.00  0.00     0.191 HD
BRANCH   6   9
ATOM      9  C   UNL     1      12.908 -25.165 -43.793  1.00  0.00     0.195 C 
ATOM     10  C   UNL     1      13.330 -26.374 -44.626  1.00  0.00     0.044 C 
BRANCH   9  11
ATOM     11  N   UNL     1      13.912 -24.797 -42.795  1.00  0.00    -0.250 N 
ATOM     12  N   UNL     1      14.894 -23.939 -43.156  1.00  0.00    -0.170 NA
ATOM     13  C   UNL     1      14.002 -25.204 -41.484  1.00  0.00     0.114 A 
ATOM     14  C   UNL     1      15.674 -23.841 -42.071  1.00  0.00     0.137 A 
ATOM     15  C   UNL     1      15.171 -24.624 -41.002  1.00  0.00     0.312 A 
ATOM     16  C   UNL     1      12.995 -26.084 -40.831  1.00  0.00     0.074 C 
ATOM     17  C   UNL     1      16.891 -22.991 -42.117  1.00  0.00     0.076 C 
BRANCH  15  18
ATOM     18  N   UNL     1      15.748 -24.780 -39.694  1.00  0.00     0.066 N 
ATOM     19  O   UNL     1      16.907 -25.210 -39.639  1.00  0.00    -0.258 OA
ATOM     20  O   UNL     1      15.043 -24.486 -38.722  1.00  0.00    -0.258 OA
ENDBRANCH  15  18
ENDBRANCH   9  11
ENDBRANCH   6   9
ENDBRANCH   3   5
ENDBRANCH   2   3
BRANCH   2  21
ATOM     21  C   UNL     1      12.596 -22.835 -48.666  1.00  0.00    -0.001 A 
ATOM     22  C   UNL     1      12.317 -24.198 -48.829  1.00  0.00     0.014 A 
ATOM     23  C   UNL     1      11.863 -21.900 -49.405  1.00  0.00     0.014 A 
ATOM     24  C   UNL     1      11.322 -24.622 -49.719  1.00  0.00     0.047 A 
ATOM     25  C   UNL     1      10.872 -22.326 -50.293  1.00  0.00     0.047 A 
ATOM     26  C   UNL     1      10.596 -23.686 -50.456  1.00  0.00     0.120 A 
BRANCH  26  27
ATOM     27  O   UNL     1       9.603 -23.963 -51.354  1.00  0.00    -0.484 OA
BRANCH  27  28
ATOM     28  C   UNL     1       8.266 -23.964 -50.856  1.00  0.00     0.329 C 
BRANCH  28  29
ATOM     29  C   UNL     1       7.428 -22.901 -51.564  1.00  0.00     0.255 C 
ATOM     30  N   UNL     1       7.171 -23.128 -52.886  1.00  0.00    -0.367 N 
ATOM     31  O   UNL     1       7.033 -21.880 -51.010  1.00  0.00    -0.271 OA
ATOM     32  H   UNL     1       6.540 -22.495 -53.357  1.00  0.00     0.159 HD
ATOM     33  H   UNL     1       7.310 -24.059 -53.263  1.00  0.00     0.159 HD
ENDBRANCH  28  29
ENDBRANCH  27  28
ENDBRANCH  26  27
ENDBRANCH   2  21
TORSDOF 9
ENDMDL
MODEL 8
REMARK VINA RESULT:    -6.500      2.911      8.811
REMARK INTER + INTRA:         -11.574
REMARK INTER:                 -10.271
REMARK INTRA:                  -1.303
REMARK UNBOUND:                -1.654
REMARK SMILES C=C(NNC(=O)[C@@H](C)n1nc(C)c([N+](=O)[O-])c1C)c1ccc(OCC(N)=O)cc1
REMARK SMILES IDX 1 1 2 2 3 3 4 5 5 6 6 7 7 9 8 10 9 11 10 12 17 13 11 14
REMARK SMILES IDX 13 15 18 16 12 17 14 18 15 19 16 20 19 21 20 22 29 23 21 24
REMARK SMILES IDX 28 25 22 26 23 27 24 28 25 29 26 30 27 31
REMARK H PARENT 3 4 4 8 26 32 26 33
ROOT
ATOM      1  C   UNL     1      19.068 -22.132 -44.556  1.00  0.00     0.039 C 
ATOM      2  C   UNL     1      17.909 -22.791 -44.703  1.00  0.00     0.054 C 
ENDROOT
BRANCH   2   3
ATOM      3  N   UNL     1      17.125 -22.814 -45.840  1.00  0.00    -0.299 N 
ATOM      4  H   UNL     1      17.457 -23.486 -46.544  1.00  0.00     0.188 HD
BRANCH   3   5
ATOM      5  N   UNL     1      15.722 -22.790 -45.755  1.00  0.00    -0.268 N 
ATOM      6  C   UNL     1      15.064 -23.951 -46.131  1.00  0.00     0.262 C 
ATOM      7  O   UNL     1      15.650 -25.020 -46.323  1.00  0.00    -0.271 OA
ATOM      8  H   UNL     1      15.289 -21.897 -46.011  1.00  0.00     0.191 HD
BRANCH   6   9
ATOM      9  C   UNL     1      13.554 -23.826 -46.251  1.00  0.00     0.195 C 
ATOM     10  C   UNL     1      12.928 -23.337 -44.945  1.00  0.00     0.044 C 
BRANCH   9  11
ATOM     11  N   UNL     1      13.203 -22.977 -47.389  1.00  0.00    -0.250 N 
ATOM     12  N   UNL     1      13.564 -21.673 -47.355  1.00  0.00    -0.170 NA
ATOM     13  C   UNL     1      12.542 -23.327 -48.544  1.00  0.00     0.114 A 
ATOM     14  C   UNL     1      13.067 -21.155 -48.486  1.00  0.00     0.137 A 
ATOM     15  C   UNL     1      12.404 -22.142 -49.258  1.00  0.00     0.312 A 
ATOM     16  C   UNL     1      12.114 -24.720 -48.849  1.00  0.00     0.074 C 
ATOM     17  C   UNL     1      13.247 -19.708 -48.771  1.00  0.00     0.076 C 
BRANCH  15  18
ATOM     18  N   UNL     1      11.736 -21.954 -50.517  1.00  0.00     0.066 N 
ATOM     19  O   UNL     1      12.426 -21.566 -51.467  1.00  0.00    -0.258 OA
ATOM     20  O   UNL     1      10.521 -22.180 -50.556  1.00  0.00    -0.258 OA
ENDBRANCH  15  18
ENDBRANCH   9  11
ENDBRANCH   6   9
ENDBRANCH   3   5
ENDBRANCH   2   3
BRANCH   2  21
ATOM     21  C   UNL     1      17.405 -23.569 -43.554  1.00  0.00    -0.001 A 
ATOM     22  C   UNL     1      17.826 -24.892 -43.361  1.00  0.00     0.014 A 
ATOM     23  C   UNL     1      16.511 -23.002 -42.639  1.00  0.00     0.014 A 
ATOM     24  C   UNL     1      17.360 -25.638 -42.272  1.00  0.00     0.047 A 
ATOM     25  C   UNL     1      16.047 -23.750 -41.554  1.00  0.00     0.047 A 
ATOM     26  C   UNL     1      16.467 -25.069 -41.364  1.00  0.00     0.120 A 
BRANCH  26  27
ATOM     27  O   UNL     1      15.936 -25.684 -40.263  1.00  0.00    -0.484 OA
BRANCH  27  28
ATOM     28  C   UNL     1      14.527 -25.563 -40.076  1.00  0.00     0.329 C 
BRANCH  28  29
ATOM     29  C   UNL     1      14.202 -25.277 -38.612  1.00  0.00     0.255 C 
ATOM     30  N   UNL     1      14.266 -23.967 -38.232  1.00  0.00    -0.367 N 
ATOM     31  O   UNL     1      13.936 -26.157 -37.799  1.00  0.00    -0.271 OA
ATOM     32  H   UNL     1      13.963 -23.733 -37.297  1.00  0.00     0.159 HD
ATOM     33  H   UNL     1      14.268 -23.246 -38.945  1.00  0.00     0.159 HD
ENDBRANCH  28  29
ENDBRANCH  27  28
ENDBRANCH  26  27
ENDBRANCH   2  21
TORSDOF 9
ENDMDL
MODEL 9
REMARK VINA RESULT:    -6.427      5.847     10.056
REMARK INTER + INTRA:         -11.463
REMARK INTER:                 -10.358
REMARK INTRA:                  -1.105
REMARK UNBOUND:                -1.654
REMARK SMILES C=C(NNC(=O)[C@@H](C)n1nc(C)c([N+](=O)[O-])c1C)c1ccc(OCC(N)=O)cc1
REMARK SMILES IDX 1 1 2 2 3 3 4 5 5 6 6 7 7 9 8 10 9 11 10 12 17 13 11 14
REMARK SMILES IDX 13 15 18 16 12 17 14 18 15 19 16 20 19 21 20 22 29 23 21 24
REMARK SMILES IDX 28 25 22 26 23 27 24 28 25 29 26 30 27 31
REMARK H PARENT 3 4 4 8 26 32 26 33
ROOT
ATOM      1  C   UNL     1      11.110 -23.530 -51.798  1.00  0.00     0.039 C 
ATOM      2  C   UNL     1      10.847 -22.866 -50.662  1.00  0.00     0.054 C 
ENDROOT
BRANCH   2   3
ATOM      3  N   UNL     1       9.654 -22.251 -50.336  1.00  0.00    -0.299 N 
ATOM      4  H   UNL     1       9.678 -21.232 -50.466  1.00  0.00     0.188 HD
BRANCH   3   5
ATOM      5  N   UNL     1       8.421 -22.803 -50.725  1.00  0.00    -0.268 N 
ATOM      6  C   UNL     1       7.802 -23.633 -49.803  1.00  0.00     0.262 C 
ATOM      7  O   UNL     1       8.175 -23.727 -48.630  1.00  0.00    -0.271 OA
ATOM      8  H   UNL     1       8.358 -23.065 -51.714  1.00  0.00     0.191 HD
BRANCH   6   9
ATOM      9  C   UNL     1       6.596 -24.395 -50.329  1.00  0.00     0.195 C 
ATOM     10  C   UNL     1       6.512 -25.796 -49.726  1.00  0.00     0.044 C 
BRANCH   9  11
ATOM     11  N   UNL     1       5.374 -23.621 -50.116  1.00  0.00    -0.250 N 
ATOM     12  N   UNL     1       4.859 -23.563 -48.866  1.00  0.00    -0.170 NA
ATOM     13  C   UNL     1       4.646 -22.902 -51.036  1.00  0.00     0.114 A 
ATOM     14  C   UNL     1       3.736 -22.845 -48.995  1.00  0.00     0.137 A 
ATOM     15  C   UNL     1       3.547 -22.420 -50.334  1.00  0.00     0.312 A 
ATOM     16  C   UNL     1       5.054 -22.748 -52.459  1.00  0.00     0.074 C 
ATOM     17  C   UNL     1       2.879 -22.603 -47.806  1.00  0.00     0.076 C 
BRANCH  15  18
ATOM     18  N   UNL     1       2.449 -21.649 -50.853  1.00  0.00     0.066 N 
ATOM     19  O   UNL     1       1.461 -22.276 -51.253  1.00  0.00    -0.258 OA
ATOM     20  O   UNL     1       2.577 -20.419 -50.875  1.00  0.00    -0.258 OA
ENDBRANCH  15  18
ENDBRANCH   9  11
ENDBRANCH   6   9
ENDBRANCH   3   5
ENDBRANCH   2   3
BRANCH   2  21
ATOM     21  C   UNL     1      11.921 -22.770 -49.653  1.00  0.00    -0.001 A 
ATOM     22  C   UNL     1      12.683 -21.599 -49.549  1.00  0.00     0.014 A 
ATOM     23  C   UNL     1      12.189 -23.833 -48.785  1.00  0.00     0.014 A 
ATOM     24  C   UNL     1      13.700 -21.492 -48.592  1.00  0.00     0.047 A 
ATOM     25  C   UNL     1      13.206 -23.724 -47.832  1.00  0.00     0.047 A 
ATOM     26  C   UNL     1      13.966 -22.556 -47.729  1.00  0.00     0.120 A 
BRANCH  26  27
ATOM     27  O   UNL     1      14.925 -22.583 -46.755  1.00  0.00    -0.484 OA
BRANCH  27  28
ATOM     28  C   UNL     1      14.641 -23.362 -45.594  1.00  0.00     0.329 C 
BRANCH  28  29
ATOM     29  C   UNL     1      15.494 -22.900 -44.415  1.00  0.00     0.255 C 
ATOM     30  N   UNL     1      16.014 -21.641 -44.512  1.00  0.00    -0.367 N 
ATOM     31  O   UNL     1      15.744 -23.613 -43.448  1.00  0.00    -0.271 OA
ATOM     32  H   UNL     1      16.501 -21.270 -43.709  1.00  0.00     0.159 HD
ATOM     33  H   UNL     1      15.627 -20.999 -45.194  1.00  0.00     0.159 HD
ENDBRANCH  28  29
ENDBRANCH  27  28
ENDBRANCH  26  27
ENDBRANCH   2  21
TORSDOF 9
ENDMDL
