MODEL 1
REMARK VINA RESULT:    -8.399      0.000      0.000
REMARK INTER + INTRA:         -10.576
REMARK INTER:                  -9.872
REMARK INTRA:                  -0.704
REMARK UNBOUND:                -0.704
REMARK SMILES CCc1ccc([C@H]2C[C@@H](c3ccccc3)N=C3[NH+]=C(N)NN32)cc1
REMARK SMILES IDX 3 1 4 2 5 3 6 4 23 5 24 6 2 7 1 8 7 9 8 10 22 11 9 12 21 13
REMARK SMILES IDX 17 14 16 15 19 16 18 17 20 18 10 23 11 24 15 25 12 26 14 27
REMARK SMILES IDX 13 28
REMARK H PARENT 21 19 18 20 20 21 20 22
ROOT
ATOM      1  C   UNL     1      14.186 -18.291 -52.395  1.00  0.00    -0.048 A 
ATOM      2  C   UNL     1      14.077 -18.143 -51.007  1.00  0.00     0.004 A 
ATOM      3  C   UNL     1      13.825 -19.250 -50.193  1.00  0.00     0.007 A 
ATOM      4  C   UNL     1      13.670 -20.529 -50.748  1.00  0.00    -0.014 A 
ATOM      5  C   UNL     1      13.773 -20.670 -52.142  1.00  0.00     0.007 A 
ATOM      6  C   UNL     1      14.026 -19.563 -52.955  1.00  0.00     0.004 A 
ENDROOT
BRANCH   1   7
ATOM      7  C   UNL     1      14.431 -17.091 -53.275  1.00  0.00     0.032 C 
ATOM      8  C   UNL     1      15.892 -16.668 -53.262  1.00  0.00     0.009 C 
ENDBRANCH   1   7
BRANCH   4   9
ATOM      9  C   UNL     1      13.414 -21.716 -49.844  1.00  0.00     0.190 C 
ATOM     10  C   UNL     1      14.127 -21.623 -48.485  1.00  0.00     0.086 C 
ATOM     11  N   UNL     1      12.013 -21.814 -49.524  1.00  0.00    -0.161 N 
ATOM     12  C   UNL     1      13.777 -22.852 -47.603  1.00  0.00     0.191 C 
ATOM     13  N   UNL     1      10.890 -21.841 -50.528  1.00  0.00    -0.182 N 
ATOM     14  C   UNL     1      11.636 -22.657 -48.511  1.00  0.00     0.344 C 
ATOM     15  N   UNL     1      12.315 -23.162 -47.565  1.00  0.00    -0.158 NA
ATOM     16  C   UNL     1       9.866 -22.526 -49.925  1.00  0.00     0.308 C 
ATOM     17  N   UNL     1      10.280 -23.001 -48.725  1.00  0.00    -0.227 N 
ATOM     18  N   UNL     1       8.662 -22.711 -50.442  1.00  0.00    -0.320 N 
ATOM     19  H   UNL     1      10.883 -21.374 -51.428  1.00  0.00     0.262 HD
ATOM     20  H   UNL     1       9.764 -23.590 -48.096  1.00  0.00     0.233 HD
ATOM     21  H   UNL     1       8.413 -22.327 -51.344  1.00  0.00     0.217 HD
ATOM     22  H   UNL     1       7.952 -23.226 -49.934  1.00  0.00     0.217 HD
BRANCH  12  23
ATOM     23  C   UNL     1      14.336 -22.810 -46.187  1.00  0.00    -0.014 A 
ATOM     24  C   UNL     1      15.623 -22.275 -45.990  1.00  0.00     0.007 A 
ATOM     25  C   UNL     1      13.629 -23.245 -45.056  1.00  0.00     0.007 A 
ATOM     26  C   UNL     1      16.187 -22.190 -44.716  1.00  0.00     0.000 A 
ATOM     27  C   UNL     1      14.194 -23.159 -43.779  1.00  0.00     0.000 A 
ATOM     28  C   UNL     1      15.471 -22.633 -43.609  1.00  0.00     0.000 A 
ENDBRANCH  12  23
ENDBRANCH   4   9
TORSDOF 3
ENDMDL
MODEL 2
REMARK VINA RESULT:    -8.238      1.897      6.963
REMARK INTER + INTRA:         -10.388
REMARK INTER:                  -9.939
REMARK INTRA:                  -0.448
REMARK UNBOUND:                -0.704
REMARK SMILES CCc1ccc([C@H]2C[C@@H](c3ccccc3)N=C3[NH+]=C(N)NN32)cc1
REMARK SMILES IDX 3 1 4 2 5 3 6 4 23 5 24 6 2 7 1 8 7 9 8 10 22 11 9 12 21 13
REMARK SMILES IDX 17 14 16 15 19 16 18 17 20 18 10 23 11 24 15 25 12 26 14 27
REMARK SMILES IDX 13 28
REMARK H PARENT 21 19 18 20 20 21 20 22
ROOT
ATOM      1  C   UNL     1      15.333 -22.669 -44.867  1.00  0.00    -0.048 A 
ATOM      2  C   UNL     1      13.950 -22.879 -44.870  1.00  0.00     0.004 A 
ATOM      3  C   UNL     1      13.236 -22.895 -46.071  1.00  0.00     0.007 A 
ATOM      4  C   UNL     1      13.890 -22.695 -47.296  1.00  0.00    -0.014 A 
ATOM      5  C   UNL     1      15.277 -22.477 -47.286  1.00  0.00     0.007 A 
ATOM      6  C   UNL     1      15.990 -22.463 -46.084  1.00  0.00     0.004 A 
ENDROOT
BRANCH   1   7
ATOM      7  C   UNL     1      16.097 -22.625 -43.568  1.00  0.00     0.032 C 
ATOM      8  C   UNL     1      15.484 -23.540 -42.519  1.00  0.00     0.009 C 
ENDBRANCH   1   7
BRANCH   4   9
ATOM      9  C   UNL     1      13.098 -22.732 -48.586  1.00  0.00     0.190 C 
ATOM     10  C   UNL     1      11.652 -23.223 -48.409  1.00  0.00     0.086 C 
ATOM     11  N   UNL     1      12.977 -21.409 -49.143  1.00  0.00    -0.161 N 
ATOM     12  C   UNL     1      10.898 -23.189 -49.766  1.00  0.00     0.191 C 
ATOM     13  N   UNL     1      14.123 -20.472 -49.419  1.00  0.00    -0.182 N 
ATOM     14  C   UNL     1      12.074 -21.211 -50.156  1.00  0.00     0.344 C 
ATOM     15  N   UNL     1      11.075 -21.907 -50.516  1.00  0.00    -0.158 NA
ATOM     16  C   UNL     1      13.705 -19.660 -50.441  1.00  0.00     0.308 C 
ATOM     17  N   UNL     1      12.489 -20.068 -50.879  1.00  0.00    -0.227 N 
ATOM     18  N   UNL     1      14.390 -18.642 -50.939  1.00  0.00    -0.320 N 
ATOM     19  H   UNL     1      14.988 -20.416 -48.891  1.00  0.00     0.262 HD
ATOM     20  H   UNL     1      11.970 -19.701 -51.657  1.00  0.00     0.233 HD
ATOM     21  H   UNL     1      15.294 -18.386 -50.565  1.00  0.00     0.217 HD
ATOM     22  H   UNL     1      14.013 -18.082 -51.694  1.00  0.00     0.217 HD
BRANCH  12  23
ATOM     23  C   UNL     1       9.419 -23.545 -49.691  1.00  0.00    -0.014 A 
ATOM     24  C   UNL     1       8.589 -23.193 -50.773  1.00  0.00     0.007 A 
ATOM     25  C   UNL     1       8.835 -24.234 -48.617  1.00  0.00     0.007 A 
ATOM     26  C   UNL     1       7.228 -23.506 -50.776  1.00  0.00     0.000 A 
ATOM     27  C   UNL     1       7.471 -24.548 -48.620  1.00  0.00     0.000 A 
ATOM     28  C   UNL     1       6.669 -24.184 -49.698  1.00  0.00     0.000 A 
ENDBRANCH  12  23
ENDBRANCH   4   9
TORSDOF 3
ENDMDL
MODEL 3
REMARK VINA RESULT:    -8.237      1.193      6.840
REMARK INTER + INTRA:         -10.386
REMARK INTER:                  -9.913
REMARK INTRA:                  -0.473
REMARK UNBOUND:                -0.704
REMARK SMILES CCc1ccc([C@H]2C[C@@H](c3ccccc3)N=C3[NH+]=C(N)NN32)cc1
REMARK SMILES IDX 3 1 4 2 5 3 6 4 23 5 24 6 2 7 1 8 7 9 8 10 22 11 9 12 21 13
REMARK SMILES IDX 17 14 16 15 19 16 18 17 20 18 10 23 11 24 15 25 12 26 14 27
REMARK SMILES IDX 13 28
REMARK H PARENT 21 19 18 20 20 21 20 22
ROOT
ATOM      1  C   UNL     1      15.603 -23.695 -44.833  1.00  0.00    -0.048 A 
ATOM      2  C   UNL     1      16.105 -23.292 -46.076  1.00  0.00     0.004 A 
ATOM      3  C   UNL     1      15.292 -22.604 -46.980  1.00  0.00     0.007 A 
ATOM      4  C   UNL     1      13.958 -22.308 -46.664  1.00  0.00    -0.014 A 
ATOM      5  C   UNL     1      13.458 -22.722 -45.418  1.00  0.00     0.007 A 
ATOM      6  C   UNL     1      14.272 -23.409 -44.514  1.00  0.00     0.004 A 
ENDROOT
BRANCH   1   7
ATOM      7  C   UNL     1      16.473 -24.463 -43.869  1.00  0.00     0.032 C 
ATOM      8  C   UNL     1      16.907 -23.604 -42.691  1.00  0.00     0.009 C 
ENDBRANCH   1   7
BRANCH   4   9
ATOM      9  C   UNL     1      13.101 -21.547 -47.653  1.00  0.00     0.190 C 
ATOM     10  C   UNL     1      13.903 -20.894 -48.791  1.00  0.00     0.086 C 
ATOM     11  N   UNL     1      12.178 -22.436 -48.311  1.00  0.00    -0.161 N 
ATOM     12  C   UNL     1      12.950 -20.174 -49.783  1.00  0.00     0.191 C 
ATOM     13  N   UNL     1      11.226 -23.373 -47.615  1.00  0.00    -0.182 N 
ATOM     14  C   UNL     1      11.515 -21.978 -49.420  1.00  0.00     0.344 C 
ATOM     15  N   UNL     1      11.776 -21.004 -50.191  1.00  0.00    -0.158 NA
ATOM     16  C   UNL     1      10.176 -23.550 -48.479  1.00  0.00     0.308 C 
ATOM     17  N   UNL     1      10.336 -22.748 -49.560  1.00  0.00    -0.227 N 
ATOM     18  N   UNL     1       9.152 -24.365 -48.282  1.00  0.00    -0.320 N 
ATOM     19  H   UNL     1      11.385 -23.833 -46.724  1.00  0.00     0.262 HD
ATOM     20  H   UNL     1       9.692 -22.622 -50.321  1.00  0.00     0.233 HD
ATOM     21  H   UNL     1       9.092 -24.941 -47.452  1.00  0.00     0.217 HD
ATOM     22  H   UNL     1       8.412 -24.446 -48.970  1.00  0.00     0.217 HD
BRANCH  12  23
ATOM     23  C   UNL     1      13.625 -19.588 -51.015  1.00  0.00    -0.014 A 
ATOM     24  C   UNL     1      13.749 -20.397 -52.161  1.00  0.00     0.007 A 
ATOM     25  C   UNL     1      14.107 -18.272 -51.091  1.00  0.00     0.007 A 
ATOM     26  C   UNL     1      14.341 -19.916 -53.330  1.00  0.00     0.000 A 
ATOM     27  C   UNL     1      14.700 -17.790 -52.263  1.00  0.00     0.000 A 
ATOM     28  C   UNL     1      14.817 -18.611 -53.381  1.00  0.00     0.000 A 
ENDBRANCH  12  23
ENDBRANCH   4   9
TORSDOF 3
ENDMDL
MODEL 4
REMARK VINA RESULT:    -8.092      3.944      9.522
REMARK INTER + INTRA:         -10.216
REMARK INTER:                  -9.970
REMARK INTRA:                  -0.246
REMARK UNBOUND:                -0.704
REMARK SMILES CCc1ccc([C@H]2C[C@@H](c3ccccc3)N=C3[NH+]=C(N)NN32)cc1
REMARK SMILES IDX 3 1 4 2 5 3 6 4 23 5 24 6 2 7 1 8 7 9 8 10 22 11 9 12 21 13
REMARK SMILES IDX 17 14 16 15 19 16 18 17 20 18 10 23 11 24 15 25 12 26 14 27
REMARK SMILES IDX 13 28
REMARK H PARENT 21 19 18 20 20 21 20 22
ROOT
ATOM      1  C   UNL     1      14.379 -24.896 -40.003  1.00  0.00    -0.048 A 
ATOM      2  C   UNL     1      13.490 -24.393 -40.960  1.00  0.00     0.004 A 
ATOM      3  C   UNL     1      13.914 -24.160 -42.270  1.00  0.00     0.007 A 
ATOM      4  C   UNL     1      15.239 -24.421 -42.652  1.00  0.00    -0.014 A 
ATOM      5  C   UNL     1      16.129 -24.918 -41.686  1.00  0.00     0.007 A 
ATOM      6  C   UNL     1      15.703 -25.151 -40.376  1.00  0.00     0.004 A 
ENDROOT
BRANCH   1   7
ATOM      7  C   UNL     1      13.927 -25.120 -38.582  1.00  0.00     0.032 C 
ATOM      8  C   UNL     1      13.393 -23.844 -37.950  1.00  0.00     0.009 C 
ENDBRANCH   1   7
BRANCH   4   9
ATOM      9  C   UNL     1      15.672 -24.176 -44.082  1.00  0.00     0.190 C 
ATOM     10  C   UNL     1      14.593 -23.506 -44.949  1.00  0.00     0.086 C 
ATOM     11  N   UNL     1      16.795 -23.275 -44.124  1.00  0.00    -0.161 N 
ATOM     12  C   UNL     1      15.130 -23.250 -46.383  1.00  0.00     0.191 C 
ATOM     13  N   UNL     1      18.079 -23.448 -43.354  1.00  0.00    -0.182 N 
ATOM     14  C   UNL     1      17.148 -22.732 -45.332  1.00  0.00     0.344 C 
ATOM     15  N   UNL     1      16.486 -22.621 -46.409  1.00  0.00    -0.158 NA
ATOM     16  C   UNL     1      19.042 -22.802 -44.085  1.00  0.00     0.308 C 
ATOM     17  N   UNL     1      18.510 -22.356 -45.249  1.00  0.00    -0.227 N 
ATOM     18  N   UNL     1      20.306 -22.650 -43.720  1.00  0.00    -0.320 N 
ATOM     19  H   UNL     1      18.175 -23.886 -42.444  1.00  0.00     0.262 HD
ATOM     20  H   UNL     1      18.995 -21.905 -46.004  1.00  0.00     0.233 HD
ATOM     21  H   UNL     1      20.642 -23.005 -42.834  1.00  0.00     0.217 HD
ATOM     22  H   UNL     1      20.962 -22.155 -44.313  1.00  0.00     0.217 HD
BRANCH  12  23
ATOM     23  C   UNL     1      14.184 -22.483 -47.298  1.00  0.00    -0.014 A 
ATOM     24  C   UNL     1      14.717 -21.859 -48.442  1.00  0.00     0.007 A 
ATOM     25  C   UNL     1      12.800 -22.387 -47.087  1.00  0.00     0.007 A 
ATOM     26  C   UNL     1      13.903 -21.156 -49.331  1.00  0.00     0.000 A 
ATOM     27  C   UNL     1      11.984 -21.683 -47.979  1.00  0.00     0.000 A 
ATOM     28  C   UNL     1      12.535 -21.068 -49.099  1.00  0.00     0.000 A 
ENDBRANCH  12  23
ENDBRANCH   4   9
TORSDOF 3
ENDMDL
MODEL 5
REMARK VINA RESULT:    -8.031      2.613      4.607
REMARK INTER + INTRA:         -10.143
REMARK INTER:                  -9.474
REMARK INTRA:                  -0.669
REMARK UNBOUND:                -0.704
REMARK SMILES CCc1ccc([C@H]2C[C@@H](c3ccccc3)N=C3[NH+]=C(N)NN32)cc1
REMARK SMILES IDX 3 1 4 2 5 3 6 4 23 5 24 6 2 7 1 8 7 9 8 10 22 11 9 12 21 13
REMARK SMILES IDX 17 14 16 15 19 16 18 17 20 18 10 23 11 24 15 25 12 26 14 27
REMARK SMILES IDX 13 28
REMARK H PARENT 21 19 18 20 20 21 20 22
ROOT
ATOM      1  C   UNL     1      13.599 -20.534 -48.820  1.00  0.00    -0.048 A 
ATOM      2  C   UNL     1      14.521 -21.575 -48.977  1.00  0.00     0.004 A 
ATOM      3  C   UNL     1      14.526 -22.659 -48.096  1.00  0.00     0.007 A 
ATOM      4  C   UNL     1      13.611 -22.724 -47.034  1.00  0.00    -0.014 A 
ATOM      5  C   UNL     1      12.692 -21.673 -46.876  1.00  0.00     0.007 A 
ATOM      6  C   UNL     1      12.688 -20.590 -47.759  1.00  0.00     0.004 A 
ENDROOT
BRANCH   1   7
ATOM      7  C   UNL     1      13.613 -19.351 -49.755  1.00  0.00     0.032 C 
ATOM      8  C   UNL     1      13.428 -19.774 -51.205  1.00  0.00     0.009 C 
ENDBRANCH   1   7
BRANCH   4   9
ATOM      9  C   UNL     1      13.624 -23.916 -46.102  1.00  0.00     0.190 C 
ATOM     10  C   UNL     1      14.045 -23.572 -44.663  1.00  0.00     0.086 C 
ATOM     11  N   UNL     1      12.303 -24.477 -45.979  1.00  0.00    -0.161 N 
ATOM     12  C   UNL     1      13.988 -24.836 -43.764  1.00  0.00     0.191 C 
ATOM     13  N   UNL     1      11.424 -24.894 -47.129  1.00  0.00    -0.182 N 
ATOM     14  C   UNL     1      12.073 -25.385 -44.979  1.00  0.00     0.344 C 
ATOM     15  N   UNL     1      12.725 -25.621 -43.915  1.00  0.00    -0.158 NA
ATOM     16  C   UNL     1      10.604 -25.875 -46.636  1.00  0.00     0.308 C 
ATOM     17  N   UNL     1      10.958 -26.169 -45.362  1.00  0.00    -0.227 N 
ATOM     18  N   UNL     1       9.625 -26.462 -47.307  1.00  0.00    -0.320 N 
ATOM     19  H   UNL     1      11.403 -24.467 -48.050  1.00  0.00     0.262 HD
ATOM     20  H   UNL     1      10.575 -26.889 -44.776  1.00  0.00     0.233 HD
ATOM     21  H   UNL     1       9.407 -26.196 -48.259  1.00  0.00     0.217 HD
ATOM     22  H   UNL     1       9.055 -27.180 -46.874  1.00  0.00     0.217 HD
BRANCH  12  23
ATOM     23  C   UNL     1      14.273 -24.591 -42.288  1.00  0.00    -0.014 A 
ATOM     24  C   UNL     1      13.198 -24.643 -41.380  1.00  0.00     0.007 A 
ATOM     25  C   UNL     1      15.554 -24.346 -41.770  1.00  0.00     0.007 A 
ATOM     26  C   UNL     1      13.393 -24.445 -40.012  1.00  0.00     0.000 A 
ATOM     27  C   UNL     1      15.749 -24.149 -40.399  1.00  0.00     0.000 A 
ATOM     28  C   UNL     1      14.670 -24.197 -39.521  1.00  0.00     0.000 A 
ENDBRANCH  12  23
ENDBRANCH   4   9
TORSDOF 3
ENDMDL
MODEL 6
REMARK VINA RESULT:    -7.336      4.719      9.388
REMARK INTER + INTRA:          -9.327
REMARK INTER:                  -8.612
REMARK INTRA:                  -0.715
REMARK UNBOUND:                -0.704
REMARK SMILES CCc1ccc([C@H]2C[C@@H](c3ccccc3)N=C3[NH+]=C(N)NN32)cc1
REMARK SMILES IDX 3 1 4 2 5 3 6 4 23 5 24 6 2 7 1 8 7 9 8 10 22 11 9 12 21 13
REMARK SMILES IDX 17 14 16 15 19 16 18 17 20 18 10 23 11 24 15 25 12 26 14 27
REMARK SMILES IDX 13 28
REMARK H PARENT 21 19 18 20 20 21 20 22
ROOT
ATOM      1  C   UNL     1      14.006 -25.190 -39.864  1.00  0.00    -0.048 A 
ATOM      2  C   UNL     1      14.685 -26.203 -40.551  1.00  0.00     0.004 A 
ATOM      3  C   UNL     1      14.679 -26.242 -41.947  1.00  0.00     0.007 A 
ATOM      4  C   UNL     1      13.989 -25.271 -42.689  1.00  0.00    -0.014 A 
ATOM      5  C   UNL     1      13.303 -24.261 -41.994  1.00  0.00     0.007 A 
ATOM      6  C   UNL     1      13.311 -24.223 -40.597  1.00  0.00     0.004 A 
ENDROOT
BRANCH   1   7
ATOM      7  C   UNL     1      13.990 -25.166 -38.356  1.00  0.00     0.032 C 
ATOM      8  C   UNL     1      13.415 -23.865 -37.817  1.00  0.00     0.009 C 
ENDBRANCH   1   7
BRANCH   4   9
ATOM      9  C   UNL     1      14.011 -25.324 -44.201  1.00  0.00     0.190 C 
ATOM     10  C   UNL     1      12.656 -24.995 -44.851  1.00  0.00     0.086 C 
ATOM     11  N   UNL     1      14.924 -24.342 -44.728  1.00  0.00    -0.161 N 
ATOM     12  C   UNL     1      12.774 -25.027 -46.398  1.00  0.00     0.191 C 
ATOM     13  N   UNL     1      16.367 -24.191 -44.325  1.00  0.00    -0.182 N 
ATOM     14  C   UNL     1      14.875 -24.064 -46.070  1.00  0.00     0.344 C 
ATOM     15  N   UNL     1      13.958 -24.280 -46.922  1.00  0.00    -0.158 NA
ATOM     16  C   UNL     1      17.001 -23.635 -45.407  1.00  0.00     0.308 C 
ATOM     17  N   UNL     1      16.133 -23.535 -46.442  1.00  0.00    -0.227 N 
ATOM     18  N   UNL     1      18.272 -23.267 -45.442  1.00  0.00    -0.320 N 
ATOM     19  H   UNL     1      16.755 -24.390 -43.409  1.00  0.00     0.262 HD
ATOM     20  H   UNL     1      16.336 -23.224 -47.376  1.00  0.00     0.233 HD
ATOM     21  H   UNL     1      18.870 -23.366 -44.632  1.00  0.00     0.217 HD
ATOM     22  H   UNL     1      18.672 -22.858 -46.279  1.00  0.00     0.217 HD
BRANCH  12  23
ATOM     23  C   UNL     1      11.519 -24.602 -47.150  1.00  0.00    -0.014 A 
ATOM     24  C   UNL     1      11.615 -23.540 -48.068  1.00  0.00     0.007 A 
ATOM     25  C   UNL     1      10.273 -25.230 -47.005  1.00  0.00     0.007 A 
ATOM     26  C   UNL     1      10.508 -23.113 -48.803  1.00  0.00     0.000 A 
ATOM     27  C   UNL     1       9.163 -24.802 -47.742  1.00  0.00     0.000 A 
ATOM     28  C   UNL     1       9.280 -23.745 -48.639  1.00  0.00     0.000 A 
ENDBRANCH  12  23
ENDBRANCH   4   9
TORSDOF 3
ENDMDL
MODEL 7
REMARK VINA RESULT:    -7.167      2.330      5.630
REMARK INTER + INTRA:          -9.129
REMARK INTER:                  -8.422
REMARK INTRA:                  -0.707
REMARK UNBOUND:                -0.704
REMARK SMILES CCc1ccc([C@H]2C[C@@H](c3ccccc3)N=C3[NH+]=C(N)NN32)cc1
REMARK SMILES IDX 3 1 4 2 5 3 6 4 23 5 24 6 2 7 1 8 7 9 8 10 22 11 9 12 21 13
REMARK SMILES IDX 17 14 16 15 19 16 18 17 20 18 10 23 11 24 15 25 12 26 14 27
REMARK SMILES IDX 13 28
REMARK H PARENT 21 19 18 20 20 21 20 22
ROOT
ATOM      1  C   UNL     1       8.964 -25.296 -50.060  1.00  0.00    -0.048 A 
ATOM      2  C   UNL     1      10.306 -25.435 -50.429  1.00  0.00     0.004 A 
ATOM      3  C   UNL     1      11.284 -24.602 -49.880  1.00  0.00     0.007 A 
ATOM      4  C   UNL     1      10.940 -23.607 -48.953  1.00  0.00    -0.014 A 
ATOM      5  C   UNL     1       9.590 -23.466 -48.592  1.00  0.00     0.007 A 
ATOM      6  C   UNL     1       8.614 -24.301 -49.141  1.00  0.00     0.004 A 
ENDROOT
BRANCH   1   7
ATOM      7  C   UNL     1       7.905 -26.177 -50.675  1.00  0.00     0.032 C 
ATOM      8  C   UNL     1       6.641 -26.215 -49.831  1.00  0.00     0.009 C 
ENDBRANCH   1   7
BRANCH   4   9
ATOM      9  C   UNL     1      12.020 -22.727 -48.359  1.00  0.00     0.190 C 
ATOM     10  C   UNL     1      13.075 -23.503 -47.553  1.00  0.00     0.086 C 
ATOM     11  N   UNL     1      12.760 -22.063 -49.401  1.00  0.00    -0.161 N 
ATOM     12  C   UNL     1      14.167 -22.537 -47.018  1.00  0.00     0.191 C 
ATOM     13  N   UNL     1      12.157 -21.241 -50.510  1.00  0.00    -0.182 N 
ATOM     14  C   UNL     1      13.936 -21.442 -49.067  1.00  0.00     0.344 C 
ATOM     15  N   UNL     1      14.686 -21.591 -48.053  1.00  0.00    -0.158 NA
ATOM     16  C   UNL     1      13.123 -20.338 -50.874  1.00  0.00     0.308 C 
ATOM     17  N   UNL     1      14.189 -20.453 -50.046  1.00  0.00    -0.227 N 
ATOM     18  N   UNL     1      13.024 -19.474 -51.871  1.00  0.00    -0.320 N 
ATOM     19  H   UNL     1      11.251 -21.393 -50.939  1.00  0.00     0.262 HD
ATOM     20  H   UNL     1      15.014 -19.879 -50.037  1.00  0.00     0.233 HD
ATOM     21  H   UNL     1      12.200 -19.440 -52.457  1.00  0.00     0.217 HD
ATOM     22  H   UNL     1      13.784 -18.838 -52.085  1.00  0.00     0.217 HD
BRANCH  12  23
ATOM     23  C   UNL     1      15.329 -23.211 -46.302  1.00  0.00    -0.014 A 
ATOM     24  C   UNL     1      16.393 -22.408 -45.847  1.00  0.00     0.007 A 
ATOM     25  C   UNL     1      15.391 -24.588 -46.037  1.00  0.00     0.007 A 
ATOM     26  C   UNL     1      17.480 -22.960 -45.167  1.00  0.00     0.000 A 
ATOM     27  C   UNL     1      16.480 -25.141 -45.355  1.00  0.00     0.000 A 
ATOM     28  C   UNL     1      17.524 -24.328 -44.922  1.00  0.00     0.000 A 
ENDBRANCH  12  23
ENDBRANCH   4   9
TORSDOF 3
ENDMDL
MODEL 8
REMARK VINA RESULT:    -7.132      2.272      5.044
REMARK INTER + INTRA:          -9.087
REMARK INTER:                  -8.349
REMARK INTRA:                  -0.739
REMARK UNBOUND:                -0.704
REMARK SMILES CCc1ccc([C@H]2C[C@@H](c3ccccc3)N=C3[NH+]=C(N)NN32)cc1
REMARK SMILES IDX 3 1 4 2 5 3 6 4 23 5 24 6 2 7 1 8 7 9 8 10 22 11 9 12 21 13
REMARK SMILES IDX 17 14 16 15 19 16 18 17 20 18 10 23 11 24 15 25 12 26 14 27
REMARK SMILES IDX 13 28
REMARK H PARENT 21 19 18 20 20 21 20 22
ROOT
ATOM      1  C   UNL     1       9.313 -24.806 -51.991  1.00  0.00    -0.048 A 
ATOM      2  C   UNL     1      10.576 -25.137 -51.487  1.00  0.00     0.004 A 
ATOM      3  C   UNL     1      11.206 -24.312 -50.552  1.00  0.00     0.007 A 
ATOM      4  C   UNL     1      10.589 -23.134 -50.104  1.00  0.00    -0.014 A 
ATOM      5  C   UNL     1       9.325 -22.802 -50.620  1.00  0.00     0.007 A 
ATOM      6  C   UNL     1       8.696 -23.629 -51.554  1.00  0.00     0.004 A 
ENDROOT
BRANCH   1   7
ATOM      7  C   UNL     1       8.647 -25.683 -53.021  1.00  0.00     0.032 C 
ATOM      8  C   UNL     1       8.377 -24.931 -54.316  1.00  0.00     0.009 C 
ENDBRANCH   1   7
BRANCH   4   9
ATOM      9  C   UNL     1      11.284 -22.264 -49.079  1.00  0.00     0.190 C 
ATOM     10  C   UNL     1      11.831 -23.047 -47.873  1.00  0.00     0.086 C 
ATOM     11  N   UNL     1      12.435 -21.620 -49.658  1.00  0.00    -0.161 N 
ATOM     12  C   UNL     1      12.566 -22.092 -46.894  1.00  0.00     0.191 C 
ATOM     13  N   UNL     1      12.430 -20.800 -50.922  1.00  0.00    -0.182 N 
ATOM     14  C   UNL     1      13.332 -21.014 -48.817  1.00  0.00     0.344 C 
ATOM     15  N   UNL     1      13.522 -21.163 -47.571  1.00  0.00    -0.158 NA
ATOM     16  C   UNL     1      13.470 -19.916 -50.797  1.00  0.00     0.308 C 
ATOM     17  N   UNL     1      14.028 -20.037 -49.568  1.00  0.00    -0.227 N 
ATOM     18  N   UNL     1      13.861 -19.059 -51.728  1.00  0.00    -0.320 N 
ATOM     19  H   UNL     1      11.825 -20.943 -51.723  1.00  0.00     0.262 HD
ATOM     20  H   UNL     1      14.763 -19.475 -49.178  1.00  0.00     0.233 HD
ATOM     21  H   UNL     1      13.403 -19.019 -52.629  1.00  0.00     0.217 HD
ATOM     22  H   UNL     1      14.643 -18.436 -51.566  1.00  0.00     0.217 HD
BRANCH  12  23
ATOM     23  C   UNL     1      13.250 -22.776 -45.718  1.00  0.00    -0.014 A 
ATOM     24  C   UNL     1      14.653 -22.697 -45.621  1.00  0.00     0.007 A 
ATOM     25  C   UNL     1      12.563 -23.457 -44.702  1.00  0.00     0.007 A 
ATOM     26  C   UNL     1      15.341 -23.286 -44.559  1.00  0.00     0.000 A 
ATOM     27  C   UNL     1      13.253 -24.047 -43.638  1.00  0.00     0.000 A 
ATOM     28  C   UNL     1      14.640 -23.962 -43.567  1.00  0.00     0.000 A 
ENDBRANCH  12  23
ENDBRANCH   4   9
TORSDOF 3
ENDMDL
MODEL 9
REMARK VINA RESULT:    -6.693      5.309      7.517
REMARK INTER + INTRA:          -8.571
REMARK INTER:                  -7.856
REMARK INTRA:                  -0.715
REMARK UNBOUND:                -0.704
REMARK SMILES CCc1ccc([C@H]2C[C@@H](c3ccccc3)N=C3[NH+]=C(N)NN32)cc1
REMARK SMILES IDX 3 1 4 2 5 3 6 4 23 5 24 6 2 7 1 8 7 9 8 10 22 11 9 12 21 13
REMARK SMILES IDX 17 14 16 15 19 16 18 17 20 18 10 23 11 24 15 25 12 26 14 27
REMARK SMILES IDX 13 28
REMARK H PARENT 21 19 18 20 20 21 20 22
ROOT
ATOM      1  C   UNL     1      11.059 -24.690 -47.542  1.00  0.00    -0.048 A 
ATOM      2  C   UNL     1      11.476 -25.608 -46.571  1.00  0.00     0.004 A 
ATOM      3  C   UNL     1      12.400 -25.236 -45.592  1.00  0.00     0.007 A 
ATOM      4  C   UNL     1      12.932 -23.938 -45.564  1.00  0.00    -0.014 A 
ATOM      5  C   UNL     1      12.516 -23.023 -46.545  1.00  0.00     0.007 A 
ATOM      6  C   UNL     1      11.591 -23.397 -47.523  1.00  0.00     0.004 A 
ENDROOT
BRANCH   1   7
ATOM      7  C   UNL     1      10.083 -25.102 -48.615  1.00  0.00     0.032 C 
ATOM      8  C   UNL     1       8.645 -25.047 -48.123  1.00  0.00     0.009 C 
ENDBRANCH   1   7
BRANCH   4   9
ATOM      9  C   UNL     1      13.919 -23.553 -44.483  1.00  0.00     0.190 C 
ATOM     10  C   UNL     1      13.580 -24.133 -43.100  1.00  0.00     0.086 C 
ATOM     11  N   UNL     1      15.230 -24.066 -44.790  1.00  0.00    -0.161 N 
ATOM     12  C   UNL     1      14.661 -23.730 -42.062  1.00  0.00     0.191 C 
ATOM     13  N   UNL     1      15.969 -23.849 -46.085  1.00  0.00    -0.182 N 
ATOM     14  C   UNL     1      16.182 -24.047 -43.804  1.00  0.00     0.344 C 
ATOM     15  N   UNL     1      16.060 -23.943 -42.544  1.00  0.00    -0.158 NA
ATOM     16  C   UNL     1      17.301 -23.933 -45.774  1.00  0.00     0.308 C 
ATOM     17  N   UNL     1      17.449 -24.068 -44.434  1.00  0.00    -0.227 N 
ATOM     18  N   UNL     1      18.296 -23.874 -46.646  1.00  0.00    -0.320 N 
ATOM     19  H   UNL     1      15.547 -23.744 -47.002  1.00  0.00     0.262 HD
ATOM     20  H   UNL     1      18.311 -24.089 -43.918  1.00  0.00     0.233 HD
ATOM     21  H   UNL     1      18.119 -23.774 -47.637  1.00  0.00     0.217 HD
ATOM     22  H   UNL     1      19.259 -23.947 -46.342  1.00  0.00     0.217 HD
BRANCH  12  23
ATOM     23  C   UNL     1      14.490 -24.347 -40.680  1.00  0.00    -0.014 A 
ATOM     24  C   UNL     1      13.362 -23.984 -39.919  1.00  0.00     0.007 A 
ATOM     25  C   UNL     1      15.376 -25.284 -40.127  1.00  0.00     0.007 A 
ATOM     26  C   UNL     1      13.135 -24.525 -38.653  1.00  0.00     0.000 A 
ATOM     27  C   UNL     1      15.148 -25.827 -38.858  1.00  0.00     0.000 A 
ATOM     28  C   UNL     1      14.030 -25.448 -38.121  1.00  0.00     0.000 A 
ENDBRANCH  12  23
ENDBRANCH   4   9
TORSDOF 3
ENDMDL
