MODEL 1
REMARK VINA RESULT:    -6.632      0.000      0.000
REMARK INTER + INTRA:          -8.432
REMARK INTER:                  -7.795
REMARK INTRA:                  -0.637
REMARK UNBOUND:                -0.637
REMARK SMILES CCCN1CNc2c(c(=O)[nH]c(=O)n2-c2cccc(C)c2C)C1
REMARK SMILES IDX 4 1 5 2 6 3 7 4 8 5 9 6 10 7 11 8 12 9 13 10 14 11 23 12
REMARK SMILES IDX 3 15 2 16 1 17 15 18 16 19 21 20 17 21 19 22 18 23 22 24
REMARK SMILES IDX 20 25
REMARK H PARENT 6 13 11 14
ROOT
ATOM      1  N   UNL     1      15.045 -25.745 -40.668  1.00  0.00    -0.282 NA
ATOM      2  C   UNL     1      14.040 -26.004 -41.700  1.00  0.00     0.202 C 
ATOM      3  N   UNL     1      14.192 -25.337 -42.973  1.00  0.00    -0.358 N 
ATOM      4  C   UNL     1      15.425 -24.883 -43.423  1.00  0.00     0.126 C 
ATOM      5  C   UNL     1      16.492 -25.139 -42.643  1.00  0.00     0.072 C 
ATOM      6  C   UNL     1      17.828 -24.688 -43.055  1.00  0.00     0.260 C 
ATOM      7  O   UNL     1      18.846 -25.024 -42.462  1.00  0.00    -0.269 OA
ATOM      8  N   UNL     1      17.859 -23.872 -44.140  1.00  0.00    -0.273 N 
ATOM      9  C   UNL     1      16.828 -23.680 -45.019  1.00  0.00     0.334 C 
ATOM     10  O   UNL     1      17.082 -23.137 -46.096  1.00  0.00    -0.247 OA
ATOM     11  N   UNL     1      15.573 -24.159 -44.612  1.00  0.00    -0.247 N 
ATOM     12  C   UNL     1      16.375 -25.849 -41.319  1.00  0.00     0.131 C 
ATOM     13  H   UNL     1      13.387 -24.833 -43.329  1.00  0.00     0.163 HD
ATOM     14  H   UNL     1      18.769 -23.594 -44.472  1.00  0.00     0.175 HD
ENDROOT
BRANCH   1  15
ATOM     15  C   UNL     1      14.873 -24.429 -40.034  1.00  0.00     0.086 C 
BRANCH  15  16
ATOM     16  C   UNL     1      13.468 -24.184 -39.463  1.00  0.00     0.012 C 
ATOM     17  C   UNL     1      13.433 -24.165 -37.940  1.00  0.00     0.005 C 
ENDBRANCH  15  16
ENDBRANCH   1  15
BRANCH  11  18
ATOM     18  C   UNL     1      14.476 -23.982 -45.526  1.00  0.00     0.055 A 
ATOM     19  C   UNL     1      13.780 -22.760 -45.494  1.00  0.00     0.027 A 
ATOM     20  C   UNL     1      14.082 -24.986 -46.444  1.00  0.00    -0.024 A 
ATOM     21  C   UNL     1      12.689 -22.535 -46.327  1.00  0.00     0.002 A 
ATOM     22  C   UNL     1      12.944 -24.764 -47.261  1.00  0.00    -0.046 A 
ATOM     23  C   UNL     1      12.271 -23.534 -47.199  1.00  0.00     0.004 A 
ATOM     24  C   UNL     1      14.849 -26.279 -46.581  1.00  0.00     0.047 C 
ATOM     25  C   UNL     1      12.448 -25.805 -48.230  1.00  0.00     0.044 C 
ENDBRANCH  11  18
TORSDOF 3
ENDMDL
MODEL 2
REMARK VINA RESULT:    -6.306      2.458      4.063
REMARK INTER + INTRA:          -8.050
REMARK INTER:                  -7.383
REMARK INTRA:                  -0.667
REMARK UNBOUND:                -0.637
REMARK SMILES CCCN1CNc2c(c(=O)[nH]c(=O)n2-c2cccc(C)c2C)C1
REMARK SMILES IDX 4 1 5 2 6 3 7 4 8 5 9 6 10 7 11 8 12 9 13 10 14 11 23 12
REMARK SMILES IDX 3 15 2 16 1 17 15 18 16 19 21 20 17 21 19 22 18 23 22 24
REMARK SMILES IDX 20 25
REMARK H PARENT 6 13 11 14
ROOT
ATOM      1  N   UNL     1      17.752 -24.148 -44.564  1.00  0.00    -0.282 NA
ATOM      2  C   UNL     1      17.339 -23.353 -45.722  1.00  0.00     0.202 C 
ATOM      3  N   UNL     1      15.924 -23.245 -45.995  1.00  0.00    -0.358 N 
ATOM      4  C   UNL     1      14.967 -23.422 -45.005  1.00  0.00     0.126 C 
ATOM      5  C   UNL     1      15.415 -23.649 -43.756  1.00  0.00     0.072 C 
ATOM      6  C   UNL     1      14.460 -23.847 -42.658  1.00  0.00     0.260 C 
ATOM      7  O   UNL     1      14.811 -23.905 -41.485  1.00  0.00    -0.269 OA
ATOM      8  N   UNL     1      13.158 -23.961 -43.030  1.00  0.00    -0.273 N 
ATOM      9  C   UNL     1      12.652 -23.629 -44.257  1.00  0.00     0.334 C 
ATOM     10  O   UNL     1      11.429 -23.522 -44.365  1.00  0.00    -0.247 OA
ATOM     11  N   UNL     1      13.593 -23.406 -45.274  1.00  0.00    -0.247 N 
ATOM     12  C   UNL     1      16.882 -23.749 -43.428  1.00  0.00     0.131 C 
ATOM     13  H   UNL     1      15.619 -23.461 -46.938  1.00  0.00     0.163 HD
ATOM     14  H   UNL     1      12.481 -24.043 -42.288  1.00  0.00     0.175 HD
ENDROOT
BRANCH   1  15
ATOM     15  C   UNL     1      17.657 -25.595 -44.813  1.00  0.00     0.086 C 
BRANCH  15  16
ATOM     16  C   UNL     1      17.844 -26.462 -43.559  1.00  0.00     0.012 C 
ATOM     17  C   UNL     1      19.260 -26.416 -43.001  1.00  0.00     0.005 C 
ENDBRANCH  15  16
ENDBRANCH   1  15
BRANCH  11  18
ATOM     18  C   UNL     1      13.084 -23.041 -46.569  1.00  0.00     0.055 A 
ATOM     19  C   UNL     1      12.959 -21.672 -46.869  1.00  0.00     0.027 A 
ATOM     20  C   UNL     1      12.711 -24.005 -47.538  1.00  0.00    -0.024 A 
ATOM     21  C   UNL     1      12.444 -21.251 -48.090  1.00  0.00     0.002 A 
ATOM     22  C   UNL     1      12.149 -23.567 -48.764  1.00  0.00    -0.046 A 
ATOM     23  C   UNL     1      12.035 -22.193 -49.027  1.00  0.00     0.004 A 
ATOM     24  C   UNL     1      12.908 -25.483 -47.301  1.00  0.00     0.047 C 
ATOM     25  C   UNL     1      11.695 -24.539 -49.821  1.00  0.00     0.044 C 
ENDBRANCH  11  18
TORSDOF 3
ENDMDL
MODEL 3
REMARK VINA RESULT:    -6.258      1.706      5.941
REMARK INTER + INTRA:          -7.993
REMARK INTER:                  -7.485
REMARK INTRA:                  -0.508
REMARK UNBOUND:                -0.637
REMARK SMILES CCCN1CNc2c(c(=O)[nH]c(=O)n2-c2cccc(C)c2C)C1
REMARK SMILES IDX 4 1 5 2 6 3 7 4 8 5 9 6 10 7 11 8 12 9 13 10 14 11 23 12
REMARK SMILES IDX 3 15 2 16 1 17 15 18 16 19 21 20 17 21 19 22 18 23 22 24
REMARK SMILES IDX 20 25
REMARK H PARENT 6 13 11 14
ROOT
ATOM      1  N   UNL     1      13.944 -22.315 -47.099  1.00  0.00    -0.282 NA
ATOM      2  C   UNL     1      13.307 -22.275 -45.782  1.00  0.00     0.202 C 
ATOM      3  N   UNL     1      13.763 -23.214 -44.783  1.00  0.00    -0.358 N 
ATOM      4  C   UNL     1      15.029 -23.783 -44.830  1.00  0.00     0.126 C 
ATOM      5  C   UNL     1      15.843 -23.379 -45.824  1.00  0.00     0.072 C 
ATOM      6  C   UNL     1      17.196 -23.939 -45.938  1.00  0.00     0.260 C 
ATOM      7  O   UNL     1      18.024 -23.499 -46.726  1.00  0.00    -0.269 OA
ATOM      8  N   UNL     1      17.470 -24.979 -45.107  1.00  0.00    -0.273 N 
ATOM      9  C   UNL     1      16.724 -25.342 -44.019  1.00  0.00     0.334 C 
ATOM     10  O   UNL     1      17.230 -26.118 -43.207  1.00  0.00    -0.247 OA
ATOM     11  N   UNL     1      15.452 -24.758 -43.919  1.00  0.00    -0.247 N 
ATOM     12  C   UNL     1      15.410 -22.387 -46.872  1.00  0.00     0.131 C 
ATOM     13  H   UNL     1      13.055 -23.769 -44.314  1.00  0.00     0.163 HD
ATOM     14  H   UNL     1      18.409 -25.342 -45.131  1.00  0.00     0.175 HD
ENDROOT
BRANCH   1  15
ATOM     15  C   UNL     1      13.483 -23.451 -47.912  1.00  0.00     0.086 C 
BRANCH  15  16
ATOM     16  C   UNL     1      12.276 -23.135 -48.808  1.00  0.00     0.012 C 
ATOM     17  C   UNL     1      12.337 -21.747 -49.431  1.00  0.00     0.005 C 
ENDBRANCH  15  16
ENDBRANCH   1  15
BRANCH  11  18
ATOM     18  C   UNL     1      14.655 -25.114 -42.775  1.00  0.00     0.055 A 
ATOM     19  C   UNL     1      13.661 -26.095 -42.941  1.00  0.00     0.027 A 
ATOM     20  C   UNL     1      14.839 -24.515 -41.505  1.00  0.00    -0.024 A 
ATOM     21  C   UNL     1      12.834 -26.462 -41.886  1.00  0.00     0.002 A 
ATOM     22  C   UNL     1      13.965 -24.866 -40.445  1.00  0.00    -0.046 A 
ATOM     23  C   UNL     1      12.981 -25.846 -40.648  1.00  0.00     0.004 A 
ATOM     24  C   UNL     1      15.948 -23.523 -41.251  1.00  0.00     0.047 C 
ATOM     25  C   UNL     1      14.081 -24.238 -39.080  1.00  0.00     0.044 C 
ENDBRANCH  11  18
TORSDOF 3
ENDMDL
MODEL 4
REMARK VINA RESULT:    -6.248      3.167      6.889
REMARK INTER + INTRA:          -7.981
REMARK INTER:                  -7.349
REMARK INTRA:                  -0.631
REMARK UNBOUND:                -0.637
REMARK SMILES CCCN1CNc2c(c(=O)[nH]c(=O)n2-c2cccc(C)c2C)C1
REMARK SMILES IDX 4 1 5 2 6 3 7 4 8 5 9 6 10 7 11 8 12 9 13 10 14 11 23 12
REMARK SMILES IDX 3 15 2 16 1 17 15 18 16 19 21 20 17 21 19 22 18 23 22 24
REMARK SMILES IDX 20 25
REMARK H PARENT 6 13 11 14
ROOT
ATOM      1  N   UNL     1      13.563 -21.923 -48.837  1.00  0.00    -0.282 NA
ATOM      2  C   UNL     1      14.863 -22.351 -48.317  1.00  0.00     0.202 C 
ATOM      3  N   UNL     1      14.913 -22.871 -46.970  1.00  0.00    -0.358 N 
ATOM      4  C   UNL     1      13.798 -23.421 -46.351  1.00  0.00     0.126 C 
ATOM      5  C   UNL     1      12.670 -23.501 -47.083  1.00  0.00     0.072 C 
ATOM      6  C   UNL     1      11.451 -24.071 -46.493  1.00  0.00     0.260 C 
ATOM      7  O   UNL     1      10.449 -24.304 -47.158  1.00  0.00    -0.269 OA
ATOM      8  N   UNL     1      11.510 -24.323 -45.160  1.00  0.00    -0.273 N 
ATOM      9  C   UNL     1      12.654 -24.364 -44.410  1.00  0.00     0.334 C 
ATOM     10  O   UNL     1      12.590 -24.870 -43.288  1.00  0.00    -0.247 OA
ATOM     11  N   UNL     1      13.810 -23.849 -45.018  1.00  0.00    -0.247 N 
ATOM     12  C   UNL     1      12.585 -22.988 -48.497  1.00  0.00     0.131 C 
ATOM     13  H   UNL     1      15.601 -22.466 -46.344  1.00  0.00     0.163 HD
ATOM     14  H   UNL     1      10.704 -24.764 -44.746  1.00  0.00     0.175 HD
ENDROOT
BRANCH   1  15
ATOM     15  C   UNL     1      13.138 -20.627 -48.287  1.00  0.00     0.086 C 
BRANCH  15  16
ATOM     16  C   UNL     1      13.363 -19.438 -49.233  1.00  0.00     0.012 C 
ATOM     17  C   UNL     1      13.345 -19.829 -50.705  1.00  0.00     0.005 C 
ENDBRANCH  15  16
ENDBRANCH   1  15
BRANCH  11  18
ATOM     18  C   UNL     1      15.028 -23.894 -44.254  1.00  0.00     0.055 A 
ATOM     19  C   UNL     1      15.306 -22.821 -43.388  1.00  0.00     0.027 A 
ATOM     20  C   UNL     1      15.943 -24.972 -44.346  1.00  0.00    -0.024 A 
ATOM     21  C   UNL     1      16.481 -22.786 -42.645  1.00  0.00     0.002 A 
ATOM     22  C   UNL     1      17.157 -24.909 -43.616  1.00  0.00    -0.046 A 
ATOM     23  C   UNL     1      17.403 -23.820 -42.765  1.00  0.00     0.004 A 
ATOM     24  C   UNL     1      15.651 -26.188 -45.191  1.00  0.00     0.047 C 
ATOM     25  C   UNL     1      18.191 -26.002 -43.699  1.00  0.00     0.044 C 
ENDBRANCH  11  18
TORSDOF 3
ENDMDL
MODEL 5
REMARK VINA RESULT:    -6.000      3.886      5.876
REMARK INTER + INTRA:          -7.690
REMARK INTER:                  -7.078
REMARK INTRA:                  -0.612
REMARK UNBOUND:                -0.637
REMARK SMILES CCCN1CNc2c(c(=O)[nH]c(=O)n2-c2cccc(C)c2C)C1
REMARK SMILES IDX 4 1 5 2 6 3 7 4 8 5 9 6 10 7 11 8 12 9 13 10 14 11 23 12
REMARK SMILES IDX 3 15 2 16 1 17 15 18 16 19 21 20 17 21 19 22 18 23 22 24
REMARK SMILES IDX 20 25
REMARK H PARENT 6 13 11 14
ROOT
ATOM      1  N   UNL     1      15.322 -22.675 -46.212  1.00  0.00    -0.282 NA
ATOM      2  C   UNL     1      14.778 -22.243 -47.500  1.00  0.00     0.202 C 
ATOM      3  N   UNL     1      13.578 -22.890 -47.979  1.00  0.00    -0.358 N 
ATOM      4  C   UNL     1      12.683 -23.510 -47.117  1.00  0.00     0.126 C 
ATOM      5  C   UNL     1      12.952 -23.436 -45.799  1.00  0.00     0.072 C 
ATOM      6  C   UNL     1      12.049 -24.069 -44.829  1.00  0.00     0.260 C 
ATOM      7  O   UNL     1      12.165 -23.904 -43.621  1.00  0.00    -0.269 OA
ATOM      8  N   UNL     1      11.074 -24.851 -45.362  1.00  0.00    -0.273 N 
ATOM      9  C   UNL     1      10.698 -24.863 -46.678  1.00  0.00     0.334 C 
ATOM     10  O   UNL     1       9.631 -25.408 -46.967  1.00  0.00    -0.247 OA
ATOM     11  N   UNL     1      11.562 -24.214 -47.573  1.00  0.00    -0.247 N 
ATOM     12  C   UNL     1      14.182 -22.752 -45.262  1.00  0.00     0.131 C 
ATOM     13  H   UNL     1      13.599 -23.260 -48.923  1.00  0.00     0.163 HD
ATOM     14  H   UNL     1      10.411 -25.251 -44.717  1.00  0.00     0.175 HD
ENDROOT
BRANCH   1  15
ATOM     15  C   UNL     1      16.017 -23.969 -46.301  1.00  0.00     0.086 C 
BRANCH  15  16
ATOM     16  C   UNL     1      17.405 -23.983 -45.644  1.00  0.00     0.012 C 
ATOM     17  C   UNL     1      17.791 -22.647 -45.024  1.00  0.00     0.005 C 
ENDBRANCH  15  16
ENDBRANCH   1  15
BRANCH  11  18
ATOM     18  C   UNL     1      11.180 -24.202 -48.961  1.00  0.00     0.055 A 
ATOM     19  C   UNL     1      10.488 -23.078 -49.446  1.00  0.00     0.027 A 
ATOM     20  C   UNL     1      11.476 -25.273 -49.839  1.00  0.00    -0.024 A 
ATOM     21  C   UNL     1      10.061 -23.016 -50.768  1.00  0.00     0.002 A 
ATOM     22  C   UNL     1      11.002 -25.219 -51.174  1.00  0.00    -0.046 A 
ATOM     23  C   UNL     1      10.310 -24.083 -51.624  1.00  0.00     0.004 A 
ATOM     24  C   UNL     1      12.293 -26.462 -49.392  1.00  0.00     0.047 C 
ATOM     25  C   UNL     1      11.247 -26.341 -52.150  1.00  0.00     0.044 C 
ENDBRANCH  11  18
TORSDOF 3
ENDMDL
MODEL 6
REMARK VINA RESULT:    -5.774     23.985     26.341
REMARK INTER + INTRA:          -7.423
REMARK INTER:                  -6.591
REMARK INTRA:                  -0.833
REMARK UNBOUND:                -0.637
REMARK SMILES CCCN1CNc2c(c(=O)[nH]c(=O)n2-c2cccc(C)c2C)C1
REMARK SMILES IDX 4 1 5 2 6 3 7 4 8 5 9 6 10 7 11 8 12 9 13 10 14 11 23 12
REMARK SMILES IDX 3 15 2 16 1 17 15 18 16 19 21 20 17 21 19 22 18 23 22 24
REMARK SMILES IDX 20 25
REMARK H PARENT 6 13 11 14
ROOT
ATOM      1  N   UNL     1      -3.280  -8.070 -31.758  1.00  0.00    -0.282 NA
ATOM      2  C   UNL     1      -3.144  -6.858 -32.567  1.00  0.00     0.202 C 
ATOM      3  N   UNL     1      -1.812  -6.443 -32.943  1.00  0.00    -0.358 N 
ATOM      4  C   UNL     1      -0.752  -7.338 -33.004  1.00  0.00     0.126 C 
ATOM      5  C   UNL     1      -1.028  -8.631 -32.749  1.00  0.00     0.072 C 
ATOM      6  C   UNL     1       0.044  -9.633 -32.794  1.00  0.00     0.260 C 
ATOM      7  O   UNL     1      -0.178 -10.836 -32.719  1.00  0.00    -0.269 OA
ATOM      8  N   UNL     1       1.302  -9.138 -32.925  1.00  0.00    -0.273 N 
ATOM      9  C   UNL     1       1.616  -7.858 -33.297  1.00  0.00     0.334 C 
ATOM     10  O   UNL     1       2.776  -7.627 -33.641  1.00  0.00    -0.247 OA
ATOM     11  N   UNL     1       0.560  -6.934 -33.283  1.00  0.00    -0.247 N 
ATOM     12  C   UNL     1      -2.408  -9.104 -32.373  1.00  0.00     0.131 C 
ATOM     13  H   UNL     1      -1.557  -5.480 -32.751  1.00  0.00     0.163 HD
ATOM     14  H   UNL     1       2.047  -9.810 -33.013  1.00  0.00     0.175 HD
ENDROOT
BRANCH   1  15
ATOM     15  C   UNL     1      -2.916  -7.849 -30.350  1.00  0.00     0.086 C 
BRANCH  15  16
ATOM     16  C   UNL     1      -3.204  -6.428 -29.841  1.00  0.00     0.012 C 
ATOM     17  C   UNL     1      -1.996  -5.766 -29.193  1.00  0.00     0.005 C 
ENDBRANCH  15  16
ENDBRANCH   1  15
BRANCH  11  18
ATOM     18  C   UNL     1       0.863  -5.586 -33.684  1.00  0.00     0.055 A 
ATOM     19  C   UNL     1       0.744  -5.260 -35.047  1.00  0.00     0.027 A 
ATOM     20  C   UNL     1       1.271  -4.593 -32.761  1.00  0.00    -0.024 A 
ATOM     21  C   UNL     1       1.052  -3.984 -35.507  1.00  0.00     0.002 A 
ATOM     22  C   UNL     1       1.623  -3.307 -33.245  1.00  0.00    -0.046 A 
ATOM     23  C   UNL     1       1.496  -3.017 -34.612  1.00  0.00     0.004 A 
ATOM     24  C   UNL     1       1.329  -4.866 -31.277  1.00  0.00     0.047 C 
ATOM     25  C   UNL     1       2.103  -2.216 -32.322  1.00  0.00     0.044 C 
ENDBRANCH  11  18
TORSDOF 3
ENDMDL
MODEL 7
REMARK VINA RESULT:    -5.773      4.129      6.398
REMARK INTER + INTRA:          -7.422
REMARK INTER:                  -6.720
REMARK INTRA:                  -0.702
REMARK UNBOUND:                -0.637
REMARK SMILES CCCN1CNc2c(c(=O)[nH]c(=O)n2-c2cccc(C)c2C)C1
REMARK SMILES IDX 4 1 5 2 6 3 7 4 8 5 9 6 10 7 11 8 12 9 13 10 14 11 23 12
REMARK SMILES IDX 3 15 2 16 1 17 15 18 16 19 21 20 17 21 19 22 18 23 22 24
REMARK SMILES IDX 20 25
REMARK H PARENT 6 13 11 14
ROOT
ATOM      1  N   UNL     1      13.315 -25.977 -46.578  1.00  0.00    -0.282 NA
ATOM      2  C   UNL     1      12.761 -26.462 -47.842  1.00  0.00     0.202 C 
ATOM      3  N   UNL     1      12.069 -25.514 -48.684  1.00  0.00    -0.358 N 
ATOM      4  C   UNL     1      12.312 -24.149 -48.610  1.00  0.00     0.126 C 
ATOM      5  C   UNL     1      13.267 -23.744 -47.752  1.00  0.00     0.072 C 
ATOM      6  C   UNL     1      13.578 -22.315 -47.620  1.00  0.00     0.260 C 
ATOM      7  O   UNL     1      14.534 -21.909 -46.970  1.00  0.00    -0.269 OA
ATOM      8  N   UNL     1      12.733 -21.471 -48.268  1.00  0.00    -0.273 N 
ATOM      9  C   UNL     1      11.831 -21.837 -49.230  1.00  0.00     0.334 C 
ATOM     10  O   UNL     1      11.333 -20.946 -49.920  1.00  0.00    -0.247 OA
ATOM     11  N   UNL     1      11.588 -23.213 -49.358  1.00  0.00    -0.247 N 
ATOM     12  C   UNL     1      14.024 -24.705 -46.872  1.00  0.00     0.131 C 
ATOM     13  H   UNL     1      11.142 -25.773 -49.006  1.00  0.00     0.163 HD
ATOM     14  H   UNL     1      12.959 -20.490 -48.235  1.00  0.00     0.175 HD
ENDROOT
BRANCH   1  15
ATOM     15  C   UNL     1      12.280 -25.774 -45.552  1.00  0.00     0.086 C 
BRANCH  15  16
ATOM     16  C   UNL     1      12.813 -25.223 -44.220  1.00  0.00     0.012 C 
ATOM     17  C   UNL     1      12.258 -23.848 -43.874  1.00  0.00     0.005 C 
ENDBRANCH  15  16
ENDBRANCH   1  15
BRANCH  11  18
ATOM     18  C   UNL     1      10.653 -23.622 -50.373  1.00  0.00     0.055 A 
ATOM     19  C   UNL     1      11.127 -23.758 -51.690  1.00  0.00     0.027 A 
ATOM     20  C   UNL     1       9.291 -23.887 -50.089  1.00  0.00    -0.024 A 
ATOM     21  C   UNL     1      10.270 -24.118 -52.725  1.00  0.00     0.002 A 
ATOM     22  C   UNL     1       8.417 -24.214 -51.157  1.00  0.00    -0.046 A 
ATOM     23  C   UNL     1       8.923 -24.337 -52.460  1.00  0.00     0.004 A 
ATOM     24  C   UNL     1       8.753 -23.842 -48.680  1.00  0.00     0.047 C 
ATOM     25  C   UNL     1       6.949 -24.470 -50.930  1.00  0.00     0.044 C 
ENDBRANCH  11  18
TORSDOF 3
ENDMDL
MODEL 8
REMARK VINA RESULT:    -5.738      4.920      7.591
REMARK INTER + INTRA:          -7.382
REMARK INTER:                  -6.699
REMARK INTRA:                  -0.683
REMARK UNBOUND:                -0.637
REMARK SMILES CCCN1CNc2c(c(=O)[nH]c(=O)n2-c2cccc(C)c2C)C1
REMARK SMILES IDX 4 1 5 2 6 3 7 4 8 5 9 6 10 7 11 8 12 9 13 10 14 11 23 12
REMARK SMILES IDX 3 15 2 16 1 17 15 18 16 19 21 20 17 21 19 22 18 23 22 24
REMARK SMILES IDX 20 25
REMARK H PARENT 6 13 11 14
ROOT
ATOM      1  N   UNL     1      13.614 -21.252 -48.069  1.00  0.00    -0.282 NA
ATOM      2  C   UNL     1      12.838 -21.124 -49.304  1.00  0.00     0.202 C 
ATOM      3  N   UNL     1      12.041 -22.255 -49.720  1.00  0.00    -0.358 N 
ATOM      4  C   UNL     1      11.599 -23.216 -48.820  1.00  0.00     0.126 C 
ATOM      5  C   UNL     1      11.901 -23.021 -47.522  1.00  0.00     0.072 C 
ATOM      6  C   UNL     1      11.467 -23.997 -46.514  1.00  0.00     0.260 C 
ATOM      7  O   UNL     1      11.583 -23.793 -45.311  1.00  0.00    -0.269 OA
ATOM      8  N   UNL     1      10.928 -25.143 -47.004  1.00  0.00    -0.273 N 
ATOM      9  C   UNL     1      10.503 -25.333 -48.291  1.00  0.00     0.334 C 
ATOM     10  O   UNL     1       9.790 -26.311 -48.525  1.00  0.00    -0.247 OA
ATOM     11  N   UNL     1      10.901 -24.361 -49.222  1.00  0.00    -0.247 N 
ATOM     12  C   UNL     1      12.713 -21.844 -47.048  1.00  0.00     0.131 C 
ATOM     13  H   UNL     1      12.159 -22.576 -50.675  1.00  0.00     0.163 HD
ATOM     14  H   UNL     1      10.574 -25.803 -46.329  1.00  0.00     0.175 HD
ENDROOT
BRANCH   1  15
ATOM     15  C   UNL     1      14.819 -22.076 -48.246  1.00  0.00     0.086 C 
BRANCH  15  16
ATOM     16  C   UNL     1      15.575 -22.373 -46.942  1.00  0.00     0.012 C 
ATOM     17  C   UNL     1      15.575 -23.850 -46.570  1.00  0.00     0.005 C 
ENDBRANCH  15  16
ENDBRANCH   1  15
BRANCH  11  18
ATOM     18  C   UNL     1      10.454 -24.531 -50.579  1.00  0.00     0.055 A 
ATOM     19  C   UNL     1      11.296 -25.222 -51.470  1.00  0.00     0.027 A 
ATOM     20  C   UNL     1       9.211 -24.033 -51.038  1.00  0.00    -0.024 A 
ATOM     21  C   UNL     1      10.940 -25.394 -52.803  1.00  0.00     0.002 A 
ATOM     22  C   UNL     1       8.875 -24.177 -52.408  1.00  0.00    -0.046 A 
ATOM     23  C   UNL     1       9.741 -24.868 -53.270  1.00  0.00     0.004 A 
ATOM     24  C   UNL     1       8.232 -23.364 -50.103  1.00  0.00     0.047 C 
ATOM     25  C   UNL     1       7.586 -23.635 -52.970  1.00  0.00     0.044 C 
ENDBRANCH  11  18
TORSDOF 3
ENDMDL
