MODEL 1
REMARK VINA RESULT:    -8.927      0.000      0.000
REMARK INTER + INTRA:         -13.597
REMARK INTER:                 -13.102
REMARK INTRA:                  -0.495
REMARK UNBOUND:                -0.495
REMARK SMILES Cc1ccnc(Nc2ccc(NCCNC(=O)Cc3ccc(Cl)cc3)nn2)c1
REMARK SMILES IDX 13 1 12 2 11 4 8 5 9 6 27 7 10 8 26 9 7 10 6 12 2 13 3 14
REMARK SMILES IDX 28 15 4 16 5 17 1 18 14 19 15 20 16 21 17 22 18 24 19 25
REMARK SMILES IDX 20 26 25 27 21 28 24 29 22 30 23 31
REMARK H PARENT 12 3 7 11 15 23
ROOT
ATOM      1  C   UNL     1      12.661 -21.252 -47.538  1.00  0.00     0.135 C 
ENDROOT
BRANCH   1   2
ATOM      2  N   UNL     1      12.143 -21.601 -48.867  1.00  0.00    -0.367 N 
ATOM      3  H   UNL     1      12.281 -22.592 -49.066  1.00  0.00     0.162 HD
BRANCH   2   4
ATOM      4  C   UNL     1      12.710 -20.911 -49.939  1.00  0.00     0.148 A 
ATOM      5  C   UNL     1      13.796 -19.650 -52.151  1.00  0.00     0.154 A 
ATOM      6  C   UNL     1      13.940 -19.084 -50.890  1.00  0.00     0.053 A 
ATOM      7  N   UNL     1      13.107 -20.800 -52.274  1.00  0.00    -0.131 NA
ATOM      8  C   UNL     1      13.396 -19.721 -49.774  1.00  0.00     0.052 A 
ATOM      9  N   UNL     1      12.559 -21.429 -51.169  1.00  0.00    -0.131 NA
BRANCH   5  10
ATOM     10  N   UNL     1      14.335 -18.968 -53.255  1.00  0.00    -0.323 N 
ATOM     11  H   UNL     1      13.769 -18.180 -53.547  1.00  0.00     0.170 HD
BRANCH  10  12
ATOM     12  C   UNL     1      15.666 -18.618 -53.493  1.00  0.00     0.131 A 
ATOM     13  C   UNL     1      17.527 -17.078 -53.477  1.00  0.00    -0.046 A 
ATOM     14  C   UNL     1      18.336 -18.110 -53.942  1.00  0.00     0.023 A 
ATOM     15  C   UNL     1      16.176 -17.350 -53.233  1.00  0.00     0.050 A 
ATOM     16  C   UNL     1      17.757 -19.349 -54.159  1.00  0.00     0.114 A 
ATOM     17  N   UNL     1      16.451 -19.622 -53.942  1.00  0.00    -0.239 NA
ATOM     18  C   UNL     1      18.097 -15.725 -53.181  1.00  0.00     0.044 C 
ENDBRANCH  10  12
ENDBRANCH   5  10
ENDBRANCH   2   4
ENDBRANCH   1   2
BRANCH   1  19
ATOM     19  C   UNL     1      12.628 -22.444 -46.560  1.00  0.00     0.137 C 
BRANCH  19  20
ATOM     20  N   UNL     1      13.583 -22.328 -45.472  1.00  0.00    -0.354 N 
ATOM     21  C   UNL     1      14.346 -23.409 -45.076  1.00  0.00     0.224 C 
ATOM     22  O   UNL     1      14.167 -24.545 -45.505  1.00  0.00    -0.275 OA
ATOM     23  H   UNL     1      13.956 -21.406 -45.279  1.00  0.00     0.163 HD
BRANCH  21  24
ATOM     24  C   UNL     1      15.395 -23.095 -44.022  1.00  0.00     0.135 C 
BRANCH  24  25
ATOM     25  C   UNL     1      15.036 -23.598 -42.643  1.00  0.00    -0.039 A 
ATOM     26  C   UNL     1      13.722 -23.995 -42.355  1.00  0.00     0.006 A 
ATOM     27  C   UNL     1      16.007 -23.667 -41.634  1.00  0.00     0.006 A 
ATOM     28  C   UNL     1      13.387 -24.463 -41.083  1.00  0.00     0.021 A 
ATOM     29  C   UNL     1      15.670 -24.134 -40.361  1.00  0.00     0.021 A 
ATOM     30  C   UNL     1      14.363 -24.531 -40.092  1.00  0.00     0.041 A 
ATOM     31  Cl  UNL     1      13.952 -25.109 -38.524  1.00  0.00    -0.084 Cl
ENDBRANCH  24  25
ENDBRANCH  21  24
ENDBRANCH  19  20
ENDBRANCH   1  19
TORSDOF 8
ENDMDL
MODEL 2
REMARK VINA RESULT:    -8.837      1.428      2.267
REMARK INTER + INTRA:         -13.465
REMARK INTER:                 -13.052
REMARK INTRA:                  -0.412
REMARK UNBOUND:                -0.495
REMARK SMILES Cc1ccnc(Nc2ccc(NCCNC(=O)Cc3ccc(Cl)cc3)nn2)c1
REMARK SMILES IDX 13 1 12 2 11 4 8 5 9 6 27 7 10 8 26 9 7 10 6 12 2 13 3 14
REMARK SMILES IDX 28 15 4 16 5 17 1 18 14 19 15 20 16 21 17 22 18 24 19 25
REMARK SMILES IDX 20 26 25 27 21 28 24 29 22 30 23 31
REMARK H PARENT 12 3 7 11 15 23
ROOT
ATOM      1  C   UNL     1      13.588 -23.193 -46.360  1.00  0.00     0.135 C 
ENDROOT
BRANCH   1   2
ATOM      2  N   UNL     1      12.940 -21.903 -46.628  1.00  0.00    -0.367 N 
ATOM      3  H   UNL     1      11.945 -21.939 -46.405  1.00  0.00     0.162 HD
BRANCH   2   4
ATOM      4  C   UNL     1      13.023 -21.444 -47.943  1.00  0.00     0.148 A 
ATOM      5  C   UNL     1      13.045 -20.539 -50.558  1.00  0.00     0.154 A 
ATOM      6  C   UNL     1      14.243 -20.794 -49.904  1.00  0.00     0.053 A 
ATOM      7  N   UNL     1      11.887 -20.719 -49.894  1.00  0.00    -0.131 NA
ATOM      8  C   UNL     1      14.232 -21.254 -48.586  1.00  0.00     0.052 A 
ATOM      9  N   UNL     1      11.875 -21.167 -48.584  1.00  0.00    -0.131 NA
BRANCH   5  10
ATOM     10  N   UNL     1      13.093 -20.052 -51.876  1.00  0.00    -0.323 N 
ATOM     11  H   UNL     1      12.300 -19.467 -52.110  1.00  0.00     0.170 HD
BRANCH  10  12
ATOM     12  C   UNL     1      14.191 -19.540 -52.571  1.00  0.00     0.131 A 
ATOM     13  C   UNL     1      15.687 -17.763 -53.233  1.00  0.00    -0.046 A 
ATOM     14  C   UNL     1      16.433 -18.704 -53.935  1.00  0.00     0.023 A 
ATOM     15  C   UNL     1      14.560 -18.199 -52.527  1.00  0.00     0.050 A 
ATOM     16  C   UNL     1      16.011 -20.022 -53.915  1.00  0.00     0.114 A 
ATOM     17  N   UNL     1      14.917 -20.456 -53.250  1.00  0.00    -0.239 NA
ATOM     18  C   UNL     1      16.111 -16.327 -53.178  1.00  0.00     0.044 C 
ENDBRANCH  10  12
ENDBRANCH   5  10
ENDBRANCH   2   4
ENDBRANCH   1   2
BRANCH   1  19
ATOM     19  C   UNL     1      15.077 -23.042 -45.993  1.00  0.00     0.137 C 
BRANCH  19  20
ATOM     20  N   UNL     1      15.521 -23.975 -44.972  1.00  0.00    -0.354 N 
ATOM     21  C   UNL     1      16.133 -23.529 -43.817  1.00  0.00     0.224 C 
ATOM     22  O   UNL     1      16.468 -22.360 -43.647  1.00  0.00    -0.275 OA
ATOM     23  H   UNL     1      15.050 -24.871 -44.927  1.00  0.00     0.163 HD
BRANCH  21  24
ATOM     24  C   UNL     1      16.412 -24.610 -42.787  1.00  0.00     0.135 C 
BRANCH  24  25
ATOM     25  C   UNL     1      15.558 -24.500 -41.546  1.00  0.00    -0.039 A 
ATOM     26  C   UNL     1      16.148 -24.561 -40.274  1.00  0.00     0.006 A 
ATOM     27  C   UNL     1      14.169 -24.341 -41.647  1.00  0.00     0.006 A 
ATOM     28  C   UNL     1      15.363 -24.457 -39.124  1.00  0.00     0.021 A 
ATOM     29  C   UNL     1      13.385 -24.238 -40.495  1.00  0.00     0.021 A 
ATOM     30  C   UNL     1      13.985 -24.294 -39.240  1.00  0.00     0.041 A 
ATOM     31  Cl  UNL     1      13.016 -24.163 -37.824  1.00  0.00    -0.084 Cl
ENDBRANCH  24  25
ENDBRANCH  21  24
ENDBRANCH  19  20
ENDBRANCH   1  19
TORSDOF 8
ENDMDL
MODEL 3
REMARK VINA RESULT:    -8.741      3.529      5.535
REMARK INTER + INTRA:         -13.324
REMARK INTER:                 -11.458
REMARK INTRA:                  -1.866
REMARK UNBOUND:                -0.495
REMARK SMILES Cc1ccnc(Nc2ccc(NCCNC(=O)Cc3ccc(Cl)cc3)nn2)c1
REMARK SMILES IDX 13 1 12 2 11 4 8 5 9 6 27 7 10 8 26 9 7 10 6 12 2 13 3 14
REMARK SMILES IDX 28 15 4 16 5 17 1 18 14 19 15 20 16 21 17 22 18 24 19 25
REMARK SMILES IDX 20 26 25 27 21 28 24 29 22 30 23 31
REMARK H PARENT 12 3 7 11 15 23
ROOT
ATOM      1  C   UNL     1      14.782 -22.707 -45.889  1.00  0.00     0.135 C 
ENDROOT
BRANCH   1   2
ATOM      2  N   UNL     1      13.694 -21.765 -46.178  1.00  0.00    -0.367 N 
ATOM      3  H   UNL     1      12.788 -22.164 -45.930  1.00  0.00     0.162 HD
BRANCH   2   4
ATOM      4  C   UNL     1      13.584 -21.356 -47.507  1.00  0.00     0.148 A 
ATOM      5  C   UNL     1      13.281 -20.435 -50.100  1.00  0.00     0.154 A 
ATOM      6  C   UNL     1      13.978 -21.612 -49.859  1.00  0.00     0.053 A 
ATOM      7  N   UNL     1      12.781 -19.748 -49.055  1.00  0.00    -0.131 NA
ATOM      8  C   UNL     1      14.127 -22.079 -48.553  1.00  0.00     0.052 A 
ATOM      9  N   UNL     1      12.936 -20.205 -47.757  1.00  0.00    -0.131 NA
BRANCH   5  10
ATOM     10  N   UNL     1      13.172 -19.982 -51.425  1.00  0.00    -0.323 N 
ATOM     11  H   UNL     1      12.373 -19.375 -51.571  1.00  0.00     0.170 HD
BRANCH  10  12
ATOM     12  C   UNL     1      14.185 -19.525 -52.272  1.00  0.00     0.131 A 
ATOM     13  C   UNL     1      15.634 -17.815 -53.173  1.00  0.00    -0.046 A 
ATOM     14  C   UNL     1      16.253 -18.798 -53.938  1.00  0.00     0.023 A 
ATOM     15  C   UNL     1      14.596 -18.196 -52.314  1.00  0.00     0.050 A 
ATOM     16  C   UNL     1      15.798 -20.100 -53.826  1.00  0.00     0.114 A 
ATOM     17  N   UNL     1      14.788 -20.480 -53.012  1.00  0.00    -0.239 NA
ATOM     18  C   UNL     1      16.106 -16.394 -53.214  1.00  0.00     0.044 C 
ENDBRANCH  10  12
ENDBRANCH   5  10
ENDBRANCH   2   4
ENDBRANCH   1   2
BRANCH   1  19
ATOM     19  C   UNL     1      14.291 -23.968 -45.149  1.00  0.00     0.137 C 
BRANCH  19  20
ATOM     20  N   UNL     1      13.179 -24.632 -45.808  1.00  0.00    -0.354 N 
ATOM     21  C   UNL     1      11.875 -24.250 -45.561  1.00  0.00     0.224 C 
ATOM     22  O   UNL     1      11.568 -23.449 -44.683  1.00  0.00    -0.275 OA
ATOM     23  H   UNL     1      13.368 -25.079 -46.697  1.00  0.00     0.163 HD
BRANCH  21  24
ATOM     24  C   UNL     1      10.836 -24.942 -46.427  1.00  0.00     0.135 C 
BRANCH  24  25
ATOM     25  C   UNL     1      10.917 -24.565 -47.888  1.00  0.00    -0.039 A 
ATOM     26  C   UNL     1      11.419 -25.479 -48.828  1.00  0.00     0.006 A 
ATOM     27  C   UNL     1      10.498 -23.300 -48.323  1.00  0.00     0.006 A 
ATOM     28  C   UNL     1      11.493 -25.135 -50.179  1.00  0.00     0.021 A 
ATOM     29  C   UNL     1      10.573 -22.958 -49.675  1.00  0.00     0.021 A 
ATOM     30  C   UNL     1      11.068 -23.877 -50.597  1.00  0.00     0.041 A 
ATOM     31  Cl  UNL     1      11.156 -23.453 -52.262  1.00  0.00    -0.084 Cl
ENDBRANCH  24  25
ENDBRANCH  21  24
ENDBRANCH  19  20
ENDBRANCH   1  19
TORSDOF 8
ENDMDL
MODEL 4
REMARK VINA RESULT:    -8.727      4.110     11.537
REMARK INTER + INTRA:         -13.304
REMARK INTER:                 -12.790
REMARK INTRA:                  -0.514
REMARK UNBOUND:                -0.495
REMARK SMILES Cc1ccnc(Nc2ccc(NCCNC(=O)Cc3ccc(Cl)cc3)nn2)c1
REMARK SMILES IDX 13 1 12 2 11 4 8 5 9 6 27 7 10 8 26 9 7 10 6 12 2 13 3 14
REMARK SMILES IDX 28 15 4 16 5 17 1 18 14 19 15 20 16 21 17 22 18 24 19 25
REMARK SMILES IDX 20 26 25 27 21 28 24 29 22 30 23 31
REMARK H PARENT 12 3 7 11 15 23
ROOT
ATOM      1  C   UNL     1      14.395 -22.218 -48.397  1.00  0.00     0.135 C 
ENDROOT
BRANCH   1   2
ATOM      2  N   UNL     1      13.143 -22.908 -48.065  1.00  0.00    -0.367 N 
ATOM      3  H   UNL     1      12.339 -22.295 -48.200  1.00  0.00     0.162 HD
BRANCH   2   4
ATOM      4  C   UNL     1      13.045 -23.390 -46.759  1.00  0.00     0.148 A 
ATOM      5  C   UNL     1      12.775 -24.227 -44.135  1.00  0.00     0.154 A 
ATOM      6  C   UNL     1      13.536 -24.973 -45.026  1.00  0.00     0.053 A 
ATOM      7  N   UNL     1      12.161 -23.113 -44.576  1.00  0.00    -0.131 NA
ATOM      8  C   UNL     1      13.676 -24.550 -46.348  1.00  0.00     0.052 A 
ATOM      9  N   UNL     1      12.291 -22.696 -45.890  1.00  0.00    -0.131 NA
BRANCH   5  10
ATOM     10  N   UNL     1      12.636 -24.698 -42.818  1.00  0.00    -0.323 N 
ATOM     11  H   UNL     1      12.319 -25.659 -42.773  1.00  0.00     0.170 HD
BRANCH  10  12
ATOM     12  C   UNL     1      13.494 -24.506 -41.733  1.00  0.00     0.131 A 
ATOM     13  C   UNL     1      13.970 -24.255 -39.378  1.00  0.00    -0.046 A 
ATOM     14  C   UNL     1      15.324 -24.207 -39.696  1.00  0.00     0.023 A 
ATOM     15  C   UNL     1      13.048 -24.426 -40.417  1.00  0.00     0.050 A 
ATOM     16  C   UNL     1      15.688 -24.311 -41.027  1.00  0.00     0.114 A 
ATOM     17  N   UNL     1      14.808 -24.462 -42.042  1.00  0.00    -0.239 NA
ATOM     18  C   UNL     1      13.509 -24.191 -37.954  1.00  0.00     0.044 C 
ENDBRANCH  10  12
ENDBRANCH   5  10
ENDBRANCH   2   4
ENDBRANCH   1   2
BRANCH   1  19
ATOM     19  C   UNL     1      14.155 -20.839 -49.044  1.00  0.00     0.137 C 
BRANCH  19  20
ATOM     20  N   UNL     1      14.320 -20.837 -50.488  1.00  0.00    -0.354 N 
ATOM     21  C   UNL     1      13.389 -20.234 -51.310  1.00  0.00     0.224 C 
ATOM     22  O   UNL     1      12.316 -19.802 -50.900  1.00  0.00    -0.275 OA
ATOM     23  H   UNL     1      15.264 -20.924 -50.845  1.00  0.00     0.163 HD
BRANCH  21  24
ATOM     24  C   UNL     1      13.771 -20.195 -52.780  1.00  0.00     0.135 C 
BRANCH  24  25
ATOM     25  C   UNL     1      14.896 -19.236 -53.089  1.00  0.00    -0.039 A 
ATOM     26  C   UNL     1      14.753 -17.867 -52.816  1.00  0.00     0.006 A 
ATOM     27  C   UNL     1      16.093 -19.697 -53.656  1.00  0.00     0.006 A 
ATOM     28  C   UNL     1      15.792 -16.977 -53.097  1.00  0.00     0.021 A 
ATOM     29  C   UNL     1      17.130 -18.806 -53.937  1.00  0.00     0.021 A 
ATOM     30  C   UNL     1      16.976 -17.450 -53.655  1.00  0.00     0.041 A 
ATOM     31  Cl  UNL     1      18.258 -16.356 -54.000  1.00  0.00    -0.084 Cl
ENDBRANCH  24  25
ENDBRANCH  21  24
ENDBRANCH  19  20
ENDBRANCH   1  19
TORSDOF 8
ENDMDL
MODEL 5
REMARK VINA RESULT:    -8.668      2.396      3.295
REMARK INTER + INTRA:         -13.217
REMARK INTER:                 -12.348
REMARK INTRA:                  -0.869
REMARK UNBOUND:                -0.495
REMARK SMILES Cc1ccnc(Nc2ccc(NCCNC(=O)Cc3ccc(Cl)cc3)nn2)c1
REMARK SMILES IDX 13 1 12 2 11 4 8 5 9 6 27 7 10 8 26 9 7 10 6 12 2 13 3 14
REMARK SMILES IDX 28 15 4 16 5 17 1 18 14 19 15 20 16 21 17 22 18 24 19 25
REMARK SMILES IDX 20 26 25 27 21 28 24 29 22 30 23 31
REMARK H PARENT 12 3 7 11 15 23
ROOT
ATOM      1  C   UNL     1      11.357 -24.813 -47.916  1.00  0.00     0.135 C 
ENDROOT
BRANCH   1   2
ATOM      2  N   UNL     1      12.676 -24.168 -47.917  1.00  0.00    -0.367 N 
ATOM      3  H   UNL     1      12.940 -23.873 -46.976  1.00  0.00     0.162 HD
BRANCH   2   4
ATOM      4  C   UNL     1      12.797 -23.036 -48.723  1.00  0.00     0.148 A 
ATOM      5  C   UNL     1      12.929 -20.841 -50.404  1.00  0.00     0.154 A 
ATOM      6  C   UNL     1      13.860 -20.990 -49.384  1.00  0.00     0.053 A 
ATOM      7  N   UNL     1      11.960 -21.765 -50.542  1.00  0.00    -0.131 NA
ATOM      8  C   UNL     1      13.796 -22.098 -48.539  1.00  0.00     0.052 A 
ATOM      9  N   UNL     1      11.889 -22.861 -49.699  1.00  0.00    -0.131 NA
BRANCH   5  10
ATOM     10  N   UNL     1      13.008 -19.700 -51.220  1.00  0.00    -0.323 N 
ATOM     11  H   UNL     1      12.745 -18.849 -50.736  1.00  0.00     0.170 HD
BRANCH  10  12
ATOM     12  C   UNL     1      14.008 -19.352 -52.131  1.00  0.00     0.131 A 
ATOM     13  C   UNL     1      15.523 -17.788 -53.178  1.00  0.00    -0.046 A 
ATOM     14  C   UNL     1      16.041 -18.846 -53.919  1.00  0.00     0.023 A 
ATOM     15  C   UNL     1      14.503 -18.057 -52.257  1.00  0.00     0.050 A 
ATOM     16  C   UNL     1      15.507 -20.107 -53.722  1.00  0.00     0.114 A 
ATOM     17  N   UNL     1      14.513 -20.380 -52.848  1.00  0.00    -0.239 NA
ATOM     18  C   UNL     1      16.083 -16.406 -53.310  1.00  0.00     0.044 C 
ENDBRANCH  10  12
ENDBRANCH   5  10
ENDBRANCH   2   4
ENDBRANCH   1   2
BRANCH   1  19
ATOM     19  C   UNL     1      10.765 -24.946 -46.499  1.00  0.00     0.137 C 
BRANCH  19  20
ATOM     20  N   UNL     1      11.771 -24.998 -45.451  1.00  0.00    -0.354 N 
ATOM     21  C   UNL     1      12.249 -23.844 -44.865  1.00  0.00     0.224 C 
ATOM     22  O   UNL     1      11.975 -22.721 -45.279  1.00  0.00    -0.275 OA
ATOM     23  H   UNL     1      11.825 -25.850 -44.905  1.00  0.00     0.163 HD
BRANCH  21  24
ATOM     24  C   UNL     1      13.191 -24.068 -43.694  1.00  0.00     0.135 C 
BRANCH  24  25
ATOM     25  C   UNL     1      14.593 -23.560 -43.938  1.00  0.00    -0.039 A 
ATOM     26  C   UNL     1      15.492 -23.423 -42.869  1.00  0.00     0.006 A 
ATOM     27  C   UNL     1      15.011 -23.214 -45.231  1.00  0.00     0.006 A 
ATOM     28  C   UNL     1      16.788 -22.956 -43.091  1.00  0.00     0.021 A 
ATOM     29  C   UNL     1      16.309 -22.746 -45.451  1.00  0.00     0.021 A 
ATOM     30  C   UNL     1      17.192 -22.621 -44.381  1.00  0.00     0.041 A 
ATOM     31  Cl  UNL     1      18.791 -22.048 -44.656  1.00  0.00    -0.084 Cl
ENDBRANCH  24  25
ENDBRANCH  21  24
ENDBRANCH  19  20
ENDBRANCH   1  19
TORSDOF 8
ENDMDL
MODEL 6
REMARK VINA RESULT:    -8.584      2.191      2.763
REMARK INTER + INTRA:         -13.094
REMARK INTER:                 -12.383
REMARK INTRA:                  -0.711
REMARK UNBOUND:                -0.495
REMARK SMILES Cc1ccnc(Nc2ccc(NCCNC(=O)Cc3ccc(Cl)cc3)nn2)c1
REMARK SMILES IDX 13 1 12 2 11 4 8 5 9 6 27 7 10 8 26 9 7 10 6 12 2 13 3 14
REMARK SMILES IDX 28 15 4 16 5 17 1 18 14 19 15 20 16 21 17 22 18 24 19 25
REMARK SMILES IDX 20 26 25 27 21 28 24 29 22 30 23 31
REMARK H PARENT 12 3 7 11 15 23
ROOT
ATOM      1  C   UNL     1      12.991 -21.725 -48.442  1.00  0.00     0.135 C 
ENDROOT
BRANCH   1   2
ATOM      2  N   UNL     1      12.280 -21.556 -49.715  1.00  0.00    -0.367 N 
ATOM      3  H   UNL     1      12.138 -22.454 -50.178  1.00  0.00     0.162 HD
BRANCH   2   4
ATOM      4  C   UNL     1      12.905 -20.735 -50.654  1.00  0.00     0.148 A 
ATOM      5  C   UNL     1      14.134 -19.212 -52.612  1.00  0.00     0.154 A 
ATOM      6  C   UNL     1      14.021 -18.718 -51.318  1.00  0.00     0.053 A 
ATOM      7  N   UNL     1      13.619 -20.423 -52.894  1.00  0.00    -0.131 NA
ATOM      8  C   UNL     1      13.405 -19.487 -50.330  1.00  0.00     0.052 A 
ATOM      9  N   UNL     1      13.000 -21.184 -51.917  1.00  0.00    -0.131 NA
BRANCH   5  10
ATOM     10  N   UNL     1      14.736 -18.400 -53.587  1.00  0.00    -0.323 N 
ATOM     11  H   UNL     1      14.177 -17.590 -53.828  1.00  0.00     0.170 HD
BRANCH  10  12
ATOM     12  C   UNL     1      16.074 -18.008 -53.684  1.00  0.00     0.131 A 
ATOM     13  C   UNL     1      17.881 -16.425 -53.435  1.00  0.00    -0.046 A 
ATOM     14  C   UNL     1      18.759 -17.418 -53.857  1.00  0.00     0.023 A 
ATOM     15  C   UNL     1      16.520 -16.738 -53.332  1.00  0.00     0.050 A 
ATOM     16  C   UNL     1      18.238 -18.662 -54.172  1.00  0.00     0.114 A 
ATOM     17  N   UNL     1      16.926 -18.975 -54.091  1.00  0.00    -0.239 NA
ATOM     18  C   UNL     1      18.382 -15.070 -53.038  1.00  0.00     0.044 C 
ENDBRANCH  10  12
ENDBRANCH   5  10
ENDBRANCH   2   4
ENDBRANCH   1   2
BRANCH   1  19
ATOM     19  C   UNL     1      12.151 -22.480 -47.392  1.00  0.00     0.137 C 
BRANCH  19  20
ATOM     20  N   UNL     1      12.680 -22.379 -46.043  1.00  0.00    -0.354 N 
ATOM     21  C   UNL     1      13.458 -23.384 -45.505  1.00  0.00     0.224 C 
ATOM     22  O   UNL     1      13.626 -24.467 -46.059  1.00  0.00    -0.275 OA
ATOM     23  H   UNL     1      12.804 -21.447 -45.664  1.00  0.00     0.163 HD
BRANCH  21  24
ATOM     24  C   UNL     1      14.049 -23.071 -44.141  1.00  0.00     0.135 C 
BRANCH  24  25
ATOM     25  C   UNL     1      15.543 -22.844 -44.166  1.00  0.00    -0.039 A 
ATOM     26  C   UNL     1      16.341 -23.272 -43.094  1.00  0.00     0.006 A 
ATOM     27  C   UNL     1      16.149 -22.198 -45.253  1.00  0.00     0.006 A 
ATOM     28  C   UNL     1      17.722 -23.067 -43.114  1.00  0.00     0.021 A 
ATOM     29  C   UNL     1      17.530 -21.993 -45.271  1.00  0.00     0.021 A 
ATOM     30  C   UNL     1      18.311 -22.429 -44.203  1.00  0.00     0.041 A 
ATOM     31  Cl  UNL     1      20.012 -22.177 -44.231  1.00  0.00    -0.084 Cl
ENDBRANCH  24  25
ENDBRANCH  21  24
ENDBRANCH  19  20
ENDBRANCH   1  19
TORSDOF 8
ENDMDL
MODEL 7
REMARK VINA RESULT:    -7.851      4.212     11.272
REMARK INTER + INTRA:         -12.018
REMARK INTER:                 -11.463
REMARK INTRA:                  -0.555
REMARK UNBOUND:                -0.495
REMARK SMILES Cc1ccnc(Nc2ccc(NCCNC(=O)Cc3ccc(Cl)cc3)nn2)c1
REMARK SMILES IDX 13 1 12 2 11 4 8 5 9 6 27 7 10 8 26 9 7 10 6 12 2 13 3 14
REMARK SMILES IDX 28 15 4 16 5 17 1 18 14 19 15 20 16 21 17 22 18 24 19 25
REMARK SMILES IDX 20 26 25 27 21 28 24 29 22 30 23 31
REMARK H PARENT 12 3 7 11 15 23
ROOT
ATOM      1  C   UNL     1      13.408 -20.454 -49.058  1.00  0.00     0.135 C 
ENDROOT
BRANCH   1   2
ATOM      2  N   UNL     1      13.440 -21.921 -49.106  1.00  0.00    -0.367 N 
ATOM      3  H   UNL     1      12.510 -22.302 -49.286  1.00  0.00     0.162 HD
BRANCH   2   4
ATOM      4  C   UNL     1      13.898 -22.555 -47.951  1.00  0.00     0.148 A 
ATOM      5  C   UNL     1      14.714 -23.919 -45.685  1.00  0.00     0.154 A 
ATOM      6  C   UNL     1      15.249 -22.670 -45.972  1.00  0.00     0.053 A 
ATOM      7  N   UNL     1      13.817 -24.455 -46.534  1.00  0.00    -0.131 NA
ATOM      8  C   UNL     1      14.835 -21.980 -47.112  1.00  0.00     0.052 A 
ATOM      9  N   UNL     1      13.412 -23.776 -47.671  1.00  0.00    -0.131 NA
BRANCH   5  10
ATOM     10  N   UNL     1      15.173 -24.596 -44.542  1.00  0.00    -0.323 N 
ATOM     11  H   UNL     1      16.181 -24.572 -44.447  1.00  0.00     0.170 HD
BRANCH  10  12
ATOM     12  C   UNL     1      14.646 -24.570 -43.249  1.00  0.00     0.131 A 
ATOM     13  C   UNL     1      14.834 -24.399 -40.847  1.00  0.00    -0.046 A 
ATOM     14  C   UNL     1      13.446 -24.453 -40.772  1.00  0.00     0.023 A 
ATOM     15  C   UNL     1      15.435 -24.439 -42.110  1.00  0.00     0.050 A 
ATOM     16  C   UNL     1      12.731 -24.564 -41.952  1.00  0.00     0.114 A 
ATOM     17  N   UNL     1      13.297 -24.619 -43.178  1.00  0.00    -0.239 NA
ATOM     18  C   UNL     1      15.667 -24.236 -39.612  1.00  0.00     0.044 C 
ENDBRANCH  10  12
ENDBRANCH   5  10
ENDBRANCH   2   4
ENDBRANCH   1   2
BRANCH   1  19
ATOM     19  C   UNL     1      13.167 -19.822 -50.444  1.00  0.00     0.137 C 
BRANCH  19  20
ATOM     20  N   UNL     1      14.235 -20.083 -51.394  1.00  0.00    -0.354 N 
ATOM     21  C   UNL     1      14.108 -19.728 -52.722  1.00  0.00     0.224 C 
ATOM     22  O   UNL     1      13.057 -19.318 -53.207  1.00  0.00    -0.275 OA
ATOM     23  H   UNL     1      15.175 -20.156 -51.024  1.00  0.00     0.163 HD
BRANCH  21  24
ATOM     24  C   UNL     1      15.359 -19.939 -53.559  1.00  0.00     0.135 C 
BRANCH  24  25
ATOM     25  C   UNL     1      16.300 -18.756 -53.550  1.00  0.00    -0.039 A 
ATOM     26  C   UNL     1      15.833 -17.484 -53.183  1.00  0.00     0.006 A 
ATOM     27  C   UNL     1      17.645 -18.911 -53.912  1.00  0.00     0.006 A 
ATOM     28  C   UNL     1      16.700 -16.390 -53.171  1.00  0.00     0.021 A 
ATOM     29  C   UNL     1      18.510 -17.815 -53.900  1.00  0.00     0.021 A 
ATOM     30  C   UNL     1      18.035 -16.560 -53.528  1.00  0.00     0.041 A 
ATOM     31  Cl  UNL     1      19.104 -15.212 -53.512  1.00  0.00    -0.084 Cl
ENDBRANCH  24  25
ENDBRANCH  21  24
ENDBRANCH  19  20
ENDBRANCH   1  19
TORSDOF 8
ENDMDL
MODEL 8
REMARK VINA RESULT:    -7.804      5.666     11.162
REMARK INTER + INTRA:         -11.949
REMARK INTER:                 -11.420
REMARK INTRA:                  -0.529
REMARK UNBOUND:                -0.495
REMARK SMILES Cc1ccnc(Nc2ccc(NCCNC(=O)Cc3ccc(Cl)cc3)nn2)c1
REMARK SMILES IDX 13 1 12 2 11 4 8 5 9 6 27 7 10 8 26 9 7 10 6 12 2 13 3 14
REMARK SMILES IDX 28 15 4 16 5 17 1 18 14 19 15 20 16 21 17 22 18 24 19 25
REMARK SMILES IDX 20 26 25 27 21 28 24 29 22 30 23 31
REMARK H PARENT 12 3 7 11 15 23
ROOT
ATOM      1  C   UNL     1      13.238 -22.257 -48.449  1.00  0.00     0.135 C 
ENDROOT
BRANCH   1   2
ATOM      2  N   UNL     1      13.652 -21.661 -47.172  1.00  0.00    -0.367 N 
ATOM      3  H   UNL     1      14.653 -21.460 -47.169  1.00  0.00     0.162 HD
BRANCH   2   4
ATOM      4  C   UNL     1      13.411 -22.434 -46.036  1.00  0.00     0.148 A 
ATOM      5  C   UNL     1      12.794 -23.938 -43.797  1.00  0.00     0.154 A 
ATOM      6  C   UNL     1      14.121 -23.748 -44.159  1.00  0.00     0.053 A 
ATOM      7  N   UNL     1      11.825 -23.401 -44.562  1.00  0.00    -0.131 NA
ATOM      8  C   UNL     1      14.433 -22.986 -45.286  1.00  0.00     0.052 A 
ATOM      9  N   UNL     1      12.133 -22.652 -45.685  1.00  0.00    -0.131 NA
BRANCH   5  10
ATOM     10  N   UNL     1      12.516 -24.732 -42.671  1.00  0.00    -0.323 N 
ATOM     11  H   UNL     1      12.108 -25.628 -42.910  1.00  0.00     0.170 HD
BRANCH  10  12
ATOM     12  C   UNL     1      13.308 -24.940 -41.539  1.00  0.00     0.131 A 
ATOM     13  C   UNL     1      13.865 -24.624 -39.210  1.00  0.00    -0.046 A 
ATOM     14  C   UNL     1      14.919 -25.516 -39.381  1.00  0.00     0.023 A 
ATOM     15  C   UNL     1      13.039 -24.351 -40.307  1.00  0.00     0.050 A 
ATOM     16  C   UNL     1      15.109 -26.073 -40.634  1.00  0.00     0.114 A 
ATOM     17  N   UNL     1      14.329 -25.809 -41.705  1.00  0.00    -0.239 NA
ATOM     18  C   UNL     1      13.578 -24.017 -37.871  1.00  0.00     0.044 C 
ENDBRANCH  10  12
ENDBRANCH   5  10
ENDBRANCH   2   4
ENDBRANCH   1   2
BRANCH   1  19
ATOM     19  C   UNL     1      11.963 -21.606 -49.019  1.00  0.00     0.137 C 
BRANCH  19  20
ATOM     20  N   UNL     1      10.742 -22.309 -48.663  1.00  0.00    -0.354 N 
ATOM     21  C   UNL     1      10.396 -23.493 -49.283  1.00  0.00     0.224 C 
ATOM     22  O   UNL     1      11.001 -23.941 -50.253  1.00  0.00    -0.275 OA
ATOM     23  H   UNL     1      10.371 -22.150 -47.734  1.00  0.00     0.163 HD
BRANCH  21  24
ATOM     24  C   UNL     1       9.168 -24.178 -48.706  1.00  0.00     0.135 C 
BRANCH  24  25
ATOM     25  C   UNL     1       7.892 -23.862 -49.452  1.00  0.00    -0.039 A 
ATOM     26  C   UNL     1       7.924 -23.046 -50.594  1.00  0.00     0.006 A 
ATOM     27  C   UNL     1       6.663 -24.372 -49.011  1.00  0.00     0.006 A 
ATOM     28  C   UNL     1       6.748 -22.755 -51.287  1.00  0.00     0.021 A 
ATOM     29  C   UNL     1       5.487 -24.079 -49.706  1.00  0.00     0.021 A 
ATOM     30  C   UNL     1       5.535 -23.273 -50.841  1.00  0.00     0.041 A 
ATOM     31  Cl  UNL     1       4.085 -22.916 -51.696  1.00  0.00    -0.084 Cl
ENDBRANCH  24  25
ENDBRANCH  21  24
ENDBRANCH  19  20
ENDBRANCH   1  19
TORSDOF 8
ENDMDL
MODEL 9
REMARK VINA RESULT:    -7.671      5.180      7.447
REMARK INTER + INTRA:         -11.754
REMARK INTER:                 -10.946
REMARK INTRA:                  -0.808
REMARK UNBOUND:                -0.495
REMARK SMILES Cc1ccnc(Nc2ccc(NCCNC(=O)Cc3ccc(Cl)cc3)nn2)c1
REMARK SMILES IDX 13 1 12 2 11 4 8 5 9 6 27 7 10 8 26 9 7 10 6 12 2 13 3 14
REMARK SMILES IDX 28 15 4 16 5 17 1 18 14 19 15 20 16 21 17 22 18 24 19 25
REMARK SMILES IDX 20 26 25 27 21 28 24 29 22 30 23 31
REMARK H PARENT 12 3 7 11 15 23
ROOT
ATOM      1  C   UNL     1      12.000 -22.858 -48.553  1.00  0.00     0.135 C 
ENDROOT
BRANCH   1   2
ATOM      2  N   UNL     1      12.036 -21.391 -48.611  1.00  0.00    -0.367 N 
ATOM      3  H   UNL     1      11.095 -20.999 -48.564  1.00  0.00     0.162 HD
BRANCH   2   4
ATOM      4  C   UNL     1      12.625 -20.844 -49.751  1.00  0.00     0.148 A 
ATOM      5  C   UNL     1      13.749 -19.874 -52.087  1.00  0.00     0.154 A 
ATOM      6  C   UNL     1      13.934 -19.189 -50.892  1.00  0.00     0.053 A 
ATOM      7  N   UNL     1      13.002 -20.994 -52.087  1.00  0.00    -0.131 NA
ATOM      8  C   UNL     1      13.371 -19.680 -49.713  1.00  0.00     0.052 A 
ATOM      9  N   UNL     1      12.435 -21.478 -50.921  1.00  0.00    -0.131 NA
BRANCH   5  10
ATOM     10  N   UNL     1      14.309 -19.336 -53.258  1.00  0.00    -0.323 N 
ATOM     11  H   UNL     1      13.706 -18.658 -53.709  1.00  0.00     0.170 HD
BRANCH  10  12
ATOM     12  C   UNL     1      15.623 -18.917 -53.478  1.00  0.00     0.131 A 
ATOM     13  C   UNL     1      17.403 -17.285 -53.428  1.00  0.00    -0.046 A 
ATOM     14  C   UNL     1      18.268 -18.270 -53.892  1.00  0.00     0.023 A 
ATOM     15  C   UNL     1      16.064 -17.626 -53.202  1.00  0.00     0.050 A 
ATOM     16  C   UNL     1      17.756 -19.535 -54.126  1.00  0.00     0.114 A 
ATOM     17  N   UNL     1      16.463 -19.876 -53.926  1.00  0.00    -0.239 NA
ATOM     18  C   UNL     1      17.900 -15.907 -53.114  1.00  0.00     0.044 C 
ENDBRANCH  10  12
ENDBRANCH   5  10
ENDBRANCH   2   4
ENDBRANCH   1   2
BRANCH   1  19
ATOM     19  C   UNL     1      10.563 -23.410 -48.460  1.00  0.00     0.137 C 
BRANCH  19  20
ATOM     20  N   UNL     1       9.718 -23.019 -49.575  1.00  0.00    -0.354 N 
ATOM     21  C   UNL     1       9.117 -23.966 -50.380  1.00  0.00     0.224 C 
ATOM     22  O   UNL     1       9.368 -25.165 -50.303  1.00  0.00    -0.275 OA
ATOM     23  H   UNL     1       9.272 -22.110 -49.521  1.00  0.00     0.163 HD
BRANCH  21  24
ATOM     24  C   UNL     1       8.155 -23.404 -51.414  1.00  0.00     0.135 C 
BRANCH  24  25
ATOM     25  C   UNL     1       6.721 -23.350 -50.940  1.00  0.00    -0.039 A 
ATOM     26  C   UNL     1       5.817 -22.449 -51.523  1.00  0.00     0.006 A 
ATOM     27  C   UNL     1       6.277 -24.193 -49.911  1.00  0.00     0.006 A 
ATOM     28  C   UNL     1       4.491 -22.398 -51.090  1.00  0.00     0.021 A 
ATOM     29  C   UNL     1       4.950 -24.140 -49.479  1.00  0.00     0.021 A 
ATOM     30  C   UNL     1       4.062 -23.244 -50.071  1.00  0.00     0.041 A 
ATOM     31  Cl  UNL     1       2.427 -23.184 -49.538  1.00  0.00    -0.084 Cl
ENDBRANCH  24  25
ENDBRANCH  21  24
ENDBRANCH  19  20
ENDBRANCH   1  19
TORSDOF 8
ENDMDL
