REMARK SMILES CCCS(=O)(=O)N[C@H]1CC[N@H+](CCC(=O)NN2C(=O)[N-]C3(CCCCC3)C2=O)CC1
REMARK SMILES IDX 8 1 30 2 29 3 11 4 10 5 9 6 7 8 4 10 5 11 6 12 3 13 2 14
REMARK SMILES IDX 1 15 12 16 13 17 14 18 15 19 16 20 17 22 18 23 27 24 19 25
REMARK SMILES IDX 20 26 21 27 28 28 22 29 26 30 23 31 25 32 24 33
REMARK H PARENT 11 7 7 9 16 21
ROOT
ATOM      1  C   UNL     1       1.845  -1.185   1.266  1.00  0.00     0.080 C 
ATOM      2  C   UNL     1       2.687  -1.391   2.517  1.00  0.00     0.081 C 
ATOM      3  C   UNL     1       2.278  -0.472   3.662  1.00  0.00     0.263 C 
ATOM      4  N   UNL     1       0.797  -0.196   3.682  1.00  0.00    -0.334 N 
ATOM      5  C   UNL     1      -0.027  -1.272   3.027  1.00  0.00     0.263 C 
ATOM      6  C   UNL     1       0.378  -1.483   1.569  1.00  0.00     0.081 C 
ATOM      7  H   UNL     1       0.670   0.630   3.045  1.00  0.00     0.348 HD
ENDROOT
BRANCH   1   8
ATOM      8  N   UNL     1       2.022   0.195   0.793  1.00  0.00    -0.212 NA
ATOM      9  H   UNL     1       1.208   0.840   0.780  1.00  0.00     0.141 HD
BRANCH   8  10
ATOM     10  S   UNL     1       3.184   0.559  -0.354  1.00  0.00     0.211 S 
ATOM     11  O   UNL     1       3.279   2.000  -0.414  1.00  0.00    -0.212 OA
ATOM     12  O   UNL     1       4.346  -0.247  -0.042  1.00  0.00    -0.212 OA
BRANCH  10  13
ATOM     13  C   UNL     1       2.481  -0.043  -1.889  1.00  0.00     0.153 C 
BRANCH  13  14
ATOM     14  C   UNL     1       1.096   0.513  -2.178  1.00  0.00     0.014 C 
ATOM     15  C   UNL     1       0.615   0.117  -3.564  1.00  0.00     0.005 C 
ENDBRANCH  13  14
ENDBRANCH  10  13
ENDBRANCH   8  10
ENDBRANCH   1   8
BRANCH   4  16
ATOM     16  C   UNL     1       0.276   0.206   5.059  1.00  0.00     0.272 C 
BRANCH  16  17
ATOM     17  C   UNL     1      -0.388   1.581   5.078  1.00  0.00     0.161 C 
BRANCH  17  18
ATOM     18  C   UNL     1      -1.720   1.533   4.371  1.00  0.00     0.229 C 
ATOM     19  O   UNL     1      -2.443   0.543   4.444  1.00  0.00    -0.275 OA
ATOM     20  N   UNL     1      -1.981   2.654   3.601  1.00  0.00    -0.330 N 
ATOM     21  H   UNL     1      -1.365   3.451   3.725  1.00  0.00     0.168 HD
BRANCH  20  22
ATOM     22  N   UNL     1      -2.045   2.361   2.232  1.00  0.00    -0.301 N 
ATOM     23  C   UNL     1      -0.951   1.905   1.568  1.00  0.00     0.177 C 
ATOM     24  C   UNL     1      -3.197   2.208   1.517  1.00  0.00     0.170 C 
ATOM     25  O   UNL     1       0.161   1.789   2.078  1.00  0.00    -0.297 OA
ATOM     26  N   UNL     1      -1.266   1.512   0.346  1.00  0.00    -0.415 NA
ATOM     27  C   UNL     1      -2.743   1.673   0.155  1.00  0.00     0.038 C 
ATOM     28  O   UNL     1      -4.344   2.438   1.867  1.00  0.00    -0.297 OA
ATOM     29  C   UNL     1      -3.011   2.715  -0.949  1.00  0.00     0.014 C 
ATOM     30  C   UNL     1      -3.401   0.307  -0.119  1.00  0.00     0.014 C 
ATOM     31  C   UNL     1      -4.316   2.432  -1.687  1.00  0.00     0.001 C 
ATOM     32  C   UNL     1      -3.480   0.013  -1.614  1.00  0.00     0.001 C 
ATOM     33  C   UNL     1      -4.306   1.060  -2.362  1.00  0.00     0.000 C 
ENDBRANCH  20  22
ENDBRANCH  17  18
ENDBRANCH  16  17
ENDBRANCH   4  16
TORSDOF 8
