MODEL 1
REMARK VINA RESULT:    -6.982      0.000      0.000
REMARK INTER + INTRA:          -9.824
REMARK INTER:                  -8.615
REMARK INTRA:                  -1.209
REMARK UNBOUND:                -1.209
REMARK SMILES COC(=O)[C@@H]1[C@@H](c2ccc3c(c2)OCO3)c2c(O)n[nH]c2C[C@@]1(C)O
REMARK SMILES IDX 5 1 6 2 16 3 17 4 19 5 20 6 21 7 22 8 23 9 24 10 3 12 4 13
REMARK SMILES IDX 2 14 1 15 7 16 8 17 12 18 9 19 11 20 10 21 13 22 15 23 14 24
REMARK SMILES IDX 25 25 18 27
REMARK H PARENT 20 11 25 26 18 28
ROOT
ATOM      1  C   UNL     1      11.984 -22.867 -48.212  1.00  0.00     0.143 C 
ATOM      2  C   UNL     1      12.276 -22.770 -49.743  1.00  0.00     0.074 C 
ATOM      3  C   UNL     1      12.724 -21.403 -50.138  1.00  0.00     0.045 A 
ATOM      4  C   UNL     1      13.042 -20.808 -51.361  1.00  0.00     0.234 A 
ATOM      5  N   UNL     1      13.457 -19.551 -51.271  1.00  0.00    -0.137 NA
ATOM      6  N   UNL     1      13.430 -19.322 -49.941  1.00  0.00    -0.278 N 
ATOM      7  C   UNL     1      13.023 -20.413 -49.230  1.00  0.00     0.046 A 
ATOM      8  C   UNL     1      12.935 -20.516 -47.758  1.00  0.00     0.092 C 
ATOM      9  C   UNL     1      12.941 -22.012 -47.315  1.00  0.00     0.082 C 
ATOM     10  C   UNL     1      14.378 -22.554 -47.284  1.00  0.00     0.043 C 
ATOM     11  H   UNL     1      13.717 -18.410 -49.601  1.00  0.00     0.190 HD
ENDROOT
BRANCH   1  12
ATOM     12  C   UNL     1      12.027 -24.330 -47.807  1.00  0.00     0.312 C 
ATOM     13  O   UNL     1      12.623 -25.218 -48.399  1.00  0.00    -0.252 OA
BRANCH  12  14
ATOM     14  O   UNL     1      11.333 -24.512 -46.645  1.00  0.00    -0.469 OA
ATOM     15  C   UNL     1      11.917 -25.474 -45.763  1.00  0.00     0.282 C 
ENDBRANCH  12  14
ENDBRANCH   1  12
BRANCH   2  16
ATOM     16  C   UNL     1      11.035 -23.082 -50.574  1.00  0.00    -0.035 A 
ATOM     17  C   UNL     1      11.058 -24.009 -51.649  1.00  0.00     0.008 A 
ATOM     18  C   UNL     1       9.835 -22.405 -50.287  1.00  0.00     0.055 A 
ATOM     19  C   UNL     1       9.916 -24.264 -52.414  1.00  0.00     0.051 A 
ATOM     20  C   UNL     1       8.725 -22.677 -51.059  1.00  0.00     0.166 A 
ATOM     21  C   UNL     1       8.765 -23.581 -52.093  1.00  0.00     0.165 A 
ATOM     22  O   UNL     1       7.497 -22.110 -50.912  1.00  0.00    -0.454 OA
ATOM     23  O   UNL     1       7.567 -23.700 -52.726  1.00  0.00    -0.454 OA
ATOM     24  C   UNL     1       6.765 -22.777 -51.961  1.00  0.00     0.468 C 
ENDBRANCH   2  16
BRANCH   9  25
ATOM     25  O   UNL     1      12.464 -21.994 -45.955  1.00  0.00    -0.389 OA
ATOM     26  H   UNL     1      12.210 -22.900 -45.696  1.00  0.00     0.211 HD
ENDBRANCH   9  25
BRANCH   4  27
ATOM     27  O   UNL     1      13.011 -21.309 -52.590  1.00  0.00    -0.492 OA
ATOM     28  H   UNL     1      13.556 -20.699 -53.117  1.00  0.00     0.295 HD
ENDBRANCH   4  27
TORSDOF 5
ENDMDL
MODEL 2
REMARK VINA RESULT:    -6.840      2.609      6.305
REMARK INTER + INTRA:          -9.648
REMARK INTER:                  -8.787
REMARK INTRA:                  -0.860
REMARK UNBOUND:                -1.209
REMARK SMILES COC(=O)[C@@H]1[C@@H](c2ccc3c(c2)OCO3)c2c(O)n[nH]c2C[C@@]1(C)O
REMARK SMILES IDX 5 1 6 2 16 3 17 4 19 5 20 6 21 7 22 8 23 9 24 10 3 12 4 13
REMARK SMILES IDX 2 14 1 15 7 16 8 17 12 18 9 19 11 20 10 21 13 22 15 23 14 24
REMARK SMILES IDX 25 25 18 27
REMARK H PARENT 20 11 25 26 18 28
ROOT
ATOM      1  C   UNL     1      12.002 -24.270 -47.748  1.00  0.00     0.143 C 
ATOM      2  C   UNL     1      12.308 -22.847 -47.180  1.00  0.00     0.074 C 
ATOM      3  C   UNL     1      12.415 -21.827 -48.264  1.00  0.00     0.045 A 
ATOM      4  C   UNL     1      12.723 -20.465 -48.279  1.00  0.00     0.234 A 
ATOM      5  N   UNL     1      12.659 -19.899 -49.477  1.00  0.00    -0.137 NA
ATOM      6  N   UNL     1      12.275 -20.921 -50.271  1.00  0.00    -0.278 N 
ATOM      7  C   UNL     1      12.093 -22.083 -49.578  1.00  0.00     0.046 A 
ATOM      8  C   UNL     1      11.624 -23.370 -50.132  1.00  0.00     0.092 C 
ATOM      9  C   UNL     1      11.058 -24.279 -48.998  1.00  0.00     0.082 C 
ATOM     10  C   UNL     1       9.615 -23.878 -48.662  1.00  0.00     0.043 C 
ATOM     11  H   UNL     1      12.143 -20.743 -51.261  1.00  0.00     0.190 HD
ENDROOT
BRANCH   1  12
ATOM     12  C   UNL     1      11.425 -25.119 -46.629  1.00  0.00     0.312 C 
ATOM     13  O   UNL     1      10.612 -24.747 -45.795  1.00  0.00    -0.252 OA
BRANCH  12  14
ATOM     14  O   UNL     1      11.915 -26.392 -46.711  1.00  0.00    -0.469 OA
ATOM     15  C   UNL     1      13.338 -26.462 -46.821  1.00  0.00     0.282 C 
ENDBRANCH  12  14
ENDBRANCH   1  12
BRANCH   2  16
ATOM     16  C   UNL     1      13.628 -22.817 -46.417  1.00  0.00    -0.035 A 
ATOM     17  C   UNL     1      14.880 -22.707 -47.077  1.00  0.00     0.008 A 
ATOM     18  C   UNL     1      13.608 -22.937 -45.015  1.00  0.00     0.055 A 
ATOM     19  C   UNL     1      16.082 -22.705 -46.362  1.00  0.00     0.051 A 
ATOM     20  C   UNL     1      14.809 -22.933 -44.336  1.00  0.00     0.166 A 
ATOM     21  C   UNL     1      16.011 -22.819 -44.992  1.00  0.00     0.165 A 
ATOM     22  O   UNL     1      14.961 -23.039 -42.989  1.00  0.00    -0.454 OA
ATOM     23  O   UNL     1      17.072 -22.838 -44.140  1.00  0.00    -0.454 OA
ATOM     24  C   UNL     1      16.396 -22.960 -42.872  1.00  0.00     0.468 C 
ENDBRANCH   2  16
BRANCH   9  25
ATOM     25  O   UNL     1      11.010 -25.599 -49.575  1.00  0.00    -0.389 OA
ATOM     26  H   UNL     1      11.224 -26.255 -48.884  1.00  0.00     0.211 HD
ENDBRANCH   9  25
BRANCH   4  27
ATOM     27  O   UNL     1      13.049 -19.650 -47.283  1.00  0.00    -0.492 OA
ATOM     28  H   UNL     1      13.362 -18.841 -47.721  1.00  0.00     0.295 HD
ENDBRANCH   4  27
TORSDOF 5
ENDMDL
MODEL 3
REMARK VINA RESULT:    -6.537      2.268      6.117
REMARK INTER + INTRA:          -9.274
REMARK INTER:                  -8.266
REMARK INTRA:                  -1.009
REMARK UNBOUND:                -1.209
REMARK SMILES COC(=O)[C@@H]1[C@@H](c2ccc3c(c2)OCO3)c2c(O)n[nH]c2C[C@@]1(C)O
REMARK SMILES IDX 5 1 6 2 16 3 17 4 19 5 20 6 21 7 22 8 23 9 24 10 3 12 4 13
REMARK SMILES IDX 2 14 1 15 7 16 8 17 12 18 9 19 11 20 10 21 13 22 15 23 14 24
REMARK SMILES IDX 25 25 18 27
REMARK H PARENT 20 11 25 26 18 28
ROOT
ATOM      1  C   UNL     1      11.693 -24.126 -48.387  1.00  0.00     0.143 C 
ATOM      2  C   UNL     1      12.003 -22.811 -47.604  1.00  0.00     0.074 C 
ATOM      3  C   UNL     1      12.370 -21.692 -48.522  1.00  0.00     0.045 A 
ATOM      4  C   UNL     1      12.777 -20.372 -48.317  1.00  0.00     0.234 A 
ATOM      5  N   UNL     1      12.961 -19.673 -49.431  1.00  0.00    -0.137 NA
ATOM      6  N   UNL     1      12.642 -20.561 -50.396  1.00  0.00    -0.278 N 
ATOM      7  C   UNL     1      12.259 -21.770 -49.892  1.00  0.00     0.046 A 
ATOM      8  C   UNL     1      11.796 -22.938 -50.670  1.00  0.00     0.092 C 
ATOM      9  C   UNL     1      10.978 -23.909 -49.763  1.00  0.00     0.082 C 
ATOM     10  C   UNL     1       9.533 -23.412 -49.616  1.00  0.00     0.043 C 
ATOM     11  H   UNL     1      12.695 -20.263 -51.365  1.00  0.00     0.190 HD
ENDROOT
BRANCH   1  12
ATOM     12  C   UNL     1      10.872 -25.036 -47.490  1.00  0.00     0.312 C 
ATOM     13  O   UNL     1       9.934 -24.688 -46.787  1.00  0.00    -0.252 OA
BRANCH  12  14
ATOM     14  O   UNL     1      11.305 -26.326 -47.613  1.00  0.00    -0.469 OA
ATOM     15  C   UNL     1      12.728 -26.461 -47.643  1.00  0.00     0.282 C 
ENDBRANCH  12  14
ENDBRANCH   1  12
BRANCH   2  16
ATOM     16  C   UNL     1      13.173 -22.990 -46.642  1.00  0.00    -0.035 A 
ATOM     17  C   UNL     1      12.999 -22.993 -45.233  1.00  0.00     0.008 A 
ATOM     18  C   UNL     1      14.472 -23.123 -47.167  1.00  0.00     0.055 A 
ATOM     19  C   UNL     1      14.088 -23.135 -44.367  1.00  0.00     0.051 A 
ATOM     20  C   UNL     1      15.526 -23.261 -46.287  1.00  0.00     0.166 A 
ATOM     21  C   UNL     1      15.338 -23.267 -44.926  1.00  0.00     0.165 A 
ATOM     22  O   UNL     1      16.835 -23.400 -46.631  1.00  0.00    -0.454 OA
ATOM     23  O   UNL     1      16.504 -23.413 -44.241  1.00  0.00    -0.454 OA
ATOM     24  C   UNL     1      17.445 -23.513 -45.329  1.00  0.00     0.468 C 
ENDBRANCH   2  16
BRANCH   9  25
ATOM     25  O   UNL     1      10.930 -25.146 -50.500  1.00  0.00    -0.389 OA
ATOM     26  H   UNL     1      11.756 -25.242 -51.012  1.00  0.00     0.211 HD
ENDBRANCH   9  25
BRANCH   4  27
ATOM     27  O   UNL     1      12.989 -19.706 -47.189  1.00  0.00    -0.492 OA
ATOM     28  H   UNL     1      13.813 -20.080 -46.835  1.00  0.00     0.295 HD
ENDBRANCH   4  27
TORSDOF 5
ENDMDL
MODEL 4
REMARK VINA RESULT:    -6.407      4.310      5.884
REMARK INTER + INTRA:          -9.114
REMARK INTER:                  -7.945
REMARK INTRA:                  -1.169
REMARK UNBOUND:                -1.209
REMARK SMILES COC(=O)[C@@H]1[C@@H](c2ccc3c(c2)OCO3)c2c(O)n[nH]c2C[C@@]1(C)O
REMARK SMILES IDX 5 1 6 2 16 3 17 4 19 5 20 6 21 7 22 8 23 9 24 10 3 12 4 13
REMARK SMILES IDX 2 14 1 15 7 16 8 17 12 18 9 19 11 20 10 21 13 22 15 23 14 24
REMARK SMILES IDX 25 25 18 27
REMARK H PARENT 20 11 25 26 18 28
ROOT
ATOM      1  C   UNL     1      13.169 -24.490 -45.270  1.00  0.00     0.143 C 
ATOM      2  C   UNL     1      14.404 -23.773 -45.903  1.00  0.00     0.074 C 
ATOM      3  C   UNL     1      15.283 -23.160 -44.864  1.00  0.00     0.045 A 
ATOM      4  C   UNL     1      16.443 -22.384 -44.919  1.00  0.00     0.234 A 
ATOM      5  N   UNL     1      16.956 -22.077 -43.734  1.00  0.00    -0.137 NA
ATOM      6  N   UNL     1      16.116 -22.692 -42.875  1.00  0.00    -0.278 N 
ATOM      7  C   UNL     1      15.119 -23.372 -43.514  1.00  0.00     0.046 A 
ATOM      8  C   UNL     1      14.069 -24.193 -42.875  1.00  0.00     0.092 C 
ATOM      9  C   UNL     1      13.460 -25.196 -43.903  1.00  0.00     0.082 C 
ATOM     10  C   UNL     1      14.363 -26.430 -44.046  1.00  0.00     0.043 C 
ATOM     11  H   UNL     1      16.298 -22.616 -41.880  1.00  0.00     0.190 HD
ENDROOT
BRANCH   1  12
ATOM     12  C   UNL     1      12.619 -25.479 -46.282  1.00  0.00     0.312 C 
ATOM     13  O   UNL     1      13.247 -25.985 -47.202  1.00  0.00    -0.252 OA
BRANCH  12  14
ATOM     14  O   UNL     1      11.315 -25.766 -45.993  1.00  0.00    -0.469 OA
ATOM     15  C   UNL     1      10.372 -25.112 -46.846  1.00  0.00     0.282 C 
ENDBRANCH  12  14
ENDBRANCH   1  12
BRANCH   2  16
ATOM     16  C   UNL     1      13.982 -22.646 -46.840  1.00  0.00    -0.035 A 
ATOM     17  C   UNL     1      13.032 -21.662 -46.459  1.00  0.00     0.008 A 
ATOM     18  C   UNL     1      14.525 -22.599 -48.138  1.00  0.00     0.055 A 
ATOM     19  C   UNL     1      12.640 -20.649 -47.341  1.00  0.00     0.051 A 
ATOM     20  C   UNL     1      14.118 -21.589 -48.986  1.00  0.00     0.166 A 
ATOM     21  C   UNL     1      13.203 -20.642 -48.598  1.00  0.00     0.165 A 
ATOM     22  O   UNL     1      14.546 -21.405 -50.264  1.00  0.00    -0.454 OA
ATOM     23  O   UNL     1      12.939 -19.740 -49.581  1.00  0.00    -0.454 OA
ATOM     24  C   UNL     1      13.807 -20.221 -50.627  1.00  0.00     0.468 C 
ENDBRANCH   2  16
BRANCH   9  25
ATOM     25  O   UNL     1      12.229 -25.638 -43.299  1.00  0.00    -0.389 OA
ATOM     26  H   UNL     1      11.483 -25.382 -43.875  1.00  0.00     0.211 HD
ENDBRANCH   9  25
BRANCH   4  27
ATOM     27  O   UNL     1      17.117 -21.924 -45.965  1.00  0.00    -0.492 OA
ATOM     28  H   UNL     1      16.503 -22.020 -46.714  1.00  0.00     0.295 HD
ENDBRANCH   4  27
TORSDOF 5
ENDMDL
MODEL 5
REMARK VINA RESULT:    -6.402      5.137      9.056
REMARK INTER + INTRA:          -9.108
REMARK INTER:                  -7.997
REMARK INTRA:                  -1.112
REMARK UNBOUND:                -1.209
REMARK SMILES COC(=O)[C@@H]1[C@@H](c2ccc3c(c2)OCO3)c2c(O)n[nH]c2C[C@@]1(C)O
REMARK SMILES IDX 5 1 6 2 16 3 17 4 19 5 20 6 21 7 22 8 23 9 24 10 3 12 4 13
REMARK SMILES IDX 2 14 1 15 7 16 8 17 12 18 9 19 11 20 10 21 13 22 15 23 14 24
REMARK SMILES IDX 25 25 18 27
REMARK H PARENT 20 11 25 26 18 28
ROOT
ATOM      1  C   UNL     1      13.835 -24.804 -44.902  1.00  0.00     0.143 C 
ATOM      2  C   UNL     1      14.599 -23.951 -43.840  1.00  0.00     0.074 C 
ATOM      3  C   UNL     1      16.050 -23.827 -44.167  1.00  0.00     0.045 A 
ATOM      4  C   UNL     1      17.136 -23.233 -43.521  1.00  0.00     0.234 A 
ATOM      5  N   UNL     1      18.280 -23.304 -44.189  1.00  0.00    -0.137 NA
ATOM      6  N   UNL     1      17.926 -23.948 -45.321  1.00  0.00    -0.278 N 
ATOM      7  C   UNL     1      16.596 -24.253 -45.356  1.00  0.00     0.046 A 
ATOM      8  C   UNL     1      15.876 -24.906 -46.470  1.00  0.00     0.092 C 
ATOM      9  C   UNL     1      14.345 -24.621 -46.371  1.00  0.00     0.082 C 
ATOM     10  C   UNL     1      14.021 -23.236 -46.949  1.00  0.00     0.043 C 
ATOM     11  H   UNL     1      18.639 -24.125 -46.021  1.00  0.00     0.190 HD
ENDROOT
BRANCH   1  12
ATOM     12  C   UNL     1      12.354 -24.482 -44.801  1.00  0.00     0.312 C 
ATOM     13  O   UNL     1      11.876 -23.445 -44.363  1.00  0.00    -0.252 OA
BRANCH  12  14
ATOM     14  O   UNL     1      11.617 -25.511 -45.315  1.00  0.00    -0.469 OA
ATOM     15  C   UNL     1      10.644 -25.104 -46.280  1.00  0.00     0.282 C 
ENDBRANCH  12  14
ENDBRANCH   1  12
BRANCH   2  16
ATOM     16  C   UNL     1      14.514 -24.573 -42.450  1.00  0.00    -0.035 A 
ATOM     17  C   UNL     1      14.967 -25.891 -42.183  1.00  0.00     0.008 A 
ATOM     18  C   UNL     1      13.936 -23.828 -41.405  1.00  0.00     0.055 A 
ATOM     19  C   UNL     1      14.859 -26.452 -40.906  1.00  0.00     0.051 A 
ATOM     20  C   UNL     1      13.842 -24.409 -40.157  1.00  0.00     0.166 A 
ATOM     21  C   UNL     1      14.291 -25.684 -39.915  1.00  0.00     0.165 A 
ATOM     22  O   UNL     1      13.313 -23.826 -39.047  1.00  0.00    -0.454 OA
ATOM     23  O   UNL     1      14.104 -26.066 -38.623  1.00  0.00    -0.454 OA
ATOM     24  C   UNL     1      13.499 -24.876 -38.076  1.00  0.00     0.468 C 
ENDBRANCH   2  16
BRANCH   9  25
ATOM     25  O   UNL     1      13.734 -25.597 -47.236  1.00  0.00    -0.389 OA
ATOM     26  H   UNL     1      14.433 -26.137 -47.650  1.00  0.00     0.211 HD
ENDBRANCH   9  25
BRANCH   4  27
ATOM     27  O   UNL     1      17.196 -22.595 -42.358  1.00  0.00    -0.492 OA
ATOM     28  H   UNL     1      18.137 -22.621 -42.113  1.00  0.00     0.295 HD
ENDBRANCH   4  27
TORSDOF 5
ENDMDL
MODEL 6
REMARK VINA RESULT:    -6.367      4.643      7.180
REMARK INTER + INTRA:          -9.065
REMARK INTER:                  -7.932
REMARK INTRA:                  -1.133
REMARK UNBOUND:                -1.209
REMARK SMILES COC(=O)[C@@H]1[C@@H](c2ccc3c(c2)OCO3)c2c(O)n[nH]c2C[C@@]1(C)O
REMARK SMILES IDX 5 1 6 2 16 3 17 4 19 5 20 6 21 7 22 8 23 9 24 10 3 12 4 13
REMARK SMILES IDX 2 14 1 15 7 16 8 17 12 18 9 19 11 20 10 21 13 22 15 23 14 24
REMARK SMILES IDX 25 25 18 27
REMARK H PARENT 20 11 25 26 18 28
ROOT
ATOM      1  C   UNL     1      16.186 -23.621 -44.245  1.00  0.00     0.143 C 
ATOM      2  C   UNL     1      14.671 -23.246 -44.172  1.00  0.00     0.074 C 
ATOM      3  C   UNL     1      13.900 -24.211 -43.334  1.00  0.00     0.045 A 
ATOM      4  C   UNL     1      12.547 -24.343 -43.014  1.00  0.00     0.234 A 
ATOM      5  N   UNL     1      12.274 -25.333 -42.173  1.00  0.00    -0.137 NA
ATOM      6  N   UNL     1      13.493 -25.852 -41.917  1.00  0.00    -0.278 N 
ATOM      7  C   UNL     1      14.492 -25.192 -42.571  1.00  0.00     0.046 A 
ATOM      8  C   UNL     1      15.941 -25.470 -42.468  1.00  0.00     0.092 C 
ATOM      9  C   UNL     1      16.768 -24.228 -42.924  1.00  0.00     0.082 C 
ATOM     10  C   UNL     1      16.865 -23.203 -41.785  1.00  0.00     0.043 C 
ATOM     11  H   UNL     1      13.561 -26.638 -41.278  1.00  0.00     0.190 HD
ENDROOT
BRANCH   1  12
ATOM     12  C   UNL     1      16.966 -22.386 -44.662  1.00  0.00     0.312 C 
ATOM     13  O   UNL     1      16.582 -21.230 -44.557  1.00  0.00    -0.252 OA
BRANCH  12  14
ATOM     14  O   UNL     1      18.194 -22.749 -45.136  1.00  0.00    -0.469 OA
ATOM     15  C   UNL     1      19.277 -21.995 -44.587  1.00  0.00     0.282 C 
ENDBRANCH  12  14
ENDBRANCH   1  12
BRANCH   2  16
ATOM     16  C   UNL     1      14.023 -23.249 -45.552  1.00  0.00    -0.035 A 
ATOM     17  C   UNL     1      14.025 -24.397 -46.387  1.00  0.00     0.008 A 
ATOM     18  C   UNL     1      13.433 -22.063 -46.030  1.00  0.00     0.055 A 
ATOM     19  C   UNL     1      13.446 -24.373 -47.660  1.00  0.00     0.051 A 
ATOM     20  C   UNL     1      12.870 -22.069 -47.290  1.00  0.00     0.166 A 
ATOM     21  C   UNL     1      12.876 -23.192 -48.081  1.00  0.00     0.165 A 
ATOM     22  O   UNL     1      12.263 -21.012 -47.894  1.00  0.00    -0.454 OA
ATOM     23  O   UNL     1      12.273 -22.986 -49.282  1.00  0.00    -0.454 OA
ATOM     24  C   UNL     1      11.872 -21.607 -49.148  1.00  0.00     0.468 C 
ENDBRANCH   2  16
BRANCH   9  25
ATOM     25  O   UNL     1      18.096 -24.737 -43.154  1.00  0.00    -0.389 OA
ATOM     26  H   UNL     1      18.259 -24.778 -44.115  1.00  0.00     0.211 HD
ENDBRANCH   9  25
BRANCH   4  27
ATOM     27  O   UNL     1      11.501 -23.625 -43.404  1.00  0.00    -0.492 OA
ATOM     28  H   UNL     1      10.952 -24.246 -43.912  1.00  0.00     0.295 HD
ENDBRANCH   4  27
TORSDOF 5
ENDMDL
MODEL 7
REMARK VINA RESULT:    -6.183      2.392      4.945
REMARK INTER + INTRA:          -8.838
REMARK INTER:                  -8.510
REMARK INTRA:                  -0.328
REMARK UNBOUND:                -1.209
REMARK SMILES COC(=O)[C@@H]1[C@@H](c2ccc3c(c2)OCO3)c2c(O)n[nH]c2C[C@@]1(C)O
REMARK SMILES IDX 5 1 6 2 16 3 17 4 19 5 20 6 21 7 22 8 23 9 24 10 3 12 4 13
REMARK SMILES IDX 2 14 1 15 7 16 8 17 12 18 9 19 11 20 10 21 13 22 15 23 14 24
REMARK SMILES IDX 25 25 18 27
REMARK H PARENT 20 11 25 26 18 28
ROOT
ATOM      1  C   UNL     1      12.791 -23.702 -47.731  1.00  0.00     0.143 C 
ATOM      2  C   UNL     1      11.735 -22.799 -48.445  1.00  0.00     0.074 C 
ATOM      3  C   UNL     1      10.935 -23.566 -49.445  1.00  0.00     0.045 A 
ATOM      4  C   UNL     1       9.937 -23.212 -50.356  1.00  0.00     0.234 A 
ATOM      5  N   UNL     1       9.434 -24.229 -51.045  1.00  0.00    -0.137 NA
ATOM      6  N   UNL     1      10.110 -25.288 -50.551  1.00  0.00    -0.278 N 
ATOM      7  C   UNL     1      10.997 -24.935 -49.575  1.00  0.00     0.046 A 
ATOM      8  C   UNL     1      11.851 -25.853 -48.793  1.00  0.00     0.092 C 
ATOM      9  C   UNL     1      12.316 -25.172 -47.469  1.00  0.00     0.082 C 
ATOM     10  C   UNL     1      11.213 -25.264 -46.405  1.00  0.00     0.043 C 
ATOM     11  H   UNL     1       9.900 -26.210 -50.916  1.00  0.00     0.190 HD
ENDROOT
BRANCH   1  12
ATOM     12  C   UNL     1      13.199 -23.028 -46.433  1.00  0.00     0.312 C 
ATOM     13  O   UNL     1      12.473 -22.349 -45.721  1.00  0.00    -0.252 OA
BRANCH  12  14
ATOM     14  O   UNL     1      14.501 -23.325 -46.143  1.00  0.00    -0.469 OA
ATOM     15  C   UNL     1      15.451 -22.496 -46.818  1.00  0.00     0.282 C 
ENDBRANCH  12  14
ENDBRANCH   1  12
BRANCH   2  16
ATOM     16  C   UNL     1      12.396 -21.650 -49.200  1.00  0.00    -0.035 A 
ATOM     17  C   UNL     1      12.788 -20.449 -48.554  1.00  0.00     0.008 A 
ATOM     18  C   UNL     1      12.592 -21.771 -50.588  1.00  0.00     0.055 A 
ATOM     19  C   UNL     1      13.372 -19.397 -49.268  1.00  0.00     0.051 A 
ATOM     20  C   UNL     1      13.168 -20.716 -51.266  1.00  0.00     0.166 A 
ATOM     21  C   UNL     1      13.547 -19.563 -50.623  1.00  0.00     0.165 A 
ATOM     22  O   UNL     1      13.425 -20.675 -52.601  1.00  0.00    -0.454 OA
ATOM     23  O   UNL     1      14.092 -18.649 -51.471  1.00  0.00    -0.454 OA
ATOM     24  C   UNL     1      14.027 -19.369 -52.719  1.00  0.00     0.468 C 
ENDBRANCH   2  16
BRANCH   9  25
ATOM     25  O   UNL     1      13.419 -25.977 -47.010  1.00  0.00    -0.389 OA
ATOM     26  H   UNL     1      14.066 -26.072 -47.734  1.00  0.00     0.211 HD
ENDBRANCH   9  25
BRANCH   4  27
ATOM     27  O   UNL     1       9.405 -22.026 -50.626  1.00  0.00    -0.492 OA
ATOM     28  H   UNL     1       9.861 -21.411 -50.026  1.00  0.00     0.295 HD
ENDBRANCH   4  27
TORSDOF 5
ENDMDL
MODEL 8
REMARK VINA RESULT:    -6.054      3.161      5.313
REMARK INTER + INTRA:          -8.679
REMARK INTER:                  -7.688
REMARK INTRA:                  -0.992
REMARK UNBOUND:                -1.209
REMARK SMILES COC(=O)[C@@H]1[C@@H](c2ccc3c(c2)OCO3)c2c(O)n[nH]c2C[C@@]1(C)O
REMARK SMILES IDX 5 1 6 2 16 3 17 4 19 5 20 6 21 7 22 8 23 9 24 10 3 12 4 13
REMARK SMILES IDX 2 14 1 15 7 16 8 17 12 18 9 19 11 20 10 21 13 22 15 23 14 24
REMARK SMILES IDX 25 25 18 27
REMARK H PARENT 20 11 25 26 18 28
ROOT
ATOM      1  C   UNL     1      11.959 -23.991 -47.138  1.00  0.00     0.143 C 
ATOM      2  C   UNL     1      13.407 -23.445 -47.349  1.00  0.00     0.074 C 
ATOM      3  C   UNL     1      14.090 -23.166 -46.052  1.00  0.00     0.045 A 
ATOM      4  C   UNL     1      15.334 -22.630 -45.713  1.00  0.00     0.234 A 
ATOM      5  N   UNL     1      15.584 -22.597 -44.410  1.00  0.00    -0.137 NA
ATOM      6  N   UNL     1      14.474 -23.152 -43.879  1.00  0.00    -0.278 N 
ATOM      7  C   UNL     1      13.570 -23.529 -44.830  1.00  0.00     0.046 A 
ATOM      8  C   UNL     1      12.281 -24.212 -44.592  1.00  0.00     0.092 C 
ATOM      9  C   UNL     1      11.793 -24.924 -45.891  1.00  0.00     0.082 C 
ATOM     10  C   UNL     1      12.500 -26.277 -46.057  1.00  0.00     0.043 C 
ATOM     11  H   UNL     1      14.417 -23.252 -42.871  1.00  0.00     0.190 HD
ENDROOT
BRANCH   1  12
ATOM     12  C   UNL     1      11.525 -24.703 -48.407  1.00  0.00     0.312 C 
ATOM     13  O   UNL     1      12.270 -25.228 -49.223  1.00  0.00    -0.252 OA
BRANCH  12  14
ATOM     14  O   UNL     1      10.162 -24.716 -48.492  1.00  0.00    -0.469 OA
ATOM     15  C   UNL     1       9.595 -23.480 -48.934  1.00  0.00     0.282 C 
ENDBRANCH  12  14
ENDBRANCH   1  12
BRANCH   2  16
ATOM     16  C   UNL     1      13.408 -22.138 -48.135  1.00  0.00    -0.035 A 
ATOM     17  C   UNL     1      13.032 -20.902 -47.547  1.00  0.00     0.008 A 
ATOM     18  C   UNL     1      13.760 -22.163 -49.498  1.00  0.00     0.055 A 
ATOM     19  C   UNL     1      13.016 -19.717 -48.291  1.00  0.00     0.051 A 
ATOM     20  C   UNL     1      13.735 -20.979 -50.206  1.00  0.00     0.166 A 
ATOM     21  C   UNL     1      13.373 -19.791 -49.618  1.00  0.00     0.165 A 
ATOM     22  O   UNL     1      14.046 -20.833 -51.522  1.00  0.00    -0.454 OA
ATOM     23  O   UNL     1      13.413 -18.746 -50.489  1.00  0.00    -0.454 OA
ATOM     24  C   UNL     1      13.857 -19.413 -51.688  1.00  0.00     0.468 C 
ENDBRANCH   2  16
BRANCH   9  25
ATOM     25  O   UNL     1      10.398 -25.198 -45.658  1.00  0.00    -0.389 OA
ATOM     26  H   UNL     1       9.870 -24.432 -45.953  1.00  0.00     0.211 HD
ENDBRANCH   9  25
BRANCH   4  27
ATOM     27  O   UNL     1      16.307 -22.167 -46.489  1.00  0.00    -0.492 OA
ATOM     28  H   UNL     1      17.014 -21.914 -45.871  1.00  0.00     0.295 HD
ENDBRANCH   4  27
TORSDOF 5
ENDMDL
MODEL 9
REMARK VINA RESULT:    -6.044     24.267     26.119
REMARK INTER + INTRA:          -8.667
REMARK INTER:                  -7.550
REMARK INTRA:                  -1.116
REMARK UNBOUND:                -1.209
REMARK SMILES COC(=O)[C@@H]1[C@@H](c2ccc3c(c2)OCO3)c2c(O)n[nH]c2C[C@@]1(C)O
REMARK SMILES IDX 5 1 6 2 16 3 17 4 19 5 20 6 21 7 22 8 23 9 24 10 3 12 4 13
REMARK SMILES IDX 2 14 1 15 7 16 8 17 12 18 9 19 11 20 10 21 13 22 15 23 14 24
REMARK SMILES IDX 25 25 18 27
REMARK H PARENT 20 11 25 26 18 28
ROOT
ATOM      1  C   UNL     1       2.490  -4.378 -33.867  1.00  0.00     0.143 C 
ATOM      2  C   UNL     1       0.929  -4.357 -33.931  1.00  0.00     0.074 C 
ATOM      3  C   UNL     1       0.364  -5.722 -34.139  1.00  0.00     0.045 A 
ATOM      4  C   UNL     1      -0.933  -6.212 -34.317  1.00  0.00     0.234 A 
ATOM      5  N   UNL     1      -1.013  -7.533 -34.421  1.00  0.00    -0.137 NA
ATOM      6  N   UNL     1       0.272  -7.922 -34.285  1.00  0.00    -0.278 N 
ATOM      7  C   UNL     1       1.120  -6.871 -34.088  1.00  0.00     0.046 A 
ATOM      8  C   UNL     1       2.577  -6.953 -33.850  1.00  0.00     0.092 C 
ATOM      9  C   UNL     1       3.093  -5.646 -33.173  1.00  0.00     0.082 C 
ATOM     10  C   UNL     1       2.826  -5.685 -31.661  1.00  0.00     0.043 C 
ATOM     11  H   UNL     1       0.484  -8.914 -34.320  1.00  0.00     0.190 HD
ENDROOT
BRANCH   1  12
ATOM     12  C   UNL     1       2.959  -3.110 -33.177  1.00  0.00     0.312 C 
ATOM     13  O   UNL     1       2.258  -2.351 -32.523  1.00  0.00    -0.252 OA
BRANCH  12  14
ATOM     14  O   UNL     1       4.305  -2.953 -33.353  1.00  0.00    -0.469 OA
ATOM     15  C   UNL     1       4.974  -2.370 -32.233  1.00  0.00     0.282 C 
ENDBRANCH  12  14
ENDBRANCH   1  12
BRANCH   2  16
ATOM     16  C   UNL     1       0.424  -3.493 -35.081  1.00  0.00    -0.035 A 
ATOM     17  C   UNL     1      -0.331  -2.310 -34.863  1.00  0.00     0.008 A 
ATOM     18  C   UNL     1       0.685  -3.898 -36.403  1.00  0.00     0.055 A 
ATOM     19  C   UNL     1      -0.806  -1.543 -35.932  1.00  0.00     0.051 A 
ATOM     20  C   UNL     1       0.203  -3.121 -37.437  1.00  0.00     0.166 A 
ATOM     21  C   UNL     1      -0.521  -1.977 -37.207  1.00  0.00     0.165 A 
ATOM     22  O   UNL     1       0.369  -3.373 -38.763  1.00  0.00    -0.454 OA
ATOM     23  O   UNL     1      -0.902  -1.361 -38.359  1.00  0.00    -0.454 OA
ATOM     24  C   UNL     1      -0.319  -2.243 -39.340  1.00  0.00     0.468 C 
ENDBRANCH   2  16
BRANCH   9  25
ATOM     25  O   UNL     1       4.522  -5.679 -33.353  1.00  0.00    -0.389 OA
ATOM     26  H   UNL     1       4.798  -4.884 -33.849  1.00  0.00     0.211 HD
ENDBRANCH   9  25
BRANCH   4  27
ATOM     27  O   UNL     1      -2.091  -5.566 -34.378  1.00  0.00    -0.492 OA
ATOM     28  H   UNL     1      -2.007  -4.851 -33.725  1.00  0.00     0.295 HD
ENDBRANCH   4  27
TORSDOF 5
ENDMDL
