REMARK SMILES COC(=O)c1c(NC(=O)[C@H](C)Nc2ccc3c(c2)CCC(=O)N3)sc(C)c1C
REMARK SMILES IDX 7 1 8 2 9 3 6 5 5 6 27 7 24 8 25 9 28 10 26 11 3 12 4 13
REMARK SMILES IDX 2 14 1 15 10 16 11 17 12 18 13 20 14 21 18 22 15 23 17 24
REMARK SMILES IDX 16 25 19 26 23 27 20 28 21 29 22 30
REMARK H PARENT 7 4 12 19 23 31
ROOT
ATOM      1  N   UNL     1      -0.181  -0.206   3.496  1.00  0.00    -0.315 N 
ATOM      2  C   UNL     1      -1.334  -0.570   2.821  1.00  0.00     0.247 C 
ATOM      3  O   UNL     1      -2.038   0.208   2.174  1.00  0.00    -0.272 OA
ATOM      4  H   UNL     1       0.073  -0.717   4.332  1.00  0.00     0.170 HD
ENDROOT
BRANCH   1   5
ATOM      5  C   UNL     1       0.402   1.035   3.357  1.00  0.00     0.110 A 
ATOM      6  C   UNL     1       0.463   1.969   2.341  1.00  0.00     0.098 A 
ATOM      7  C   UNL     1       1.121   3.185   2.803  1.00  0.00    -0.021 A 
ATOM      8  S   UNL     1       1.245   1.508   4.750  1.00  0.00    -0.122 S 
ATOM      9  C   UNL     1       1.566   3.058   4.112  1.00  0.00     0.007 A 
ATOM     10  C   UNL     1       1.324   4.403   1.953  1.00  0.00     0.046 C 
ATOM     11  C   UNL     1       2.285   4.064   4.952  1.00  0.00     0.057 C 
BRANCH   6  12
ATOM     12  C   UNL     1      -0.010   1.716   0.982  1.00  0.00     0.341 C 
ATOM     13  O   UNL     1       0.219   0.674   0.376  1.00  0.00    -0.246 OA
BRANCH  12  14
ATOM     14  O   UNL     1      -0.684   2.781   0.457  1.00  0.00    -0.465 OA
ATOM     15  C   UNL     1      -1.225   2.533  -0.839  1.00  0.00     0.282 C 
ENDBRANCH  12  14
ENDBRANCH   6  12
ENDBRANCH   1   5
BRANCH   2  16
ATOM     16  C   UNL     1      -1.764  -2.040   3.057  1.00  0.00     0.166 C 
ATOM     17  C   UNL     1      -0.625  -3.056   3.008  1.00  0.00     0.041 C 
BRANCH  16  18
ATOM     18  N   UNL     1      -2.910  -2.430   2.195  1.00  0.00    -0.374 N 
ATOM     19  H   UNL     1      -3.527  -1.611   2.123  1.00  0.00     0.161 HD
BRANCH  18  20
ATOM     20  C   UNL     1      -2.707  -2.870   0.878  1.00  0.00     0.035 A 
ATOM     21  C   UNL     1      -3.609  -3.815   0.370  1.00  0.00     0.028 A 
ATOM     22  C   UNL     1      -1.771  -2.317  -0.001  1.00  0.00     0.031 A 
ATOM     23  C   UNL     1      -3.537  -4.253  -0.956  1.00  0.00     0.028 A 
ATOM     24  C   UNL     1      -1.697  -2.733  -1.338  1.00  0.00    -0.022 A 
ATOM     25  C   UNL     1      -2.583  -3.704  -1.806  1.00  0.00     0.044 A 
ATOM     26  C   UNL     1      -0.616  -2.221  -2.248  1.00  0.00     0.047 C 
ATOM     27  N   UNL     1      -2.500  -4.136  -3.132  1.00  0.00    -0.326 N 
ATOM     28  C   UNL     1      -1.066  -2.231  -3.699  1.00  0.00     0.105 C 
ATOM     29  C   UNL     1      -1.718  -3.539  -4.085  1.00  0.00     0.224 C 
ATOM     30  O   UNL     1      -1.641  -4.002  -5.221  1.00  0.00    -0.275 OA
ATOM     31  H   UNL     1      -3.040  -4.934  -3.440  1.00  0.00     0.169 HD
ENDBRANCH  18  20
ENDBRANCH  16  18
ENDBRANCH   2  16
TORSDOF 6
