MODEL 1
REMARK VINA RESULT:    -7.710      0.000      0.000
REMARK INTER + INTRA:         -13.005
REMARK INTER:                 -12.217
REMARK INTRA:                  -0.787
REMARK UNBOUND:                -0.787
REMARK SMILES O=C([O-])CCCCC[NH2+]Cc1c2occ(Oc3ccccc3)c([O-])c-2ccc1=O
REMARK SMILES IDX 7 1 6 2 5 3 4 4 2 5 1 6 3 7 8 8 9 9 10 12 11 13 12 14 28 15
REMARK SMILES IDX 13 16 25 17 27 18 29 19 14 20 23 21 26 22 15 23 24 24 16 25
REMARK SMILES IDX 17 26 18 27 22 28 19 29 21 30 20 31
REMARK H PARENT 9 10 9 11
ROOT
ATOM      1  C   UNL     1      14.301 -18.620 -52.447  1.00  0.00     0.061 C 
ENDROOT
BRANCH   1   2
ATOM      2  C   UNL     1      14.558 -17.246 -53.077  1.00  0.00     0.006 C 
BRANCH   2   3
ATOM      3  C   UNL     1      15.678 -17.171 -54.123  1.00  0.00     0.006 C 
BRANCH   3   4
ATOM      4  C   UNL     1      17.114 -17.308 -53.629  1.00  0.00     0.053 C 
BRANCH   4   5
ATOM      5  C   UNL     1      17.524 -16.129 -52.754  1.00  0.00     0.041 C 
ATOM      6  O   UNL     1      17.835 -15.087 -53.415  1.00  0.00    -0.550 OA
ATOM      7  O   UNL     1      17.534 -16.324 -51.517  1.00  0.00    -0.550 OA
ENDBRANCH   4   5
ENDBRANCH   3   4
ENDBRANCH   2   3
ENDBRANCH   1   2
BRANCH   1   8
ATOM      8  C   UNL     1      13.862 -18.680 -50.986  1.00  0.00     0.260 C 
BRANCH   8   9
ATOM      9  N   UNL     1      14.082 -20.021 -50.405  1.00  0.00    -0.342 N 
ATOM     10  H   UNL     1      13.681 -20.720 -51.095  1.00  0.00     0.346 HD
ATOM     11  H   UNL     1      15.074 -20.265 -50.336  1.00  0.00     0.346 HD
BRANCH   9  12
ATOM     12  C   UNL     1      13.394 -20.313 -49.120  1.00  0.00     0.305 C 
BRANCH  12  13
ATOM     13  C   UNL     1      13.079 -21.754 -48.869  1.00  0.00     0.097 C 
ATOM     14  C   UNL     1      13.600 -22.528 -47.898  1.00  0.00     0.146 C 
ATOM     15  C   UNL     1      12.071 -22.334 -49.802  1.00  0.00     0.191 C 
ATOM     16  O   UNL     1      14.573 -22.016 -47.044  1.00  0.00    -0.460 OA
ATOM     17  C   UNL     1      13.159 -23.917 -47.704  1.00  0.00     0.014 C 
ATOM     18  C   UNL     1      11.660 -23.742 -49.625  1.00  0.00     0.053 C 
ATOM     19  O   UNL     1      11.582 -21.660 -50.703  1.00  0.00    -0.289 OA
ATOM     20  C   UNL     1      15.042 -22.804 -46.026  1.00  0.00     0.242 C 
ATOM     21  C   UNL     1      13.629 -24.681 -46.680  1.00  0.00    -0.050 C 
ATOM     22  C   UNL     1      12.178 -24.473 -48.634  1.00  0.00     0.015 C 
ATOM     23  C   UNL     1      14.625 -24.055 -45.784  1.00  0.00     0.155 C 
ATOM     24  O   UNL     1      13.343 -25.865 -46.341  1.00  0.00    -0.869 OA
BRANCH  23  25
ATOM     25  O   UNL     1      15.178 -24.817 -44.749  1.00  0.00    -0.455 OA
BRANCH  25  26
ATOM     26  C   UNL     1      14.661 -24.619 -43.489  1.00  0.00     0.127 A 
ATOM     27  C   UNL     1      15.557 -24.408 -42.441  1.00  0.00     0.047 A 
ATOM     28  C   UNL     1      13.288 -24.681 -43.244  1.00  0.00     0.047 A 
ATOM     29  C   UNL     1      15.073 -24.218 -41.146  1.00  0.00     0.004 A 
ATOM     30  C   UNL     1      12.806 -24.491 -41.949  1.00  0.00     0.004 A 
ATOM     31  C   UNL     1      13.699 -24.255 -40.901  1.00  0.00     0.000 A 
ENDBRANCH  25  26
ENDBRANCH  23  25
ENDBRANCH  12  13
ENDBRANCH   9  12
ENDBRANCH   8   9
ENDBRANCH   1   8
TORSDOF 10
ENDMDL
MODEL 2
REMARK VINA RESULT:    -7.702      2.457     10.027
REMARK INTER + INTRA:         -12.991
REMARK INTER:                 -12.021
REMARK INTRA:                  -0.971
REMARK UNBOUND:                -0.787
REMARK SMILES O=C([O-])CCCCC[NH2+]Cc1c2occ(Oc3ccccc3)c([O-])c-2ccc1=O
REMARK SMILES IDX 7 1 6 2 5 3 4 4 2 5 1 6 3 7 8 8 9 9 10 12 11 13 12 14 28 15
REMARK SMILES IDX 13 16 25 17 27 18 29 19 14 20 23 21 26 22 15 23 24 24 16 25
REMARK SMILES IDX 17 26 18 27 22 28 19 29 21 30 20 31
REMARK H PARENT 9 10 9 11
ROOT
ATOM      1  C   UNL     1      15.208 -23.515 -42.223  1.00  0.00     0.061 C 
ENDROOT
BRANCH   1   2
ATOM      2  C   UNL     1      14.013 -24.468 -42.342  1.00  0.00     0.006 C 
BRANCH   2   3
ATOM      3  C   UNL     1      13.474 -25.059 -41.032  1.00  0.00     0.006 C 
BRANCH   3   4
ATOM      4  C   UNL     1      13.343 -24.120 -39.838  1.00  0.00     0.053 C 
BRANCH   4   5
ATOM      5  C   UNL     1      14.174 -24.596 -38.652  1.00  0.00     0.041 C 
ATOM      6  O   UNL     1      13.736 -24.194 -37.528  1.00  0.00    -0.550 OA
ATOM      7  O   UNL     1      15.184 -25.288 -38.916  1.00  0.00    -0.550 OA
ENDBRANCH   4   5
ENDBRANCH   3   4
ENDBRANCH   2   3
ENDBRANCH   1   2
BRANCH   1   8
ATOM      8  C   UNL     1      15.592 -22.675 -43.439  1.00  0.00     0.260 C 
BRANCH   8   9
ATOM      9  N   UNL     1      14.546 -22.714 -44.481  1.00  0.00    -0.342 N 
ATOM     10  H   UNL     1      13.870 -23.483 -44.204  1.00  0.00     0.346 HD
ATOM     11  H   UNL     1      13.977 -21.863 -44.503  1.00  0.00     0.346 HD
BRANCH   9  12
ATOM     12  C   UNL     1      14.986 -23.068 -45.857  1.00  0.00     0.305 C 
BRANCH  12  13
ATOM     13  C   UNL     1      13.889 -23.310 -46.845  1.00  0.00     0.097 C 
ATOM     14  C   UNL     1      13.535 -22.500 -47.860  1.00  0.00     0.146 C 
ATOM     15  C   UNL     1      13.160 -24.596 -46.650  1.00  0.00     0.191 C 
ATOM     16  O   UNL     1      14.176 -21.276 -48.032  1.00  0.00    -0.460 OA
ATOM     17  C   UNL     1      12.482 -22.879 -48.813  1.00  0.00     0.014 C 
ATOM     18  C   UNL     1      12.077 -24.953 -47.589  1.00  0.00     0.053 C 
ATOM     19  O   UNL     1      13.450 -25.354 -45.729  1.00  0.00    -0.289 OA
ATOM     20  C   UNL     1      13.841 -20.498 -49.109  1.00  0.00     0.242 C 
ATOM     21  C   UNL     1      12.171 -22.097 -49.883  1.00  0.00    -0.050 C 
ATOM     22  C   UNL     1      11.771 -24.138 -48.602  1.00  0.00     0.015 C 
ATOM     23  C   UNL     1      12.925 -20.833 -50.029  1.00  0.00     0.155 C 
ATOM     24  O   UNL     1      11.332 -22.274 -50.812  1.00  0.00    -0.869 OA
BRANCH  23  25
ATOM     25  O   UNL     1      12.604 -19.970 -51.083  1.00  0.00    -0.455 OA
BRANCH  25  26
ATOM     26  C   UNL     1      13.651 -19.518 -51.853  1.00  0.00     0.127 A 
ATOM     27  C   UNL     1      14.096 -18.213 -51.647  1.00  0.00     0.047 A 
ATOM     28  C   UNL     1      14.220 -20.310 -52.852  1.00  0.00     0.047 A 
ATOM     29  C   UNL     1      15.145 -17.710 -52.418  1.00  0.00     0.004 A 
ATOM     30  C   UNL     1      15.268 -19.806 -53.623  1.00  0.00     0.004 A 
ATOM     31  C   UNL     1      15.733 -18.508 -53.402  1.00  0.00     0.000 A 
ENDBRANCH  25  26
ENDBRANCH  23  25
ENDBRANCH  12  13
ENDBRANCH   9  12
ENDBRANCH   8   9
ENDBRANCH   1   8
TORSDOF 10
ENDMDL
MODEL 3
REMARK VINA RESULT:    -7.494      2.532      8.830
REMARK INTER + INTRA:         -12.662
REMARK INTER:                 -11.096
REMARK INTRA:                  -1.567
REMARK UNBOUND:                -0.787
REMARK SMILES O=C([O-])CCCCC[NH2+]Cc1c2occ(Oc3ccccc3)c([O-])c-2ccc1=O
REMARK SMILES IDX 7 1 6 2 5 3 4 4 2 5 1 6 3 7 8 8 9 9 10 12 11 13 12 14 28 15
REMARK SMILES IDX 13 16 25 17 27 18 29 19 14 20 23 21 26 22 15 23 24 24 16 25
REMARK SMILES IDX 17 26 18 27 22 28 19 29 21 30 20 31
REMARK H PARENT 9 10 9 11
ROOT
ATOM      1  C   UNL     1      17.346 -23.503 -45.771  1.00  0.00     0.061 C 
ENDROOT
BRANCH   1   2
ATOM      2  C   UNL     1      17.089 -24.923 -45.253  1.00  0.00     0.006 C 
BRANCH   2   3
ATOM      3  C   UNL     1      17.155 -25.121 -43.732  1.00  0.00     0.006 C 
BRANCH   3   4
ATOM      4  C   UNL     1      15.990 -24.593 -42.902  1.00  0.00     0.053 C 
BRANCH   4   5
ATOM      5  C   UNL     1      16.302 -23.232 -42.292  1.00  0.00     0.041 C 
ATOM      6  O   UNL     1      16.730 -23.295 -41.096  1.00  0.00    -0.550 OA
ATOM      7  O   UNL     1      16.082 -22.230 -43.012  1.00  0.00    -0.550 OA
ENDBRANCH   4   5
ENDBRANCH   3   4
ENDBRANCH   2   3
ENDBRANCH   1   2
BRANCH   1   8
ATOM      8  C   UNL     1      16.295 -22.853 -46.666  1.00  0.00     0.260 C 
BRANCH   8   9
ATOM      9  N   UNL     1      15.316 -22.073 -45.879  1.00  0.00    -0.342 N 
ATOM     10  H   UNL     1      15.729 -21.960 -44.909  1.00  0.00     0.346 HD
ATOM     11  H   UNL     1      15.201 -21.117 -46.226  1.00  0.00     0.346 HD
BRANCH   9  12
ATOM     12  C   UNL     1      13.986 -22.699 -45.658  1.00  0.00     0.305 C 
BRANCH  12  13
ATOM     13  C   UNL     1      13.212 -23.029 -46.896  1.00  0.00     0.097 C 
ATOM     14  C   UNL     1      13.017 -22.221 -47.955  1.00  0.00     0.146 C 
ATOM     15  C   UNL     1      12.637 -24.404 -46.912  1.00  0.00     0.191 C 
ATOM     16  O   UNL     1      13.511 -20.919 -47.940  1.00  0.00    -0.460 OA
ATOM     17  C   UNL     1      12.296 -22.682 -49.150  1.00  0.00     0.014 C 
ATOM     18  C   UNL     1      11.881 -24.848 -48.101  1.00  0.00     0.053 C 
ATOM     19  O   UNL     1      12.788 -25.164 -45.960  1.00  0.00    -0.289 OA
ATOM     20  C   UNL     1      13.354 -20.138 -49.055  1.00  0.00     0.242 C 
ATOM     21  C   UNL     1      12.160 -21.894 -50.252  1.00  0.00    -0.050 C 
ATOM     22  C   UNL     1      11.731 -24.030 -49.145  1.00  0.00     0.015 C 
ATOM     23  C   UNL     1      12.751 -20.541 -50.182  1.00  0.00     0.155 C 
ATOM     24  O   UNL     1      11.611 -22.131 -51.366  1.00  0.00    -0.869 OA
BRANCH  23  25
ATOM     25  O   UNL     1      12.590 -19.675 -51.270  1.00  0.00    -0.455 OA
BRANCH  25  26
ATOM     26  C   UNL     1      13.722 -19.368 -51.990  1.00  0.00     0.127 A 
ATOM     27  C   UNL     1      14.221 -18.069 -51.899  1.00  0.00     0.047 A 
ATOM     28  C   UNL     1      14.328 -20.302 -52.833  1.00  0.00     0.047 A 
ATOM     29  C   UNL     1      15.358 -17.713 -52.626  1.00  0.00     0.004 A 
ATOM     30  C   UNL     1      15.464 -19.944 -53.558  1.00  0.00     0.004 A 
ATOM     31  C   UNL     1      15.981 -18.652 -53.451  1.00  0.00     0.000 A 
ENDBRANCH  25  26
ENDBRANCH  23  25
ENDBRANCH  12  13
ENDBRANCH   9  12
ENDBRANCH   8   9
ENDBRANCH   1   8
TORSDOF 10
ENDMDL
MODEL 4
REMARK VINA RESULT:    -7.408      2.545      8.593
REMARK INTER + INTRA:         -12.526
REMARK INTER:                 -10.947
REMARK INTRA:                  -1.579
REMARK UNBOUND:                -0.787
REMARK SMILES O=C([O-])CCCCC[NH2+]Cc1c2occ(Oc3ccccc3)c([O-])c-2ccc1=O
REMARK SMILES IDX 7 1 6 2 5 3 4 4 2 5 1 6 3 7 8 8 9 9 10 12 11 13 12 14 28 15
REMARK SMILES IDX 13 16 25 17 27 18 29 19 14 20 23 21 26 22 15 23 24 24 16 25
REMARK SMILES IDX 17 26 18 27 22 28 19 29 21 30 20 31
REMARK H PARENT 9 10 9 11
ROOT
ATOM      1  C   UNL     1      14.639 -23.463 -42.919  1.00  0.00     0.061 C 
ENDROOT
BRANCH   1   2
ATOM      2  C   UNL     1      15.747 -24.505 -42.734  1.00  0.00     0.006 C 
BRANCH   2   3
ATOM      3  C   UNL     1      17.184 -23.971 -42.653  1.00  0.00     0.006 C 
BRANCH   3   4
ATOM      4  C   UNL     1      17.955 -23.823 -43.960  1.00  0.00     0.053 C 
BRANCH   4   5
ATOM      5  C   UNL     1      18.295 -22.366 -44.253  1.00  0.00     0.041 C 
ATOM      6  O   UNL     1      17.288 -21.665 -44.590  1.00  0.00    -0.550 OA
ATOM      7  O   UNL     1      19.500 -22.040 -44.157  1.00  0.00    -0.550 OA
ENDBRANCH   4   5
ENDBRANCH   3   4
ENDBRANCH   2   3
ENDBRANCH   1   2
BRANCH   1   8
ATOM      8  C   UNL     1      13.955 -23.361 -44.280  1.00  0.00     0.260 C 
BRANCH   8   9
ATOM      9  N   UNL     1      14.931 -23.130 -45.364  1.00  0.00    -0.342 N 
ATOM     10  H   UNL     1      14.667 -22.209 -45.820  1.00  0.00     0.346 HD
ATOM     11  H   UNL     1      15.883 -22.983 -45.017  1.00  0.00     0.346 HD
BRANCH   9  12
ATOM     12  C   UNL     1      14.941 -24.117 -46.476  1.00  0.00     0.305 C 
BRANCH  12  13
ATOM     13  C   UNL     1      13.774 -24.050 -47.411  1.00  0.00     0.097 C 
ATOM     14  C   UNL     1      13.433 -23.006 -48.190  1.00  0.00     0.146 C 
ATOM     15  C   UNL     1      12.952 -25.293 -47.456  1.00  0.00     0.191 C 
ATOM     16  O   UNL     1      14.164 -21.823 -48.131  1.00  0.00    -0.460 OA
ATOM     17  C   UNL     1      12.301 -23.084 -49.125  1.00  0.00     0.014 C 
ATOM     18  C   UNL     1      11.793 -25.350 -48.370  1.00  0.00     0.053 C 
ATOM     19  O   UNL     1      13.229 -26.260 -46.752  1.00  0.00    -0.289 OA
ATOM     20  C   UNL     1      13.836 -20.799 -48.979  1.00  0.00     0.242 C 
ATOM     21  C   UNL     1      11.997 -22.059 -49.967  1.00  0.00    -0.050 C 
ATOM     22  C   UNL     1      11.500 -24.306 -49.149  1.00  0.00     0.015 C 
ATOM     23  C   UNL     1      12.846 -20.850 -49.881  1.00  0.00     0.155 C 
ATOM     24  O   UNL     1      11.096 -21.961 -50.849  1.00  0.00    -0.869 OA
BRANCH  23  25
ATOM     25  O   UNL     1      12.540 -19.749 -50.689  1.00  0.00    -0.455 OA
BRANCH  25  26
ATOM     26  C   UNL     1      13.502 -19.358 -51.593  1.00  0.00     0.127 A 
ATOM     27  C   UNL     1      13.866 -20.262 -52.590  1.00  0.00     0.047 A 
ATOM     28  C   UNL     1      14.141 -18.121 -51.491  1.00  0.00     0.047 A 
ATOM     29  C   UNL     1      14.849 -19.910 -53.516  1.00  0.00     0.004 A 
ATOM     30  C   UNL     1      15.123 -17.771 -52.418  1.00  0.00     0.004 A 
ATOM     31  C   UNL     1      15.473 -18.664 -53.433  1.00  0.00     0.000 A 
ENDBRANCH  25  26
ENDBRANCH  23  25
ENDBRANCH  12  13
ENDBRANCH   9  12
ENDBRANCH   8   9
ENDBRANCH   1   8
TORSDOF 10
ENDMDL
MODEL 5
REMARK VINA RESULT:    -7.009      4.178     10.319
REMARK INTER + INTRA:         -11.894
REMARK INTER:                 -10.836
REMARK INTRA:                  -1.057
REMARK UNBOUND:                -0.787
REMARK SMILES O=C([O-])CCCCC[NH2+]Cc1c2occ(Oc3ccccc3)c([O-])c-2ccc1=O
REMARK SMILES IDX 7 1 6 2 5 3 4 4 2 5 1 6 3 7 8 8 9 9 10 12 11 13 12 14 28 15
REMARK SMILES IDX 13 16 25 17 27 18 29 19 14 20 23 21 26 22 15 23 24 24 16 25
REMARK SMILES IDX 17 26 18 27 22 28 19 29 21 30 20 31
REMARK H PARENT 9 10 9 11
ROOT
ATOM      1  C   UNL     1      12.621 -24.152 -42.526  1.00  0.00     0.061 C 
ENDROOT
BRANCH   1   2
ATOM      2  C   UNL     1      12.837 -25.600 -42.070  1.00  0.00     0.006 C 
BRANCH   2   3
ATOM      3  C   UNL     1      13.204 -25.808 -40.594  1.00  0.00     0.006 C 
BRANCH   3   4
ATOM      4  C   UNL     1      13.576 -24.573 -39.781  1.00  0.00     0.053 C 
BRANCH   4   5
ATOM      5  C   UNL     1      13.787 -24.909 -38.310  1.00  0.00     0.041 C 
ATOM      6  O   UNL     1      14.063 -26.132 -38.100  1.00  0.00    -0.550 OA
ATOM      7  O   UNL     1      13.640 -23.970 -37.493  1.00  0.00    -0.550 OA
ENDBRANCH   4   5
ENDBRANCH   3   4
ENDBRANCH   2   3
ENDBRANCH   1   2
BRANCH   1   8
ATOM      8  C   UNL     1      12.226 -23.897 -43.978  1.00  0.00     0.260 C 
BRANCH   8   9
ATOM      9  N   UNL     1      12.267 -25.138 -44.780  1.00  0.00    -0.342 N 
ATOM     10  H   UNL     1      12.336 -25.942 -44.092  1.00  0.00     0.346 HD
ATOM     11  H   UNL     1      11.397 -25.308 -45.292  1.00  0.00     0.346 HD
BRANCH   9  12
ATOM     12  C   UNL     1      13.433 -25.309 -45.686  1.00  0.00     0.305 C 
BRANCH  12  13
ATOM     13  C   UNL     1      13.668 -24.195 -46.656  1.00  0.00     0.097 C 
ATOM     14  C   UNL     1      12.831 -23.795 -47.631  1.00  0.00     0.146 C 
ATOM     15  C   UNL     1      14.964 -23.481 -46.468  1.00  0.00     0.191 C 
ATOM     16  O   UNL     1      11.636 -24.475 -47.848  1.00  0.00    -0.460 OA
ATOM     17  C   UNL     1      13.140 -22.636 -48.481  1.00  0.00     0.014 C 
ATOM     18  C   UNL     1      15.285 -22.341 -47.351  1.00  0.00     0.053 C 
ATOM     19  O   UNL     1      15.754 -23.825 -45.595  1.00  0.00    -0.289 OA
ATOM     20  C   UNL     1      10.773 -24.010 -48.805  1.00  0.00     0.242 C 
ATOM     21  C   UNL     1      12.265 -22.182 -49.419  1.00  0.00    -0.050 C 
ATOM     22  C   UNL     1      14.418 -21.953 -48.290  1.00  0.00     0.015 C 
ATOM     23  C   UNL     1      10.995 -22.926 -49.562  1.00  0.00     0.155 C 
ATOM     24  O   UNL     1      12.344 -21.196 -50.206  1.00  0.00    -0.869 OA
BRANCH  23  25
ATOM     25  O   UNL     1      10.085 -22.531 -50.550  1.00  0.00    -0.455 OA
BRANCH  25  26
ATOM     26  C   UNL     1       9.903 -23.396 -51.605  1.00  0.00     0.127 A 
ATOM     27  C   UNL     1       8.626 -23.920 -51.805  1.00  0.00     0.047 A 
ATOM     28  C   UNL     1      10.965 -23.789 -52.421  1.00  0.00     0.047 A 
ATOM     29  C   UNL     1       8.402 -24.812 -52.855  1.00  0.00     0.004 A 
ATOM     30  C   UNL     1      10.739 -24.681 -53.469  1.00  0.00     0.004 A 
ATOM     31  C   UNL     1       9.457 -25.188 -53.688  1.00  0.00     0.000 A 
ENDBRANCH  25  26
ENDBRANCH  23  25
ENDBRANCH  12  13
ENDBRANCH   9  12
ENDBRANCH   8   9
ENDBRANCH   1   8
TORSDOF 10
ENDMDL
MODEL 6
REMARK VINA RESULT:    -6.877      3.538      5.967
REMARK INTER + INTRA:         -11.685
REMARK INTER:                 -10.335
REMARK INTRA:                  -1.350
REMARK UNBOUND:                -0.787
REMARK SMILES O=C([O-])CCCCC[NH2+]Cc1c2occ(Oc3ccccc3)c([O-])c-2ccc1=O
REMARK SMILES IDX 7 1 6 2 5 3 4 4 2 5 1 6 3 7 8 8 9 9 10 12 11 13 12 14 28 15
REMARK SMILES IDX 13 16 25 17 27 18 29 19 14 20 23 21 26 22 15 23 24 24 16 25
REMARK SMILES IDX 17 26 18 27 22 28 19 29 21 30 20 31
REMARK H PARENT 9 10 9 11
ROOT
ATOM      1  C   UNL     1      10.459 -23.925 -52.583  1.00  0.00     0.061 C 
ENDROOT
BRANCH   1   2
ATOM      2  C   UNL     1       9.157 -24.514 -53.138  1.00  0.00     0.006 C 
BRANCH   2   3
ATOM      3  C   UNL     1       7.886 -23.677 -52.937  1.00  0.00     0.006 C 
BRANCH   3   4
ATOM      4  C   UNL     1       6.941 -24.091 -51.814  1.00  0.00     0.053 C 
BRANCH   4   5
ATOM      5  C   UNL     1       6.947 -23.083 -50.672  1.00  0.00     0.041 C 
ATOM      6  O   UNL     1       6.521 -21.932 -51.005  1.00  0.00    -0.550 OA
ATOM      7  O   UNL     1       7.387 -23.485 -49.570  1.00  0.00    -0.550 OA
ENDBRANCH   4   5
ENDBRANCH   3   4
ENDBRANCH   2   3
ENDBRANCH   1   2
BRANCH   1   8
ATOM      8  C   UNL     1      10.647 -23.874 -51.069  1.00  0.00     0.260 C 
BRANCH   8   9
ATOM      9  N   UNL     1      10.342 -22.533 -50.527  1.00  0.00    -0.342 N 
ATOM     10  H   UNL     1      10.997 -21.854 -51.011  1.00  0.00     0.346 HD
ATOM     11  H   UNL     1       9.403 -22.210 -50.776  1.00  0.00     0.346 HD
BRANCH   9  12
ATOM     12  C   UNL     1      10.584 -22.329 -49.074  1.00  0.00     0.305 C 
BRANCH  12  13
ATOM     13  C   UNL     1      12.020 -22.282 -48.658  1.00  0.00     0.097 C 
ATOM     14  C   UNL     1      12.604 -23.045 -47.715  1.00  0.00     0.146 C 
ATOM     15  C   UNL     1      12.843 -21.289 -49.405  1.00  0.00     0.191 C 
ATOM     16  O   UNL     1      11.843 -23.949 -46.978  1.00  0.00    -0.460 OA
ATOM     17  C   UNL     1      14.045 -22.958 -47.442  1.00  0.00     0.014 C 
ATOM     18  C   UNL     1      14.284 -21.180 -49.098  1.00  0.00     0.053 C 
ATOM     19  O   UNL     1      12.342 -20.571 -50.265  1.00  0.00    -0.289 OA
ATOM     20  C   UNL     1      12.471 -24.757 -46.069  1.00  0.00     0.242 C 
ATOM     21  C   UNL     1      14.653 -23.778 -46.541  1.00  0.00    -0.050 C 
ATOM     22  C   UNL     1      14.836 -21.972 -48.176  1.00  0.00     0.015 C 
ATOM     23  C   UNL     1      13.790 -24.746 -45.830  1.00  0.00     0.155 C 
ATOM     24  O   UNL     1      15.869 -23.870 -46.205  1.00  0.00    -0.869 OA
BRANCH  23  25
ATOM     25  O   UNL     1      14.360 -25.573 -44.856  1.00  0.00    -0.455 OA
BRANCH  25  26
ATOM     26  C   UNL     1      14.038 -25.300 -43.546  1.00  0.00     0.127 A 
ATOM     27  C   UNL     1      14.841 -24.397 -42.851  1.00  0.00     0.047 A 
ATOM     28  C   UNL     1      12.978 -25.943 -42.904  1.00  0.00     0.047 A 
ATOM     29  C   UNL     1      14.558 -24.104 -41.516  1.00  0.00     0.004 A 
ATOM     30  C   UNL     1      12.696 -25.650 -41.569  1.00  0.00     0.004 A 
ATOM     31  C   UNL     1      13.483 -24.727 -40.878  1.00  0.00     0.000 A 
ENDBRANCH  25  26
ENDBRANCH  23  25
ENDBRANCH  12  13
ENDBRANCH   9  12
ENDBRANCH   8   9
ENDBRANCH   1   8
TORSDOF 10
ENDMDL
MODEL 7
REMARK VINA RESULT:    -6.842      2.962      6.152
REMARK INTER + INTRA:         -11.629
REMARK INTER:                 -10.753
REMARK INTRA:                  -0.876
REMARK UNBOUND:                -0.787
REMARK SMILES O=C([O-])CCCCC[NH2+]Cc1c2occ(Oc3ccccc3)c([O-])c-2ccc1=O
REMARK SMILES IDX 7 1 6 2 5 3 4 4 2 5 1 6 3 7 8 8 9 9 10 12 11 13 12 14 28 15
REMARK SMILES IDX 13 16 25 17 27 18 29 19 14 20 23 21 26 22 15 23 24 24 16 25
REMARK SMILES IDX 17 26 18 27 22 28 19 29 21 30 20 31
REMARK H PARENT 9 10 9 11
ROOT
ATOM      1  C   UNL     1      14.142 -18.447 -51.871  1.00  0.00     0.061 C 
ENDROOT
BRANCH   1   2
ATOM      2  C   UNL     1      14.883 -18.235 -53.196  1.00  0.00     0.006 C 
BRANCH   2   3
ATOM      3  C   UNL     1      15.359 -16.806 -53.494  1.00  0.00     0.006 C 
BRANCH   3   4
ATOM      4  C   UNL     1      16.814 -16.623 -53.910  1.00  0.00     0.053 C 
BRANCH   4   5
ATOM      5  C   UNL     1      17.602 -15.830 -52.873  1.00  0.00     0.041 C 
ATOM      6  O   UNL     1      17.499 -16.291 -51.692  1.00  0.00    -0.550 OA
ATOM      7  O   UNL     1      18.223 -14.824 -53.287  1.00  0.00    -0.550 OA
ENDBRANCH   4   5
ENDBRANCH   3   4
ENDBRANCH   2   3
ENDBRANCH   1   2
BRANCH   1   8
ATOM      8  C   UNL     1      13.587 -19.836 -51.562  1.00  0.00     0.260 C 
BRANCH   8   9
ATOM      9  N   UNL     1      14.123 -20.366 -50.291  1.00  0.00    -0.342 N 
ATOM     10  H   UNL     1      14.498 -21.335 -50.501  1.00  0.00     0.346 HD
ATOM     11  H   UNL     1      14.934 -19.841 -49.953  1.00  0.00     0.346 HD
BRANCH   9  12
ATOM     12  C   UNL     1      13.147 -20.565 -49.186  1.00  0.00     0.305 C 
BRANCH  12  13
ATOM     13  C   UNL     1      12.838 -21.988 -48.845  1.00  0.00     0.097 C 
ATOM     14  C   UNL     1      11.831 -22.729 -49.344  1.00  0.00     0.146 C 
ATOM     15  C   UNL     1      13.778 -22.602 -47.863  1.00  0.00     0.191 C 
ATOM     16  O   UNL     1      10.919 -22.161 -50.230  1.00  0.00    -0.460 OA
ATOM     17  C   UNL     1      11.669 -24.145 -48.986  1.00  0.00     0.014 C 
ATOM     18  C   UNL     1      13.586 -24.015 -47.478  1.00  0.00     0.053 C 
ATOM     19  O   UNL     1      14.701 -21.952 -47.381  1.00  0.00    -0.289 OA
ATOM     20  C   UNL     1       9.941 -22.952 -50.772  1.00  0.00     0.242 C 
ATOM     21  C   UNL     1      10.697 -24.918 -49.544  1.00  0.00    -0.050 C 
ATOM     22  C   UNL     1      12.593 -24.728 -48.015  1.00  0.00     0.015 C 
ATOM     23  C   UNL     1       9.794 -24.259 -50.512  1.00  0.00     0.155 C 
ATOM     24  O   UNL     1      10.432 -26.144 -49.385  1.00  0.00    -0.869 OA
BRANCH  23  25
ATOM     25  O   UNL     1       8.746 -24.998 -51.072  1.00  0.00    -0.455 OA
BRANCH  25  26
ATOM     26  C   UNL     1       7.468 -24.587 -50.771  1.00  0.00     0.127 A 
ATOM     27  C   UNL     1       7.066 -24.629 -49.436  1.00  0.00     0.047 A 
ATOM     28  C   UNL     1       6.573 -24.192 -51.766  1.00  0.00     0.047 A 
ATOM     29  C   UNL     1       5.773 -24.235 -49.090  1.00  0.00     0.004 A 
ATOM     30  C   UNL     1       5.280 -23.798 -51.419  1.00  0.00     0.004 A 
ATOM     31  C   UNL     1       4.883 -23.816 -50.081  1.00  0.00     0.000 A 
ENDBRANCH  25  26
ENDBRANCH  23  25
ENDBRANCH  12  13
ENDBRANCH   9  12
ENDBRANCH   8   9
ENDBRANCH   1   8
TORSDOF 10
ENDMDL
MODEL 8
REMARK VINA RESULT:    -6.838      1.615      2.170
REMARK INTER + INTRA:         -11.624
REMARK INTER:                 -10.627
REMARK INTRA:                  -0.997
REMARK UNBOUND:                -0.787
REMARK SMILES O=C([O-])CCCCC[NH2+]Cc1c2occ(Oc3ccccc3)c([O-])c-2ccc1=O
REMARK SMILES IDX 7 1 6 2 5 3 4 4 2 5 1 6 3 7 8 8 9 9 10 12 11 13 12 14 28 15
REMARK SMILES IDX 13 16 25 17 27 18 29 19 14 20 23 21 26 22 15 23 24 24 16 25
REMARK SMILES IDX 17 26 18 27 22 28 19 29 21 30 20 31
REMARK H PARENT 9 10 9 11
ROOT
ATOM      1  C   UNL     1      14.272 -18.507 -51.500  1.00  0.00     0.061 C 
ENDROOT
BRANCH   1   2
ATOM      2  C   UNL     1      14.408 -17.727 -52.813  1.00  0.00     0.006 C 
BRANCH   2   3
ATOM      3  C   UNL     1      15.602 -18.092 -53.706  1.00  0.00     0.006 C 
BRANCH   3   4
ATOM      4  C   UNL     1      16.999 -17.914 -53.122  1.00  0.00     0.053 C 
BRANCH   4   5
ATOM      5  C   UNL     1      17.237 -16.481 -52.658  1.00  0.00     0.041 C 
ATOM      6  O   UNL     1      17.493 -16.383 -51.416  1.00  0.00    -0.550 OA
ATOM      7  O   UNL     1      17.130 -15.584 -53.526  1.00  0.00    -0.550 OA
ENDBRANCH   4   5
ENDBRANCH   3   4
ENDBRANCH   2   3
ENDBRANCH   1   2
BRANCH   1   8
ATOM      8  C   UNL     1      13.732 -19.934 -51.555  1.00  0.00     0.260 C 
BRANCH   8   9
ATOM      9  N   UNL     1      13.114 -20.332 -50.273  1.00  0.00    -0.342 N 
ATOM     10  H   UNL     1      13.775 -21.028 -49.821  1.00  0.00     0.346 HD
ATOM     11  H   UNL     1      13.053 -19.559 -49.605  1.00  0.00     0.346 HD
BRANCH   9  12
ATOM     12  C   UNL     1      11.809 -21.042 -50.352  1.00  0.00     0.305 C 
BRANCH  12  13
ATOM     13  C   UNL     1      11.784 -22.418 -49.765  1.00  0.00     0.097 C 
ATOM     14  C   UNL     1      12.227 -22.774 -48.545  1.00  0.00     0.146 C 
ATOM     15  C   UNL     1      11.185 -23.453 -50.654  1.00  0.00     0.191 C 
ATOM     16  O   UNL     1      12.828 -21.829 -47.717  1.00  0.00    -0.460 OA
ATOM     17  C   UNL     1      12.084 -24.150 -48.048  1.00  0.00     0.014 C 
ATOM     18  C   UNL     1      11.079 -24.843 -50.163  1.00  0.00     0.053 C 
ATOM     19  O   UNL     1      10.780 -23.165 -51.776  1.00  0.00    -0.289 OA
ATOM     20  C   UNL     1      13.213 -22.203 -46.456  1.00  0.00     0.242 C 
ATOM     21  C   UNL     1      12.464 -24.499 -46.788  1.00  0.00    -0.050 C 
ATOM     22  C   UNL     1      11.504 -25.155 -48.936  1.00  0.00     0.015 C 
ATOM     23  C   UNL     1      13.051 -23.432 -45.948  1.00  0.00     0.155 C 
ATOM     24  O   UNL     1      12.387 -25.608 -46.185  1.00  0.00    -0.869 OA
BRANCH  23  25
ATOM     25  O   UNL     1      13.505 -23.754 -44.664  1.00  0.00    -0.455 OA
BRANCH  25  26
ATOM     26  C   UNL     1      14.860 -23.659 -44.445  1.00  0.00     0.127 A 
ATOM     27  C   UNL     1      15.706 -24.421 -45.251  1.00  0.00     0.047 A 
ATOM     28  C   UNL     1      15.382 -22.874 -43.415  1.00  0.00     0.047 A 
ATOM     29  C   UNL     1      17.086 -24.365 -45.051  1.00  0.00     0.004 A 
ATOM     30  C   UNL     1      16.762 -22.820 -43.217  1.00  0.00     0.004 A 
ATOM     31  C   UNL     1      17.613 -23.562 -44.038  1.00  0.00     0.000 A 
ENDBRANCH  25  26
ENDBRANCH  23  25
ENDBRANCH  12  13
ENDBRANCH   9  12
ENDBRANCH   8   9
ENDBRANCH   1   8
TORSDOF 10
ENDMDL
MODEL 9
REMARK VINA RESULT:    -6.670      3.600      6.360
REMARK INTER + INTRA:         -11.356
REMARK INTER:                  -9.881
REMARK INTRA:                  -1.475
REMARK UNBOUND:                -0.787
REMARK SMILES O=C([O-])CCCCC[NH2+]Cc1c2occ(Oc3ccccc3)c([O-])c-2ccc1=O
REMARK SMILES IDX 7 1 6 2 5 3 4 4 2 5 1 6 3 7 8 8 9 9 10 12 11 13 12 14 28 15
REMARK SMILES IDX 13 16 25 17 27 18 29 19 14 20 23 21 26 22 15 23 24 24 16 25
REMARK SMILES IDX 17 26 18 27 22 28 19 29 21 30 20 31
REMARK H PARENT 9 10 9 11
ROOT
ATOM      1  C   UNL     1       9.280 -25.350 -49.616  1.00  0.00     0.061 C 
ENDROOT
BRANCH   1   2
ATOM      2  C   UNL     1       8.155 -25.815 -50.547  1.00  0.00     0.006 C 
BRANCH   2   3
ATOM      3  C   UNL     1       7.926 -24.981 -51.815  1.00  0.00     0.006 C 
BRANCH   3   4
ATOM      4  C   UNL     1       6.618 -24.206 -51.921  1.00  0.00     0.053 C 
BRANCH   4   5
ATOM      5  C   UNL     1       6.837 -22.705 -51.774  1.00  0.00     0.041 C 
ATOM      6  O   UNL     1       5.853 -22.004 -52.170  1.00  0.00    -0.550 OA
ATOM      7  O   UNL     1       7.945 -22.342 -51.316  1.00  0.00    -0.550 OA
ENDBRANCH   4   5
ENDBRANCH   3   4
ENDBRANCH   2   3
ENDBRANCH   1   2
BRANCH   1   8
ATOM      8  C   UNL     1       8.947 -24.344 -48.517  1.00  0.00     0.260 C 
BRANCH   8   9
ATOM      9  N   UNL     1       9.701 -23.085 -48.683  1.00  0.00    -0.342 N 
ATOM     10  H   UNL     1       9.025 -22.379 -49.095  1.00  0.00     0.346 HD
ATOM     11  H   UNL     1       9.991 -22.675 -47.791  1.00  0.00     0.346 HD
BRANCH   9  12
ATOM     12  C   UNL     1      10.848 -23.113 -49.629  1.00  0.00     0.305 C 
BRANCH  12  13
ATOM     13  C   UNL     1      12.182 -22.780 -49.038  1.00  0.00     0.097 C 
ATOM     14  C   UNL     1      12.793 -23.430 -48.031  1.00  0.00     0.146 C 
ATOM     15  C   UNL     1      12.862 -21.618 -49.677  1.00  0.00     0.191 C 
ATOM     16  O   UNL     1      12.155 -24.492 -47.395  1.00  0.00    -0.460 OA
ATOM     17  C   UNL     1      14.141 -23.053 -47.581  1.00  0.00     0.014 C 
ATOM     18  C   UNL     1      14.201 -21.220 -49.194  1.00  0.00     0.053 C 
ATOM     19  O   UNL     1      12.329 -20.997 -50.591  1.00  0.00    -0.289 OA
ATOM     20  C   UNL     1      12.825 -25.176 -46.415  1.00  0.00     0.242 C 
ATOM     21  C   UNL     1      14.794 -23.753 -46.612  1.00  0.00    -0.050 C 
ATOM     22  C   UNL     1      14.790 -21.905 -48.211  1.00  0.00     0.015 C 
ATOM     23  C   UNL     1      14.073 -24.897 -46.015  1.00  0.00     0.155 C 
ATOM     24  O   UNL     1      15.952 -23.599 -46.129  1.00  0.00    -0.869 OA
BRANCH  23  25
ATOM     25  O   UNL     1      14.681 -25.614 -44.978  1.00  0.00    -0.455 OA
BRANCH  25  26
ATOM     26  C   UNL     1      14.168 -25.432 -43.715  1.00  0.00     0.127 A 
ATOM     27  C   UNL     1      13.235 -26.358 -43.249  1.00  0.00     0.047 A 
ATOM     28  C   UNL     1      14.517 -24.327 -42.935  1.00  0.00     0.047 A 
ATOM     29  C   UNL     1      12.678 -26.201 -41.979  1.00  0.00     0.004 A 
ATOM     30  C   UNL     1      13.959 -24.171 -41.666  1.00  0.00     0.004 A 
ATOM     31  C   UNL     1      13.044 -25.111 -41.187  1.00  0.00     0.000 A 
ENDBRANCH  25  26
ENDBRANCH  23  25
ENDBRANCH  12  13
ENDBRANCH   9  12
ENDBRANCH   8   9
ENDBRANCH   1   8
TORSDOF 10
ENDMDL
