REMARK SMILES NC(=O)[C@@H]1CC(C(=O)NC[C@@H]2CCN(c3ccccc3)C2)=NN1c1ccccc1
REMARK SMILES IDX 7 1 8 2 9 3 6 5 4 6 5 7 23 8 22 9 2 10 1 11 3 12 24 15 25 16
REMARK SMILES IDX 29 17 26 18 28 19 27 20 10 21 11 22 12 23 21 24 13 25 14 26
REMARK SMILES IDX 15 27 16 28 20 29 17 30 19 31 18 32
REMARK H PARENT 9 4 1 13 1 14
ROOT
ATOM      1  C   UNL     1      -0.748  -0.303  -0.814  1.00  0.00     0.267 C 
ATOM      2  O   UNL     1      -1.854  -0.478  -0.333  1.00  0.00    -0.268 OA
ATOM      3  N   UNL     1       0.340  -1.133  -0.701  1.00  0.00    -0.351 N 
ATOM      4  H   UNL     1       1.186  -0.841  -1.185  1.00  0.00     0.163 HD
ENDROOT
BRANCH   1   5
ATOM      5  C   UNL     1      -0.479   0.939  -1.629  1.00  0.00     0.128 C 
ATOM      6  C   UNL     1      -0.788   2.980  -2.645  1.00  0.00     0.203 C 
ATOM      7  C   UNL     1      -1.578   1.904  -1.911  1.00  0.00     0.101 C 
ATOM      8  N   UNL     1       0.553   2.386  -2.797  1.00  0.00    -0.252 N 
ATOM      9  N   UNL     1       0.691   1.203  -2.130  1.00  0.00    -0.171 NA
BRANCH   6  10
ATOM     10  C   UNL     1      -0.726   4.258  -1.803  1.00  0.00     0.242 C 
ATOM     11  N   UNL     1       0.175   4.256  -0.771  1.00  0.00    -0.368 N 
ATOM     12  O   UNL     1      -1.475   5.214  -1.980  1.00  0.00    -0.273 OA
ATOM     13  H   UNL     1       0.988   3.653  -0.877  1.00  0.00     0.159 HD
ATOM     14  H   UNL     1       0.318   5.142  -0.304  1.00  0.00     0.159 HD
ENDBRANCH   6  10
BRANCH   8  15
ATOM     15  C   UNL     1       1.561   2.873  -3.627  1.00  0.00     0.060 A 
ATOM     16  C   UNL     1       2.793   2.205  -3.731  1.00  0.00     0.028 A 
ATOM     17  C   UNL     1       1.411   4.046  -4.386  1.00  0.00     0.028 A 
ATOM     18  C   UNL     1       3.825   2.678  -4.549  1.00  0.00     0.002 A 
ATOM     19  C   UNL     1       2.440   4.526  -5.206  1.00  0.00     0.002 A 
ATOM     20  C   UNL     1       3.647   3.841  -5.287  1.00  0.00     0.000 A 
ENDBRANCH   8  15
ENDBRANCH   1   5
BRANCH   3  21
ATOM     21  C   UNL     1       0.315  -2.395   0.011  1.00  0.00     0.121 C 
BRANCH  21  22
ATOM     22  C   UNL     1       1.056  -2.301   1.351  1.00  0.00     0.029 C 
ATOM     23  C   UNL     1       1.442  -3.680   1.887  1.00  0.00     0.028 C 
ATOM     24  C   UNL     1       0.159  -1.753   2.471  1.00  0.00     0.122 C 
ATOM     25  C   UNL     1       0.182  -4.168   2.595  1.00  0.00     0.117 C 
ATOM     26  N   UNL     1      -0.433  -2.942   3.086  1.00  0.00    -0.371 N 
BRANCH  26  27
ATOM     27  C   UNL     1      -1.498  -2.909   3.957  1.00  0.00     0.037 A 
ATOM     28  C   UNL     1      -2.132  -4.081   4.401  1.00  0.00     0.026 A 
ATOM     29  C   UNL     1      -2.009  -1.701   4.460  1.00  0.00     0.026 A 
ATOM     30  C   UNL     1      -3.214  -4.053   5.291  1.00  0.00     0.002 A 
ATOM     31  C   UNL     1      -3.090  -1.661   5.350  1.00  0.00     0.002 A 
ATOM     32  C   UNL     1      -3.694  -2.840   5.766  1.00  0.00     0.000 A 
ENDBRANCH  26  27
ENDBRANCH  21  22
ENDBRANCH   3  21
TORSDOF 6
