REMARK SMILES O=C1c2cc(Cl)nnc2Oc2ccc3ccccc3c2N1CC1CCCCC1
REMARK SMILES IDX 1 1 2 2 3 3 4 4 5 5 6 6 7 7 8 8 9 9 10 10 11 11 12 12 13 13
REMARK SMILES IDX 14 14 15 15 16 16 17 17 18 18 19 19 20 20 21 21 22 22 23 23
REMARK SMILES IDX 24 24 28 25 25 26 27 27 26 28
REMARK H PARENT
ROOT
ATOM      1  O   UNL     1       2.181   2.507  -0.949  1.00  0.00    -0.268 OA
ATOM      2  C   UNL     1       1.053   2.110  -0.653  1.00  0.00     0.264 C 
ATOM      3  C   UNL     1       0.167   3.103  -0.036  1.00  0.00     0.107 A 
ATOM      4  C   UNL     1       0.212   4.430  -0.459  1.00  0.00     0.062 A 
ATOM      5  C   UNL     1      -0.573   5.336   0.217  1.00  0.00     0.152 A 
ATOM      6  Cl  UNL     1      -0.610   6.990  -0.218  1.00  0.00    -0.060 Cl
ATOM      7  N   UNL     1      -1.354   4.993   1.262  1.00  0.00    -0.135 NA
ATOM      8  N   UNL     1      -1.373   3.693   1.690  1.00  0.00    -0.109 NA
ATOM      9  C   UNL     1      -0.628   2.771   1.041  1.00  0.00     0.252 A 
ATOM     10  O   UNL     1      -0.667   1.496   1.544  1.00  0.00    -0.435 OA
ATOM     11  C   UNL     1      -1.264   0.621   0.670  1.00  0.00     0.153 A 
ATOM     12  C   UNL     1      -2.427   0.000   1.119  1.00  0.00     0.050 A 
ATOM     13  C   UNL     1      -3.095  -0.892   0.289  1.00  0.00     0.013 A 
ATOM     14  C   UNL     1      -2.636  -1.138  -1.011  1.00  0.00    -0.016 A 
ATOM     15  C   UNL     1      -3.370  -1.990  -1.853  1.00  0.00     0.009 A 
ATOM     16  C   UNL     1      -2.983  -2.205  -3.174  1.00  0.00     0.001 A 
ATOM     17  C   UNL     1      -1.866  -1.554  -3.675  1.00  0.00     0.001 A 
ATOM     18  C   UNL     1      -1.121  -0.713  -2.845  1.00  0.00     0.011 A 
ATOM     19  C   UNL     1      -1.451  -0.511  -1.481  1.00  0.00     0.009 A 
ATOM     20  C   UNL     1      -0.713   0.325  -0.588  1.00  0.00     0.095 A 
ATOM     21  N   UNL     1       0.601   0.812  -0.918  1.00  0.00    -0.304 N 
ENDROOT
BRANCH  21  22
ATOM     22  C   UNL     1       1.630  -0.200  -1.239  1.00  0.00     0.129 C 
BRANCH  22  23
ATOM     23  C   UNL     1       2.105  -1.000  -0.004  1.00  0.00     0.009 C 
ATOM     24  C   UNL     1       2.997  -2.173  -0.431  1.00  0.00     0.005 C 
ATOM     25  C   UNL     1       2.843  -0.121   1.025  1.00  0.00     0.005 C 
ATOM     26  C   UNL     1       3.355  -3.080   0.750  1.00  0.00     0.000 C 
ATOM     27  C   UNL     1       3.774  -0.904   1.955  1.00  0.00     0.000 C 
ATOM     28  C   UNL     1       3.356  -2.360   2.098  1.00  0.00     0.000 C 
ENDBRANCH  22  23
ENDBRANCH  21  22
TORSDOF 2
