MODEL 1
REMARK VINA RESULT:    -7.833      0.000      0.000
REMARK INTER + INTRA:         -14.007
REMARK INTER:                 -12.870
REMARK INTRA:                  -1.138
REMARK UNBOUND:                -1.138
REMARK SMILES C[C@@H](O)[C@@H](O)[C@@H](O)[C@@H](OCCO)Oc1ccc2c(c1)O[C@H](c1ccc3c(c1)OCCO3)CC2=O
REMARK SMILES IDX 8 1 6 2 4 3 2 4 1 5 3 6 5 8 7 10 9 12 10 13 11 14 12 15
REMARK SMILES IDX 13 17 14 18 15 19 19 20 16 21 18 22 17 23 20 24 33 25 21 26
REMARK SMILES IDX 32 27 34 28 22 29 23 30 27 31 24 32 26 33 25 34 28 35 31 36
REMARK SMILES IDX 29 37 30 38
REMARK H PARENT 3 7 5 9 7 11 12 16
ROOT
ATOM      1  C   UNL     1      11.957 -21.648 -49.440  1.00  0.00     0.339 C 
ENDROOT
BRANCH   1   2
ATOM      2  C   UNL     1      10.522 -22.246 -49.535  1.00  0.00     0.214 C 
BRANCH   2   3
ATOM      3  C   UNL     1      10.251 -23.207 -50.707  1.00  0.00     0.177 C 
BRANCH   3   4
ATOM      4  C   UNL     1       8.805 -23.165 -51.245  1.00  0.00     0.142 C 
ATOM      5  C   UNL     1       7.834 -24.147 -50.607  1.00  0.00     0.041 C 
BRANCH   4   6
ATOM      6  O   UNL     1       8.280 -21.850 -51.016  1.00  0.00    -0.391 OA
ATOM      7  H   UNL     1       7.335 -21.903 -51.266  1.00  0.00     0.211 HD
ENDBRANCH   4   6
ENDBRANCH   3   4
BRANCH   3   8
ATOM      8  O   UNL     1      11.150 -23.006 -51.808  1.00  0.00    -0.387 OA
ATOM      9  H   UNL     1      10.658 -22.460 -52.455  1.00  0.00     0.211 HD
ENDBRANCH   3   8
ENDBRANCH   2   3
BRANCH   2  10
ATOM     10  O   UNL     1      10.252 -22.973 -48.310  1.00  0.00    -0.384 OA
ATOM     11  H   UNL     1      10.106 -23.902 -48.586  1.00  0.00     0.211 HD
ENDBRANCH   2  10
ENDBRANCH   1   2
BRANCH   1  12
ATOM     12  O   UNL     1      11.898 -20.457 -50.253  1.00  0.00    -0.338 OA
BRANCH  12  13
ATOM     13  C   UNL     1      13.186 -19.926 -50.571  1.00  0.00     0.193 C 
BRANCH  13  14
ATOM     14  C   UNL     1      13.523 -20.273 -52.020  1.00  0.00     0.184 C 
BRANCH  14  15
ATOM     15  O   UNL     1      14.927 -20.481 -52.158  1.00  0.00    -0.394 OA
ATOM     16  H   UNL     1      15.106 -21.403 -51.909  1.00  0.00     0.210 HD
ENDBRANCH  14  15
ENDBRANCH  13  14
ENDBRANCH  12  13
ENDBRANCH   1  12
BRANCH   1  17
ATOM     17  O   UNL     1      12.220 -21.304 -48.072  1.00  0.00    -0.462 OA
BRANCH  17  18
ATOM     18  C   UNL     1      13.296 -21.879 -47.459  1.00  0.00     0.126 A 
ATOM     19  C   UNL     1      14.462 -21.930 -48.229  1.00  0.00     0.047 A 
ATOM     20  C   UNL     1      13.317 -22.337 -46.142  1.00  0.00     0.093 A 
ATOM     21  C   UNL     1      15.639 -22.465 -47.700  1.00  0.00     0.019 A 
ATOM     22  C   UNL     1      14.485 -22.892 -45.616  1.00  0.00     0.134 A 
ATOM     23  C   UNL     1      15.645 -22.941 -46.389  1.00  0.00     0.060 A 
ATOM     24  O   UNL     1      14.420 -23.335 -44.322  1.00  0.00    -0.484 OA
ATOM     25  C   UNL     1      16.887 -23.456 -45.778  1.00  0.00     0.170 C 
ATOM     26  C   UNL     1      15.433 -24.307 -44.005  1.00  0.00     0.211 C 
ATOM     27  C   UNL     1      16.824 -23.770 -44.311  1.00  0.00     0.131 C 
ATOM     28  O   UNL     1      17.916 -23.566 -46.435  1.00  0.00    -0.294 OA
BRANCH  26  29
ATOM     29  C   UNL     1      15.309 -24.676 -42.539  1.00  0.00    -0.003 A 
ATOM     30  C   UNL     1      16.288 -25.481 -41.932  1.00  0.00     0.011 A 
ATOM     31  C   UNL     1      14.247 -24.195 -41.754  1.00  0.00     0.058 A 
ATOM     32  C   UNL     1      16.195 -25.815 -40.578  1.00  0.00     0.051 A 
ATOM     33  C   UNL     1      14.165 -24.519 -40.400  1.00  0.00     0.161 A 
ATOM     34  C   UNL     1      15.126 -25.348 -39.817  1.00  0.00     0.161 A 
ATOM     35  O   UNL     1      13.107 -23.991 -39.705  1.00  0.00    -0.486 OA
ATOM     36  O   UNL     1      15.089 -25.736 -38.503  1.00  0.00    -0.486 OA
ATOM     37  C   UNL     1      13.305 -24.101 -38.291  1.00  0.00     0.271 C 
ATOM     38  C   UNL     1      13.802 -25.490 -37.924  1.00  0.00     0.271 C 
ENDBRANCH  26  29
ENDBRANCH  17  18
ENDBRANCH   1  17
TORSDOF 13
ENDMDL
MODEL 2
REMARK VINA RESULT:    -7.783      2.212      9.349
REMARK INTER + INTRA:         -13.926
REMARK INTER:                 -12.385
REMARK INTRA:                  -1.541
REMARK UNBOUND:                -1.138
REMARK SMILES C[C@@H](O)[C@@H](O)[C@@H](O)[C@@H](OCCO)Oc1ccc2c(c1)O[C@H](c1ccc3c(c1)OCCO3)CC2=O
REMARK SMILES IDX 8 1 6 2 4 3 2 4 1 5 3 6 5 8 7 10 9 12 10 13 11 14 12 15
REMARK SMILES IDX 13 17 14 18 15 19 19 20 16 21 18 22 17 23 20 24 33 25 21 26
REMARK SMILES IDX 32 27 34 28 22 29 23 30 27 31 24 32 26 33 25 34 28 35 31 36
REMARK SMILES IDX 29 37 30 38
REMARK H PARENT 3 7 5 9 7 11 12 16
ROOT
ATOM      1  C   UNL     1      15.702 -22.755 -44.570  1.00  0.00     0.339 C 
ENDROOT
BRANCH   1   2
ATOM      2  C   UNL     1      15.776 -23.862 -43.478  1.00  0.00     0.214 C 
BRANCH   2   3
ATOM      3  C   UNL     1      15.705 -23.394 -42.013  1.00  0.00     0.177 C 
BRANCH   3   4
ATOM      4  C   UNL     1      15.369 -24.510 -41.002  1.00  0.00     0.142 C 
ATOM      5  C   UNL     1      15.999 -24.367 -39.625  1.00  0.00     0.041 C 
BRANCH   4   6
ATOM      6  O   UNL     1      13.947 -24.528 -40.811  1.00  0.00    -0.391 OA
ATOM      7  H   UNL     1      13.818 -24.547 -39.840  1.00  0.00     0.211 HD
ENDBRANCH   4   6
ENDBRANCH   3   4
BRANCH   3   8
ATOM      8  O   UNL     1      16.907 -22.738 -41.582  1.00  0.00    -0.387 OA
ATOM      9  H   UNL     1      17.071 -22.028 -42.236  1.00  0.00     0.211 HD
ENDBRANCH   3   8
ENDBRANCH   2   3
BRANCH   2  10
ATOM     10  O   UNL     1      14.677 -24.784 -43.690  1.00  0.00    -0.384 OA
ATOM     11  H   UNL     1      14.618 -25.311 -42.866  1.00  0.00     0.211 HD
ENDBRANCH   2  10
ENDBRANCH   1   2
BRANCH   1  12
ATOM     12  O   UNL     1      16.871 -21.944 -44.331  1.00  0.00    -0.338 OA
BRANCH  12  13
ATOM     13  C   UNL     1      18.003 -22.344 -45.107  1.00  0.00     0.193 C 
BRANCH  13  14
ATOM     14  C   UNL     1      19.237 -22.377 -44.206  1.00  0.00     0.184 C 
BRANCH  14  15
ATOM     15  O   UNL     1      19.998 -21.184 -44.377  1.00  0.00    -0.394 OA
ATOM     16  H   UNL     1      20.433 -20.998 -43.528  1.00  0.00     0.210 HD
ENDBRANCH  14  15
ENDBRANCH  13  14
ENDBRANCH  12  13
ENDBRANCH   1  12
BRANCH   1  17
ATOM     17  O   UNL     1      15.783 -23.378 -45.860  1.00  0.00    -0.462 OA
BRANCH  17  18
ATOM     18  C   UNL     1      14.861 -23.026 -46.804  1.00  0.00     0.126 A 
ATOM     19  C   UNL     1      15.251 -21.990 -47.659  1.00  0.00     0.047 A 
ATOM     20  C   UNL     1      13.634 -23.658 -47.000  1.00  0.00     0.093 A 
ATOM     21  C   UNL     1      14.408 -21.563 -48.687  1.00  0.00     0.019 A 
ATOM     22  C   UNL     1      12.778 -23.221 -48.013  1.00  0.00     0.134 A 
ATOM     23  C   UNL     1      13.172 -22.186 -48.862  1.00  0.00     0.060 A 
ATOM     24  O   UNL     1      11.584 -23.881 -48.129  1.00  0.00    -0.484 OA
ATOM     25  C   UNL     1      12.283 -21.802 -49.976  1.00  0.00     0.170 C 
ATOM     26  C   UNL     1      10.577 -23.112 -48.811  1.00  0.00     0.211 C 
ATOM     27  C   UNL     1      11.066 -22.658 -50.180  1.00  0.00     0.131 C 
ATOM     28  O   UNL     1      12.564 -20.865 -50.714  1.00  0.00    -0.294 OA
BRANCH  26  29
ATOM     29  C   UNL     1       9.325 -23.959 -48.941  1.00  0.00    -0.003 A 
ATOM     30  C   UNL     1       9.201 -25.148 -48.204  1.00  0.00     0.011 A 
ATOM     31  C   UNL     1       8.258 -23.559 -49.764  1.00  0.00     0.058 A 
ATOM     32  C   UNL     1       8.046 -25.929 -48.302  1.00  0.00     0.051 A 
ATOM     33  C   UNL     1       7.102 -24.334 -49.849  1.00  0.00     0.161 A 
ATOM     34  C   UNL     1       7.005 -25.531 -49.136  1.00  0.00     0.161 A 
ATOM     35  O   UNL     1       6.102 -23.858 -50.659  1.00  0.00    -0.486 OA
ATOM     36  O   UNL     1       5.914 -26.358 -49.200  1.00  0.00    -0.486 OA
ATOM     37  C   UNL     1       4.864 -24.534 -50.411  1.00  0.00     0.271 C 
ATOM     38  C   UNL     1       5.080 -26.036 -50.319  1.00  0.00     0.271 C 
ENDBRANCH  26  29
ENDBRANCH  17  18
ENDBRANCH   1  17
TORSDOF 13
ENDMDL
MODEL 3
REMARK VINA RESULT:    -7.418      3.588     10.867
REMARK INTER + INTRA:         -13.327
REMARK INTER:                 -11.506
REMARK INTRA:                  -1.821
REMARK UNBOUND:                -1.138
REMARK SMILES C[C@@H](O)[C@@H](O)[C@@H](O)[C@@H](OCCO)Oc1ccc2c(c1)O[C@H](c1ccc3c(c1)OCCO3)CC2=O
REMARK SMILES IDX 8 1 6 2 4 3 2 4 1 5 3 6 5 8 7 10 9 12 10 13 11 14 12 15
REMARK SMILES IDX 13 17 14 18 15 19 19 20 16 21 18 22 17 23 20 24 33 25 21 26
REMARK SMILES IDX 32 27 34 28 22 29 23 30 27 31 24 32 26 33 25 34 28 35 31 36
REMARK SMILES IDX 29 37 30 38
REMARK H PARENT 3 7 5 9 7 11 12 16
ROOT
ATOM      1  C   UNL     1      12.749 -24.023 -47.554  1.00  0.00     0.339 C 
ENDROOT
BRANCH   1   2
ATOM      2  C   UNL     1      13.527 -22.700 -47.294  1.00  0.00     0.214 C 
BRANCH   2   3
ATOM      3  C   UNL     1      13.879 -21.852 -48.531  1.00  0.00     0.177 C 
BRANCH   3   4
ATOM      4  C   UNL     1      13.126 -20.507 -48.617  1.00  0.00     0.142 C 
ATOM      5  C   UNL     1      13.460 -19.639 -49.821  1.00  0.00     0.041 C 
BRANCH   4   6
ATOM      6  O   UNL     1      11.720 -20.784 -48.678  1.00  0.00    -0.391 OA
ATOM      7  H   UNL     1      11.654 -21.705 -49.005  1.00  0.00     0.211 HD
ENDBRANCH   4   6
ENDBRANCH   3   4
BRANCH   3   8
ATOM      8  O   UNL     1      15.287 -21.592 -48.641  1.00  0.00    -0.387 OA
ATOM      9  H   UNL     1      15.670 -21.835 -47.774  1.00  0.00     0.211 HD
ENDBRANCH   3   8
ENDBRANCH   2   3
BRANCH   2  10
ATOM     10  O   UNL     1      12.728 -21.868 -46.415  1.00  0.00    -0.384 OA
ATOM     11  H   UNL     1      11.826 -21.878 -46.798  1.00  0.00     0.211 HD
ENDBRANCH   2  10
ENDBRANCH   1   2
BRANCH   1  12
ATOM     12  O   UNL     1      13.188 -24.905 -46.500  1.00  0.00    -0.338 OA
BRANCH  12  13
ATOM     13  C   UNL     1      12.126 -25.339 -45.647  1.00  0.00     0.193 C 
BRANCH  13  14
ATOM     14  C   UNL     1      12.261 -24.646 -44.293  1.00  0.00     0.184 C 
BRANCH  14  15
ATOM     15  O   UNL     1      11.430 -23.488 -44.252  1.00  0.00    -0.394 OA
ATOM     16  H   UNL     1      11.299 -23.197 -45.170  1.00  0.00     0.210 HD
ENDBRANCH  14  15
ENDBRANCH  13  14
ENDBRANCH  12  13
ENDBRANCH   1  12
BRANCH   1  17
ATOM     17  O   UNL     1      11.344 -23.759 -47.429  1.00  0.00    -0.462 OA
BRANCH  17  18
ATOM     18  C   UNL     1      10.584 -23.765 -48.563  1.00  0.00     0.126 A 
ATOM     19  C   UNL     1      11.292 -23.966 -49.753  1.00  0.00     0.047 A 
ATOM     20  C   UNL     1       9.194 -23.654 -48.597  1.00  0.00     0.093 A 
ATOM     21  C   UNL     1      10.622 -24.025 -50.976  1.00  0.00     0.019 A 
ATOM     22  C   UNL     1       8.522 -23.692 -49.820  1.00  0.00     0.134 A 
ATOM     23  C   UNL     1       9.234 -23.892 -51.003  1.00  0.00     0.060 A 
ATOM     24  O   UNL     1       7.160 -23.559 -49.771  1.00  0.00    -0.484 OA
ATOM     25  C   UNL     1       8.487 -24.011 -52.271  1.00  0.00     0.170 C 
ATOM     26  C   UNL     1       6.590 -23.115 -51.015  1.00  0.00     0.211 C 
ATOM     27  C   UNL     1       6.990 -24.034 -52.161  1.00  0.00     0.131 C 
ATOM     28  O   UNL     1       9.074 -24.134 -53.341  1.00  0.00    -0.294 OA
BRANCH  26  29
ATOM     29  C   UNL     1       5.080 -23.067 -50.867  1.00  0.00    -0.003 A 
ATOM     30  C   UNL     1       4.451 -23.782 -49.835  1.00  0.00     0.011 A 
ATOM     31  C   UNL     1       4.290 -22.283 -51.726  1.00  0.00     0.058 A 
ATOM     32  C   UNL     1       3.064 -23.732 -49.678  1.00  0.00     0.051 A 
ATOM     33  C   UNL     1       2.907 -22.226 -51.558  1.00  0.00     0.161 A 
ATOM     34  C   UNL     1       2.291 -22.968 -50.548  1.00  0.00     0.161 A 
ATOM     35  O   UNL     1       2.215 -21.421 -52.428  1.00  0.00    -0.486 OA
ATOM     36  O   UNL     1       0.935 -22.986 -50.347  1.00  0.00    -0.486 OA
ATOM     37  C   UNL     1       0.884 -21.173 -51.962  1.00  0.00     0.271 C 
ATOM     38  C   UNL     1       0.234 -22.459 -51.480  1.00  0.00     0.271 C 
ENDBRANCH  26  29
ENDBRANCH  17  18
ENDBRANCH   1  17
TORSDOF 13
ENDMDL
MODEL 4
REMARK VINA RESULT:    -7.374      2.817      5.967
REMARK INTER + INTRA:         -13.254
REMARK INTER:                 -12.649
REMARK INTRA:                  -0.605
REMARK UNBOUND:                -1.138
REMARK SMILES C[C@@H](O)[C@@H](O)[C@@H](O)[C@@H](OCCO)Oc1ccc2c(c1)O[C@H](c1ccc3c(c1)OCCO3)CC2=O
REMARK SMILES IDX 8 1 6 2 4 3 2 4 1 5 3 6 5 8 7 10 9 12 10 13 11 14 12 15
REMARK SMILES IDX 13 17 14 18 15 19 19 20 16 21 18 22 17 23 20 24 33 25 21 26
REMARK SMILES IDX 32 27 34 28 22 29 23 30 27 31 24 32 26 33 25 34 28 35 31 36
REMARK SMILES IDX 29 37 30 38
REMARK H PARENT 3 7 5 9 7 11 12 16
ROOT
ATOM      1  C   UNL     1      14.342 -18.718 -52.559  1.00  0.00     0.339 C 
ENDROOT
BRANCH   1   2
ATOM      2  C   UNL     1      15.052 -17.379 -52.915  1.00  0.00     0.214 C 
BRANCH   2   3
ATOM      3  C   UNL     1      16.575 -17.325 -52.692  1.00  0.00     0.177 C 
BRANCH   3   4
ATOM      4  C   UNL     1      17.328 -16.382 -53.654  1.00  0.00     0.142 C 
ATOM      5  C   UNL     1      17.952 -15.149 -53.018  1.00  0.00     0.041 C 
BRANCH   4   6
ATOM      6  O   UNL     1      18.394 -17.123 -54.264  1.00  0.00    -0.391 OA
ATOM      7  H   UNL     1      18.122 -17.244 -55.198  1.00  0.00     0.211 HD
ENDBRANCH   4   6
ENDBRANCH   3   4
BRANCH   3   8
ATOM      8  O   UNL     1      16.925 -16.972 -51.345  1.00  0.00    -0.387 OA
ATOM      9  H   UNL     1      16.468 -17.623 -50.773  1.00  0.00     0.211 HD
ENDBRANCH   3   8
ENDBRANCH   2   3
BRANCH   2  10
ATOM     10  O   UNL     1      14.812 -17.095 -54.316  1.00  0.00    -0.384 OA
ATOM     11  H   UNL     1      15.636 -17.355 -54.778  1.00  0.00     0.211 HD
ENDBRANCH   2  10
ENDBRANCH   1   2
BRANCH   1  12
ATOM     12  O   UNL     1      15.411 -19.686 -52.523  1.00  0.00    -0.338 OA
BRANCH  12  13
ATOM     13  C   UNL     1      15.742 -20.210 -53.812  1.00  0.00     0.193 C 
BRANCH  13  14
ATOM     14  C   UNL     1      17.260 -20.349 -53.917  1.00  0.00     0.184 C 
BRANCH  14  15
ATOM     15  O   UNL     1      17.698 -21.482 -53.172  1.00  0.00    -0.394 OA
ATOM     16  H   UNL     1      16.958 -21.756 -52.604  1.00  0.00     0.210 HD
ENDBRANCH  14  15
ENDBRANCH  13  14
ENDBRANCH  12  13
ENDBRANCH   1  12
BRANCH   1  17
ATOM     17  O   UNL     1      13.744 -18.588 -51.261  1.00  0.00    -0.462 OA
BRANCH  17  18
ATOM     18  C   UNL     1      13.480 -19.728 -50.557  1.00  0.00     0.126 A 
ATOM     19  C   UNL     1      12.602 -20.621 -51.180  1.00  0.00     0.047 A 
ATOM     20  C   UNL     1      14.063 -20.069 -49.337  1.00  0.00     0.093 A 
ATOM     21  C   UNL     1      12.279 -21.837 -50.574  1.00  0.00     0.019 A 
ATOM     22  C   UNL     1      13.727 -21.275 -48.718  1.00  0.00     0.134 A 
ATOM     23  C   UNL     1      12.850 -22.162 -49.343  1.00  0.00     0.060 A 
ATOM     24  O   UNL     1      14.328 -21.529 -47.514  1.00  0.00    -0.484 OA
ATOM     25  C   UNL     1      12.580 -23.465 -48.704  1.00  0.00     0.170 C 
ATOM     26  C   UNL     1      13.609 -22.485 -46.714  1.00  0.00     0.211 C 
ATOM     27  C   UNL     1      13.385 -23.783 -47.478  1.00  0.00     0.131 C 
ATOM     28  O   UNL     1      11.776 -24.252 -49.191  1.00  0.00    -0.294 OA
BRANCH  26  29
ATOM     29  C   UNL     1      14.394 -22.739 -45.441  1.00  0.00    -0.003 A 
ATOM     30  C   UNL     1      15.701 -22.242 -45.308  1.00  0.00     0.011 A 
ATOM     31  C   UNL     1      13.823 -23.435 -44.361  1.00  0.00     0.058 A 
ATOM     32  C   UNL     1      16.429 -22.455 -44.134  1.00  0.00     0.051 A 
ATOM     33  C   UNL     1      14.547 -23.635 -43.186  1.00  0.00     0.161 A 
ATOM     34  C   UNL     1      15.858 -23.165 -43.081  1.00  0.00     0.161 A 
ATOM     35  O   UNL     1      13.906 -24.307 -42.176  1.00  0.00    -0.486 OA
ATOM     36  O   UNL     1      16.639 -23.355 -41.970  1.00  0.00    -0.486 OA
ATOM     37  C   UNL     1      14.596 -24.158 -40.930  1.00  0.00     0.271 C 
ATOM     38  C   UNL     1      16.090 -24.364 -41.115  1.00  0.00     0.271 C 
ENDBRANCH  26  29
ENDBRANCH  17  18
ENDBRANCH   1  17
TORSDOF 13
ENDMDL
MODEL 5
REMARK VINA RESULT:    -7.276      2.368      4.480
REMARK INTER + INTRA:         -13.093
REMARK INTER:                 -11.080
REMARK INTRA:                  -2.013
REMARK UNBOUND:                -1.138
REMARK SMILES C[C@@H](O)[C@@H](O)[C@@H](O)[C@@H](OCCO)Oc1ccc2c(c1)O[C@H](c1ccc3c(c1)OCCO3)CC2=O
REMARK SMILES IDX 8 1 6 2 4 3 2 4 1 5 3 6 5 8 7 10 9 12 10 13 11 14 12 15
REMARK SMILES IDX 13 17 14 18 15 19 19 20 16 21 18 22 17 23 20 24 33 25 21 26
REMARK SMILES IDX 32 27 34 28 22 29 23 30 27 31 24 32 26 33 25 34 28 35 31 36
REMARK SMILES IDX 29 37 30 38
REMARK H PARENT 3 7 5 9 7 11 12 16
ROOT
ATOM      1  C   UNL     1       8.320 -24.657 -50.043  1.00  0.00     0.339 C 
ENDROOT
BRANCH   1   2
ATOM      2  C   UNL     1       7.014 -24.574 -49.198  1.00  0.00     0.214 C 
BRANCH   2   3
ATOM      3  C   UNL     1       5.793 -23.927 -49.878  1.00  0.00     0.177 C 
BRANCH   3   4
ATOM      4  C   UNL     1       4.539 -23.834 -48.982  1.00  0.00     0.142 C 
ATOM      5  C   UNL     1       3.582 -22.695 -49.301  1.00  0.00     0.041 C 
BRANCH   4   6
ATOM      6  O   UNL     1       3.799 -25.054 -49.120  1.00  0.00    -0.391 OA
ATOM      7  H   UNL     1       4.417 -25.683 -49.547  1.00  0.00     0.211 HD
ENDBRANCH   4   6
ENDBRANCH   3   4
BRANCH   3   8
ATOM      8  O   UNL     1       6.077 -22.620 -50.399  1.00  0.00    -0.387 OA
ATOM      9  H   UNL     1       6.890 -22.719 -50.935  1.00  0.00     0.211 HD
ENDBRANCH   3   8
ENDBRANCH   2   3
BRANCH   2  10
ATOM     10  O   UNL     1       6.632 -25.921 -48.818  1.00  0.00    -0.384 OA
ATOM     11  H   UNL     1       7.476 -26.397 -48.671  1.00  0.00     0.211 HD
ENDBRANCH   2  10
ENDBRANCH   1   2
BRANCH   1  12
ATOM     12  O   UNL     1       7.876 -25.118 -51.336  1.00  0.00    -0.338 OA
BRANCH  12  13
ATOM     13  C   UNL     1       8.700 -24.661 -52.411  1.00  0.00     0.193 C 
BRANCH  13  14
ATOM     14  C   UNL     1       7.832 -23.907 -53.417  1.00  0.00     0.184 C 
BRANCH  14  15
ATOM     15  O   UNL     1       7.299 -22.729 -52.815  1.00  0.00    -0.394 OA
ATOM     16  H   UNL     1       7.366 -22.845 -51.851  1.00  0.00     0.210 HD
ENDBRANCH  14  15
ENDBRANCH  13  14
ENDBRANCH  12  13
ENDBRANCH   1  12
BRANCH   1  17
ATOM     17  O   UNL     1       8.880 -23.340 -50.149  1.00  0.00    -0.462 OA
BRANCH  17  18
ATOM     18  C   UNL     1      10.102 -23.113 -49.583  1.00  0.00     0.126 A 
ATOM     19  C   UNL     1      11.046 -22.517 -50.425  1.00  0.00     0.047 A 
ATOM     20  C   UNL     1      10.428 -23.368 -48.252  1.00  0.00     0.093 A 
ATOM     21  C   UNL     1      12.322 -22.204 -49.953  1.00  0.00     0.019 A 
ATOM     22  C   UNL     1      11.709 -23.076 -47.780  1.00  0.00     0.134 A 
ATOM     23  C   UNL     1      12.647 -22.482 -48.625  1.00  0.00     0.060 A 
ATOM     24  O   UNL     1      11.957 -23.372 -46.466  1.00  0.00    -0.484 OA
ATOM     25  C   UNL     1      13.965 -22.109 -48.075  1.00  0.00     0.170 C 
ATOM     26  C   UNL     1      13.357 -23.522 -46.174  1.00  0.00     0.211 C 
ATOM     27  C   UNL     1      14.142 -22.287 -46.595  1.00  0.00     0.131 C 
ATOM     28  O   UNL     1      14.838 -21.633 -48.793  1.00  0.00    -0.294 OA
BRANCH  26  29
ATOM     29  C   UNL     1      13.519 -23.781 -44.688  1.00  0.00    -0.003 A 
ATOM     30  C   UNL     1      12.386 -23.987 -43.883  1.00  0.00     0.011 A 
ATOM     31  C   UNL     1      14.792 -23.859 -44.097  1.00  0.00     0.058 A 
ATOM     32  C   UNL     1      12.521 -24.243 -42.516  1.00  0.00     0.051 A 
ATOM     33  C   UNL     1      14.924 -24.127 -42.734  1.00  0.00     0.161 A 
ATOM     34  C   UNL     1      13.788 -24.296 -41.939  1.00  0.00     0.161 A 
ATOM     35  O   UNL     1      16.203 -24.205 -42.245  1.00  0.00    -0.486 OA
ATOM     36  O   UNL     1      13.842 -24.528 -40.589  1.00  0.00    -0.486 OA
ATOM     37  C   UNL     1      16.228 -24.809 -40.946  1.00  0.00     0.271 C 
ATOM     38  C   UNL     1      15.139 -24.226 -40.061  1.00  0.00     0.271 C 
ENDBRANCH  26  29
ENDBRANCH  17  18
ENDBRANCH   1  17
TORSDOF 13
ENDMDL
MODEL 6
REMARK VINA RESULT:    -7.270      1.748      2.966
REMARK INTER + INTRA:         -13.082
REMARK INTER:                 -11.761
REMARK INTRA:                  -1.321
REMARK UNBOUND:                -1.138
REMARK SMILES C[C@@H](O)[C@@H](O)[C@@H](O)[C@@H](OCCO)Oc1ccc2c(c1)O[C@H](c1ccc3c(c1)OCCO3)CC2=O
REMARK SMILES IDX 8 1 6 2 4 3 2 4 1 5 3 6 5 8 7 10 9 12 10 13 11 14 12 15
REMARK SMILES IDX 13 17 14 18 15 19 19 20 16 21 18 22 17 23 20 24 33 25 21 26
REMARK SMILES IDX 32 27 34 28 22 29 23 30 27 31 24 32 26 33 25 34 28 35 31 36
REMARK SMILES IDX 29 37 30 38
REMARK H PARENT 3 7 5 9 7 11 12 16
ROOT
ATOM      1  C   UNL     1      10.510 -23.313 -50.391  1.00  0.00     0.339 C 
ENDROOT
BRANCH   1   2
ATOM      2  C   UNL     1       8.971 -23.291 -50.628  1.00  0.00     0.214 C 
BRANCH   2   3
ATOM      3  C   UNL     1       8.088 -23.801 -49.473  1.00  0.00     0.177 C 
BRANCH   3   4
ATOM      4  C   UNL     1       7.820 -25.321 -49.499  1.00  0.00     0.142 C 
ATOM      5  C   UNL     1       8.927 -26.198 -48.935  1.00  0.00     0.041 C 
BRANCH   4   6
ATOM      6  O   UNL     1       6.643 -25.581 -48.720  1.00  0.00    -0.391 OA
ATOM      7  H   UNL     1       6.003 -24.888 -48.984  1.00  0.00     0.211 HD
ENDBRANCH   4   6
ENDBRANCH   3   4
BRANCH   3   8
ATOM      8  O   UNL     1       8.611 -23.455 -48.182  1.00  0.00    -0.387 OA
ATOM      9  H   UNL     1       9.580 -23.582 -48.245  1.00  0.00     0.211 HD
ENDBRANCH   3   8
ENDBRANCH   2   3
BRANCH   2  10
ATOM     10  O   UNL     1       8.573 -21.924 -50.903  1.00  0.00    -0.384 OA
ATOM     11  H   UNL     1       8.752 -21.430 -50.076  1.00  0.00     0.211 HD
ENDBRANCH   2  10
ENDBRANCH   1   2
BRANCH   1  12
ATOM     12  O   UNL     1      11.073 -23.178 -51.713  1.00  0.00    -0.338 OA
BRANCH  12  13
ATOM     13  C   UNL     1      11.127 -24.412 -52.432  1.00  0.00     0.193 C 
BRANCH  13  14
ATOM     14  C   UNL     1      10.768 -24.152 -53.894  1.00  0.00     0.184 C 
BRANCH  14  15
ATOM     15  O   UNL     1       9.357 -24.242 -54.073  1.00  0.00    -0.394 OA
ATOM     16  H   UNL     1       9.202 -24.540 -54.985  1.00  0.00     0.210 HD
ENDBRANCH  14  15
ENDBRANCH  13  14
ENDBRANCH  12  13
ENDBRANCH   1  12
BRANCH   1  17
ATOM     17  O   UNL     1      10.864 -22.182 -49.582  1.00  0.00    -0.462 OA
BRANCH  17  18
ATOM     18  C   UNL     1      11.955 -22.289 -48.767  1.00  0.00     0.126 A 
ATOM     19  C   UNL     1      13.166 -21.886 -49.339  1.00  0.00     0.047 A 
ATOM     20  C   UNL     1      11.921 -22.694 -47.434  1.00  0.00     0.093 A 
ATOM     21  C   UNL     1      14.347 -21.918 -48.595  1.00  0.00     0.019 A 
ATOM     22  C   UNL     1      13.103 -22.747 -46.692  1.00  0.00     0.134 A 
ATOM     23  C   UNL     1      14.309 -22.346 -47.268  1.00  0.00     0.060 A 
ATOM     24  O   UNL     1      12.990 -23.172 -45.395  1.00  0.00    -0.484 OA
ATOM     25  C   UNL     1      15.527 -22.333 -46.434  1.00  0.00     0.170 C 
ATOM     26  C   UNL     1      14.226 -23.672 -44.854  1.00  0.00     0.211 C 
ATOM     27  C   UNL     1      15.337 -22.638 -44.976  1.00  0.00     0.131 C 
ATOM     28  O   UNL     1      16.617 -22.039 -46.912  1.00  0.00    -0.294 OA
BRANCH  26  29
ATOM     29  C   UNL     1      14.002 -24.050 -43.402  1.00  0.00    -0.003 A 
ATOM     30  C   UNL     1      12.771 -24.595 -42.999  1.00  0.00     0.011 A 
ATOM     31  C   UNL     1      15.022 -23.904 -42.446  1.00  0.00     0.058 A 
ATOM     32  C   UNL     1      12.558 -24.963 -41.668  1.00  0.00     0.051 A 
ATOM     33  C   UNL     1      14.810 -24.285 -41.121  1.00  0.00     0.161 A 
ATOM     34  C   UNL     1      13.570 -24.793 -40.727  1.00  0.00     0.161 A 
ATOM     35  O   UNL     1      15.866 -24.126 -40.260  1.00  0.00    -0.486 OA
ATOM     36  O   UNL     1      13.281 -25.155 -39.437  1.00  0.00    -0.486 OA
ATOM     37  C   UNL     1      15.658 -24.849 -39.041  1.00  0.00     0.271 C 
ATOM     38  C   UNL     1      14.247 -24.629 -38.519  1.00  0.00     0.271 C 
ENDBRANCH  26  29
ENDBRANCH  17  18
ENDBRANCH   1  17
TORSDOF 13
ENDMDL
MODEL 7
REMARK VINA RESULT:    -7.181      3.564      7.363
REMARK INTER + INTRA:         -12.936
REMARK INTER:                 -11.131
REMARK INTRA:                  -1.805
REMARK UNBOUND:                -1.138
REMARK SMILES C[C@@H](O)[C@@H](O)[C@@H](O)[C@@H](OCCO)Oc1ccc2c(c1)O[C@H](c1ccc3c(c1)OCCO3)CC2=O
REMARK SMILES IDX 8 1 6 2 4 3 2 4 1 5 3 6 5 8 7 10 9 12 10 13 11 14 12 15
REMARK SMILES IDX 13 17 14 18 15 19 19 20 16 21 18 22 17 23 20 24 33 25 21 26
REMARK SMILES IDX 32 27 34 28 22 29 23 30 27 31 24 32 26 33 25 34 28 35 31 36
REMARK SMILES IDX 29 37 30 38
REMARK H PARENT 3 7 5 9 7 11 12 16
ROOT
ATOM      1  C   UNL     1       5.032 -23.359 -50.468  1.00  0.00     0.339 C 
ENDROOT
BRANCH   1   2
ATOM      2  C   UNL     1       3.917 -24.248 -51.096  1.00  0.00     0.214 C 
BRANCH   2   3
ATOM      3  C   UNL     1       2.749 -23.511 -51.776  1.00  0.00     0.177 C 
BRANCH   3   4
ATOM      4  C   UNL     1       1.381 -23.712 -51.088  1.00  0.00     0.142 C 
ATOM      5  C   UNL     1       1.208 -25.021 -50.333  1.00  0.00     0.041 C 
BRANCH   4   6
ATOM      6  O   UNL     1       1.198 -22.653 -50.138  1.00  0.00    -0.391 OA
ATOM      7  H   UNL     1       1.211 -21.828 -50.667  1.00  0.00     0.211 HD
ENDBRANCH   4   6
ENDBRANCH   3   4
BRANCH   3   8
ATOM      8  O   UNL     1       2.986 -22.101 -51.910  1.00  0.00    -0.387 OA
ATOM      9  H   UNL     1       2.837 -21.896 -52.856  1.00  0.00     0.211 HD
ENDBRANCH   3   8
ENDBRANCH   2   3
BRANCH   2  10
ATOM     10  O   UNL     1       4.528 -25.103 -52.095  1.00  0.00    -0.384 OA
ATOM     11  H   UNL     1       3.948 -25.892 -52.150  1.00  0.00     0.211 HD
ENDBRANCH   2  10
ENDBRANCH   1   2
BRANCH   1  12
ATOM     12  O   UNL     1       4.336 -22.557 -49.492  1.00  0.00    -0.338 OA
BRANCH  12  13
ATOM     13  C   UNL     1       3.971 -23.286 -48.318  1.00  0.00     0.193 C 
BRANCH  13  14
ATOM     14  C   UNL     1       3.172 -22.371 -47.392  1.00  0.00     0.184 C 
BRANCH  14  15
ATOM     15  O   UNL     1       1.860 -22.895 -47.202  1.00  0.00    -0.394 OA
ATOM     16  H   UNL     1       1.944 -23.861 -47.131  1.00  0.00     0.210 HD
ENDBRANCH  14  15
ENDBRANCH  13  14
ENDBRANCH  12  13
ENDBRANCH   1  12
BRANCH   1  17
ATOM     17  O   UNL     1       5.987 -24.213 -49.821  1.00  0.00    -0.462 OA
BRANCH  17  18
ATOM     18  C   UNL     1       7.308 -23.878 -49.901  1.00  0.00     0.126 A 
ATOM     19  C   UNL     1       7.752 -23.509 -51.175  1.00  0.00     0.047 A 
ATOM     20  C   UNL     1       8.186 -23.819 -48.820  1.00  0.00     0.093 A 
ATOM     21  C   UNL     1       9.076 -23.113 -51.378  1.00  0.00     0.019 A 
ATOM     22  C   UNL     1       9.515 -23.443 -49.021  1.00  0.00     0.134 A 
ATOM     23  C   UNL     1       9.953 -23.077 -50.295  1.00  0.00     0.060 A 
ATOM     24  O   UNL     1      10.319 -23.427 -47.913  1.00  0.00    -0.484 OA
ATOM     25  C   UNL     1      11.342 -22.605 -50.461  1.00  0.00     0.170 C 
ATOM     26  C   UNL     1      11.719 -23.526 -48.227  1.00  0.00     0.211 C 
ATOM     27  C   UNL     1      12.141 -22.435 -49.202  1.00  0.00     0.131 C 
ATOM     28  O   UNL     1      11.784 -22.323 -51.569  1.00  0.00    -0.294 OA
BRANCH  26  29
ATOM     29  C   UNL     1      12.514 -23.432 -46.939  1.00  0.00    -0.003 A 
ATOM     30  C   UNL     1      11.983 -23.948 -45.745  1.00  0.00     0.011 A 
ATOM     31  C   UNL     1      13.802 -22.869 -46.917  1.00  0.00     0.058 A 
ATOM     32  C   UNL     1      12.712 -23.883 -44.554  1.00  0.00     0.051 A 
ATOM     33  C   UNL     1      14.532 -22.817 -45.730  1.00  0.00     0.161 A 
ATOM     34  C   UNL     1      13.978 -23.304 -44.544  1.00  0.00     0.161 A 
ATOM     35  O   UNL     1      15.788 -22.270 -45.804  1.00  0.00    -0.486 OA
ATOM     36  O   UNL     1      14.624 -23.254 -43.336  1.00  0.00    -0.486 OA
ATOM     37  C   UNL     1      16.559 -22.573 -44.636  1.00  0.00     0.271 C 
ATOM     38  C   UNL     1      15.736 -22.353 -43.376  1.00  0.00     0.271 C 
ENDBRANCH  26  29
ENDBRANCH  17  18
ENDBRANCH   1  17
TORSDOF 13
ENDMDL
MODEL 8
REMARK VINA RESULT:    -7.141      2.445      9.576
REMARK INTER + INTRA:         -12.871
REMARK INTER:                 -11.727
REMARK INTRA:                  -1.144
REMARK UNBOUND:                -1.138
REMARK SMILES C[C@@H](O)[C@@H](O)[C@@H](O)[C@@H](OCCO)Oc1ccc2c(c1)O[C@H](c1ccc3c(c1)OCCO3)CC2=O
REMARK SMILES IDX 8 1 6 2 4 3 2 4 1 5 3 6 5 8 7 10 9 12 10 13 11 14 12 15
REMARK SMILES IDX 13 17 14 18 15 19 19 20 16 21 18 22 17 23 20 24 33 25 21 26
REMARK SMILES IDX 32 27 34 28 22 29 23 30 27 31 24 32 26 33 25 34 28 35 31 36
REMARK SMILES IDX 29 37 30 38
REMARK H PARENT 3 7 5 9 7 11 12 16
ROOT
ATOM      1  C   UNL     1      15.452 -25.062 -44.307  1.00  0.00     0.339 C 
ENDROOT
BRANCH   1   2
ATOM      2  C   UNL     1      16.657 -25.028 -43.322  1.00  0.00     0.214 C 
BRANCH   2   3
ATOM      3  C   UNL     1      17.983 -24.469 -43.872  1.00  0.00     0.177 C 
BRANCH   3   4
ATOM      4  C   UNL     1      18.230 -22.980 -43.551  1.00  0.00     0.142 C 
ATOM      5  C   UNL     1      19.391 -22.329 -44.288  1.00  0.00     0.041 C 
BRANCH   4   6
ATOM      6  O   UNL     1      17.048 -22.245 -43.901  1.00  0.00    -0.391 OA
ATOM      7  H   UNL     1      16.604 -22.053 -43.049  1.00  0.00     0.211 HD
ENDBRANCH   4   6
ENDBRANCH   3   4
BRANCH   3   8
ATOM      8  O   UNL     1      19.124 -25.223 -43.437  1.00  0.00    -0.387 OA
ATOM      9  H   UNL     1      19.406 -24.813 -42.593  1.00  0.00     0.211 HD
ENDBRANCH   3   8
ENDBRANCH   2   3
BRANCH   2  10
ATOM     10  O   UNL     1      16.288 -24.213 -42.180  1.00  0.00    -0.384 OA
ATOM     11  H   UNL     1      15.324 -24.061 -42.271  1.00  0.00     0.211 HD
ENDBRANCH   2  10
ENDBRANCH   1   2
BRANCH   1  12
ATOM     12  O   UNL     1      14.616 -23.966 -43.880  1.00  0.00    -0.338 OA
BRANCH  12  13
ATOM     13  C   UNL     1      13.365 -24.390 -43.333  1.00  0.00     0.193 C 
BRANCH  13  14
ATOM     14  C   UNL     1      12.234 -23.877 -44.224  1.00  0.00     0.184 C 
BRANCH  14  15
ATOM     15  O   UNL     1      11.151 -23.415 -43.420  1.00  0.00    -0.394 OA
ATOM     16  H   UNL     1      11.337 -22.487 -43.196  1.00  0.00     0.210 HD
ENDBRANCH  14  15
ENDBRANCH  13  14
ENDBRANCH  12  13
ENDBRANCH   1  12
BRANCH   1  17
ATOM     17  O   UNL     1      15.940 -24.826 -45.635  1.00  0.00    -0.462 OA
BRANCH  17  18
ATOM     18  C   UNL     1      15.205 -24.023 -46.459  1.00  0.00     0.126 A 
ATOM     19  C   UNL     1      15.829 -22.832 -46.842  1.00  0.00     0.047 A 
ATOM     20  C   UNL     1      13.948 -24.341 -46.973  1.00  0.00     0.093 A 
ATOM     21  C   UNL     1      15.191 -21.943 -47.710  1.00  0.00     0.019 A 
ATOM     22  C   UNL     1      13.297 -23.446 -47.824  1.00  0.00     0.134 A 
ATOM     23  C   UNL     1      13.924 -22.258 -48.202  1.00  0.00     0.060 A 
ATOM     24  O   UNL     1      12.058 -23.821 -48.272  1.00  0.00    -0.484 OA
ATOM     25  C   UNL     1      13.247 -21.372 -49.169  1.00  0.00     0.170 C 
ATOM     26  C   UNL     1      11.254 -22.711 -48.708  1.00  0.00     0.211 C 
ATOM     27  C   UNL     1      11.975 -21.894 -49.771  1.00  0.00     0.131 C 
ATOM     28  O   UNL     1      13.737 -20.294 -49.489  1.00  0.00    -0.294 OA
BRANCH  26  29
ATOM     29  C   UNL     1       9.938 -23.246 -49.241  1.00  0.00    -0.003 A 
ATOM     30  C   UNL     1       9.025 -23.865 -48.371  1.00  0.00     0.011 A 
ATOM     31  C   UNL     1       9.589 -23.100 -50.595  1.00  0.00     0.058 A 
ATOM     32  C   UNL     1       7.803 -24.347 -48.846  1.00  0.00     0.051 A 
ATOM     33  C   UNL     1       8.362 -23.570 -51.064  1.00  0.00     0.161 A 
ATOM     34  C   UNL     1       7.479 -24.214 -50.194  1.00  0.00     0.161 A 
ATOM     35  O   UNL     1       8.095 -23.369 -52.394  1.00  0.00    -0.486 OA
ATOM     36  O   UNL     1       6.273 -24.731 -50.593  1.00  0.00    -0.486 OA
ATOM     37  C   UNL     1       6.707 -23.574 -52.684  1.00  0.00     0.271 C 
ATOM     38  C   UNL     1       6.201 -24.844 -52.019  1.00  0.00     0.271 C 
ENDBRANCH  26  29
ENDBRANCH  17  18
ENDBRANCH   1  17
TORSDOF 13
ENDMDL
MODEL 9
REMARK VINA RESULT:    -7.083      2.097      4.209
REMARK INTER + INTRA:         -12.775
REMARK INTER:                 -11.490
REMARK INTRA:                  -1.285
REMARK UNBOUND:                -1.138
REMARK SMILES C[C@@H](O)[C@@H](O)[C@@H](O)[C@@H](OCCO)Oc1ccc2c(c1)O[C@H](c1ccc3c(c1)OCCO3)CC2=O
REMARK SMILES IDX 8 1 6 2 4 3 2 4 1 5 3 6 5 8 7 10 9 12 10 13 11 14 12 15
REMARK SMILES IDX 13 17 14 18 15 19 19 20 16 21 18 22 17 23 20 24 33 25 21 26
REMARK SMILES IDX 32 27 34 28 22 29 23 30 27 31 24 32 26 33 25 34 28 35 31 36
REMARK SMILES IDX 29 37 30 38
REMARK H PARENT 3 7 5 9 7 11 12 16
ROOT
ATOM      1  C   UNL     1       8.415 -23.840 -49.340  1.00  0.00     0.339 C 
ENDROOT
BRANCH   1   2
ATOM      2  C   UNL     1       8.015 -24.459 -50.712  1.00  0.00     0.214 C 
BRANCH   2   3
ATOM      3  C   UNL     1       7.901 -23.487 -51.901  1.00  0.00     0.177 C 
BRANCH   3   4
ATOM      4  C   UNL     1       7.118 -24.046 -53.109  1.00  0.00     0.142 C 
ATOM      5  C   UNL     1       5.620 -23.783 -53.104  1.00  0.00     0.041 C 
BRANCH   4   6
ATOM      6  O   UNL     1       7.645 -23.445 -54.300  1.00  0.00    -0.391 OA
ATOM      7  H   UNL     1       7.165 -23.873 -55.038  1.00  0.00     0.211 HD
ENDBRANCH   4   6
ENDBRANCH   3   4
BRANCH   3   8
ATOM      8  O   UNL     1       7.323 -22.226 -51.531  1.00  0.00    -0.387 OA
ATOM      9  H   UNL     1       6.374 -22.406 -51.370  1.00  0.00     0.211 HD
ENDBRANCH   3   8
ENDBRANCH   2   3
BRANCH   2  10
ATOM     10  O   UNL     1       9.007 -25.457 -51.066  1.00  0.00    -0.384 OA
ATOM     11  H   UNL     1       8.675 -26.298 -50.685  1.00  0.00     0.211 HD
ENDBRANCH   2  10
ENDBRANCH   1   2
BRANCH   1  12
ATOM     12  O   UNL     1       7.187 -23.838 -48.582  1.00  0.00    -0.338 OA
BRANCH  12  13
ATOM     13  C   UNL     1       6.153 -24.624 -49.180  1.00  0.00     0.193 C 
BRANCH  13  14
ATOM     14  C   UNL     1       4.833 -23.861 -49.088  1.00  0.00     0.184 C 
BRANCH  14  15
ATOM     15  O   UNL     1       4.905 -22.666 -49.861  1.00  0.00    -0.394 OA
ATOM     16  H   UNL     1       4.934 -22.931 -50.796  1.00  0.00     0.210 HD
ENDBRANCH  14  15
ENDBRANCH  13  14
ENDBRANCH  12  13
ENDBRANCH   1  12
BRANCH   1  17
ATOM     17  O   UNL     1       9.383 -24.696 -48.717  1.00  0.00    -0.462 OA
BRANCH  17  18
ATOM     18  C   UNL     1      10.604 -24.169 -48.406  1.00  0.00     0.126 A 
ATOM     19  C   UNL     1      11.233 -23.473 -49.444  1.00  0.00     0.047 A 
ATOM     20  C   UNL     1      11.203 -24.223 -47.148  1.00  0.00     0.093 A 
ATOM     21  C   UNL     1      12.470 -22.860 -49.239  1.00  0.00     0.019 A 
ATOM     22  C   UNL     1      12.450 -23.629 -46.944  1.00  0.00     0.134 A 
ATOM     23  C   UNL     1      13.073 -22.937 -47.983  1.00  0.00     0.060 A 
ATOM     24  O   UNL     1      12.980 -23.741 -45.687  1.00  0.00    -0.484 OA
ATOM     25  C   UNL     1      14.351 -22.249 -47.714  1.00  0.00     0.170 C 
ATOM     26  C   UNL     1      14.408 -23.570 -45.657  1.00  0.00     0.211 C 
ATOM     27  C   UNL     1      14.816 -22.245 -46.286  1.00  0.00     0.131 C 
ATOM     28  O   UNL     1      14.959 -21.674 -48.610  1.00  0.00    -0.294 OA
BRANCH  26  29
ATOM     29  C   UNL     1      14.877 -23.648 -44.216  1.00  0.00    -0.003 A 
ATOM     30  C   UNL     1      16.152 -23.174 -43.865  1.00  0.00     0.011 A 
ATOM     31  C   UNL     1      14.041 -24.152 -43.205  1.00  0.00     0.058 A 
ATOM     32  C   UNL     1      16.589 -23.224 -42.539  1.00  0.00     0.051 A 
ATOM     33  C   UNL     1      14.475 -24.189 -41.880  1.00  0.00     0.161 A 
ATOM     34  C   UNL     1      15.759 -23.746 -41.551  1.00  0.00     0.161 A 
ATOM     35  O   UNL     1      13.588 -24.678 -40.956  1.00  0.00    -0.486 OA
ATOM     36  O   UNL     1      16.264 -23.784 -40.277  1.00  0.00    -0.486 OA
ATOM     37  C   UNL     1      13.996 -24.358 -39.621  1.00  0.00     0.271 C 
ATOM     38  C   UNL     1      15.479 -24.634 -39.431  1.00  0.00     0.271 C 
ENDBRANCH  26  29
ENDBRANCH  17  18
ENDBRANCH   1  17
TORSDOF 13
ENDMDL
