REMARK SMILES CC(C)NS(=O)(=O)Cc1ccccc1CNC(=O)CCNC1=NS(=O)(=O)c2ccccc21
REMARK SMILES IDX 9 1 10 2 11 3 12 4 13 5 14 6 8 7 5 8 6 9 7 10 4 11 2 13 1 14
REMARK SMILES IDX 3 15 15 16 16 17 17 18 18 19 19 21 20 22 21 23 22 25 23 26
REMARK SMILES IDX 32 27 24 28 31 29 27 30 25 31 26 32 30 33 28 34 29 35
REMARK H PARENT 4 12 16 20 21 24
ROOT
ATOM      1  C   UNL     1       2.689   2.183   1.051  1.00  0.00    -0.027 A 
ATOM      2  C   UNL     1       3.528   2.948   1.883  1.00  0.00     0.005 A 
ATOM      3  C   UNL     1       3.447   4.340   1.903  1.00  0.00     0.000 A 
ATOM      4  C   UNL     1       2.525   4.992   1.095  1.00  0.00     0.000 A 
ATOM      5  C   UNL     1       1.686   4.253   0.262  1.00  0.00     0.006 A 
ATOM      6  C   UNL     1       1.759   2.848   0.219  1.00  0.00    -0.025 A 
ENDROOT
BRANCH   1   7
ATOM      7  C   UNL     1       2.833   0.678   1.075  1.00  0.00     0.189 C 
BRANCH   7   8
ATOM      8  S   UNL     1       4.193   0.193  -0.003  1.00  0.00     0.216 S 
ATOM      9  O   UNL     1       5.458   0.553   0.600  1.00  0.00    -0.212 OA
ATOM     10  O   UNL     1       3.874   0.540  -1.371  1.00  0.00    -0.212 OA
BRANCH   8  11
ATOM     11  N   UNL     1       4.066  -1.484   0.049  1.00  0.00    -0.212 NA
ATOM     12  H   UNL     1       4.058  -1.903  -0.883  1.00  0.00     0.141 HD
BRANCH  11  13
ATOM     13  C   UNL     1       4.711  -2.234   1.137  1.00  0.00     0.063 C 
ATOM     14  C   UNL     1       3.828  -3.433   1.470  1.00  0.00     0.025 C 
ATOM     15  C   UNL     1       6.096  -2.690   0.695  1.00  0.00     0.025 C 
ENDBRANCH  11  13
ENDBRANCH   8  11
ENDBRANCH   7   8
ENDBRANCH   1   7
BRANCH   6  16
ATOM     16  C   UNL     1       0.797   2.111  -0.682  1.00  0.00     0.152 C 
BRANCH  16  17
ATOM     17  N   UNL     1      -0.361   1.681   0.072  1.00  0.00    -0.352 N 
ATOM     18  C   UNL     1      -1.230   0.745  -0.443  1.00  0.00     0.222 C 
ATOM     19  O   UNL     1      -1.023   0.133  -1.486  1.00  0.00    -0.275 OA
ATOM     20  H   UNL     1      -0.699   2.307   0.792  1.00  0.00     0.163 HD
BRANCH  18  21
ATOM     21  C   UNL     1      -2.466   0.554   0.411  1.00  0.00     0.121 C 
BRANCH  21  22
ATOM     22  C   UNL     1      -3.384  -0.533  -0.140  1.00  0.00     0.124 C 
BRANCH  22  23
ATOM     23  N   UNL     1      -3.927  -0.183  -1.449  1.00  0.00    -0.368 N 
ATOM     24  H   UNL     1      -3.217  -0.253  -2.181  1.00  0.00     0.162 HD
BRANCH  23  25
ATOM     25  C   UNL     1      -4.930   0.726  -1.582  1.00  0.00     0.148 A 
ATOM     26  N   UNL     1      -5.703   1.153  -0.570  1.00  0.00    -0.141 NA
ATOM     27  C   UNL     1      -5.243   1.311  -2.935  1.00  0.00     0.038 A 
ATOM     28  S   UNL     1      -6.618   2.202  -1.270  1.00  0.00     0.285 S 
ATOM     29  C   UNL     1      -4.678   1.086  -4.216  1.00  0.00     0.013 A 
ATOM     30  C   UNL     1      -6.311   2.237  -2.851  1.00  0.00     0.100 A 
ATOM     31  O   UNL     1      -8.166   2.058  -0.868  1.00  0.00    -0.199 OA
ATOM     32  O   UNL     1      -6.258   3.644  -0.630  1.00  0.00    -0.199 OA
ATOM     33  C   UNL     1      -5.185   1.760  -5.335  1.00  0.00     0.001 A 
ATOM     34  C   UNL     1      -6.829   2.906  -3.967  1.00  0.00     0.023 A 
ATOM     35  C   UNL     1      -6.245   2.653  -5.211  1.00  0.00     0.001 A 
ENDBRANCH  23  25
ENDBRANCH  22  23
ENDBRANCH  21  22
ENDBRANCH  18  21
ENDBRANCH  16  17
ENDBRANCH   6  16
TORSDOF 10
