MODEL 1
REMARK VINA RESULT:    -5.694      0.000      0.000
REMARK INTER + INTRA:          -7.344
REMARK INTER:                  -7.191
REMARK INTRA:                  -0.152
REMARK UNBOUND:                -0.152
REMARK SMILES OCN1CC[C@@H]2N(CO)CC[C@H]3N(CO)CC[C@H]1N23
REMARK SMILES IDX 3 1 4 2 5 3 6 4 7 5 10 6 11 7 12 8 13 9 16 10 17 11 18 12
REMARK SMILES IDX 19 13 2 14 1 15 8 17 9 18 14 20 15 21
REMARK H PARENT 1 16 9 19 15 22
ROOT
ATOM      1  N   UNL     1      14.633 -24.862 -41.809  1.00  0.00    -0.265 NA
ATOM      2  C   UNL     1      15.736 -24.315 -41.028  1.00  0.00     0.091 C 
ATOM      3  C   UNL     1      16.452 -23.166 -41.724  1.00  0.00     0.051 C 
ATOM      4  C   UNL     1      16.914 -23.654 -43.093  1.00  0.00     0.132 C 
ATOM      5  N   UNL     1      17.734 -22.623 -43.758  1.00  0.00    -0.265 NA
ATOM      6  C   UNL     1      17.337 -22.387 -45.145  1.00  0.00     0.091 C 
ATOM      7  C   UNL     1      15.872 -22.001 -45.146  1.00  0.00     0.051 C 
ATOM      8  C   UNL     1      15.012 -23.176 -44.664  1.00  0.00     0.132 C 
ATOM      9  N   UNL     1      14.461 -23.890 -45.844  1.00  0.00    -0.265 NA
ATOM     10  C   UNL     1      14.175 -25.311 -45.571  1.00  0.00     0.091 C 
ATOM     11  C   UNL     1      13.784 -25.538 -44.113  1.00  0.00     0.051 C 
ATOM     12  C   UNL     1      14.966 -25.132 -43.212  1.00  0.00     0.132 C 
ATOM     13  N   UNL     1      15.779 -24.113 -43.870  1.00  0.00    -0.256 NA
ENDROOT
BRANCH   1  14
ATOM     14  C   UNL     1      13.353 -24.282 -41.470  1.00  0.00     0.245 C 
BRANCH  14  15
ATOM     15  O   UNL     1      13.090 -24.286 -40.084  1.00  0.00    -0.381 OA
ATOM     16  H   UNL     1      13.019 -23.355 -39.819  1.00  0.00     0.212 HD
ENDBRANCH  14  15
ENDBRANCH   1  14
BRANCH   5  17
ATOM     17  C   UNL     1      19.149 -22.958 -43.711  1.00  0.00     0.245 C 
BRANCH  17  18
ATOM     18  O   UNL     1      19.810 -22.369 -44.812  1.00  0.00    -0.381 OA
ATOM     19  H   UNL     1      20.262 -23.123 -45.228  1.00  0.00     0.212 HD
ENDBRANCH  17  18
ENDBRANCH   5  17
BRANCH   9  20
ATOM     20  C   UNL     1      13.267 -23.207 -46.333  1.00  0.00     0.245 C 
BRANCH  20  21
ATOM     21  O   UNL     1      12.672 -22.439 -45.300  1.00  0.00    -0.381 OA
ATOM     22  H   UNL     1      13.358 -21.832 -44.979  1.00  0.00     0.212 HD
ENDBRANCH  20  21
ENDBRANCH   9  20
TORSDOF 6
ENDMDL
MODEL 2
REMARK VINA RESULT:    -5.558      2.082      4.672
REMARK INTER + INTRA:          -7.172
REMARK INTER:                  -6.900
REMARK INTRA:                  -0.272
REMARK UNBOUND:                -0.152
REMARK SMILES OCN1CC[C@@H]2N(CO)CC[C@H]3N(CO)CC[C@H]1N23
REMARK SMILES IDX 3 1 4 2 5 3 6 4 7 5 10 6 11 7 12 8 13 9 16 10 17 11 18 12
REMARK SMILES IDX 19 13 2 14 1 15 8 17 9 18 14 20 15 21
REMARK H PARENT 1 16 9 19 15 22
ROOT
ATOM      1  N   UNL     1      12.571 -24.378 -44.263  1.00  0.00    -0.265 NA
ATOM      2  C   UNL     1      11.620 -24.243 -45.361  1.00  0.00     0.091 C 
ATOM      3  C   UNL     1      12.278 -23.864 -46.681  1.00  0.00     0.051 C 
ATOM      4  C   UNL     1      13.078 -22.584 -46.462  1.00  0.00     0.132 C 
ATOM      5  N   UNL     1      13.625 -22.094 -47.741  1.00  0.00    -0.265 NA
ATOM      6  C   UNL     1      15.043 -21.743 -47.657  1.00  0.00     0.091 C 
ATOM      7  C   UNL     1      15.793 -22.969 -47.176  1.00  0.00     0.051 C 
ATOM      8  C   UNL     1      15.369 -23.325 -45.746  1.00  0.00     0.132 C 
ATOM      9  N   UNL     1      16.367 -22.776 -44.793  1.00  0.00    -0.265 NA
ATOM     10  C   UNL     1      15.794 -22.499 -43.462  1.00  0.00     0.091 C 
ATOM     11  C   UNL     1      14.657 -23.459 -43.126  1.00  0.00     0.051 C 
ATOM     12  C   UNL     1      13.525 -23.269 -44.155  1.00  0.00     0.132 C 
ATOM     13  N   UNL     1      14.067 -22.783 -45.421  1.00  0.00    -0.256 NA
ENDROOT
BRANCH   1  14
ATOM     14  C   UNL     1      13.019 -25.737 -44.062  1.00  0.00     0.245 C 
BRANCH  14  15
ATOM     15  O   UNL     1      12.312 -26.411 -43.044  1.00  0.00    -0.381 OA
ATOM     16  H   UNL     1      12.889 -26.407 -42.264  1.00  0.00     0.212 HD
ENDBRANCH  14  15
ENDBRANCH   1  14
BRANCH   5  17
ATOM     17  C   UNL     1      12.874 -20.951 -48.240  1.00  0.00     0.245 C 
BRANCH  17  18
ATOM     18  O   UNL     1      12.635 -20.046 -47.183  1.00  0.00    -0.381 OA
ATOM     19  H   UNL     1      11.779 -20.342 -46.828  1.00  0.00     0.212 HD
ENDBRANCH  17  18
ENDBRANCH   5  17
BRANCH   9  20
ATOM     20  C   UNL     1      17.511 -23.676 -44.687  1.00  0.00     0.245 C 
BRANCH  20  21
ATOM     21  O   UNL     1      18.702 -23.020 -45.090  1.00  0.00    -0.381 OA
ATOM     22  H   UNL     1      19.079 -22.619 -44.291  1.00  0.00     0.212 HD
ENDBRANCH  20  21
ENDBRANCH   9  20
TORSDOF 6
ENDMDL
MODEL 3
REMARK VINA RESULT:    -5.542      1.513      4.993
REMARK INTER + INTRA:          -7.152
REMARK INTER:                  -6.983
REMARK INTRA:                  -0.169
REMARK UNBOUND:                -0.152
REMARK SMILES OCN1CC[C@@H]2N(CO)CC[C@H]3N(CO)CC[C@H]1N23
REMARK SMILES IDX 3 1 4 2 5 3 6 4 7 5 10 6 11 7 12 8 13 9 16 10 17 11 18 12
REMARK SMILES IDX 19 13 2 14 1 15 8 17 9 18 14 20 15 21
REMARK H PARENT 1 16 9 19 15 22
ROOT
ATOM      1  N   UNL     1      13.782 -23.105 -46.584  1.00  0.00    -0.265 NA
ATOM      2  C   UNL     1      12.595 -23.431 -45.802  1.00  0.00     0.091 C 
ATOM      3  C   UNL     1      12.851 -23.442 -44.301  1.00  0.00     0.051 C 
ATOM      4  C   UNL     1      13.998 -24.408 -44.022  1.00  0.00     0.132 C 
ATOM      5  N   UNL     1      14.199 -24.564 -42.569  1.00  0.00    -0.265 NA
ATOM      6  C   UNL     1      15.601 -24.441 -42.171  1.00  0.00     0.091 C 
ATOM      7  C   UNL     1      16.099 -23.092 -42.649  1.00  0.00     0.051 C 
ATOM      8  C   UNL     1      16.097 -23.037 -44.182  1.00  0.00     0.132 C 
ATOM      9  N   UNL     1      17.467 -23.324 -44.679  1.00  0.00    -0.265 NA
ATOM     10  C   UNL     1      17.473 -23.904 -46.035  1.00  0.00     0.091 C 
ATOM     11  C   UNL     1      16.296 -23.404 -46.868  1.00  0.00     0.051 C 
ATOM     12  C   UNL     1      14.984 -23.848 -46.191  1.00  0.00     0.132 C 
ATOM     13  N   UNL     1      15.183 -24.003 -44.753  1.00  0.00    -0.256 NA
ENDROOT
BRANCH   1  14
ATOM     14  C   UNL     1      13.878 -21.701 -46.914  1.00  0.00     0.245 C 
BRANCH  14  15
ATOM     15  O   UNL     1      12.658 -21.008 -46.758  1.00  0.00    -0.381 OA
ATOM     16  H   UNL     1      12.804 -20.359 -46.051  1.00  0.00     0.212 HD
ENDBRANCH  14  15
ENDBRANCH   1  14
BRANCH   5  17
ATOM     17  C   UNL     1      13.670 -25.832 -42.091  1.00  0.00     0.245 C 
BRANCH  17  18
ATOM     18  O   UNL     1      12.278 -25.717 -41.884  1.00  0.00    -0.381 OA
ATOM     19  H   UNL     1      12.195 -24.876 -41.402  1.00  0.00     0.212 HD
ENDBRANCH  17  18
ENDBRANCH   5  17
BRANCH   9  20
ATOM     20  C   UNL     1      18.284 -22.116 -44.628  1.00  0.00     0.245 C 
BRANCH  20  21
ATOM     21  O   UNL     1      19.639 -22.417 -44.921  1.00  0.00    -0.381 OA
ATOM     22  H   UNL     1      20.073 -21.571 -45.116  1.00  0.00     0.212 HD
ENDBRANCH  20  21
ENDBRANCH   9  20
TORSDOF 6
ENDMDL
MODEL 4
REMARK VINA RESULT:    -5.465      4.044      6.935
REMARK INTER + INTRA:          -7.055
REMARK INTER:                  -6.788
REMARK INTRA:                  -0.267
REMARK UNBOUND:                -0.152
REMARK SMILES OCN1CC[C@@H]2N(CO)CC[C@H]3N(CO)CC[C@H]1N23
REMARK SMILES IDX 3 1 4 2 5 3 6 4 7 5 10 6 11 7 12 8 13 9 16 10 17 11 18 12
REMARK SMILES IDX 19 13 2 14 1 15 8 17 9 18 14 20 15 21
REMARK H PARENT 1 16 9 19 15 22
ROOT
ATOM      1  N   UNL     1      12.288 -20.924 -49.005  1.00  0.00    -0.265 NA
ATOM      2  C   UNL     1      13.110 -20.506 -47.875  1.00  0.00     0.091 C 
ATOM      3  C   UNL     1      13.735 -21.674 -47.125  1.00  0.00     0.051 C 
ATOM      4  C   UNL     1      12.615 -22.615 -46.693  1.00  0.00     0.132 C 
ATOM      5  N   UNL     1      13.149 -23.696 -45.842  1.00  0.00    -0.265 NA
ATOM      6  C   UNL     1      12.680 -25.021 -46.243  1.00  0.00     0.091 C 
ATOM      7  C   UNL     1      13.067 -25.228 -47.693  1.00  0.00     0.051 C 
ATOM      8  C   UNL     1      12.318 -24.236 -48.591  1.00  0.00     0.132 C 
ATOM      9  N   UNL     1      11.133 -24.910 -49.178  1.00  0.00    -0.265 NA
ATOM     10  C   UNL     1      10.047 -23.971 -49.513  1.00  0.00     0.091 C 
ATOM     11  C   UNL     1      10.588 -22.597 -49.899  1.00  0.00     0.051 C 
ATOM     12  C   UNL     1      11.345 -22.004 -48.695  1.00  0.00     0.132 C 
ATOM     13  N   UNL     1      11.873 -23.074 -47.851  1.00  0.00    -0.256 NA
ENDROOT
BRANCH   1  14
ATOM     14  C   UNL     1      13.005 -20.931 -50.260  1.00  0.00     0.245 C 
BRANCH  14  15
ATOM     15  O   UNL     1      14.092 -20.032 -50.284  1.00  0.00    -0.381 OA
ATOM     16  H   UNL     1      14.750 -20.385 -49.663  1.00  0.00     0.212 HD
ENDBRANCH  14  15
ENDBRANCH   1  14
BRANCH   5  17
ATOM     17  C   UNL     1      12.831 -23.475 -44.439  1.00  0.00     0.245 C 
BRANCH  17  18
ATOM     18  O   UNL     1      11.430 -23.498 -44.263  1.00  0.00    -0.381 OA
ATOM     19  H   UNL     1      11.246 -22.638 -43.847  1.00  0.00     0.212 HD
ENDBRANCH  17  18
ENDBRANCH   5  17
BRANCH   9  20
ATOM     20  C   UNL     1      11.526 -25.687 -50.350  1.00  0.00     0.245 C 
BRANCH  20  21
ATOM     21  O   UNL     1      10.404 -25.945 -51.178  1.00  0.00    -0.381 OA
ATOM     22  H   UNL     1      10.445 -26.886 -51.411  1.00  0.00     0.212 HD
ENDBRANCH  20  21
ENDBRANCH   9  20
TORSDOF 6
ENDMDL
MODEL 5
REMARK VINA RESULT:    -5.258      1.540      5.077
REMARK INTER + INTRA:          -6.793
REMARK INTER:                  -6.623
REMARK INTRA:                  -0.170
REMARK UNBOUND:                -0.152
REMARK SMILES OCN1CC[C@@H]2N(CO)CC[C@H]3N(CO)CC[C@H]1N23
REMARK SMILES IDX 3 1 4 2 5 3 6 4 7 5 10 6 11 7 12 8 13 9 16 10 17 11 18 12
REMARK SMILES IDX 19 13 2 14 1 15 8 17 9 18 14 20 15 21
REMARK H PARENT 1 16 9 19 15 22
ROOT
ATOM      1  N   UNL     1      17.801 -23.361 -44.890  1.00  0.00    -0.265 NA
ATOM      2  C   UNL     1      17.002 -22.422 -45.669  1.00  0.00     0.091 C 
ATOM      3  C   UNL     1      15.618 -22.182 -45.082  1.00  0.00     0.051 C 
ATOM      4  C   UNL     1      14.924 -23.533 -44.933  1.00  0.00     0.132 C 
ATOM      5  N   UNL     1      13.527 -23.348 -44.496  1.00  0.00    -0.265 NA
ATOM      6  C   UNL     1      13.159 -24.223 -43.383  1.00  0.00     0.091 C 
ATOM      7  C   UNL     1      14.125 -23.954 -42.247  1.00  0.00     0.051 C 
ATOM      8  C   UNL     1      15.545 -24.371 -42.648  1.00  0.00     0.132 C 
ATOM      9  N   UNL     1      15.828 -25.722 -42.100  1.00  0.00    -0.265 NA
ATOM     10  C   UNL     1      16.829 -26.462 -42.891  1.00  0.00     0.091 C 
ATOM     11  C   UNL     1      17.839 -25.523 -43.545  1.00  0.00     0.051 C 
ATOM     12  C   UNL     1      17.092 -24.589 -44.518  1.00  0.00     0.132 C 
ATOM     13  N   UNL     1      15.709 -24.408 -44.086  1.00  0.00    -0.256 NA
ENDROOT
BRANCH   1  14
ATOM     14  C   UNL     1      18.671 -22.712 -43.935  1.00  0.00     0.245 C 
BRANCH  14  15
ATOM     15  O   UNL     1      19.377 -21.618 -44.480  1.00  0.00    -0.381 OA
ATOM     16  H   UNL     1      20.258 -21.952 -44.712  1.00  0.00     0.212 HD
ENDBRANCH  14  15
ENDBRANCH   1  14
BRANCH   5  17
ATOM     17  C   UNL     1      12.594 -23.547 -45.595  1.00  0.00     0.245 C 
BRANCH  17  18
ATOM     18  O   UNL     1      12.270 -22.300 -46.172  1.00  0.00    -0.381 OA
ATOM     19  H   UNL     1      11.341 -22.172 -45.915  1.00  0.00     0.212 HD
ENDBRANCH  17  18
ENDBRANCH   5  17
BRANCH   9  20
ATOM     20  C   UNL     1      16.242 -25.622 -40.704  1.00  0.00     0.245 C 
BRANCH  20  21
ATOM     21  O   UNL     1      16.788 -24.342 -40.435  1.00  0.00    -0.381 OA
ATOM     22  H   UNL     1      16.323 -23.717 -41.013  1.00  0.00     0.212 HD
ENDBRANCH  20  21
ENDBRANCH   9  20
TORSDOF 6
ENDMDL
MODEL 6
REMARK VINA RESULT:    -5.231      1.892      4.495
REMARK INTER + INTRA:          -6.759
REMARK INTER:                  -6.558
REMARK INTRA:                  -0.201
REMARK UNBOUND:                -0.152
REMARK SMILES OCN1CC[C@@H]2N(CO)CC[C@H]3N(CO)CC[C@H]1N23
REMARK SMILES IDX 3 1 4 2 5 3 6 4 7 5 10 6 11 7 12 8 13 9 16 10 17 11 18 12
REMARK SMILES IDX 19 13 2 14 1 15 8 17 9 18 14 20 15 21
REMARK H PARENT 1 16 9 19 15 22
ROOT
ATOM      1  N   UNL     1      14.583 -23.802 -42.079  1.00  0.00    -0.265 NA
ATOM      2  C   UNL     1      13.350 -24.567 -41.939  1.00  0.00     0.091 C 
ATOM      3  C   UNL     1      13.017 -25.399 -43.170  1.00  0.00     0.051 C 
ATOM      4  C   UNL     1      12.972 -24.466 -44.376  1.00  0.00     0.132 C 
ATOM      5  N   UNL     1      12.518 -25.196 -45.575  1.00  0.00    -0.265 NA
ATOM      6  C   UNL     1      13.362 -24.950 -46.744  1.00  0.00     0.091 C 
ATOM      7  C   UNL     1      14.781 -25.333 -46.377  1.00  0.00     0.051 C 
ATOM      8  C   UNL     1      15.316 -24.405 -45.279  1.00  0.00     0.132 C 
ATOM      9  N   UNL     1      16.140 -23.339 -45.902  1.00  0.00    -0.265 NA
ATOM     10  C   UNL     1      16.176 -22.101 -45.102  1.00  0.00     0.091 C 
ATOM     11  C   UNL     1      16.053 -22.391 -43.608  1.00  0.00     0.051 C 
ATOM     12  C   UNL     1      14.692 -23.064 -43.342  1.00  0.00     0.132 C 
ATOM     13  N   UNL     1      14.242 -23.786 -44.531  1.00  0.00    -0.256 NA
ENDROOT
BRANCH   1  14
ATOM     14  C   UNL     1      15.739 -24.480 -41.538  1.00  0.00     0.245 C 
BRANCH  14  15
ATOM     15  O   UNL     1      16.304 -23.817 -40.429  1.00  0.00    -0.381 OA
ATOM     16  H   UNL     1      16.602 -24.511 -39.820  1.00  0.00     0.212 HD
ENDBRANCH  14  15
ENDBRANCH   1  14
BRANCH   5  17
ATOM     17  C   UNL     1      11.137 -24.878 -45.902  1.00  0.00     0.245 C 
BRANCH  17  18
ATOM     18  O   UNL     1      11.098 -23.729 -46.723  1.00  0.00    -0.381 OA
ATOM     19  H   UNL     1      10.469 -23.979 -47.422  1.00  0.00     0.212 HD
ENDBRANCH  17  18
ENDBRANCH   5  17
BRANCH   9  20
ATOM     20  C   UNL     1      17.491 -23.831 -46.156  1.00  0.00     0.245 C 
BRANCH  20  21
ATOM     21  O   UNL     1      17.867 -24.785 -45.177  1.00  0.00    -0.381 OA
ATOM     22  H   UNL     1      17.418 -24.529 -44.355  1.00  0.00     0.212 HD
ENDBRANCH  20  21
ENDBRANCH   9  20
TORSDOF 6
ENDMDL
MODEL 7
REMARK VINA RESULT:    -5.196      2.179      5.308
REMARK INTER + INTRA:          -6.716
REMARK INTER:                  -6.535
REMARK INTRA:                  -0.181
REMARK UNBOUND:                -0.152
REMARK SMILES OCN1CC[C@@H]2N(CO)CC[C@H]3N(CO)CC[C@H]1N23
REMARK SMILES IDX 3 1 4 2 5 3 6 4 7 5 10 6 11 7 12 8 13 9 16 10 17 11 18 12
REMARK SMILES IDX 19 13 2 14 1 15 8 17 9 18 14 20 15 21
REMARK H PARENT 1 16 9 19 15 22
ROOT
ATOM      1  N   UNL     1      16.319 -23.060 -46.240  1.00  0.00    -0.265 NA
ATOM      2  C   UNL     1      15.590 -22.256 -47.215  1.00  0.00     0.091 C 
ATOM      3  C   UNL     1      14.114 -22.098 -46.877  1.00  0.00     0.051 C 
ATOM      4  C   UNL     1      13.510 -23.490 -46.725  1.00  0.00     0.132 C 
ATOM      5  N   UNL     1      12.050 -23.400 -46.532  1.00  0.00    -0.265 NA
ATOM      6  C   UNL     1      11.570 -24.219 -45.420  1.00  0.00     0.091 C 
ATOM      7  C   UNL     1      12.312 -23.784 -44.173  1.00  0.00     0.051 C 
ATOM      8  C   UNL     1      13.807 -24.100 -44.305  1.00  0.00     0.132 C 
ATOM      9  N   UNL     1      14.097 -25.377 -43.605  1.00  0.00    -0.265 NA
ATOM     10  C   UNL     1      15.268 -26.082 -44.159  1.00  0.00     0.091 C 
ATOM     11  C   UNL     1      16.297 -25.106 -44.723  1.00  0.00     0.051 C 
ATOM     12  C   UNL     1      15.654 -24.316 -45.880  1.00  0.00     0.132 C 
ATOM     13  N   UNL     1      14.208 -24.228 -45.690  1.00  0.00    -0.256 NA
ENDROOT
BRANCH   1  14
ATOM     14  C   UNL     1      16.967 -22.268 -45.219  1.00  0.00     0.245 C 
BRANCH  14  15
ATOM     15  O   UNL     1      16.056 -21.615 -44.362  1.00  0.00    -0.381 OA
ATOM     16  H   UNL     1      16.460 -20.761 -44.137  1.00  0.00     0.212 HD
ENDBRANCH  14  15
ENDBRANCH   1  14
BRANCH   5  17
ATOM     17  C   UNL     1      11.330 -23.761 -47.744  1.00  0.00     0.245 C 
BRANCH  17  18
ATOM     18  O   UNL     1      10.579 -22.653 -48.195  1.00  0.00    -0.381 OA
ATOM     19  H   UNL     1       9.810 -23.068 -48.623  1.00  0.00     0.212 HD
ENDBRANCH  17  18
ENDBRANCH   5  17
BRANCH   9  20
ATOM     20  C   UNL     1      14.265 -25.139 -42.175  1.00  0.00     0.245 C 
BRANCH  20  21
ATOM     21  O   UNL     1      14.892 -23.888 -41.946  1.00  0.00    -0.381 OA
ATOM     22  H   UNL     1      15.700 -24.073 -41.443  1.00  0.00     0.212 HD
ENDBRANCH  20  21
ENDBRANCH   9  20
TORSDOF 6
ENDMDL
MODEL 8
REMARK VINA RESULT:    -5.160     23.817     25.478
REMARK INTER + INTRA:          -6.670
REMARK INTER:                  -6.502
REMARK INTRA:                  -0.168
REMARK UNBOUND:                -0.152
REMARK SMILES OCN1CC[C@@H]2N(CO)CC[C@H]3N(CO)CC[C@H]1N23
REMARK SMILES IDX 3 1 4 2 5 3 6 4 7 5 10 6 11 7 12 8 13 9 16 10 17 11 18 12
REMARK SMILES IDX 19 13 2 14 1 15 8 17 9 18 14 20 15 21
REMARK H PARENT 1 16 9 19 15 22
ROOT
ATOM      1  N   UNL     1       0.188  -4.931 -30.463  1.00  0.00    -0.265 NA
ATOM      2  C   UNL     1      -0.765  -6.031 -30.375  1.00  0.00     0.091 C 
ATOM      3  C   UNL     1      -0.269  -7.308 -31.039  1.00  0.00     0.051 C 
ATOM      4  C   UNL     1       0.091  -6.983 -32.485  1.00  0.00     0.132 C 
ATOM      5  N   UNL     1       0.448  -8.213 -33.217  1.00  0.00    -0.265 NA
ATOM      6  C   UNL     1       1.685  -8.080 -33.986  1.00  0.00     0.091 C 
ATOM      7  C   UNL     1       2.785  -7.678 -33.024  1.00  0.00     0.051 C 
ATOM      8  C   UNL     1       2.504  -6.285 -32.447  1.00  0.00     0.132 C 
ATOM      9  N   UNL     1       3.286  -5.278 -33.208  1.00  0.00    -0.265 NA
ATOM     10  C   UNL     1       2.666  -3.940 -33.191  1.00  0.00     0.091 C 
ATOM     11  C   UNL     1       1.889  -3.694 -31.900  1.00  0.00     0.051 C 
ATOM     12  C   UNL     1       0.747  -4.725 -31.803  1.00  0.00     0.132 C 
ATOM     13  N   UNL     1       1.100  -5.943 -32.529  1.00  0.00    -0.256 NA
ENDROOT
BRANCH   1  14
ATOM     14  C   UNL     1       1.041  -4.823 -29.301  1.00  0.00     0.245 C 
BRANCH  14  15
ATOM     15  O   UNL     1       1.999  -5.856 -29.216  1.00  0.00    -0.381 OA
ATOM     16  H   UNL     1       1.524  -6.640 -28.898  1.00  0.00     0.212 HD
ENDBRANCH  14  15
ENDBRANCH   1  14
BRANCH   5  17
ATOM     17  C   UNL     1      -0.627  -8.639 -34.101  1.00  0.00     0.245 C 
BRANCH  17  18
ATOM     18  O   UNL     1      -0.120  -9.545 -35.057  1.00  0.00    -0.381 OA
ATOM     19  H   UNL     1       0.826  -9.325 -35.092  1.00  0.00     0.212 HD
ENDBRANCH  17  18
ENDBRANCH   5  17
BRANCH   9  20
ATOM     20  C   UNL     1       4.655  -5.220 -32.706  1.00  0.00     0.245 C 
BRANCH  20  21
ATOM     21  O   UNL     1       5.524  -4.672 -33.684  1.00  0.00    -0.381 OA
ATOM     22  H   UNL     1       5.091  -3.869 -34.017  1.00  0.00     0.212 HD
ENDBRANCH  20  21
ENDBRANCH   9  20
TORSDOF 6
ENDMDL
MODEL 9
REMARK VINA RESULT:    -5.100      4.138      7.318
REMARK INTER + INTRA:          -6.594
REMARK INTER:                  -6.358
REMARK INTRA:                  -0.236
REMARK UNBOUND:                -0.152
REMARK SMILES OCN1CC[C@@H]2N(CO)CC[C@H]3N(CO)CC[C@H]1N23
REMARK SMILES IDX 3 1 4 2 5 3 6 4 7 5 10 6 11 7 12 8 13 9 16 10 17 11 18 12
REMARK SMILES IDX 19 13 2 14 1 15 8 17 9 18 14 20 15 21
REMARK H PARENT 1 16 9 19 15 22
ROOT
ATOM      1  N   UNL     1      13.268 -23.678 -46.341  1.00  0.00    -0.265 NA
ATOM      2  C   UNL     1      12.453 -24.888 -46.307  1.00  0.00     0.091 C 
ATOM      3  C   UNL     1      11.646 -25.103 -47.579  1.00  0.00     0.051 C 
ATOM      4  C   UNL     1      10.801 -23.856 -47.822  1.00  0.00     0.132 C 
ATOM      5  N   UNL     1       9.894 -24.063 -48.968  1.00  0.00    -0.265 NA
ATOM      6  C   UNL     1       9.914 -22.951 -49.917  1.00  0.00     0.091 C 
ATOM      7  C   UNL     1      11.344 -22.765 -50.381  1.00  0.00     0.051 C 
ATOM      8  C   UNL     1      12.230 -22.324 -49.209  1.00  0.00     0.132 C 
ATOM      9  N   UNL     1      12.396 -20.849 -49.254  1.00  0.00    -0.265 NA
ATOM     10  C   UNL     1      12.659 -20.261 -47.928  1.00  0.00     0.091 C 
ATOM     11  C   UNL     1      13.417 -21.228 -47.022  1.00  0.00     0.051 C 
ATOM     12  C   UNL     1      12.550 -22.484 -46.799  1.00  0.00     0.132 C 
ATOM     13  N   UNL     1      11.652 -22.688 -47.933  1.00  0.00    -0.256 NA
ENDROOT
BRANCH   1  14
ATOM     14  C   UNL     1      14.624 -23.918 -46.779  1.00  0.00     0.245 C 
BRANCH  14  15
ATOM     15  O   UNL     1      15.575 -23.780 -45.746  1.00  0.00    -0.381 OA
ATOM     16  H   UNL     1      15.376 -22.939 -45.305  1.00  0.00     0.212 HD
ENDBRANCH  14  15
ENDBRANCH   1  14
BRANCH   5  17
ATOM     17  C   UNL     1       8.528 -24.301 -48.529  1.00  0.00     0.245 C 
BRANCH  17  18
ATOM     18  O   UNL     1       7.649 -23.458 -49.245  1.00  0.00    -0.381 OA
ATOM     19  H   UNL     1       8.239 -22.765 -49.589  1.00  0.00     0.212 HD
ENDBRANCH  17  18
ENDBRANCH   5  17
BRANCH   9  20
ATOM     20  C   UNL     1      13.450 -20.490 -50.198  1.00  0.00     0.245 C 
BRANCH  20  21
ATOM     21  O   UNL     1      12.926 -19.709 -51.259  1.00  0.00    -0.381 OA
ATOM     22  H   UNL     1      12.836 -20.304 -52.020  1.00  0.00     0.212 HD
ENDBRANCH  20  21
ENDBRANCH   9  20
TORSDOF 6
ENDMDL
