MODEL 1
REMARK VINA RESULT:    -7.860      0.000      0.000
REMARK INTER + INTRA:          -9.460
REMARK INTER:                  -9.239
REMARK INTRA:                  -0.221
REMARK UNBOUND:                -0.221
REMARK SMILES Cc1ccc2[nH]c(CNC(=O)Nc3nnn[n-]3)nc2c1
REMARK SMILES IDX 8 1 7 2 2 3 3 4 20 5 4 6 19 7 5 8 18 9 6 10 1 11 9 13 10 14
REMARK SMILES IDX 11 15 12 16 13 19 14 20 17 21 15 22 16 23
REMARK H PARENT 6 12 9 17 12 18
ROOT
ATOM      1  C   UNL     1      11.972 -22.290 -47.739  1.00  0.00     0.192 C 
ENDROOT
BRANCH   1   2
ATOM      2  C   UNL     1      12.501 -22.710 -46.409  1.00  0.00     0.126 A 
ATOM      3  C   UNL     1      13.725 -24.158 -42.307  1.00  0.00    -0.049 A 
ATOM      4  C   UNL     1      14.948 -23.589 -42.695  1.00  0.00     0.006 A 
ATOM      5  C   UNL     1      12.630 -24.132 -43.190  1.00  0.00     0.034 A 
ATOM      6  C   UNL     1      15.109 -22.962 -43.937  1.00  0.00     0.028 A 
ATOM      7  C   UNL     1      12.773 -23.510 -44.439  1.00  0.00     0.089 A 
ATOM      8  C   UNL     1      13.995 -22.940 -44.776  1.00  0.00     0.066 A 
ATOM      9  N   UNL     1      11.859 -23.361 -45.457  1.00  0.00    -0.231 NA
ATOM     10  N   UNL     1      13.796 -22.431 -46.032  1.00  0.00    -0.340 N 
ATOM     11  C   UNL     1      13.603 -24.853 -40.984  1.00  0.00     0.044 C 
ATOM     12  H   UNL     1      14.482 -21.972 -46.625  1.00  0.00     0.168 HD
ENDBRANCH   1   2
BRANCH   1  13
ATOM     13  N   UNL     1      13.014 -21.645 -48.511  1.00  0.00    -0.340 N 
ATOM     14  C   UNL     1      12.691 -20.992 -49.691  1.00  0.00     0.278 C 
ATOM     15  O   UNL     1      11.537 -20.987 -50.106  1.00  0.00    -0.262 OA
ATOM     16  N   UNL     1      13.782 -20.396 -50.237  1.00  0.00    -0.341 N 
ATOM     17  H   UNL     1      13.747 -21.208 -47.973  1.00  0.00     0.164 HD
ATOM     18  H   UNL     1      14.702 -20.639 -49.925  1.00  0.00     0.103 HD
BRANCH  16  19
ATOM     19  C   UNL     1      13.821 -19.514 -51.377  1.00  0.00     0.103 A 
ATOM     20  N   UNL     1      14.274 -18.255 -51.419  1.00  0.00    -0.268 NA
ATOM     21  N   UNL     1      13.413 -19.992 -52.566  1.00  0.00    -0.223 NA
ATOM     22  N   UNL     1      14.132 -17.907 -52.724  1.00  0.00    -0.197 NA
ATOM     23  N   UNL     1      13.613 -18.953 -53.414  1.00  0.00    -0.148 NA
ENDBRANCH  16  19
ENDBRANCH   1  13
TORSDOF 3
ENDMDL
MODEL 2
REMARK VINA RESULT:    -7.759      1.776      2.980
REMARK INTER + INTRA:          -9.341
REMARK INTER:                  -9.040
REMARK INTRA:                  -0.300
REMARK UNBOUND:                -0.221
REMARK SMILES Cc1ccc2[nH]c(CNC(=O)Nc3nnn[n-]3)nc2c1
REMARK SMILES IDX 8 1 7 2 2 3 3 4 20 5 4 6 19 7 5 8 18 9 6 10 1 11 9 13 10 14
REMARK SMILES IDX 11 15 12 16 13 19 14 20 17 21 15 22 16 23
REMARK H PARENT 6 12 9 17 12 18
ROOT
ATOM      1  C   UNL     1      12.731 -20.946 -49.730  1.00  0.00     0.192 C 
ENDROOT
BRANCH   1   2
ATOM      2  C   UNL     1      13.218 -21.569 -48.466  1.00  0.00     0.126 A 
ATOM      3  C   UNL     1      15.088 -23.386 -44.775  1.00  0.00    -0.049 A 
ATOM      4  C   UNL     1      13.740 -23.520 -44.407  1.00  0.00     0.006 A 
ATOM      5  C   UNL     1      15.421 -22.793 -46.007  1.00  0.00     0.034 A 
ATOM      6  C   UNL     1      12.701 -23.103 -45.248  1.00  0.00     0.028 A 
ATOM      7  C   UNL     1      14.393 -22.368 -46.862  1.00  0.00     0.089 A 
ATOM      8  C   UNL     1      13.072 -22.538 -46.469  1.00  0.00     0.066 A 
ATOM      9  N   UNL     1      14.470 -21.769 -48.098  1.00  0.00    -0.231 NA
ATOM     10  N   UNL     1      12.341 -22.028 -47.508  1.00  0.00    -0.340 N 
ATOM     11  C   UNL     1      16.174 -23.811 -43.831  1.00  0.00     0.044 C 
ATOM     12  H   UNL     1      11.330 -21.942 -47.565  1.00  0.00     0.168 HD
ENDBRANCH   1   2
BRANCH   1  13
ATOM     13  N   UNL     1      13.429 -19.700 -49.975  1.00  0.00    -0.340 N 
ATOM     14  C   UNL     1      13.877 -19.402 -51.253  1.00  0.00     0.278 C 
ATOM     15  O   UNL     1      13.721 -20.200 -52.170  1.00  0.00    -0.262 OA
ATOM     16  N   UNL     1      14.445 -18.170 -51.300  1.00  0.00    -0.341 N 
ATOM     17  H   UNL     1      13.100 -18.905 -49.447  1.00  0.00     0.164 HD
ATOM     18  H   UNL     1      14.703 -17.698 -50.454  1.00  0.00     0.103 HD
BRANCH  16  19
ATOM     19  C   UNL     1      14.897 -17.456 -52.468  1.00  0.00     0.103 A 
ATOM     20  N   UNL     1      14.181 -17.130 -53.552  1.00  0.00    -0.268 NA
ATOM     21  N   UNL     1      16.163 -17.003 -52.488  1.00  0.00    -0.223 NA
ATOM     22  N   UNL     1      15.060 -16.431 -54.316  1.00  0.00    -0.197 NA
ATOM     23  N   UNL     1      16.253 -16.356 -53.676  1.00  0.00    -0.148 NA
ENDBRANCH  16  19
ENDBRANCH   1  13
TORSDOF 3
ENDMDL
MODEL 3
REMARK VINA RESULT:    -7.543      2.294      3.641
REMARK INTER + INTRA:          -9.087
REMARK INTER:                  -8.803
REMARK INTRA:                  -0.284
REMARK UNBOUND:                -0.221
REMARK SMILES Cc1ccc2[nH]c(CNC(=O)Nc3nnn[n-]3)nc2c1
REMARK SMILES IDX 8 1 7 2 2 3 3 4 20 5 4 6 19 7 5 8 18 9 6 10 1 11 9 13 10 14
REMARK SMILES IDX 11 15 12 16 13 19 14 20 17 21 15 22 16 23
REMARK H PARENT 6 12 9 17 12 18
ROOT
ATOM      1  C   UNL     1      15.476 -23.317 -45.124  1.00  0.00     0.192 C 
ENDROOT
BRANCH   1   2
ATOM      2  C   UNL     1      15.247 -23.598 -43.678  1.00  0.00     0.126 A 
ATOM      3  C   UNL     1      14.139 -24.425 -39.375  1.00  0.00    -0.049 A 
ATOM      4  C   UNL     1      15.532 -24.542 -39.252  1.00  0.00     0.006 A 
ATOM      5  C   UNL     1      13.568 -24.141 -40.630  1.00  0.00     0.034 A 
ATOM      6  C   UNL     1      16.387 -24.354 -40.345  1.00  0.00     0.028 A 
ATOM      7  C   UNL     1      14.410 -23.951 -41.736  1.00  0.00     0.089 A 
ATOM      8  C   UNL     1      15.785 -24.055 -41.567  1.00  0.00     0.066 A 
ATOM      9  N   UNL     1      14.091 -23.669 -43.045  1.00  0.00    -0.231 NA
ATOM     10  N   UNL     1      16.298 -23.820 -42.815  1.00  0.00    -0.340 N 
ATOM     11  C   UNL     1      13.253 -24.670 -38.189  1.00  0.00     0.044 C 
ATOM     12  H   UNL     1      17.275 -23.851 -43.093  1.00  0.00     0.168 HD
ENDBRANCH   1   2
BRANCH   1  13
ATOM     13  N   UNL     1      14.503 -22.358 -45.607  1.00  0.00    -0.340 N 
ATOM     14  C   UNL     1      14.396 -22.114 -46.968  1.00  0.00     0.278 C 
ATOM     15  O   UNL     1      15.142 -22.675 -47.763  1.00  0.00    -0.262 OA
ATOM     16  N   UNL     1      13.390 -21.241 -47.233  1.00  0.00    -0.341 N 
ATOM     17  H   UNL     1      13.629 -22.333 -45.103  1.00  0.00     0.164 HD
ATOM     18  H   UNL     1      12.988 -20.693 -46.497  1.00  0.00     0.103 HD
BRANCH  16  19
ATOM     19  C   UNL     1      12.884 -20.853 -48.526  1.00  0.00     0.103 A 
ATOM     20  N   UNL     1      13.469 -20.049 -49.422  1.00  0.00    -0.268 NA
ATOM     21  N   UNL     1      11.717 -21.379 -48.937  1.00  0.00    -0.223 NA
ATOM     22  N   UNL     1      12.606 -20.058 -50.471  1.00  0.00    -0.197 NA
ATOM     23  N   UNL     1      11.551 -20.858 -50.178  1.00  0.00    -0.148 NA
ENDBRANCH  16  19
ENDBRANCH   1  13
TORSDOF 3
ENDMDL
MODEL 4
REMARK VINA RESULT:    -7.391      2.954      8.264
REMARK INTER + INTRA:          -8.909
REMARK INTER:                  -8.557
REMARK INTRA:                  -0.352
REMARK UNBOUND:                -0.221
REMARK SMILES Cc1ccc2[nH]c(CNC(=O)Nc3nnn[n-]3)nc2c1
REMARK SMILES IDX 8 1 7 2 2 3 3 4 20 5 4 6 19 7 5 8 18 9 6 10 1 11 9 13 10 14
REMARK SMILES IDX 11 15 12 16 13 19 14 20 17 21 15 22 16 23
REMARK H PARENT 6 12 9 17 12 18
ROOT
ATOM      1  C   UNL     1      12.527 -21.711 -47.947  1.00  0.00     0.192 C 
ENDROOT
BRANCH   1   2
ATOM      2  C   UNL     1      12.950 -20.928 -49.144  1.00  0.00     0.126 A 
ATOM      3  C   UNL     1      14.308 -18.231 -52.506  1.00  0.00    -0.049 A 
ATOM      4  C   UNL     1      14.070 -19.391 -53.259  1.00  0.00     0.006 A 
ATOM      5  C   UNL     1      14.101 -18.246 -51.114  1.00  0.00     0.034 A 
ATOM      6  C   UNL     1      13.598 -20.570 -52.669  1.00  0.00     0.028 A 
ATOM      7  C   UNL     1      13.631 -19.419 -50.505  1.00  0.00     0.089 A 
ATOM      8  C   UNL     1      13.387 -20.539 -51.290  1.00  0.00     0.066 A 
ATOM      9  N   UNL     1      13.357 -19.673 -49.181  1.00  0.00    -0.231 NA
ATOM     10  N   UNL     1      12.949 -21.485 -50.403  1.00  0.00    -0.340 N 
ATOM     11  C   UNL     1      14.849 -16.998 -53.169  1.00  0.00     0.044 C 
ATOM     12  H   UNL     1      12.709 -22.452 -50.605  1.00  0.00     0.168 HD
ENDBRANCH   1   2
BRANCH   1  13
ATOM     13  N   UNL     1      13.376 -21.395 -46.816  1.00  0.00    -0.340 N 
ATOM     14  C   UNL     1      14.370 -22.283 -46.434  1.00  0.00     0.278 C 
ATOM     15  O   UNL     1      14.514 -23.349 -47.021  1.00  0.00    -0.262 OA
ATOM     16  N   UNL     1      15.102 -21.787 -45.403  1.00  0.00    -0.341 N 
ATOM     17  H   UNL     1      13.616 -20.421 -46.711  1.00  0.00     0.164 HD
ATOM     18  H   UNL     1      14.766 -21.006 -44.873  1.00  0.00     0.103 HD
BRANCH  16  19
ATOM     19  C   UNL     1      16.298 -22.349 -44.827  1.00  0.00     0.103 A 
ATOM     20  N   UNL     1      17.384 -22.791 -45.474  1.00  0.00    -0.268 NA
ATOM     21  N   UNL     1      16.396 -22.403 -43.487  1.00  0.00    -0.223 NA
ATOM     22  N   UNL     1      18.223 -23.162 -44.472  1.00  0.00    -0.197 NA
ATOM     23  N   UNL     1      17.627 -22.929 -43.277  1.00  0.00    -0.148 NA
ENDBRANCH  16  19
ENDBRANCH   1  13
TORSDOF 3
ENDMDL
MODEL 5
REMARK VINA RESULT:    -7.375      2.374      3.831
REMARK INTER + INTRA:          -8.890
REMARK INTER:                  -8.543
REMARK INTRA:                  -0.347
REMARK UNBOUND:                -0.221
REMARK SMILES Cc1ccc2[nH]c(CNC(=O)Nc3nnn[n-]3)nc2c1
REMARK SMILES IDX 8 1 7 2 2 3 3 4 20 5 4 6 19 7 5 8 18 9 6 10 1 11 9 13 10 14
REMARK SMILES IDX 11 15 12 16 13 19 14 20 17 21 15 22 16 23
REMARK H PARENT 6 12 9 17 12 18
ROOT
ATOM      1  C   UNL     1      15.888 -22.736 -45.065  1.00  0.00     0.192 C 
ENDROOT
BRANCH   1   2
ATOM      2  C   UNL     1      15.486 -23.410 -43.797  1.00  0.00     0.126 A 
ATOM      3  C   UNL     1      14.682 -25.509 -39.877  1.00  0.00    -0.049 A 
ATOM      4  C   UNL     1      13.355 -25.206 -40.221  1.00  0.00     0.006 A 
ATOM      5  C   UNL     1      15.733 -25.113 -40.725  1.00  0.00     0.034 A 
ATOM      6  C   UNL     1      13.036 -24.538 -41.410  1.00  0.00     0.028 A 
ATOM      7  C   UNL     1      15.432 -24.441 -41.919  1.00  0.00     0.089 A 
ATOM      8  C   UNL     1      14.104 -24.179 -42.233  1.00  0.00     0.066 A 
ATOM      9  N   UNL     1      16.275 -23.961 -42.894  1.00  0.00    -0.231 NA
ATOM     10  N   UNL     1      14.163 -23.527 -43.435  1.00  0.00    -0.340 N 
ATOM     11  C   UNL     1      14.987 -26.193 -38.577  1.00  0.00     0.044 C 
ATOM     12  H   UNL     1      13.385 -23.140 -43.963  1.00  0.00     0.168 HD
ENDBRANCH   1   2
BRANCH   1  13
ATOM     13  N   UNL     1      14.799 -21.922 -45.567  1.00  0.00    -0.340 N 
ATOM     14  C   UNL     1      14.525 -21.904 -46.925  1.00  0.00     0.278 C 
ATOM     15  O   UNL     1      15.217 -22.540 -47.711  1.00  0.00    -0.262 OA
ATOM     16  N   UNL     1      13.434 -21.141 -47.195  1.00  0.00    -0.341 N 
ATOM     17  H   UNL     1      13.987 -21.866 -44.970  1.00  0.00     0.164 HD
ATOM     18  H   UNL     1      13.076 -20.507 -46.508  1.00  0.00     0.103 HD
BRANCH  16  19
ATOM     19  C   UNL     1      12.760 -20.992 -48.462  1.00  0.00     0.103 A 
ATOM     20  N   UNL     1      11.619 -21.574 -48.851  1.00  0.00    -0.268 NA
ATOM     21  N   UNL     1      13.277 -20.138 -49.362  1.00  0.00    -0.223 NA
ATOM     22  N   UNL     1      11.405 -21.061 -50.090  1.00  0.00    -0.197 NA
ATOM     23  N   UNL     1      12.404 -20.197 -50.397  1.00  0.00    -0.148 NA
ENDBRANCH  16  19
ENDBRANCH   1  13
TORSDOF 3
ENDMDL
MODEL 6
REMARK VINA RESULT:    -7.317      3.232      3.903
REMARK INTER + INTRA:          -8.822
REMARK INTER:                  -8.536
REMARK INTRA:                  -0.286
REMARK UNBOUND:                -0.221
REMARK SMILES Cc1ccc2[nH]c(CNC(=O)Nc3nnn[n-]3)nc2c1
REMARK SMILES IDX 8 1 7 2 2 3 3 4 20 5 4 6 19 7 5 8 18 9 6 10 1 11 9 13 10 14
REMARK SMILES IDX 11 15 12 16 13 19 14 20 17 21 15 22 16 23
REMARK H PARENT 6 12 9 17 12 18
ROOT
ATOM      1  C   UNL     1      12.470 -21.999 -47.958  1.00  0.00     0.192 C 
ENDROOT
BRANCH   1   2
ATOM      2  C   UNL     1      12.817 -22.515 -46.603  1.00  0.00     0.126 A 
ATOM      3  C   UNL     1      13.469 -24.224 -42.471  1.00  0.00    -0.049 A 
ATOM      4  C   UNL     1      14.768 -23.745 -42.700  1.00  0.00     0.006 A 
ATOM      5  C   UNL     1      12.481 -24.070 -43.461  1.00  0.00     0.034 A 
ATOM      6  C   UNL     1      15.113 -23.085 -43.886  1.00  0.00     0.028 A 
ATOM      7  C   UNL     1      12.808 -23.413 -44.657  1.00  0.00     0.089 A 
ATOM      8  C   UNL     1      14.101 -22.936 -44.835  1.00  0.00     0.066 A 
ATOM      9  N   UNL     1      12.025 -23.147 -45.756  1.00  0.00    -0.231 NA
ATOM     10  N   UNL     1      14.081 -22.363 -46.079  1.00  0.00    -0.340 N 
ATOM     11  C   UNL     1      13.148 -24.958 -41.202  1.00  0.00     0.044 C 
ATOM     12  H   UNL     1      14.862 -21.940 -46.573  1.00  0.00     0.168 HD
ENDBRANCH   1   2
BRANCH   1  13
ATOM     13  N   UNL     1      11.126 -22.403 -48.319  1.00  0.00    -0.340 N 
ATOM     14  C   UNL     1      10.724 -22.345 -49.645  1.00  0.00     0.278 C 
ATOM     15  O   UNL     1      11.482 -21.920 -50.509  1.00  0.00    -0.262 OA
ATOM     16  N   UNL     1       9.462 -22.824 -49.797  1.00  0.00    -0.341 N 
ATOM     17  H   UNL     1      10.750 -23.181 -47.797  1.00  0.00     0.164 HD
ATOM     18  H   UNL     1       8.868 -22.948 -49.000  1.00  0.00     0.103 HD
BRANCH  16  19
ATOM     19  C   UNL     1       8.754 -23.054 -51.032  1.00  0.00     0.103 A 
ATOM     20  N   UNL     1       9.037 -23.961 -51.976  1.00  0.00    -0.268 NA
ATOM     21  N   UNL     1       7.646 -22.333 -51.275  1.00  0.00    -0.223 NA
ATOM     22  N   UNL     1       8.044 -23.793 -52.887  1.00  0.00    -0.197 NA
ATOM     23  N   UNL     1       7.208 -22.812 -52.465  1.00  0.00    -0.148 NA
ENDBRANCH  16  19
ENDBRANCH   1  13
TORSDOF 3
ENDMDL
MODEL 7
REMARK VINA RESULT:    -7.034      4.354      9.391
REMARK INTER + INTRA:          -8.488
REMARK INTER:                  -8.202
REMARK INTRA:                  -0.286
REMARK UNBOUND:                -0.221
REMARK SMILES Cc1ccc2[nH]c(CNC(=O)Nc3nnn[n-]3)nc2c1
REMARK SMILES IDX 8 1 7 2 2 3 3 4 20 5 4 6 19 7 5 8 18 9 6 10 1 11 9 13 10 14
REMARK SMILES IDX 11 15 12 16 13 19 14 20 17 21 15 22 16 23
REMARK H PARENT 6 12 9 17 12 18
ROOT
ATOM      1  C   UNL     1      15.727 -23.131 -44.300  1.00  0.00     0.192 C 
ENDROOT
BRANCH   1   2
ATOM      2  C   UNL     1      15.075 -22.644 -45.550  1.00  0.00     0.126 A 
ATOM      3  C   UNL     1      13.483 -21.176 -49.517  1.00  0.00    -0.049 A 
ATOM      4  C   UNL     1      12.265 -21.248 -48.823  1.00  0.00     0.006 A 
ATOM      5  C   UNL     1      14.678 -21.546 -48.872  1.00  0.00     0.034 A 
ATOM      6  C   UNL     1      12.201 -21.653 -47.484  1.00  0.00     0.028 A 
ATOM      7  C   UNL     1      14.633 -21.956 -47.532  1.00  0.00     0.089 A 
ATOM      8  C   UNL     1      13.410 -21.993 -46.875  1.00  0.00     0.066 A 
ATOM      9  N   UNL     1      15.654 -22.361 -46.702  1.00  0.00    -0.231 NA
ATOM     10  N   UNL     1      13.716 -22.428 -45.613  1.00  0.00    -0.340 N 
ATOM     11  C   UNL     1      13.506 -20.772 -50.961  1.00  0.00     0.044 C 
ATOM     12  H   UNL     1      13.067 -22.617 -44.854  1.00  0.00     0.168 HD
ENDBRANCH   1   2
BRANCH   1  13
ATOM     13  N   UNL     1      14.727 -23.615 -43.370  1.00  0.00    -0.340 N 
ATOM     14  C   UNL     1      15.102 -23.978 -42.086  1.00  0.00     0.278 C 
ATOM     15  O   UNL     1      16.277 -23.928 -41.741  1.00  0.00    -0.262 OA
ATOM     16  N   UNL     1      14.024 -24.341 -41.344  1.00  0.00    -0.341 N 
ATOM     17  H   UNL     1      13.821 -23.177 -43.438  1.00  0.00     0.164 HD
ATOM     18  H   UNL     1      13.148 -24.542 -41.787  1.00  0.00     0.103 HD
BRANCH  16  19
ATOM     19  C   UNL     1      13.992 -24.645 -39.934  1.00  0.00     0.103 A 
ATOM     20  N   UNL     1      13.529 -23.871 -38.945  1.00  0.00    -0.268 NA
ATOM     21  N   UNL     1      14.418 -25.855 -39.533  1.00  0.00    -0.223 NA
ATOM     22  N   UNL     1      13.683 -24.642 -37.837  1.00  0.00    -0.197 NA
ATOM     23  N   UNL     1      14.220 -25.836 -38.192  1.00  0.00    -0.148 NA
ENDBRANCH  16  19
ENDBRANCH   1  13
TORSDOF 3
ENDMDL
MODEL 8
REMARK VINA RESULT:    -7.005      3.545      7.545
REMARK INTER + INTRA:          -8.455
REMARK INTER:                  -8.296
REMARK INTRA:                  -0.159
REMARK UNBOUND:                -0.221
REMARK SMILES Cc1ccc2[nH]c(CNC(=O)Nc3nnn[n-]3)nc2c1
REMARK SMILES IDX 8 1 7 2 2 3 3 4 20 5 4 6 19 7 5 8 18 9 6 10 1 11 9 13 10 14
REMARK SMILES IDX 11 15 12 16 13 19 14 20 17 21 15 22 16 23
REMARK H PARENT 6 12 9 17 12 18
ROOT
ATOM      1  C   UNL     1      13.450 -21.703 -48.066  1.00  0.00     0.192 C 
ENDROOT
BRANCH   1   2
ATOM      2  C   UNL     1      12.145 -22.297 -48.476  1.00  0.00     0.126 A 
ATOM      3  C   UNL     1       8.125 -24.186 -49.308  1.00  0.00    -0.049 A 
ATOM      4  C   UNL     1       8.439 -23.791 -50.618  1.00  0.00     0.006 A 
ATOM      5  C   UNL     1       9.020 -23.905 -48.259  1.00  0.00     0.034 A 
ATOM      6  C   UNL     1       9.642 -23.142 -50.925  1.00  0.00     0.028 A 
ATOM      7  C   UNL     1      10.229 -23.254 -48.547  1.00  0.00     0.089 A 
ATOM      8  C   UNL     1      10.510 -22.898 -49.860  1.00  0.00     0.066 A 
ATOM      9  N   UNL     1      11.247 -22.877 -47.702  1.00  0.00    -0.231 NA
ATOM     10  N   UNL     1      11.738 -22.296 -49.792  1.00  0.00    -0.340 N 
ATOM     11  C   UNL     1       6.810 -24.846 -49.014  1.00  0.00     0.044 C 
ATOM     12  H   UNL     1      12.256 -21.868 -50.554  1.00  0.00     0.168 HD
ENDBRANCH   1   2
BRANCH   1  13
ATOM     13  N   UNL     1      13.648 -21.865 -46.640  1.00  0.00    -0.340 N 
ATOM     14  C   UNL     1      14.887 -22.260 -46.159  1.00  0.00     0.278 C 
ATOM     15  O   UNL     1      15.806 -22.509 -46.931  1.00  0.00    -0.262 OA
ATOM     16  N   UNL     1      14.899 -22.293 -44.801  1.00  0.00    -0.341 N 
ATOM     17  H   UNL     1      13.158 -21.206 -46.055  1.00  0.00     0.164 HD
ATOM     18  H   UNL     1      14.040 -22.273 -44.286  1.00  0.00     0.103 HD
BRANCH  16  19
ATOM     19  C   UNL     1      16.033 -22.518 -43.940  1.00  0.00     0.103 A 
ATOM     20  N   UNL     1      17.323 -22.293 -44.216  1.00  0.00    -0.268 NA
ATOM     21  N   UNL     1      15.806 -22.952 -42.688  1.00  0.00    -0.223 NA
ATOM     22  N   UNL     1      17.959 -22.619 -43.061  1.00  0.00    -0.197 NA
ATOM     23  N   UNL     1      17.045 -23.017 -42.142  1.00  0.00    -0.148 NA
ENDBRANCH  16  19
ENDBRANCH   1  13
TORSDOF 3
ENDMDL
MODEL 9
REMARK VINA RESULT:    -6.648      4.468      9.012
REMARK INTER + INTRA:          -8.036
REMARK INTER:                  -7.682
REMARK INTRA:                  -0.354
REMARK UNBOUND:                -0.221
REMARK SMILES Cc1ccc2[nH]c(CNC(=O)Nc3nnn[n-]3)nc2c1
REMARK SMILES IDX 8 1 7 2 2 3 3 4 20 5 4 6 19 7 5 8 18 9 6 10 1 11 9 13 10 14
REMARK SMILES IDX 11 15 12 16 13 19 14 20 17 21 15 22 16 23
REMARK H PARENT 6 12 9 17 12 18
ROOT
ATOM      1  C   UNL     1      12.170 -24.278 -44.081  1.00  0.00     0.192 C 
ENDROOT
BRANCH   1   2
ATOM      2  C   UNL     1      12.622 -23.510 -45.277  1.00  0.00     0.126 A 
ATOM      3  C   UNL     1      13.598 -21.023 -48.922  1.00  0.00    -0.049 A 
ATOM      4  C   UNL     1      14.869 -21.579 -48.708  1.00  0.00     0.006 A 
ATOM      5  C   UNL     1      12.539 -21.343 -48.052  1.00  0.00     0.034 A 
ATOM      6  C   UNL     1      15.116 -22.474 -47.661  1.00  0.00     0.028 A 
ATOM      7  C   UNL     1      12.769 -22.238 -46.996  1.00  0.00     0.089 A 
ATOM      8  C   UNL     1      14.037 -22.781 -46.832  1.00  0.00     0.066 A 
ATOM      9  N   UNL     1      11.904 -22.696 -46.029  1.00  0.00    -0.231 NA
ATOM     10  N   UNL     1      13.918 -23.593 -45.735  1.00  0.00    -0.340 N 
ATOM     11  C   UNL     1      13.382 -20.038 -50.033  1.00  0.00     0.044 C 
ATOM     12  H   UNL     1      14.654 -24.130 -45.286  1.00  0.00     0.168 HD
ENDBRANCH   1   2
BRANCH   1  13
ATOM     13  N   UNL     1      12.945 -23.895 -42.919  1.00  0.00    -0.340 N 
ATOM     14  C   UNL     1      13.616 -24.865 -42.190  1.00  0.00     0.278 C 
ATOM     15  O   UNL     1      13.530 -26.048 -42.499  1.00  0.00    -0.262 OA
ATOM     16  N   UNL     1      14.338 -24.311 -41.182  1.00  0.00    -0.341 N 
ATOM     17  H   UNL     1      13.426 -23.010 -42.987  1.00  0.00     0.164 HD
ATOM     18  H   UNL     1      14.169 -23.365 -40.898  1.00  0.00     0.103 HD
BRANCH  16  19
ATOM     19  C   UNL     1      15.269 -24.973 -40.303  1.00  0.00     0.103 A 
ATOM     20  N   UNL     1      15.020 -25.991 -39.470  1.00  0.00    -0.268 NA
ATOM     21  N   UNL     1      16.558 -24.590 -40.334  1.00  0.00    -0.223 NA
ATOM     22  N   UNL     1      16.235 -26.263 -38.926  1.00  0.00    -0.197 NA
ATOM     23  N   UNL     1      17.160 -25.418 -39.445  1.00  0.00    -0.148 NA
ENDBRANCH  16  19
ENDBRANCH   1  13
TORSDOF 3
ENDMDL
