MODEL 1
REMARK VINA RESULT:    -7.439      0.000      0.000
REMARK INTER + INTRA:          -9.043
REMARK INTER:                  -8.744
REMARK INTRA:                  -0.299
REMARK UNBOUND:                -0.299
REMARK SMILES Nc1c(C(=O)Nc2cc(Cl)ccc2O)sc2ncccc12
REMARK SMILES IDX 4 1 5 2 6 3 3 5 2 6 21 7 15 8 20 9 16 10 19 11 17 12 18 13
REMARK SMILES IDX 1 14 7 17 8 18 13 19 9 20 12 21 11 22 10 23 14 24
REMARK H PARENT 6 4 1 15 1 16 14 25
ROOT
ATOM      1  C   UNL     1      14.191 -23.429 -45.683  1.00  0.00     0.268 C 
ATOM      2  O   UNL     1      14.786 -24.104 -46.522  1.00  0.00    -0.268 OA
ATOM      3  N   UNL     1      13.273 -22.448 -46.005  1.00  0.00    -0.318 N 
ATOM      4  H   UNL     1      12.840 -21.948 -45.231  1.00  0.00     0.170 HD
ENDROOT
BRANCH   1   5
ATOM      5  C   UNL     1      14.417 -23.616 -44.248  1.00  0.00     0.118 A 
ATOM      6  C   UNL     1      13.503 -24.035 -43.294  1.00  0.00     0.065 A 
ATOM      7  C   UNL     1      14.060 -24.134 -41.975  1.00  0.00     0.035 A 
ATOM      8  S   UNL     1      15.954 -23.338 -43.535  1.00  0.00    -0.108 S 
ATOM      9  C   UNL     1      13.518 -24.503 -40.724  1.00  0.00     0.015 A 
ATOM     10  C   UNL     1      15.404 -23.776 -41.988  1.00  0.00     0.126 A 
ATOM     11  C   UNL     1      14.348 -24.492 -39.606  1.00  0.00     0.021 A 
ATOM     12  N   UNL     1      16.243 -23.751 -40.932  1.00  0.00    -0.245 NA
ATOM     13  C   UNL     1      15.670 -24.117 -39.767  1.00  0.00     0.113 A 
BRANCH   6  14
ATOM     14  N   UNL     1      12.210 -24.319 -43.575  1.00  0.00    -0.397 N 
ATOM     15  H   UNL     1      11.979 -24.803 -44.448  1.00  0.00     0.156 HD
ATOM     16  H   UNL     1      11.509 -24.442 -42.852  1.00  0.00     0.156 HD
ENDBRANCH   6  14
ENDBRANCH   1   5
BRANCH   3  17
ATOM     17  C   UNL     1      12.833 -22.022 -47.274  1.00  0.00     0.085 A 
ATOM     18  C   UNL     1      13.415 -20.991 -48.011  1.00  0.00     0.050 A 
ATOM     19  C   UNL     1      11.725 -22.701 -47.811  1.00  0.00     0.139 A 
ATOM     20  C   UNL     1      12.891 -20.654 -49.261  1.00  0.00     0.043 A 
ATOM     21  C   UNL     1      11.201 -22.366 -49.057  1.00  0.00     0.050 A 
ATOM     22  C   UNL     1      11.791 -21.335 -49.786  1.00  0.00     0.024 A 
ATOM     23  Cl  UNL     1      13.608 -19.382 -50.174  1.00  0.00    -0.084 Cl
BRANCH  19  24
ATOM     24  O   UNL     1      11.166 -23.712 -47.069  1.00  0.00    -0.506 OA
ATOM     25  H   UNL     1      10.363 -24.022 -47.521  1.00  0.00     0.293 HD
ENDBRANCH  19  24
ENDBRANCH   3  17
TORSDOF 4
ENDMDL
MODEL 2
REMARK VINA RESULT:    -7.169      3.745      7.802
REMARK INTER + INTRA:          -8.726
REMARK INTER:                  -8.154
REMARK INTRA:                  -0.572
REMARK UNBOUND:                -0.299
REMARK SMILES Nc1c(C(=O)Nc2cc(Cl)ccc2O)sc2ncccc12
REMARK SMILES IDX 4 1 5 2 6 3 3 5 2 6 21 7 15 8 20 9 16 10 19 11 17 12 18 13
REMARK SMILES IDX 1 14 7 17 8 18 13 19 9 20 12 21 11 22 10 23 14 24
REMARK H PARENT 6 4 1 15 1 16 14 25
ROOT
ATOM      1  C   UNL     1      15.096 -23.251 -43.302  1.00  0.00     0.268 C 
ATOM      2  O   UNL     1      16.108 -22.732 -42.832  1.00  0.00    -0.268 OA
ATOM      3  N   UNL     1      14.313 -24.157 -42.612  1.00  0.00    -0.318 N 
ATOM      4  H   UNL     1      13.497 -24.526 -43.097  1.00  0.00     0.170 HD
ENDROOT
BRANCH   1   5
ATOM      5  C   UNL     1      14.635 -22.942 -44.657  1.00  0.00     0.118 A 
ATOM      6  C   UNL     1      15.390 -22.490 -45.727  1.00  0.00     0.065 A 
ATOM      7  C   UNL     1      14.627 -22.307 -46.928  1.00  0.00     0.035 A 
ATOM      8  S   UNL     1      12.991 -23.139 -45.116  1.00  0.00    -0.108 S 
ATOM      9  C   UNL     1      14.963 -21.867 -48.228  1.00  0.00     0.015 A 
ATOM     10  C   UNL     1      13.293 -22.635 -46.710  1.00  0.00     0.126 A 
ATOM     11  C   UNL     1      13.960 -21.798 -49.191  1.00  0.00     0.021 A 
ATOM     12  N   UNL     1      12.291 -22.583 -47.612  1.00  0.00    -0.245 NA
ATOM     13  C   UNL     1      12.673 -22.161 -48.834  1.00  0.00     0.113 A 
BRANCH   6  14
ATOM     14  N   UNL     1      16.718 -22.240 -45.648  1.00  0.00    -0.397 N 
ATOM     15  H   UNL     1      17.090 -21.365 -46.028  1.00  0.00     0.156 HD
ATOM     16  H   UNL     1      17.307 -22.646 -44.927  1.00  0.00     0.156 HD
ENDBRANCH   6  14
ENDBRANCH   1   5
BRANCH   3  17
ATOM     17  C   UNL     1      14.474 -24.662 -41.307  1.00  0.00     0.085 A 
ATOM     18  C   UNL     1      13.936 -24.081 -40.159  1.00  0.00     0.050 A 
ATOM     19  C   UNL     1      15.238 -25.836 -41.182  1.00  0.00     0.139 A 
ATOM     20  C   UNL     1      14.163 -24.672 -38.914  1.00  0.00     0.043 A 
ATOM     21  C   UNL     1      15.465 -26.426 -39.941  1.00  0.00     0.050 A 
ATOM     22  C   UNL     1      14.922 -25.838 -38.800  1.00  0.00     0.024 A 
ATOM     23  Cl  UNL     1      13.499 -23.956 -37.495  1.00  0.00    -0.084 Cl
BRANCH  19  24
ATOM     24  O   UNL     1      15.759 -26.392 -42.323  1.00  0.00    -0.506 OA
ATOM     25  H   UNL     1      15.498 -27.328 -42.361  1.00  0.00     0.293 HD
ENDBRANCH  19  24
ENDBRANCH   3  17
TORSDOF 4
ENDMDL
MODEL 3
REMARK VINA RESULT:    -7.014      1.521      2.066
REMARK INTER + INTRA:          -8.543
REMARK INTER:                  -8.115
REMARK INTRA:                  -0.428
REMARK UNBOUND:                -0.299
REMARK SMILES Nc1c(C(=O)Nc2cc(Cl)ccc2O)sc2ncccc12
REMARK SMILES IDX 4 1 5 2 6 3 3 5 2 6 21 7 15 8 20 9 16 10 19 11 17 12 18 13
REMARK SMILES IDX 1 14 7 17 8 18 13 19 9 20 12 21 11 22 10 23 14 24
REMARK H PARENT 6 4 1 15 1 16 14 25
ROOT
ATOM      1  C   UNL     1      14.110 -24.133 -44.890  1.00  0.00     0.268 C 
ATOM      2  O   UNL     1      14.097 -25.152 -45.579  1.00  0.00    -0.268 OA
ATOM      3  N   UNL     1      13.960 -22.860 -45.406  1.00  0.00    -0.318 N 
ATOM      4  H   UNL     1      13.988 -22.087 -44.745  1.00  0.00     0.170 HD
ENDROOT
BRANCH   1   5
ATOM      5  C   UNL     1      14.291 -24.193 -43.438  1.00  0.00     0.118 A 
ATOM      6  C   UNL     1      13.311 -24.311 -42.465  1.00  0.00     0.065 A 
ATOM      7  C   UNL     1      13.835 -24.363 -41.130  1.00  0.00     0.035 A 
ATOM      8  S   UNL     1      15.852 -24.139 -42.722  1.00  0.00    -0.108 S 
ATOM      9  C   UNL     1      13.228 -24.472 -39.859  1.00  0.00     0.015 A 
ATOM     10  C   UNL     1      15.223 -24.278 -41.150  1.00  0.00     0.126 A 
ATOM     11  C   UNL     1      14.043 -24.493 -38.730  1.00  0.00     0.021 A 
ATOM     12  N   UNL     1      16.048 -24.295 -40.083  1.00  0.00    -0.245 NA
ATOM     13  C   UNL     1      15.413 -24.404 -38.899  1.00  0.00     0.113 A 
BRANCH   6  14
ATOM     14  N   UNL     1      11.988 -24.368 -42.745  1.00  0.00    -0.397 N 
ATOM     15  H   UNL     1      11.490 -23.511 -43.003  1.00  0.00     0.156 HD
ATOM     16  H   UNL     1      11.540 -25.211 -43.090  1.00  0.00     0.156 HD
ENDBRANCH   6  14
ENDBRANCH   1   5
BRANCH   3  17
ATOM     17  C   UNL     1      13.769 -22.458 -46.743  1.00  0.00     0.085 A 
ATOM     18  C   UNL     1      12.531 -22.380 -47.379  1.00  0.00     0.050 A 
ATOM     19  C   UNL     1      14.927 -22.116 -47.464  1.00  0.00     0.139 A 
ATOM     20  C   UNL     1      12.463 -21.968 -48.712  1.00  0.00     0.043 A 
ATOM     21  C   UNL     1      14.861 -21.705 -48.792  1.00  0.00     0.050 A 
ATOM     22  C   UNL     1      13.618 -21.630 -49.419  1.00  0.00     0.024 A 
ATOM     23  Cl  UNL     1      10.934 -21.870 -49.499  1.00  0.00    -0.084 Cl
BRANCH  19  24
ATOM     24  O   UNL     1      16.136 -22.200 -46.820  1.00  0.00    -0.506 OA
ATOM     25  H   UNL     1      16.249 -21.409 -46.266  1.00  0.00     0.293 HD
ENDBRANCH  19  24
ENDBRANCH   3  17
TORSDOF 4
ENDMDL
MODEL 4
REMARK VINA RESULT:    -6.953      3.228      4.786
REMARK INTER + INTRA:          -8.471
REMARK INTER:                  -7.896
REMARK INTRA:                  -0.575
REMARK UNBOUND:                -0.299
REMARK SMILES Nc1c(C(=O)Nc2cc(Cl)ccc2O)sc2ncccc12
REMARK SMILES IDX 4 1 5 2 6 3 3 5 2 6 21 7 15 8 20 9 16 10 19 11 17 12 18 13
REMARK SMILES IDX 1 14 7 17 8 18 13 19 9 20 12 21 11 22 10 23 14 24
REMARK H PARENT 6 4 1 15 1 16 14 25
ROOT
ATOM      1  C   UNL     1      11.971 -22.260 -48.573  1.00  0.00     0.268 C 
ATOM      2  O   UNL     1      11.734 -21.165 -49.082  1.00  0.00    -0.268 OA
ATOM      3  N   UNL     1      11.298 -23.420 -48.909  1.00  0.00    -0.318 N 
ATOM      4  H   UNL     1      11.574 -24.271 -48.423  1.00  0.00     0.170 HD
ENDROOT
BRANCH   1   5
ATOM      5  C   UNL     1      13.004 -22.421 -47.547  1.00  0.00     0.118 A 
ATOM      6  C   UNL     1      14.353 -22.119 -47.648  1.00  0.00     0.065 A 
ATOM      7  C   UNL     1      15.087 -22.379 -46.443  1.00  0.00     0.035 A 
ATOM      8  S   UNL     1      12.633 -23.026 -45.983  1.00  0.00    -0.108 S 
ATOM      9  C   UNL     1      16.448 -22.233 -46.093  1.00  0.00     0.015 A 
ATOM     10  C   UNL     1      14.243 -22.879 -45.458  1.00  0.00     0.126 A 
ATOM     11  C   UNL     1      16.848 -22.587 -44.807  1.00  0.00     0.021 A 
ATOM     12  N   UNL     1      14.587 -23.233 -44.203  1.00  0.00    -0.245 NA
ATOM     13  C   UNL     1      15.896 -23.069 -43.925  1.00  0.00     0.113 A 
BRANCH   6  14
ATOM     14  N   UNL     1      14.924 -21.632 -48.774  1.00  0.00    -0.397 N 
ATOM     15  H   UNL     1      15.830 -21.999 -49.079  1.00  0.00     0.156 HD
ATOM     16  H   UNL     1      14.380 -21.229 -49.531  1.00  0.00     0.156 HD
ENDBRANCH   6  14
ENDBRANCH   1   5
BRANCH   3  17
ATOM     17  C   UNL     1      10.263 -23.609 -49.845  1.00  0.00     0.085 A 
ATOM     18  C   UNL     1      10.455 -23.804 -51.212  1.00  0.00     0.050 A 
ATOM     19  C   UNL     1       8.952 -23.597 -49.337  1.00  0.00     0.139 A 
ATOM     20  C   UNL     1       9.349 -23.981 -52.047  1.00  0.00     0.043 A 
ATOM     21  C   UNL     1       7.848 -23.774 -50.168  1.00  0.00     0.050 A 
ATOM     22  C   UNL     1       8.051 -23.968 -51.533  1.00  0.00     0.024 A 
ATOM     23  Cl  UNL     1       9.584 -24.221 -53.737  1.00  0.00    -0.084 Cl
BRANCH  19  24
ATOM     24  O   UNL     1       8.784 -23.405 -47.988  1.00  0.00    -0.506 OA
ATOM     25  H   UNL     1       8.794 -22.450 -47.807  1.00  0.00     0.293 HD
ENDBRANCH  19  24
ENDBRANCH   3  17
TORSDOF 4
ENDMDL
MODEL 5
REMARK VINA RESULT:    -6.755      2.145      2.552
REMARK INTER + INTRA:          -8.238
REMARK INTER:                  -7.796
REMARK INTRA:                  -0.442
REMARK UNBOUND:                -0.299
REMARK SMILES Nc1c(C(=O)Nc2cc(Cl)ccc2O)sc2ncccc12
REMARK SMILES IDX 4 1 5 2 6 3 3 5 2 6 21 7 15 8 20 9 16 10 19 11 17 12 18 13
REMARK SMILES IDX 1 14 7 17 8 18 13 19 9 20 12 21 11 22 10 23 14 24
REMARK H PARENT 6 4 1 15 1 16 14 25
ROOT
ATOM      1  C   UNL     1      12.672 -23.849 -44.305  1.00  0.00     0.268 C 
ATOM      2  O   UNL     1      11.508 -23.465 -44.193  1.00  0.00    -0.268 OA
ATOM      3  N   UNL     1      13.311 -24.003 -45.521  1.00  0.00    -0.318 N 
ATOM      4  H   UNL     1      14.276 -24.329 -45.497  1.00  0.00     0.170 HD
ENDROOT
BRANCH   1   5
ATOM      5  C   UNL     1      13.486 -24.181 -43.133  1.00  0.00     0.118 A 
ATOM      6  C   UNL     1      13.220 -25.129 -42.158  1.00  0.00     0.065 A 
ATOM      7  C   UNL     1      14.241 -25.216 -41.153  1.00  0.00     0.035 A 
ATOM      8  S   UNL     1      14.980 -23.392 -42.821  1.00  0.00    -0.108 S 
ATOM      9  C   UNL     1      14.391 -26.012 -39.996  1.00  0.00     0.015 A 
ATOM     10  C   UNL     1      15.260 -24.307 -41.417  1.00  0.00     0.126 A 
ATOM     11  C   UNL     1      15.529 -25.844 -39.212  1.00  0.00     0.021 A 
ATOM     12  N   UNL     1      16.377 -24.112 -40.687  1.00  0.00    -0.245 NA
ATOM     13  C   UNL     1      16.466 -24.902 -39.598  1.00  0.00     0.113 A 
BRANCH   6  14
ATOM     14  N   UNL     1      12.105 -25.896 -42.149  1.00  0.00    -0.397 N 
ATOM     15  H   UNL     1      11.545 -25.961 -41.295  1.00  0.00     0.156 HD
ATOM     16  H   UNL     1      11.575 -26.096 -42.991  1.00  0.00     0.156 HD
ENDBRANCH   6  14
ENDBRANCH   1   5
BRANCH   3  17
ATOM     17  C   UNL     1      12.820 -23.773 -46.820  1.00  0.00     0.085 A 
ATOM     18  C   UNL     1      12.526 -24.774 -47.746  1.00  0.00     0.050 A 
ATOM     19  C   UNL     1      12.623 -22.430 -47.185  1.00  0.00     0.139 A 
ATOM     20  C   UNL     1      12.043 -24.426 -49.010  1.00  0.00     0.043 A 
ATOM     21  C   UNL     1      12.142 -22.081 -48.444  1.00  0.00     0.050 A 
ATOM     22  C   UNL     1      11.850 -23.089 -49.362  1.00  0.00     0.024 A 
ATOM     23  Cl  UNL     1      11.678 -25.660 -50.155  1.00  0.00    -0.084 Cl
BRANCH  19  24
ATOM     24  O   UNL     1      12.919 -21.460 -46.260  1.00  0.00    -0.506 OA
ATOM     25  H   UNL     1      12.110 -21.242 -45.767  1.00  0.00     0.293 HD
ENDBRANCH  19  24
ENDBRANCH   3  17
TORSDOF 4
ENDMDL
MODEL 6
REMARK VINA RESULT:    -6.727      3.422      7.537
REMARK INTER + INTRA:          -8.206
REMARK INTER:                  -7.692
REMARK INTRA:                  -0.514
REMARK UNBOUND:                -0.299
REMARK SMILES Nc1c(C(=O)Nc2cc(Cl)ccc2O)sc2ncccc12
REMARK SMILES IDX 4 1 5 2 6 3 3 5 2 6 21 7 15 8 20 9 16 10 19 11 17 12 18 13
REMARK SMILES IDX 1 14 7 17 8 18 13 19 9 20 12 21 11 22 10 23 14 24
REMARK H PARENT 6 4 1 15 1 16 14 25
ROOT
ATOM      1  C   UNL     1      14.800 -24.024 -44.546  1.00  0.00     0.268 C 
ATOM      2  O   UNL     1      15.881 -24.612 -44.550  1.00  0.00    -0.268 OA
ATOM      3  N   UNL     1      13.958 -23.982 -43.451  1.00  0.00    -0.318 N 
ATOM      4  H   UNL     1      13.086 -23.468 -43.558  1.00  0.00     0.170 HD
ENDROOT
BRANCH   1   5
ATOM      5  C   UNL     1      14.312 -23.311 -45.728  1.00  0.00     0.118 A 
ATOM      6  C   UNL     1      15.063 -22.731 -46.739  1.00  0.00     0.065 A 
ATOM      7  C   UNL     1      14.265 -22.127 -47.767  1.00  0.00     0.035 A 
ATOM      8  S   UNL     1      12.633 -23.113 -46.031  1.00  0.00    -0.108 S 
ATOM      9  C   UNL     1      14.587 -21.433 -48.954  1.00  0.00     0.015 A 
ATOM     10  C   UNL     1      12.912 -22.277 -47.483  1.00  0.00     0.126 A 
ATOM     11  C   UNL     1      13.550 -20.958 -49.753  1.00  0.00     0.021 A 
ATOM     12  N   UNL     1      11.877 -21.835 -48.227  1.00  0.00    -0.245 NA
ATOM     13  C   UNL     1      12.246 -21.184 -49.349  1.00  0.00     0.113 A 
BRANCH   6  14
ATOM     14  N   UNL     1      16.416 -22.730 -46.753  1.00  0.00    -0.397 N 
ATOM     15  H   UNL     1      16.922 -23.600 -46.564  1.00  0.00     0.156 HD
ATOM     16  H   UNL     1      16.955 -22.064 -47.297  1.00  0.00     0.156 HD
ENDBRANCH   6  14
ENDBRANCH   1   5
BRANCH   3  17
ATOM     17  C   UNL     1      14.126 -24.557 -42.176  1.00  0.00     0.085 A 
ATOM     18  C   UNL     1      15.194 -24.291 -41.320  1.00  0.00     0.050 A 
ATOM     19  C   UNL     1      13.130 -25.459 -41.762  1.00  0.00     0.139 A 
ATOM     20  C   UNL     1      15.256 -24.923 -40.075  1.00  0.00     0.043 A 
ATOM     21  C   UNL     1      13.190 -26.090 -40.521  1.00  0.00     0.050 A 
ATOM     22  C   UNL     1      14.262 -25.817 -39.673  1.00  0.00     0.024 A 
ATOM     23  Cl  UNL     1      16.575 -24.596 -39.016  1.00  0.00    -0.084 Cl
BRANCH  19  24
ATOM     24  O   UNL     1      12.087 -25.708 -42.619  1.00  0.00    -0.506 OA
ATOM     25  H   UNL     1      12.107 -25.047 -43.332  1.00  0.00     0.293 HD
ENDBRANCH  19  24
ENDBRANCH   3  17
TORSDOF 4
ENDMDL
MODEL 7
REMARK VINA RESULT:    -6.708      3.386      7.718
REMARK INTER + INTRA:          -8.183
REMARK INTER:                  -7.749
REMARK INTRA:                  -0.434
REMARK UNBOUND:                -0.299
REMARK SMILES Nc1c(C(=O)Nc2cc(Cl)ccc2O)sc2ncccc12
REMARK SMILES IDX 4 1 5 2 6 3 3 5 2 6 21 7 15 8 20 9 16 10 19 11 17 12 18 13
REMARK SMILES IDX 1 14 7 17 8 18 13 19 9 20 12 21 11 22 10 23 14 24
REMARK H PARENT 6 4 1 15 1 16 14 25
ROOT
ATOM      1  C   UNL     1      14.241 -24.007 -45.113  1.00  0.00     0.268 C 
ATOM      2  O   UNL     1      14.482 -25.214 -45.126  1.00  0.00    -0.268 OA
ATOM      3  N   UNL     1      14.356 -23.218 -43.984  1.00  0.00    -0.318 N 
ATOM      4  H   UNL     1      14.130 -22.231 -44.085  1.00  0.00     0.170 HD
ENDROOT
BRANCH   1   5
ATOM      5  C   UNL     1      13.802 -23.300 -46.318  1.00  0.00     0.118 A 
ATOM      6  C   UNL     1      14.574 -22.544 -47.186  1.00  0.00     0.065 A 
ATOM      7  C   UNL     1      13.831 -22.003 -48.287  1.00  0.00     0.035 A 
ATOM      8  S   UNL     1      12.168 -23.346 -46.844  1.00  0.00    -0.108 S 
ATOM      9  C   UNL     1      14.188 -21.189 -49.385  1.00  0.00     0.015 A 
ATOM     10  C   UNL     1      12.495 -22.380 -48.203  1.00  0.00     0.126 A 
ATOM     11  C   UNL     1      13.201 -20.829 -50.299  1.00  0.00     0.021 A 
ATOM     12  N   UNL     1      11.509 -22.056 -49.064  1.00  0.00    -0.245 NA
ATOM     13  C   UNL     1      11.910 -21.282 -50.093  1.00  0.00     0.113 A 
BRANCH   6  14
ATOM     14  N   UNL     1      15.900 -22.332 -47.010  1.00  0.00    -0.397 N 
ATOM     15  H   UNL     1      16.296 -21.412 -47.225  1.00  0.00     0.156 HD
ATOM     16  H   UNL     1      16.452 -22.859 -46.342  1.00  0.00     0.156 HD
ENDBRANCH   6  14
ENDBRANCH   1   5
BRANCH   3  17
ATOM     17  C   UNL     1      14.749 -23.580 -42.680  1.00  0.00     0.085 A 
ATOM     18  C   UNL     1      13.949 -24.277 -41.775  1.00  0.00     0.050 A 
ATOM     19  C   UNL     1      16.045 -23.200 -42.290  1.00  0.00     0.139 A 
ATOM     20  C   UNL     1      14.446 -24.581 -40.506  1.00  0.00     0.043 A 
ATOM     21  C   UNL     1      16.542 -23.502 -41.025  1.00  0.00     0.050 A 
ATOM     22  C   UNL     1      15.734 -24.199 -40.128  1.00  0.00     0.024 A 
ATOM     23  Cl  UNL     1      13.459 -25.442 -39.386  1.00  0.00    -0.084 Cl
BRANCH  19  24
ATOM     24  O   UNL     1      16.816 -22.515 -43.195  1.00  0.00    -0.506 OA
ATOM     25  H   UNL     1      17.676 -22.962 -43.274  1.00  0.00     0.293 HD
ENDBRANCH  19  24
ENDBRANCH   3  17
TORSDOF 4
ENDMDL
MODEL 8
REMARK VINA RESULT:    -6.513      3.444      7.611
REMARK INTER + INTRA:          -7.955
REMARK INTER:                  -7.352
REMARK INTRA:                  -0.602
REMARK UNBOUND:                -0.299
REMARK SMILES Nc1c(C(=O)Nc2cc(Cl)ccc2O)sc2ncccc12
REMARK SMILES IDX 4 1 5 2 6 3 3 5 2 6 21 7 15 8 20 9 16 10 19 11 17 12 18 13
REMARK SMILES IDX 1 14 7 17 8 18 13 19 9 20 12 21 11 22 10 23 14 24
REMARK H PARENT 6 4 1 15 1 16 14 25
ROOT
ATOM      1  C   UNL     1      13.491 -24.575 -43.822  1.00  0.00     0.268 C 
ATOM      2  O   UNL     1      12.975 -25.660 -43.556  1.00  0.00    -0.268 OA
ATOM      3  N   UNL     1      14.319 -23.890 -42.952  1.00  0.00    -0.318 N 
ATOM      4  H   UNL     1      14.691 -22.999 -43.274  1.00  0.00     0.170 HD
ENDROOT
BRANCH   1   5
ATOM      5  C   UNL     1      13.261 -23.911 -45.106  1.00  0.00     0.118 A 
ATOM      6  C   UNL     1      12.138 -23.994 -45.915  1.00  0.00     0.065 A 
ATOM      7  C   UNL     1      12.229 -23.196 -47.103  1.00  0.00     0.035 A 
ATOM      8  S   UNL     1      14.430 -22.861 -45.800  1.00  0.00    -0.108 S 
ATOM      9  C   UNL     1      11.354 -22.980 -48.190  1.00  0.00     0.015 A 
ATOM     10  C   UNL     1      13.447 -22.526 -47.145  1.00  0.00     0.126 A 
ATOM     11  C   UNL     1      11.755 -22.124 -49.212  1.00  0.00     0.021 A 
ATOM     12  N   UNL     1      13.875 -21.689 -48.113  1.00  0.00    -0.245 NA
ATOM     13  C   UNL     1      12.997 -21.520 -49.121  1.00  0.00     0.113 A 
BRANCH   6  14
ATOM     14  N   UNL     1      11.061 -24.758 -45.616  1.00  0.00    -0.397 N 
ATOM     15  H   UNL     1      10.428 -25.052 -46.365  1.00  0.00     0.156 HD
ATOM     16  H   UNL     1      11.035 -25.371 -44.807  1.00  0.00     0.156 HD
ENDBRANCH   6  14
ENDBRANCH   1   5
BRANCH   3  17
ATOM     17  C   UNL     1      14.738 -24.245 -41.655  1.00  0.00     0.085 A 
ATOM     18  C   UNL     1      13.997 -24.029 -40.494  1.00  0.00     0.050 A 
ATOM     19  C   UNL     1      15.999 -24.861 -41.553  1.00  0.00     0.139 A 
ATOM     20  C   UNL     1      14.516 -24.424 -39.259  1.00  0.00     0.043 A 
ATOM     21  C   UNL     1      16.518 -25.255 -40.322  1.00  0.00     0.050 A 
ATOM     22  C   UNL     1      15.768 -25.035 -39.168  1.00  0.00     0.024 A 
ATOM     23  Cl  UNL     1      13.601 -24.159 -37.824  1.00  0.00    -0.084 Cl
BRANCH  19  24
ATOM     24  O   UNL     1      16.713 -25.064 -42.707  1.00  0.00    -0.506 OA
ATOM     25  H   UNL     1      16.957 -26.004 -42.761  1.00  0.00     0.293 HD
ENDBRANCH  19  24
ENDBRANCH   3  17
TORSDOF 4
ENDMDL
MODEL 9
REMARK VINA RESULT:    -6.502      2.077      2.565
REMARK INTER + INTRA:          -7.941
REMARK INTER:                  -7.543
REMARK INTRA:                  -0.398
REMARK UNBOUND:                -0.299
REMARK SMILES Nc1c(C(=O)Nc2cc(Cl)ccc2O)sc2ncccc12
REMARK SMILES IDX 4 1 5 2 6 3 3 5 2 6 21 7 15 8 20 9 16 10 19 11 17 12 18 13
REMARK SMILES IDX 1 14 7 17 8 18 13 19 9 20 12 21 11 22 10 23 14 24
REMARK H PARENT 6 4 1 15 1 16 14 25
ROOT
ATOM      1  C   UNL     1      14.052 -23.112 -45.471  1.00  0.00     0.268 C 
ATOM      2  O   UNL     1      15.004 -22.618 -46.074  1.00  0.00    -0.268 OA
ATOM      3  N   UNL     1      12.818 -23.342 -46.050  1.00  0.00    -0.318 N 
ATOM      4  H   UNL     1      12.100 -23.754 -45.458  1.00  0.00     0.170 HD
ENDROOT
BRANCH   1   5
ATOM      5  C   UNL     1      14.155 -23.500 -44.063  1.00  0.00     0.118 A 
ATOM      6  C   UNL     1      15.250 -23.366 -43.224  1.00  0.00     0.065 A 
ATOM      7  C   UNL     1      15.007 -23.830 -41.888  1.00  0.00     0.035 A 
ATOM      8  S   UNL     1      12.830 -24.198 -43.221  1.00  0.00    -0.108 S 
ATOM      9  C   UNL     1      15.810 -23.894 -40.728  1.00  0.00     0.015 A 
ATOM     10  C   UNL     1      13.707 -24.309 -41.770  1.00  0.00     0.126 A 
ATOM     11  C   UNL     1      15.258 -24.416 -39.561  1.00  0.00     0.021 A 
ATOM     12  N   UNL     1      13.132 -24.821 -40.662  1.00  0.00    -0.245 NA
ATOM     13  C   UNL     1      13.945 -24.853 -39.587  1.00  0.00     0.113 A 
BRANCH   6  14
ATOM     14  N   UNL     1      16.436 -22.851 -43.625  1.00  0.00    -0.397 N 
ATOM     15  H   UNL     1      16.920 -22.174 -43.028  1.00  0.00     0.156 HD
ATOM     16  H   UNL     1      17.059 -23.346 -44.256  1.00  0.00     0.156 HD
ENDBRANCH   6  14
ENDBRANCH   1   5
BRANCH   3  17
ATOM     17  C   UNL     1      12.391 -23.087 -47.367  1.00  0.00     0.085 A 
ATOM     18  C   UNL     1      12.041 -24.070 -48.292  1.00  0.00     0.050 A 
ATOM     19  C   UNL     1      12.322 -21.737 -47.752  1.00  0.00     0.139 A 
ATOM     20  C   UNL     1      11.631 -23.698 -49.575  1.00  0.00     0.043 A 
ATOM     21  C   UNL     1      11.915 -21.363 -49.030  1.00  0.00     0.050 A 
ATOM     22  C   UNL     1      11.566 -22.354 -49.947  1.00  0.00     0.024 A 
ATOM     23  Cl  UNL     1      11.198 -24.911 -50.719  1.00  0.00    -0.084 Cl
BRANCH  19  24
ATOM     24  O   UNL     1      12.672 -20.784 -46.827  1.00  0.00    -0.506 OA
ATOM     25  H   UNL     1      12.191 -20.961 -46.001  1.00  0.00     0.293 HD
ENDBRANCH  19  24
ENDBRANCH   3  17
TORSDOF 4
ENDMDL
