REMARK SMILES CC[C@@]12CCN3C[C@@](C)(CN(C1)[C@@H]3c1cccc(O)c1O)C2=O
REMARK SMILES IDX 3 1 6 2 7 3 8 4 9 5 10 6 11 7 12 8 13 9 22 10 23 11 2 13
REMARK SMILES IDX 1 14 14 15 15 16 20 17 16 18 18 19 17 20 21 21 19 23 5 25
REMARK SMILES IDX 4 26
REMARK H PARENT 21 22 19 24
REMARK Flexibility Score:    4.900
ROOT
ATOM      1  C   UNL     1      -0.874   1.184  -0.238  1.00  0.00     0.043 CG0
ATOM      2  N   UNL     1       0.003  -1.242   1.247  1.00  0.00    -0.283 NA
ATOM      3  C   UNL     1      -1.193  -0.920   2.028  1.00  0.00     0.102 C 
ATOM      4  C   UNL     1      -1.428   0.588   2.238  1.00  0.00     0.052 C 
ATOM      5  C   UNL     1      -2.483   0.807   3.331  1.00  0.00     0.022 C 
ATOM      6  C   UNL     1      -0.125   1.283   2.621  1.00  0.00     0.102 C 
ATOM      7  N   UNL     1       0.913   0.955   1.635  1.00  0.00    -0.282 NA
ATOM      8  C   UNL     1       0.544   1.497   0.315  1.00  0.00     0.101 C 
ATOM      9  C   UNL     1       1.184  -0.495   1.687  1.00  0.00     0.162 C 
ATOM     10  C   UNL     1      -1.871   1.235   0.931  1.00  0.00     0.148 C 
ATOM     11  O   UNL     1      -2.991   1.737   0.815  1.00  0.00    -0.298 OA
ATOM     12  G   UNL     1      -0.981  -0.216  -0.867  1.00  0.00     0.000 G0
ENDROOT
BRANCH   1  13
ATOM     13  C   UNL     1      -1.218   2.285  -1.290  1.00  0.00     0.013 C 
ATOM     14  C   UNL     1      -2.430   2.030  -2.183  1.00  0.00     0.005 C 
ENDBRANCH   1  13
BRANCH   9  15
ATOM     15  C   UNL     1       2.537  -0.938   1.111  1.00  0.00     0.030 A 
ATOM     16  C   UNL     1       3.511  -0.004   0.698  1.00  0.00     0.011 A 
ATOM     17  C   UNL     1       2.917  -2.288   1.079  1.00  0.00     0.163 A 
ATOM     18  C   UNL     1       4.763  -0.405   0.210  1.00  0.00     0.004 A 
ATOM     19  C   UNL     1       4.152  -2.687   0.557  1.00  0.00     0.157 A 
ATOM     20  C   UNL     1       5.082  -1.756   0.128  1.00  0.00     0.050 A 
BRANCH  17  21
ATOM     21  O   UNL     1       2.112  -3.262   1.609  1.00  0.00    -0.504 OA
ATOM     22  H   UNL     1       2.703  -3.855   2.109  1.00  0.00     0.293 HD
ENDBRANCH  17  21
BRANCH  19  23
ATOM     23  O   UNL     1       4.451  -4.016   0.444  1.00  0.00    -0.504 OA
ATOM     24  H   UNL     1       3.604  -4.460   0.251  1.00  0.00     0.293 HD
ENDBRANCH  19  23
ENDBRANCH   9  15
BRANCH   2  25
ATOM     25  C   UNL     1      -0.187  -1.329  -0.190  1.00  0.00     0.087 C 
BRANCH  25  26
ATOM     26  C   UNL     1      -0.981  -0.216  -0.867  1.00  0.00     0.032 CG0
ATOM     27  G   UNL     1      -0.874   1.184  -0.238  1.00  0.00     0.000 G0
ENDBRANCH  25  26
ENDBRANCH   2  25
TORSDOF 4
