MODEL 1
REMARK VINA RESULT:    -8.386      0.000      0.000
REMARK INTER + INTRA:         -11.466
REMARK INTER:                 -10.838
REMARK INTRA:                  -0.628
REMARK UNBOUND:                -0.628
REMARK SMILES [O-]/N=C(/Cc1cnn(-c2ccccc2)c1)c1ccc(O)cc1O
REMARK SMILES IDX 1 1 2 2 3 3 4 4 5 5 6 6 15 7 7 8 8 9 9 10 10 11 14 12 11 13
REMARK SMILES IDX 13 14 12 15 16 16 17 17 22 18 18 19 21 20 19 21 23 22 20 24
REMARK H PARENT 23 23 20 25
ROOT
ATOM      1  O   UNL     1      14.345 -25.096 -46.851  1.00  0.00    -0.792 OA
ATOM      2  N   UNL     1      15.223 -24.346 -46.125  1.00  0.00    -0.323 NA
ATOM      3  C   UNL     1      15.187 -23.047 -46.257  1.00  0.00     0.045 C 
ENDROOT
BRANCH   3   4
ATOM      4  C   UNL     1      16.121 -22.233 -45.363  1.00  0.00     0.095 C 
BRANCH   4   5
ATOM      5  C   UNL     1      16.265 -22.811 -43.993  1.00  0.00    -0.004 A 
ATOM      6  C   UNL     1      17.448 -23.101 -43.289  1.00  0.00     0.139 A 
ATOM      7  C   UNL     1      15.268 -23.195 -43.121  1.00  0.00     0.119 A 
ATOM      8  N   UNL     1      17.223 -23.605 -42.074  1.00  0.00    -0.176 NA
ATOM      9  N   UNL     1      15.863 -23.659 -41.975  1.00  0.00    -0.241 N 
BRANCH   9  10
ATOM     10  C   UNL     1      15.233 -24.147 -40.795  1.00  0.00     0.065 A 
ATOM     11  C   UNL     1      15.988 -24.643 -39.723  1.00  0.00     0.028 A 
ATOM     12  C   UNL     1      13.833 -24.133 -40.702  1.00  0.00     0.028 A 
ATOM     13  C   UNL     1      15.346 -25.118 -38.576  1.00  0.00     0.002 A 
ATOM     14  C   UNL     1      13.198 -24.609 -39.552  1.00  0.00     0.002 A 
ATOM     15  C   UNL     1      13.954 -25.100 -38.490  1.00  0.00     0.000 A 
ENDBRANCH   9  10
ENDBRANCH   4   5
ENDBRANCH   3   4
BRANCH   3  16
ATOM     16  C   UNL     1      14.379 -22.266 -47.245  1.00  0.00     0.038 A 
ATOM     17  C   UNL     1      14.917 -21.927 -48.492  1.00  0.00     0.017 A 
ATOM     18  C   UNL     1      13.042 -21.957 -46.967  1.00  0.00     0.128 A 
ATOM     19  C   UNL     1      14.117 -21.296 -49.450  1.00  0.00     0.047 A 
ATOM     20  C   UNL     1      12.235 -21.347 -47.923  1.00  0.00     0.093 A 
ATOM     21  C   UNL     1      12.782 -21.018 -49.158  1.00  0.00     0.119 A 
BRANCH  18  22
ATOM     22  O   UNL     1      12.493 -22.230 -45.741  1.00  0.00    -0.507 OA
ATOM     23  H   UNL     1      13.294 -22.254 -45.128  1.00  0.00     0.293 HD
ENDBRANCH  18  22
BRANCH  21  24
ATOM     24  O   UNL     1      11.975 -20.408 -50.076  1.00  0.00    -0.508 OA
ATOM     25  H   UNL     1      12.400 -19.578 -50.343  1.00  0.00     0.293 HD
ENDBRANCH  21  24
ENDBRANCH   3  16
TORSDOF 6
ENDMDL
MODEL 2
REMARK VINA RESULT:    -7.956      2.968      8.190
REMARK INTER + INTRA:         -10.910
REMARK INTER:                  -9.882
REMARK INTRA:                  -1.028
REMARK UNBOUND:                -0.628
REMARK SMILES [O-]/N=C(/Cc1cnn(-c2ccccc2)c1)c1ccc(O)cc1O
REMARK SMILES IDX 1 1 2 2 3 3 4 4 5 5 6 6 15 7 7 8 8 9 9 10 10 11 14 12 11 13
REMARK SMILES IDX 13 14 12 15 16 16 17 17 22 18 18 19 21 20 19 21 23 22 20 24
REMARK H PARENT 23 23 20 25
ROOT
ATOM      1  O   UNL     1      17.285 -22.698 -42.357  1.00  0.00    -0.792 OA
ATOM      2  N   UNL     1      16.642 -23.445 -43.299  1.00  0.00    -0.323 NA
ATOM      3  C   UNL     1      15.625 -24.174 -42.925  1.00  0.00     0.045 C 
ENDROOT
BRANCH   3   4
ATOM      4  C   UNL     1      14.872 -24.927 -44.021  1.00  0.00     0.095 C 
BRANCH   4   5
ATOM      5  C   UNL     1      14.034 -24.031 -44.873  1.00  0.00    -0.004 A 
ATOM      6  C   UNL     1      12.831 -23.383 -44.537  1.00  0.00     0.139 A 
ATOM      7  C   UNL     1      14.251 -23.650 -46.180  1.00  0.00     0.119 A 
ATOM      8  N   UNL     1      12.339 -22.643 -45.532  1.00  0.00    -0.176 NA
ATOM      9  N   UNL     1      13.229 -22.812 -46.552  1.00  0.00    -0.241 N 
BRANCH   9  10
ATOM     10  C   UNL     1      13.042 -22.161 -47.804  1.00  0.00     0.065 A 
ATOM     11  C   UNL     1      11.796 -22.176 -48.448  1.00  0.00     0.028 A 
ATOM     12  C   UNL     1      14.120 -21.495 -48.407  1.00  0.00     0.028 A 
ATOM     13  C   UNL     1      11.638 -21.530 -49.678  1.00  0.00     0.002 A 
ATOM     14  C   UNL     1      13.954 -20.852 -49.636  1.00  0.00     0.002 A 
ATOM     15  C   UNL     1      12.713 -20.869 -50.271  1.00  0.00     0.000 A 
ENDBRANCH   9  10
ENDBRANCH   4   5
ENDBRANCH   3   4
BRANCH   3  16
ATOM     16  C   UNL     1      15.158 -24.414 -41.524  1.00  0.00     0.038 A 
ATOM     17  C   UNL     1      13.837 -24.133 -41.157  1.00  0.00     0.017 A 
ATOM     18  C   UNL     1      16.015 -25.017 -40.595  1.00  0.00     0.128 A 
ATOM     19  C   UNL     1      13.381 -24.465 -39.878  1.00  0.00     0.047 A 
ATOM     20  C   UNL     1      15.562 -25.368 -39.327  1.00  0.00     0.093 A 
ATOM     21  C   UNL     1      14.247 -25.085 -38.977  1.00  0.00     0.119 A 
BRANCH  18  22
ATOM     22  O   UNL     1      17.328 -25.263 -40.900  1.00  0.00    -0.507 OA
ATOM     23  H   UNL     1      17.628 -25.881 -40.161  1.00  0.00     0.293 HD
ENDBRANCH  18  22
BRANCH  21  24
ATOM     24  O   UNL     1      13.828 -25.426 -37.722  1.00  0.00    -0.508 OA
ATOM     25  H   UNL     1      13.658 -24.607 -37.231  1.00  0.00     0.293 HD
ENDBRANCH  21  24
ENDBRANCH   3  16
TORSDOF 6
ENDMDL
MODEL 3
REMARK VINA RESULT:    -7.790      2.737      4.808
REMARK INTER + INTRA:         -10.696
REMARK INTER:                 -10.470
REMARK INTRA:                  -0.226
REMARK UNBOUND:                -0.628
REMARK SMILES [O-]/N=C(/Cc1cnn(-c2ccccc2)c1)c1ccc(O)cc1O
REMARK SMILES IDX 1 1 2 2 3 3 4 4 5 5 6 6 15 7 7 8 8 9 9 10 10 11 14 12 11 13
REMARK SMILES IDX 13 14 12 15 16 16 17 17 22 18 18 19 21 20 19 21 23 22 20 24
REMARK H PARENT 23 23 20 25
ROOT
ATOM      1  O   UNL     1      11.005 -21.584 -50.490  1.00  0.00    -0.792 OA
ATOM      2  N   UNL     1      12.090 -21.943 -49.746  1.00  0.00    -0.323 NA
ATOM      3  C   UNL     1      13.194 -21.259 -49.888  1.00  0.00     0.045 C 
ENDROOT
BRANCH   3   4
ATOM      4  C   UNL     1      14.362 -21.631 -48.974  1.00  0.00     0.095 C 
BRANCH   4   5
ATOM      5  C   UNL     1      13.927 -21.997 -47.594  1.00  0.00    -0.004 A 
ATOM      6  C   UNL     1      12.639 -21.912 -47.034  1.00  0.00     0.139 A 
ATOM      7  C   UNL     1      14.696 -22.490 -46.561  1.00  0.00     0.119 A 
ATOM      8  N   UNL     1      12.590 -22.331 -45.768  1.00  0.00    -0.176 NA
ATOM      9  N   UNL     1      13.874 -22.692 -45.480  1.00  0.00    -0.241 N 
BRANCH   9  10
ATOM     10  C   UNL     1      14.221 -23.204 -44.198  1.00  0.00     0.065 A 
ATOM     11  C   UNL     1      13.348 -24.046 -43.494  1.00  0.00     0.028 A 
ATOM     12  C   UNL     1      15.456 -22.862 -43.627  1.00  0.00     0.028 A 
ATOM     13  C   UNL     1      13.712 -24.535 -42.236  1.00  0.00     0.002 A 
ATOM     14  C   UNL     1      15.813 -23.355 -42.369  1.00  0.00     0.002 A 
ATOM     15  C   UNL     1      14.941 -24.191 -41.674  1.00  0.00     0.000 A 
ENDBRANCH   9  10
ENDBRANCH   4   5
ENDBRANCH   3   4
BRANCH   3  16
ATOM     16  C   UNL     1      13.467 -20.195 -50.903  1.00  0.00     0.038 A 
ATOM     17  C   UNL     1      13.919 -18.931 -50.504  1.00  0.00     0.017 A 
ATOM     18  C   UNL     1      13.370 -20.490 -52.269  1.00  0.00     0.128 A 
ATOM     19  C   UNL     1      14.277 -17.982 -51.465  1.00  0.00     0.047 A 
ATOM     20  C   UNL     1      13.744 -19.555 -53.230  1.00  0.00     0.093 A 
ATOM     21  C   UNL     1      14.193 -18.305 -52.819  1.00  0.00     0.119 A 
BRANCH  18  22
ATOM     22  O   UNL     1      12.887 -21.697 -52.699  1.00  0.00    -0.507 OA
ATOM     23  H   UNL     1      12.351 -21.456 -53.519  1.00  0.00     0.293 HD
ENDBRANCH  18  22
BRANCH  21  24
ATOM     24  O   UNL     1      14.542 -17.400 -53.781  1.00  0.00    -0.508 OA
ATOM     25  H   UNL     1      15.300 -17.759 -54.269  1.00  0.00     0.293 HD
ENDBRANCH  21  24
ENDBRANCH   3  16
TORSDOF 6
ENDMDL
MODEL 4
REMARK VINA RESULT:    -7.699      4.003      8.344
REMARK INTER + INTRA:         -10.578
REMARK INTER:                  -9.397
REMARK INTRA:                  -1.181
REMARK UNBOUND:                -0.628
REMARK SMILES [O-]/N=C(/Cc1cnn(-c2ccccc2)c1)c1ccc(O)cc1O
REMARK SMILES IDX 1 1 2 2 3 3 4 4 5 5 6 6 15 7 7 8 8 9 9 10 10 11 14 12 11 13
REMARK SMILES IDX 13 14 12 15 16 16 17 17 22 18 18 19 21 20 19 21 23 22 20 24
REMARK H PARENT 23 23 20 25
ROOT
ATOM      1  O   UNL     1      12.022 -23.702 -43.495  1.00  0.00    -0.792 OA
ATOM      2  N   UNL     1      11.588 -23.457 -44.765  1.00  0.00    -0.323 NA
ATOM      3  C   UNL     1      12.369 -23.780 -45.761  1.00  0.00     0.045 C 
ENDROOT
BRANCH   3   4
ATOM      4  C   UNL     1      11.815 -23.575 -47.170  1.00  0.00     0.095 C 
BRANCH   4   5
ATOM      5  C   UNL     1      12.306 -22.320 -47.813  1.00  0.00    -0.004 A 
ATOM      6  C   UNL     1      12.616 -21.092 -47.202  1.00  0.00     0.139 A 
ATOM      7  C   UNL     1      12.555 -22.088 -49.149  1.00  0.00     0.119 A 
ATOM      8  N   UNL     1      13.042 -20.169 -48.067  1.00  0.00    -0.176 NA
ATOM      9  N   UNL     1      13.003 -20.796 -49.278  1.00  0.00    -0.241 N 
BRANCH   9  10
ATOM     10  C   UNL     1      13.398 -20.121 -50.467  1.00  0.00     0.065 A 
ATOM     11  C   UNL     1      13.812 -18.781 -50.434  1.00  0.00     0.028 A 
ATOM     12  C   UNL     1      13.371 -20.802 -51.693  1.00  0.00     0.028 A 
ATOM     13  C   UNL     1      14.194 -18.138 -51.615  1.00  0.00     0.002 A 
ATOM     14  C   UNL     1      13.754 -20.154 -52.869  1.00  0.00     0.002 A 
ATOM     15  C   UNL     1      14.166 -18.823 -52.830  1.00  0.00     0.000 A 
ENDBRANCH   9  10
ENDBRANCH   4   5
ENDBRANCH   3   4
BRANCH   3  16
ATOM     16  C   UNL     1      13.782 -24.263 -45.675  1.00  0.00     0.038 A 
ATOM     17  C   UNL     1      14.161 -25.467 -46.280  1.00  0.00     0.017 A 
ATOM     18  C   UNL     1      14.760 -23.460 -45.073  1.00  0.00     0.128 A 
ATOM     19  C   UNL     1      15.504 -25.852 -46.289  1.00  0.00     0.047 A 
ATOM     20  C   UNL     1      16.102 -23.829 -45.096  1.00  0.00     0.093 A 
ATOM     21  C   UNL     1      16.463 -25.026 -45.703  1.00  0.00     0.119 A 
BRANCH  18  22
ATOM     22  O   UNL     1      14.422 -22.299 -44.428  1.00  0.00    -0.507 OA
ATOM     23  H   UNL     1      13.558 -22.533 -43.963  1.00  0.00     0.293 HD
ENDBRANCH  18  22
BRANCH  21  24
ATOM     24  O   UNL     1      17.784 -25.374 -45.703  1.00  0.00    -0.508 OA
ATOM     25  H   UNL     1      18.252 -24.772 -46.302  1.00  0.00     0.293 HD
ENDBRANCH  21  24
ENDBRANCH   3  16
TORSDOF 6
ENDMDL
MODEL 5
REMARK VINA RESULT:    -7.661      3.483      8.590
REMARK INTER + INTRA:         -10.529
REMARK INTER:                  -9.634
REMARK INTRA:                  -0.895
REMARK UNBOUND:                -0.628
REMARK SMILES [O-]/N=C(/Cc1cnn(-c2ccccc2)c1)c1ccc(O)cc1O
REMARK SMILES IDX 1 1 2 2 3 3 4 4 5 5 6 6 15 7 7 8 8 9 9 10 10 11 14 12 11 13
REMARK SMILES IDX 13 14 12 15 16 16 17 17 22 18 18 19 21 20 19 21 23 22 20 24
REMARK H PARENT 23 23 20 25
ROOT
ATOM      1  O   UNL     1      11.817 -23.102 -44.309  1.00  0.00    -0.792 OA
ATOM      2  N   UNL     1      11.868 -23.376 -45.644  1.00  0.00    -0.323 NA
ATOM      3  C   UNL     1      13.039 -23.560 -46.195  1.00  0.00     0.045 C 
ENDROOT
BRANCH   3   4
ATOM      4  C   UNL     1      13.054 -23.954 -47.671  1.00  0.00     0.095 C 
BRANCH   4   5
ATOM      5  C   UNL     1      12.768 -22.807 -48.583  1.00  0.00    -0.004 A 
ATOM      6  C   UNL     1      11.526 -22.214 -48.875  1.00  0.00     0.139 A 
ATOM      7  C   UNL     1      13.658 -22.084 -49.348  1.00  0.00     0.119 A 
ATOM      8  N   UNL     1      11.620 -21.195 -49.731  1.00  0.00    -0.176 NA
ATOM      9  N   UNL     1      12.951 -21.117 -50.020  1.00  0.00    -0.241 N 
BRANCH   9  10
ATOM     10  C   UNL     1      13.451 -20.128 -50.913  1.00  0.00     0.065 A 
ATOM     11  C   UNL     1      13.804 -18.850 -50.454  1.00  0.00     0.028 A 
ATOM     12  C   UNL     1      13.591 -20.432 -52.276  1.00  0.00     0.028 A 
ATOM     13  C   UNL     1      14.291 -17.895 -51.350  1.00  0.00     0.002 A 
ATOM     14  C   UNL     1      14.079 -19.472 -53.166  1.00  0.00     0.002 A 
ATOM     15  C   UNL     1      14.429 -18.204 -52.703  1.00  0.00     0.000 A 
ENDBRANCH   9  10
ENDBRANCH   4   5
ENDBRANCH   3   4
BRANCH   3  16
ATOM     16  C   UNL     1      14.375 -23.354 -45.556  1.00  0.00     0.038 A 
ATOM     17  C   UNL     1      15.226 -22.335 -46.000  1.00  0.00     0.017 A 
ATOM     18  C   UNL     1      14.741 -24.116 -44.438  1.00  0.00     0.128 A 
ATOM     19  C   UNL     1      16.423 -22.080 -45.325  1.00  0.00     0.047 A 
ATOM     20  C   UNL     1      15.921 -23.853 -43.749  1.00  0.00     0.093 A 
ATOM     21  C   UNL     1      16.756 -22.837 -44.201  1.00  0.00     0.119 A 
BRANCH  18  22
ATOM     22  O   UNL     1      13.958 -25.152 -44.002  1.00  0.00    -0.507 OA
ATOM     23  H   UNL     1      14.438 -25.969 -44.349  1.00  0.00     0.293 HD
ENDBRANCH  18  22
BRANCH  21  24
ATOM     24  O   UNL     1      17.915 -22.606 -43.517  1.00  0.00    -0.508 OA
ATOM     25  H   UNL     1      17.733 -21.941 -42.834  1.00  0.00     0.293 HD
ENDBRANCH  21  24
ENDBRANCH   3  16
TORSDOF 6
ENDMDL
MODEL 6
REMARK VINA RESULT:    -7.590      3.191      8.803
REMARK INTER + INTRA:         -10.437
REMARK INTER:                  -9.556
REMARK INTRA:                  -0.881
REMARK UNBOUND:                -0.628
REMARK SMILES [O-]/N=C(/Cc1cnn(-c2ccccc2)c1)c1ccc(O)cc1O
REMARK SMILES IDX 1 1 2 2 3 3 4 4 5 5 6 6 15 7 7 8 8 9 9 10 10 11 14 12 11 13
REMARK SMILES IDX 13 14 12 15 16 16 17 17 22 18 18 19 21 20 19 21 23 22 20 24
REMARK H PARENT 23 23 20 25
ROOT
ATOM      1  O   UNL     1      14.119 -25.296 -46.993  1.00  0.00    -0.792 OA
ATOM      2  N   UNL     1      13.240 -24.262 -47.128  1.00  0.00    -0.323 NA
ATOM      3  C   UNL     1      13.457 -23.170 -46.445  1.00  0.00     0.045 C 
ENDROOT
BRANCH   3   4
ATOM      4  C   UNL     1      12.504 -22.000 -46.689  1.00  0.00     0.095 C 
BRANCH   4   5
ATOM      5  C   UNL     1      12.469 -21.565 -48.117  1.00  0.00    -0.004 A 
ATOM      6  C   UNL     1      11.499 -21.856 -49.093  1.00  0.00     0.139 A 
ATOM      7  C   UNL     1      13.386 -20.791 -48.795  1.00  0.00     0.119 A 
ATOM      8  N   UNL     1      11.764 -21.301 -50.277  1.00  0.00    -0.176 NA
ATOM      9  N   UNL     1      12.940 -20.637 -50.084  1.00  0.00    -0.241 N 
BRANCH   9  10
ATOM     10  C   UNL     1      13.551 -19.904 -51.141  1.00  0.00     0.065 A 
ATOM     11  C   UNL     1      13.781 -20.494 -52.392  1.00  0.00     0.028 A 
ATOM     12  C   UNL     1      13.931 -18.570 -50.929  1.00  0.00     0.028 A 
ATOM     13  C   UNL     1      14.384 -19.754 -53.414  1.00  0.00     0.002 A 
ATOM     14  C   UNL     1      14.532 -17.837 -51.955  1.00  0.00     0.002 A 
ATOM     15  C   UNL     1      14.758 -18.428 -53.196  1.00  0.00     0.000 A 
ENDBRANCH   9  10
ENDBRANCH   4   5
ENDBRANCH   3   4
BRANCH   3  16
ATOM     16  C   UNL     1      14.497 -22.961 -45.391  1.00  0.00     0.038 A 
ATOM     17  C   UNL     1      14.200 -23.193 -44.043  1.00  0.00     0.017 A 
ATOM     18  C   UNL     1      15.808 -22.629 -45.758  1.00  0.00     0.128 A 
ATOM     19  C   UNL     1      15.208 -23.103 -43.079  1.00  0.00     0.047 A 
ATOM     20  C   UNL     1      16.820 -22.557 -44.806  1.00  0.00     0.093 A 
ATOM     21  C   UNL     1      16.511 -22.793 -43.471  1.00  0.00     0.119 A 
BRANCH  18  22
ATOM     22  O   UNL     1      16.128 -22.347 -47.060  1.00  0.00    -0.507 OA
ATOM     23  H   UNL     1      15.989 -23.229 -47.530  1.00  0.00     0.293 HD
ENDBRANCH  18  22
BRANCH  21  24
ATOM     24  O   UNL     1      17.518 -22.704 -42.552  1.00  0.00    -0.508 OA
ATOM     25  H   UNL     1      17.221 -23.144 -41.740  1.00  0.00     0.293 HD
ENDBRANCH  21  24
ENDBRANCH   3  16
TORSDOF 6
ENDMDL
MODEL 7
REMARK VINA RESULT:    -7.557      2.032      2.784
REMARK INTER + INTRA:         -10.395
REMARK INTER:                  -9.241
REMARK INTRA:                  -1.154
REMARK UNBOUND:                -0.628
REMARK SMILES [O-]/N=C(/Cc1cnn(-c2ccccc2)c1)c1ccc(O)cc1O
REMARK SMILES IDX 1 1 2 2 3 3 4 4 5 5 6 6 15 7 7 8 8 9 9 10 10 11 14 12 11 13
REMARK SMILES IDX 13 14 12 15 16 16 17 17 22 18 18 19 21 20 19 21 23 22 20 24
REMARK H PARENT 23 23 20 25
ROOT
ATOM      1  O   UNL     1      14.415 -21.726 -48.317  1.00  0.00    -0.792 OA
ATOM      2  N   UNL     1      15.441 -22.223 -47.568  1.00  0.00    -0.323 NA
ATOM      3  C   UNL     1      15.228 -23.298 -46.858  1.00  0.00     0.045 C 
ENDROOT
BRANCH   3   4
ATOM      4  C   UNL     1      16.423 -23.878 -46.102  1.00  0.00     0.095 C 
BRANCH   4   5
ATOM      5  C   UNL     1      16.339 -23.662 -44.627  1.00  0.00    -0.004 A 
ATOM      6  C   UNL     1      17.065 -22.754 -43.836  1.00  0.00     0.139 A 
ATOM      7  C   UNL     1      15.537 -24.315 -43.714  1.00  0.00     0.119 A 
ATOM      8  N   UNL     1      16.741 -22.809 -42.543  1.00  0.00    -0.176 NA
ATOM      9  N   UNL     1      15.787 -23.782 -42.474  1.00  0.00    -0.241 N 
BRANCH   9  10
ATOM     10  C   UNL     1      15.183 -24.131 -41.233  1.00  0.00     0.065 A 
ATOM     11  C   UNL     1      15.964 -24.421 -40.104  1.00  0.00     0.028 A 
ATOM     12  C   UNL     1      13.785 -24.188 -41.135  1.00  0.00     0.028 A 
ATOM     13  C   UNL     1      15.348 -24.762 -38.897  1.00  0.00     0.002 A 
ATOM     14  C   UNL     1      13.176 -24.530 -39.925  1.00  0.00     0.002 A 
ATOM     15  C   UNL     1      13.957 -24.816 -38.807  1.00  0.00     0.000 A 
ENDBRANCH   9  10
ENDBRANCH   4   5
ENDBRANCH   3   4
BRANCH   3  16
ATOM     16  C   UNL     1      13.918 -23.988 -46.644  1.00  0.00     0.038 A 
ATOM     17  C   UNL     1      13.754 -25.331 -47.003  1.00  0.00     0.017 A 
ATOM     18  C   UNL     1      12.876 -23.321 -45.986  1.00  0.00     0.128 A 
ATOM     19  C   UNL     1      12.563 -25.996 -46.697  1.00  0.00     0.047 A 
ATOM     20  C   UNL     1      11.696 -23.984 -45.660  1.00  0.00     0.093 A 
ATOM     21  C   UNL     1      11.548 -25.318 -46.022  1.00  0.00     0.119 A 
BRANCH  18  22
ATOM     22  O   UNL     1      12.980 -21.994 -45.661  1.00  0.00    -0.507 OA
ATOM     23  H   UNL     1      12.042 -21.748 -45.382  1.00  0.00     0.293 HD
ENDBRANCH  18  22
BRANCH  21  24
ATOM     24  O   UNL     1      10.377 -25.944 -45.704  1.00  0.00    -0.508 OA
ATOM     25  H   UNL     1      10.219 -26.637 -46.364  1.00  0.00     0.293 HD
ENDBRANCH  21  24
ENDBRANCH   3  16
TORSDOF 6
ENDMDL
MODEL 8
REMARK VINA RESULT:    -7.455      1.664      2.078
REMARK INTER + INTRA:         -10.263
REMARK INTER:                  -9.332
REMARK INTRA:                  -0.931
REMARK UNBOUND:                -0.628
REMARK SMILES [O-]/N=C(/Cc1cnn(-c2ccccc2)c1)c1ccc(O)cc1O
REMARK SMILES IDX 1 1 2 2 3 3 4 4 5 5 6 6 15 7 7 8 8 9 9 10 10 11 14 12 11 13
REMARK SMILES IDX 13 14 12 15 16 16 17 17 22 18 18 19 21 20 19 21 23 22 20 24
REMARK H PARENT 23 23 20 25
ROOT
ATOM      1  O   UNL     1      10.751 -24.146 -46.621  1.00  0.00    -0.792 OA
ATOM      2  N   UNL     1      12.038 -24.499 -46.341  1.00  0.00    -0.323 NA
ATOM      3  C   UNL     1      13.004 -23.789 -46.861  1.00  0.00     0.045 C 
ENDROOT
BRANCH   3   4
ATOM      4  C   UNL     1      14.430 -24.156 -46.453  1.00  0.00     0.095 C 
BRANCH   4   5
ATOM      5  C   UNL     1      14.738 -23.807 -45.035  1.00  0.00    -0.004 A 
ATOM      6  C   UNL     1      15.489 -22.722 -44.547  1.00  0.00     0.139 A 
ATOM      7  C   UNL     1      14.363 -24.479 -43.891  1.00  0.00     0.119 A 
ATOM      8  N   UNL     1      15.566 -22.695 -43.215  1.00  0.00    -0.176 NA
ATOM      9  N   UNL     1      14.861 -23.791 -42.812  1.00  0.00    -0.241 N 
BRANCH   9  10
ATOM     10  C   UNL     1      14.713 -24.101 -41.431  1.00  0.00     0.065 A 
ATOM     11  C   UNL     1      15.832 -24.282 -40.605  1.00  0.00     0.028 A 
ATOM     12  C   UNL     1      13.427 -24.229 -40.884  1.00  0.00     0.028 A 
ATOM     13  C   UNL     1      15.661 -24.587 -39.252  1.00  0.00     0.002 A 
ATOM     14  C   UNL     1      13.263 -24.533 -39.530  1.00  0.00     0.002 A 
ATOM     15  C   UNL     1      14.380 -24.712 -38.715  1.00  0.00     0.000 A 
ENDBRANCH   9  10
ENDBRANCH   4   5
ENDBRANCH   3   4
BRANCH   3  16
ATOM     16  C   UNL     1      12.871 -22.698 -47.875  1.00  0.00     0.038 A 
ATOM     17  C   UNL     1      13.430 -21.436 -47.640  1.00  0.00     0.017 A 
ATOM     18  C   UNL     1      12.272 -22.964 -49.114  1.00  0.00     0.128 A 
ATOM     19  C   UNL     1      13.396 -20.459 -48.639  1.00  0.00     0.047 A 
ATOM     20  C   UNL     1      12.254 -22.002 -50.120  1.00  0.00     0.093 A 
ATOM     21  C   UNL     1      12.815 -20.754 -49.873  1.00  0.00     0.119 A 
BRANCH  18  22
ATOM     22  O   UNL     1      11.672 -24.169 -49.365  1.00  0.00    -0.507 OA
ATOM     23  H   UNL     1      10.688 -23.949 -49.341  1.00  0.00     0.293 HD
ENDBRANCH  18  22
BRANCH  21  24
ATOM     24  O   UNL     1      12.774 -19.822 -50.870  1.00  0.00    -0.508 OA
ATOM     25  H   UNL     1      13.687 -19.616 -51.125  1.00  0.00     0.293 HD
ENDBRANCH  21  24
ENDBRANCH   3  16
TORSDOF 6
ENDMDL
MODEL 9
REMARK VINA RESULT:    -7.271      2.234      3.097
REMARK INTER + INTRA:         -10.025
REMARK INTER:                  -9.145
REMARK INTRA:                  -0.880
REMARK UNBOUND:                -0.628
REMARK SMILES [O-]/N=C(/Cc1cnn(-c2ccccc2)c1)c1ccc(O)cc1O
REMARK SMILES IDX 1 1 2 2 3 3 4 4 5 5 6 6 15 7 7 8 8 9 9 10 10 11 14 12 11 13
REMARK SMILES IDX 13 14 12 15 16 16 17 17 22 18 18 19 21 20 19 21 23 22 20 24
REMARK H PARENT 23 23 20 25
ROOT
ATOM      1  O   UNL     1      12.272 -20.065 -47.563  1.00  0.00    -0.792 OA
ATOM      2  N   UNL     1      13.475 -20.644 -47.287  1.00  0.00    -0.323 NA
ATOM      3  C   UNL     1      13.765 -21.780 -47.863  1.00  0.00     0.045 C 
ENDROOT
BRANCH   3   4
ATOM      4  C   UNL     1      15.156 -22.355 -47.602  1.00  0.00     0.095 C 
BRANCH   4   5
ATOM      5  C   UNL     1      15.459 -22.510 -46.148  1.00  0.00    -0.004 A 
ATOM      6  C   UNL     1      16.540 -21.980 -45.421  1.00  0.00     0.139 A 
ATOM      7  C   UNL     1      14.748 -23.217 -45.201  1.00  0.00     0.119 A 
ATOM      8  N   UNL     1      16.509 -22.303 -44.126  1.00  0.00    -0.176 NA
ATOM      9  N   UNL     1      15.390 -23.072 -43.995  1.00  0.00    -0.241 N 
BRANCH   9  10
ATOM     10  C   UNL     1      15.013 -23.610 -42.732  1.00  0.00     0.065 A 
ATOM     11  C   UNL     1      15.937 -23.706 -41.682  1.00  0.00     0.028 A 
ATOM     12  C   UNL     1      13.697 -24.054 -42.533  1.00  0.00     0.028 A 
ATOM     13  C   UNL     1      15.543 -24.238 -40.451  1.00  0.00     0.002 A 
ATOM     14  C   UNL     1      13.311 -24.586 -41.300  1.00  0.00     0.002 A 
ATOM     15  C   UNL     1      14.233 -24.677 -40.260  1.00  0.00     0.000 A 
ENDBRANCH   9  10
ENDBRANCH   4   5
ENDBRANCH   3   4
BRANCH   3  16
ATOM     16  C   UNL     1      12.852 -22.623 -48.696  1.00  0.00     0.038 A 
ATOM     17  C   UNL     1      12.591 -23.952 -48.342  1.00  0.00     0.017 A 
ATOM     18  C   UNL     1      12.171 -22.055 -49.781  1.00  0.00     0.128 A 
ATOM     19  C   UNL     1      11.651 -24.695 -49.063  1.00  0.00     0.047 A 
ATOM     20  C   UNL     1      11.221 -22.784 -50.490  1.00  0.00     0.093 A 
ATOM     21  C   UNL     1      10.970 -24.102 -50.125  1.00  0.00     0.119 A 
BRANCH  18  22
ATOM     22  O   UNL     1      12.435 -20.773 -50.188  1.00  0.00    -0.507 OA
ATOM     23  H   UNL     1      13.386 -20.825 -50.521  1.00  0.00     0.293 HD
ENDBRANCH  18  22
BRANCH  21  24
ATOM     24  O   UNL     1      10.043 -24.802 -50.843  1.00  0.00    -0.508 OA
ATOM     25  H   UNL     1       9.324 -24.194 -51.077  1.00  0.00     0.293 HD
ENDBRANCH  21  24
ENDBRANCH   3  16
TORSDOF 6
ENDMDL
