REMARK SMILES O=C(CC(=O)NN=C1CCCCCC1)NN=C1CCCCCC1
REMARK SMILES IDX 3 1 2 2 1 3 15 4 16 6 17 7 18 8 19 9 20 10 23 12 22 13 21 14
REMARK SMILES IDX 4 16 5 17 6 18 7 20 8 21 9 22 10 23 11 24 14 26 13 27 12 28
REMARK H PARENT 15 5 6 19
REMARK Flexibility Score:   30.800
ROOT
ATOM      1  C   UNL     1      -2.615   0.008  -0.803  1.00  0.00     0.203 C 
ENDROOT
BRANCH   1   2
ATOM      2  C   UNL     1      -2.146   0.781  -2.012  1.00  0.00     0.249 C 
ATOM      3  O   UNL     1      -2.823   1.712  -2.448  1.00  0.00    -0.273 OA
ATOM      4  N   UNL     1      -0.977   0.306  -2.581  1.00  0.00    -0.247 N 
ATOM      5  H   UNL     1      -0.435  -0.400  -2.079  1.00  0.00     0.193 HD
BRANCH   4   6
ATOM      6  N   UNL     1      -0.448   0.926  -3.671  1.00  0.00    -0.182 NA
ATOM      7  C   UNL     1       0.697   0.517  -4.135  1.00  0.00     0.038 C 
BRANCH   7   8
ATOM      8  C   UNL     1       1.238   1.256  -5.343  1.00  0.00     0.053 C 
BRANCH   8   9
ATOM      9  C   UNL     1       1.165   0.390  -6.594  1.00  0.00     0.006 C 
BRANCH   9  10
ATOM     10  C   UNL     1       2.368  -0.534  -6.761  1.00  0.00     0.000 CG1
ATOM     11  G   UNL     1       2.513  -1.600  -5.677  1.00  0.00     0.000 G1
ENDBRANCH   9  10
ENDBRANCH   8   9
ENDBRANCH   7   8
BRANCH   7  12
ATOM     12  C   UNL     1       1.493  -0.636  -3.544  1.00  0.00     0.053 C 
BRANCH  12  13
ATOM     13  C   UNL     1       2.766  -1.036  -4.280  1.00  0.00     0.006 C 
BRANCH  13  14
ATOM     14  C   UNL     1       2.513  -1.600  -5.677  1.00  0.00     0.000 CG1
ATOM     15  G   UNL     1       2.368  -0.534  -6.761  1.00  0.00     0.000 G1
ENDBRANCH  13  14
ENDBRANCH  12  13
ENDBRANCH   7  12
ENDBRANCH   4   6
ENDBRANCH   1   2
BRANCH   1  16
ATOM     16  C   UNL     1      -1.510  -0.431   0.121  1.00  0.00     0.249 C 
ATOM     17  O   UNL     1      -0.532  -1.043  -0.311  1.00  0.00    -0.273 OA
ATOM     18  N   UNL     1      -1.721  -0.087   1.447  1.00  0.00    -0.247 N 
ATOM     19  H   UNL     1      -2.518   0.479   1.711  1.00  0.00     0.193 HD
BRANCH  18  20
ATOM     20  N   UNL     1      -0.775  -0.396   2.373  1.00  0.00    -0.182 NA
ATOM     21  C   UNL     1      -0.954  -0.048   3.612  1.00  0.00     0.038 C 
BRANCH  21  22
ATOM     22  C   UNL     1      -2.146   0.700   4.167  1.00  0.00     0.053 C 
BRANCH  22  23
ATOM     23  C   UNL     1      -1.995   2.208   4.021  1.00  0.00     0.006 C 
BRANCH  23  24
ATOM     24  C   UNL     1      -0.591   2.781   4.235  1.00  0.00     0.000 CG0
ATOM     25  G   UNL     1       0.243   2.120   5.336  1.00  0.00     0.000 G0
ENDBRANCH  23  24
ENDBRANCH  22  23
ENDBRANCH  21  22
BRANCH  21  26
ATOM     26  C   UNL     1       0.157  -0.347   4.598  1.00  0.00     0.053 C 
BRANCH  26  27
ATOM     27  C   UNL     1       1.017   0.885   4.854  1.00  0.00     0.006 C 
BRANCH  27  28
ATOM     28  C   UNL     1       0.243   2.120   5.336  1.00  0.00     0.000 CG0
ATOM     29  G   UNL     1      -0.591   2.781   4.235  1.00  0.00     0.000 G0
ENDBRANCH  27  28
ENDBRANCH  26  27
ENDBRANCH  21  26
ENDBRANCH  18  20
ENDBRANCH   1  16
TORSDOF 4
