MODEL 1
REMARK VINA RESULT:    -8.275      0.000      0.000
REMARK INTER + INTRA:         -12.612
REMARK INTER:                 -11.662
REMARK INTRA:                  -0.951
REMARK UNBOUND:                -0.951
REMARK SMILES COc1ccc(Cl)cc1NC(=O)COC(=O)c1cc(O)c2ccccc2c1O
REMARK SMILES IDX 13 1 11 2 10 3 12 4 9 6 3 7 4 8 5 9 8 10 6 11 7 12 2 13 1 14
REMARK SMILES IDX 14 15 15 16 16 17 17 18 18 19 27 20 19 21 26 22 21 23 25 24
REMARK SMILES IDX 22 25 24 26 23 27 28 28 20 30
REMARK H PARENT 10 5 28 29 20 31
ROOT
ATOM      1  C   UNL     1      13.422 -19.382 -50.576  1.00  0.00     0.333 C 
ENDROOT
BRANCH   1   2
ATOM      2  C   UNL     1      13.487 -20.125 -49.237  1.00  0.00     0.262 C 
ATOM      3  N   UNL     1      14.172 -21.320 -49.312  1.00  0.00    -0.320 N 
ATOM      4  O   UNL     1      12.953 -19.657 -48.234  1.00  0.00    -0.271 OA
ATOM      5  H   UNL     1      14.582 -21.575 -50.214  1.00  0.00     0.170 HD
BRANCH   3   6
ATOM      6  C   UNL     1      14.447 -22.247 -48.281  1.00  0.00     0.085 A 
ATOM      7  C   UNL     1      13.525 -23.307 -48.117  1.00  0.00     0.142 A 
ATOM      8  C   UNL     1      13.731 -24.260 -47.114  1.00  0.00     0.050 A 
ATOM      9  C   UNL     1      14.848 -24.165 -46.283  1.00  0.00     0.024 A 
ATOM     10  C   UNL     1      15.562 -22.164 -47.445  1.00  0.00     0.050 A 
ATOM     11  C   UNL     1      15.756 -23.123 -46.451  1.00  0.00     0.043 A 
ATOM     12  Cl  UNL     1      17.129 -23.020 -45.418  1.00  0.00    -0.084 Cl
BRANCH   7  13
ATOM     13  O   UNL     1      12.464 -23.305 -48.991  1.00  0.00    -0.495 OA
ATOM     14  C   UNL     1      11.533 -24.376 -48.889  1.00  0.00     0.278 C 
ENDBRANCH   7  13
ENDBRANCH   3   6
ENDBRANCH   1   2
BRANCH   1  15
ATOM     15  O   UNL     1      13.911 -20.148 -51.681  1.00  0.00    -0.452 OA
BRANCH  15  16
ATOM     16  C   UNL     1      13.995 -19.489 -52.858  1.00  0.00     0.342 C 
ATOM     17  O   UNL     1      13.047 -19.212 -53.582  1.00  0.00    -0.246 OA
BRANCH  16  18
ATOM     18  C   UNL     1      15.393 -19.148 -53.217  1.00  0.00     0.106 A 
ATOM     19  C   UNL     1      16.300 -20.139 -53.595  1.00  0.00     0.066 A 
ATOM     20  C   UNL     1      15.821 -17.810 -53.178  1.00  0.00     0.138 A 
ATOM     21  C   UNL     1      17.611 -19.799 -53.925  1.00  0.00     0.124 A 
ATOM     22  C   UNL     1      17.147 -17.450 -53.526  1.00  0.00     0.028 A 
ATOM     23  C   UNL     1      18.063 -18.459 -53.918  1.00  0.00     0.027 A 
ATOM     24  C   UNL     1      17.582 -16.107 -53.500  1.00  0.00     0.013 A 
ATOM     25  C   UNL     1      19.373 -18.067 -54.290  1.00  0.00     0.013 A 
ATOM     26  C   UNL     1      18.882 -15.750 -53.856  1.00  0.00     0.001 A 
ATOM     27  C   UNL     1      19.776 -16.731 -54.256  1.00  0.00     0.001 A 
BRANCH  20  28
ATOM     28  O   UNL     1      14.969 -16.790 -52.807  1.00  0.00    -0.506 OA
ATOM     29  H   UNL     1      15.169 -15.989 -53.338  1.00  0.00     0.293 HD
ENDBRANCH  20  28
BRANCH  21  30
ATOM     30  O   UNL     1      18.412 -20.863 -54.246  1.00  0.00    -0.507 OA
ATOM     31  H   UNL     1      19.220 -20.541 -54.674  1.00  0.00     0.293 HD
ENDBRANCH  21  30
ENDBRANCH  16  18
ENDBRANCH  15  16
ENDBRANCH   1  15
TORSDOF 8
ENDMDL
MODEL 2
REMARK VINA RESULT:    -8.156      5.516     10.632
REMARK INTER + INTRA:         -12.445
REMARK INTER:                 -11.336
REMARK INTRA:                  -1.109
REMARK UNBOUND:                -0.951
REMARK SMILES COc1ccc(Cl)cc1NC(=O)COC(=O)c1cc(O)c2ccccc2c1O
REMARK SMILES IDX 13 1 11 2 10 3 12 4 9 6 3 7 4 8 5 9 8 10 6 11 7 12 2 13 1 14
REMARK SMILES IDX 14 15 15 16 16 17 17 18 18 19 27 20 19 21 26 22 21 23 25 24
REMARK SMILES IDX 22 25 24 26 23 27 28 28 20 30
REMARK H PARENT 10 5 28 29 20 31
ROOT
ATOM      1  C   UNL     1      16.414 -22.210 -44.947  1.00  0.00     0.333 C 
ENDROOT
BRANCH   1   2
ATOM      2  C   UNL     1      15.755 -22.325 -46.327  1.00  0.00     0.262 C 
ATOM      3  N   UNL     1      14.502 -21.748 -46.380  1.00  0.00    -0.320 N 
ATOM      4  O   UNL     1      16.330 -22.894 -47.250  1.00  0.00    -0.271 OA
ATOM      5  H   UNL     1      14.156 -21.290 -45.533  1.00  0.00     0.170 HD
BRANCH   3   6
ATOM      6  C   UNL     1      13.623 -21.646 -47.481  1.00  0.00     0.085 A 
ATOM      7  C   UNL     1      12.351 -22.245 -47.337  1.00  0.00     0.142 A 
ATOM      8  C   UNL     1      11.430 -22.187 -48.387  1.00  0.00     0.050 A 
ATOM      9  C   UNL     1      11.767 -21.532 -49.573  1.00  0.00     0.024 A 
ATOM     10  C   UNL     1      13.949 -20.992 -48.671  1.00  0.00     0.050 A 
ATOM     11  C   UNL     1      13.019 -20.939 -49.709  1.00  0.00     0.043 A 
ATOM     12  Cl  UNL     1      13.420 -20.136 -51.178  1.00  0.00    -0.084 Cl
BRANCH   7  13
ATOM     13  O   UNL     1      12.123 -22.860 -46.128  1.00  0.00    -0.495 OA
ATOM     14  C   UNL     1      11.639 -24.197 -46.156  1.00  0.00     0.278 C 
ENDBRANCH   7  13
ENDBRANCH   3   6
ENDBRANCH   1   2
BRANCH   1  15
ATOM     15  O   UNL     1      17.192 -23.355 -44.586  1.00  0.00    -0.452 OA
BRANCH  15  16
ATOM     16  C   UNL     1      16.502 -24.507 -44.434  1.00  0.00     0.342 C 
ATOM     17  O   UNL     1      16.597 -25.489 -45.159  1.00  0.00    -0.246 OA
BRANCH  16  18
ATOM     18  C   UNL     1      15.563 -24.456 -43.287  1.00  0.00     0.106 A 
ATOM     19  C   UNL     1      14.183 -24.402 -43.490  1.00  0.00     0.066 A 
ATOM     20  C   UNL     1      16.060 -24.460 -41.973  1.00  0.00     0.138 A 
ATOM     21  C   UNL     1      13.318 -24.350 -42.399  1.00  0.00     0.124 A 
ATOM     22  C   UNL     1      15.189 -24.423 -40.856  1.00  0.00     0.028 A 
ATOM     23  C   UNL     1      13.788 -24.377 -41.065  1.00  0.00     0.027 A 
ATOM     24  C   UNL     1      15.681 -24.437 -39.532  1.00  0.00     0.013 A 
ATOM     25  C   UNL     1      12.940 -24.372 -39.929  1.00  0.00     0.013 A 
ATOM     26  C   UNL     1      14.824 -24.417 -38.432  1.00  0.00     0.001 A 
ATOM     27  C   UNL     1      13.453 -24.389 -38.632  1.00  0.00     0.001 A 
BRANCH  20  28
ATOM     28  O   UNL     1      17.415 -24.507 -41.713  1.00  0.00    -0.506 OA
ATOM     29  H   UNL     1      17.807 -23.622 -41.869  1.00  0.00     0.293 HD
ENDBRANCH  20  28
BRANCH  21  30
ATOM     30  O   UNL     1      11.990 -24.266 -42.728  1.00  0.00    -0.507 OA
ATOM     31  H   UNL     1      11.863 -24.571 -43.639  1.00  0.00     0.293 HD
ENDBRANCH  21  30
ENDBRANCH  16  18
ENDBRANCH  15  16
ENDBRANCH   1  15
TORSDOF 8
ENDMDL
MODEL 3
REMARK VINA RESULT:    -7.964      6.283     10.286
REMARK INTER + INTRA:         -12.174
REMARK INTER:                 -10.731
REMARK INTRA:                  -1.443
REMARK UNBOUND:                -0.951
REMARK SMILES COc1ccc(Cl)cc1NC(=O)COC(=O)c1cc(O)c2ccccc2c1O
REMARK SMILES IDX 13 1 11 2 10 3 12 4 9 6 3 7 4 8 5 9 8 10 6 11 7 12 2 13 1 14
REMARK SMILES IDX 14 15 15 16 16 17 17 18 18 19 27 20 19 21 26 22 21 23 25 24
REMARK SMILES IDX 22 25 24 26 23 27 28 28 20 30
REMARK H PARENT 10 5 28 29 20 31
ROOT
ATOM      1  C   UNL     1      15.552 -22.356 -47.014  1.00  0.00     0.333 C 
ENDROOT
BRANCH   1   2
ATOM      2  C   UNL     1      14.047 -22.231 -47.275  1.00  0.00     0.262 C 
ATOM      3  N   UNL     1      13.464 -23.419 -47.667  1.00  0.00    -0.320 N 
ATOM      4  O   UNL     1      13.475 -21.153 -47.141  1.00  0.00    -0.271 OA
ATOM      5  H   UNL     1      14.064 -24.246 -47.718  1.00  0.00     0.170 HD
BRANCH   3   6
ATOM      6  C   UNL     1      12.108 -23.681 -47.967  1.00  0.00     0.085 A 
ATOM      7  C   UNL     1      11.398 -24.486 -47.047  1.00  0.00     0.142 A 
ATOM      8  C   UNL     1      10.053 -24.790 -47.281  1.00  0.00     0.050 A 
ATOM      9  C   UNL     1       9.414 -24.292 -48.418  1.00  0.00     0.024 A 
ATOM     10  C   UNL     1      11.459 -23.186 -49.100  1.00  0.00     0.050 A 
ATOM     11  C   UNL     1      10.116 -23.495 -49.318  1.00  0.00     0.043 A 
ATOM     12  Cl  UNL     1       9.314 -22.889 -50.716  1.00  0.00    -0.084 Cl
BRANCH   7  13
ATOM     13  O   UNL     1      12.122 -24.920 -45.962  1.00  0.00    -0.495 OA
ATOM     14  C   UNL     1      12.214 -26.324 -45.758  1.00  0.00     0.278 C 
ENDBRANCH   7  13
ENDBRANCH   3   6
ENDBRANCH   1   2
BRANCH   1  15
ATOM     15  O   UNL     1      15.874 -23.186 -45.894  1.00  0.00    -0.452 OA
BRANCH  15  16
ATOM     16  C   UNL     1      16.096 -22.537 -44.730  1.00  0.00     0.342 C 
ATOM     17  O   UNL     1      16.856 -21.587 -44.586  1.00  0.00    -0.246 OA
BRANCH  16  18
ATOM     18  C   UNL     1      15.335 -23.122 -43.600  1.00  0.00     0.106 A 
ATOM     19  C   UNL     1      13.992 -23.471 -43.743  1.00  0.00     0.066 A 
ATOM     20  C   UNL     1      15.967 -23.331 -42.362  1.00  0.00     0.138 A 
ATOM     21  C   UNL     1      13.292 -24.015 -42.666  1.00  0.00     0.124 A 
ATOM     22  C   UNL     1      15.271 -23.898 -41.266  1.00  0.00     0.028 A 
ATOM     23  C   UNL     1      13.908 -24.259 -41.416  1.00  0.00     0.027 A 
ATOM     24  C   UNL     1      15.902 -24.120 -40.022  1.00  0.00     0.013 A 
ATOM     25  C   UNL     1      13.246 -24.852 -40.313  1.00  0.00     0.013 A 
ATOM     26  C   UNL     1      15.222 -24.692 -38.947  1.00  0.00     0.001 A 
ATOM     27  C   UNL     1      13.895 -25.062 -39.095  1.00  0.00     0.001 A 
BRANCH  20  28
ATOM     28  O   UNL     1      17.292 -23.000 -42.163  1.00  0.00    -0.506 OA
ATOM     29  H   UNL     1      17.387 -22.024 -42.158  1.00  0.00     0.293 HD
ENDBRANCH  20  28
BRANCH  21  30
ATOM     30  O   UNL     1      11.973 -24.285 -42.921  1.00  0.00    -0.507 OA
ATOM     31  H   UNL     1      11.799 -24.177 -43.869  1.00  0.00     0.293 HD
ENDBRANCH  21  30
ENDBRANCH  16  18
ENDBRANCH  15  16
ENDBRANCH   1  15
TORSDOF 8
ENDMDL
MODEL 4
REMARK VINA RESULT:    -7.853      5.948      8.873
REMARK INTER + INTRA:         -12.017
REMARK INTER:                 -10.328
REMARK INTRA:                  -1.689
REMARK UNBOUND:                -0.951
REMARK SMILES COc1ccc(Cl)cc1NC(=O)COC(=O)c1cc(O)c2ccccc2c1O
REMARK SMILES IDX 13 1 11 2 10 3 12 4 9 6 3 7 4 8 5 9 8 10 6 11 7 12 2 13 1 14
REMARK SMILES IDX 14 15 15 16 16 17 17 18 18 19 27 20 19 21 26 22 21 23 25 24
REMARK SMILES IDX 22 25 24 26 23 27 28 28 20 30
REMARK H PARENT 10 5 28 29 20 31
ROOT
ATOM      1  C   UNL     1      12.165 -21.245 -49.213  1.00  0.00     0.333 C 
ENDROOT
BRANCH   1   2
ATOM      2  C   UNL     1      11.194 -22.352 -49.638  1.00  0.00     0.262 C 
ATOM      3  N   UNL     1      10.547 -22.945 -48.573  1.00  0.00    -0.320 N 
ATOM      4  O   UNL     1      11.057 -22.644 -50.823  1.00  0.00    -0.271 OA
ATOM      5  H   UNL     1      10.748 -22.584 -47.637  1.00  0.00     0.170 HD
BRANCH   3   6
ATOM      6  C   UNL     1       9.578 -23.973 -48.590  1.00  0.00     0.085 A 
ATOM      7  C   UNL     1      10.017 -25.267 -48.228  1.00  0.00     0.142 A 
ATOM      8  C   UNL     1       9.114 -26.335 -48.225  1.00  0.00     0.050 A 
ATOM      9  C   UNL     1       7.780 -26.118 -48.574  1.00  0.00     0.024 A 
ATOM     10  C   UNL     1       8.241 -23.768 -48.936  1.00  0.00     0.050 A 
ATOM     11  C   UNL     1       7.350 -24.841 -48.926  1.00  0.00     0.043 A 
ATOM     12  Cl  UNL     1       5.702 -24.590 -49.354  1.00  0.00    -0.084 Cl
BRANCH   7  13
ATOM     13  O   UNL     1      11.349 -25.367 -47.899  1.00  0.00    -0.495 OA
ATOM     14  C   UNL     1      12.187 -26.099 -48.786  1.00  0.00     0.278 C 
ENDBRANCH   7  13
ENDBRANCH   3   6
ENDBRANCH   1   2
BRANCH   1  15
ATOM     15  O   UNL     1      12.679 -21.410 -47.888  1.00  0.00    -0.452 OA
BRANCH  15  16
ATOM     16  C   UNL     1      13.935 -21.901 -47.806  1.00  0.00     0.342 C 
ATOM     17  O   UNL     1      14.714 -22.008 -48.745  1.00  0.00    -0.246 OA
BRANCH  16  18
ATOM     18  C   UNL     1      14.282 -22.342 -46.434  1.00  0.00     0.106 A 
ATOM     19  C   UNL     1      15.553 -22.115 -45.905  1.00  0.00     0.066 A 
ATOM     20  C   UNL     1      13.323 -23.004 -45.646  1.00  0.00     0.138 A 
ATOM     21  C   UNL     1      15.860 -22.542 -44.614  1.00  0.00     0.124 A 
ATOM     22  C   UNL     1      13.619 -23.429 -44.328  1.00  0.00     0.028 A 
ATOM     23  C   UNL     1      14.909 -23.188 -43.790  1.00  0.00     0.027 A 
ATOM     24  C   UNL     1      12.658 -24.084 -43.527  1.00  0.00     0.013 A 
ATOM     25  C   UNL     1      15.167 -23.597 -42.458  1.00  0.00     0.013 A 
ATOM     26  C   UNL     1      12.944 -24.490 -42.223  1.00  0.00     0.001 A 
ATOM     27  C   UNL     1      14.198 -24.241 -41.688  1.00  0.00     0.001 A 
BRANCH  20  28
ATOM     28  O   UNL     1      12.052 -23.260 -46.120  1.00  0.00    -0.506 OA
ATOM     29  H   UNL     1      11.456 -22.524 -45.867  1.00  0.00     0.293 HD
ENDBRANCH  20  28
BRANCH  21  30
ATOM     30  O   UNL     1      17.149 -22.290 -44.222  1.00  0.00    -0.507 OA
ATOM     31  H   UNL     1      17.762 -22.615 -44.899  1.00  0.00     0.293 HD
ENDBRANCH  21  30
ENDBRANCH  16  18
ENDBRANCH  15  16
ENDBRANCH   1  15
TORSDOF 8
ENDMDL
MODEL 5
REMARK VINA RESULT:    -7.838      6.729     10.086
REMARK INTER + INTRA:         -11.996
REMARK INTER:                 -10.942
REMARK INTRA:                  -1.054
REMARK UNBOUND:                -0.951
REMARK SMILES COc1ccc(Cl)cc1NC(=O)COC(=O)c1cc(O)c2ccccc2c1O
REMARK SMILES IDX 13 1 11 2 10 3 12 4 9 6 3 7 4 8 5 9 8 10 6 11 7 12 2 13 1 14
REMARK SMILES IDX 14 15 15 16 16 17 17 18 18 19 27 20 19 21 26 22 21 23 25 24
REMARK SMILES IDX 22 25 24 26 23 27 28 28 20 30
REMARK H PARENT 10 5 28 29 20 31
ROOT
ATOM      1  C   UNL     1      13.513 -23.066 -48.267  1.00  0.00     0.333 C 
ENDROOT
BRANCH   1   2
ATOM      2  C   UNL     1      12.284 -23.834 -48.767  1.00  0.00     0.262 C 
ATOM      3  N   UNL     1      11.145 -23.057 -48.824  1.00  0.00    -0.320 N 
ATOM      4  O   UNL     1      12.366 -25.023 -49.062  1.00  0.00    -0.271 OA
ATOM      5  H   UNL     1      11.231 -22.071 -48.563  1.00  0.00     0.170 HD
BRANCH   3   6
ATOM      6  C   UNL     1       9.849 -23.420 -49.253  1.00  0.00     0.085 A 
ATOM      7  C   UNL     1       9.051 -24.137 -48.332  1.00  0.00     0.142 A 
ATOM      8  C   UNL     1       7.759 -24.533 -48.690  1.00  0.00     0.050 A 
ATOM      9  C   UNL     1       7.258 -24.214 -49.953  1.00  0.00     0.024 A 
ATOM     10  C   UNL     1       9.337 -23.105 -50.514  1.00  0.00     0.050 A 
ATOM     11  C   UNL     1       8.045 -23.504 -50.856  1.00  0.00     0.043 A 
ATOM     12  Cl  UNL     1       7.412 -23.118 -52.410  1.00  0.00    -0.084 Cl
BRANCH   7  13
ATOM     13  O   UNL     1       9.642 -24.395 -47.117  1.00  0.00    -0.495 OA
ATOM     14  C   UNL     1       9.758 -25.757 -46.724  1.00  0.00     0.278 C 
ENDBRANCH   7  13
ENDBRANCH   3   6
ENDBRANCH   1   2
BRANCH   1  15
ATOM     15  O   UNL     1      13.945 -23.462 -46.962  1.00  0.00    -0.452 OA
BRANCH  15  16
ATOM     16  C   UNL     1      13.272 -22.907 -45.930  1.00  0.00     0.342 C 
ATOM     17  O   UNL     1      12.268 -22.213 -46.034  1.00  0.00    -0.246 OA
BRANCH  16  18
ATOM     18  C   UNL     1      13.903 -23.199 -44.620  1.00  0.00     0.106 A 
ATOM     19  C   UNL     1      15.220 -22.822 -44.357  1.00  0.00     0.066 A 
ATOM     20  C   UNL     1      13.171 -23.867 -43.623  1.00  0.00     0.138 A 
ATOM     21  C   UNL     1      15.796 -23.110 -43.120  1.00  0.00     0.124 A 
ATOM     22  C   UNL     1      13.740 -24.151 -42.357  1.00  0.00     0.028 A 
ATOM     23  C   UNL     1      15.076 -23.759 -42.089  1.00  0.00     0.027 A 
ATOM     24  C   UNL     1      13.008 -24.811 -41.346  1.00  0.00     0.013 A 
ATOM     25  C   UNL     1      15.610 -24.029 -40.805  1.00  0.00     0.013 A 
ATOM     26  C   UNL     1      13.562 -25.078 -40.095  1.00  0.00     0.001 A 
ATOM     27  C   UNL     1      14.862 -24.682 -39.823  1.00  0.00     0.001 A 
BRANCH  20  28
ATOM     28  O   UNL     1      11.866 -24.267 -43.830  1.00  0.00    -0.506 OA
ATOM     29  H   UNL     1      11.854 -25.209 -44.100  1.00  0.00     0.293 HD
ENDBRANCH  20  28
BRANCH  21  30
ATOM     30  O   UNL     1      17.103 -22.720 -42.995  1.00  0.00    -0.507 OA
ATOM     31  H   UNL     1      17.477 -22.558 -43.875  1.00  0.00     0.293 HD
ENDBRANCH  21  30
ENDBRANCH  16  18
ENDBRANCH  15  16
ENDBRANCH   1  15
TORSDOF 8
ENDMDL
MODEL 6
REMARK VINA RESULT:    -7.680      5.815     10.576
REMARK INTER + INTRA:         -11.773
REMARK INTER:                 -10.824
REMARK INTRA:                  -0.948
REMARK UNBOUND:                -0.951
REMARK SMILES COc1ccc(Cl)cc1NC(=O)COC(=O)c1cc(O)c2ccccc2c1O
REMARK SMILES IDX 13 1 11 2 10 3 12 4 9 6 3 7 4 8 5 9 8 10 6 11 7 12 2 13 1 14
REMARK SMILES IDX 14 15 15 16 16 17 17 18 18 19 27 20 19 21 26 22 21 23 25 24
REMARK SMILES IDX 22 25 24 26 23 27 28 28 20 30
REMARK H PARENT 10 5 28 29 20 31
ROOT
ATOM      1  C   UNL     1      13.691 -25.093 -46.432  1.00  0.00     0.333 C 
ENDROOT
BRANCH   1   2
ATOM      2  C   UNL     1      12.620 -25.214 -47.522  1.00  0.00     0.262 C 
ATOM      3  N   UNL     1      11.739 -24.151 -47.538  1.00  0.00    -0.320 N 
ATOM      4  O   UNL     1      12.593 -26.188 -48.269  1.00  0.00    -0.271 OA
ATOM      5  H   UNL     1      11.896 -23.397 -46.864  1.00  0.00     0.170 HD
BRANCH   3   6
ATOM      6  C   UNL     1      10.652 -23.918 -48.409  1.00  0.00     0.085 A 
ATOM      7  C   UNL     1      10.908 -23.114 -49.544  1.00  0.00     0.142 A 
ATOM      8  C   UNL     1       9.878 -22.837 -50.448  1.00  0.00     0.050 A 
ATOM      9  C   UNL     1       8.602 -23.361 -50.232  1.00  0.00     0.024 A 
ATOM     10  C   UNL     1       9.373 -24.439 -48.204  1.00  0.00     0.050 A 
ATOM     11  C   UNL     1       8.356 -24.157 -49.117  1.00  0.00     0.043 A 
ATOM     12  Cl  UNL     1       6.777 -24.795 -48.864  1.00  0.00    -0.084 Cl
BRANCH   7  13
ATOM     13  O   UNL     1      12.198 -22.653 -49.660  1.00  0.00    -0.495 OA
ATOM     14  C   UNL     1      12.381 -21.247 -49.770  1.00  0.00     0.278 C 
ENDBRANCH   7  13
ENDBRANCH   3   6
ENDBRANCH   1   2
BRANCH   1  15
ATOM     15  O   UNL     1      13.969 -23.743 -46.049  1.00  0.00    -0.452 OA
BRANCH  15  16
ATOM     16  C   UNL     1      13.276 -23.284 -44.983  1.00  0.00     0.342 C 
ATOM     17  O   UNL     1      12.196 -22.709 -45.038  1.00  0.00    -0.246 OA
BRANCH  16  18
ATOM     18  C   UNL     1      13.985 -23.520 -43.702  1.00  0.00     0.106 A 
ATOM     19  C   UNL     1      15.305 -23.104 -43.524  1.00  0.00     0.066 A 
ATOM     20  C   UNL     1      13.326 -24.173 -42.646  1.00  0.00     0.138 A 
ATOM     21  C   UNL     1      15.955 -23.340 -42.313  1.00  0.00     0.124 A 
ATOM     22  C   UNL     1      13.972 -24.405 -41.406  1.00  0.00     0.028 A 
ATOM     23  C   UNL     1      15.310 -23.973 -41.225  1.00  0.00     0.027 A 
ATOM     24  C   UNL     1      13.313 -25.051 -40.337  1.00  0.00     0.013 A 
ATOM     25  C   UNL     1      15.920 -24.190 -39.965  1.00  0.00     0.013 A 
ATOM     26  C   UNL     1      13.942 -25.265 -39.111  1.00  0.00     0.001 A 
ATOM     27  C   UNL     1      15.244 -24.830 -38.924  1.00  0.00     0.001 A 
BRANCH  20  28
ATOM     28  O   UNL     1      12.023 -24.610 -42.769  1.00  0.00    -0.506 OA
ATOM     29  H   UNL     1      11.800 -25.188 -42.008  1.00  0.00     0.293 HD
ENDBRANCH  20  28
BRANCH  21  30
ATOM     30  O   UNL     1      17.257 -22.915 -42.273  1.00  0.00    -0.507 OA
ATOM     31  H   UNL     1      17.812 -23.528 -42.780  1.00  0.00     0.293 HD
ENDBRANCH  21  30
ENDBRANCH  16  18
ENDBRANCH  15  16
ENDBRANCH   1  15
TORSDOF 8
ENDMDL
MODEL 7
REMARK VINA RESULT:    -7.624      5.470      8.458
REMARK INTER + INTRA:         -11.694
REMARK INTER:                 -10.018
REMARK INTRA:                  -1.676
REMARK UNBOUND:                -0.951
REMARK SMILES COc1ccc(Cl)cc1NC(=O)COC(=O)c1cc(O)c2ccccc2c1O
REMARK SMILES IDX 13 1 11 2 10 3 12 4 9 6 3 7 4 8 5 9 8 10 6 11 7 12 2 13 1 14
REMARK SMILES IDX 14 15 15 16 16 17 17 18 18 19 27 20 19 21 26 22 21 23 25 24
REMARK SMILES IDX 22 25 24 26 23 27 28 28 20 30
REMARK H PARENT 10 5 28 29 20 31
ROOT
ATOM      1  C   UNL     1      16.043 -21.939 -44.334  1.00  0.00     0.333 C 
ENDROOT
BRANCH   1   2
ATOM      2  C   UNL     1      16.027 -22.729 -43.021  1.00  0.00     0.262 C 
ATOM      3  N   UNL     1      14.825 -23.364 -42.783  1.00  0.00    -0.320 N 
ATOM      4  O   UNL     1      17.013 -22.748 -42.289  1.00  0.00    -0.271 OA
ATOM      5  H   UNL     1      14.094 -23.275 -43.494  1.00  0.00     0.170 HD
BRANCH   3   6
ATOM      6  C   UNL     1      14.462 -24.190 -41.696  1.00  0.00     0.085 A 
ATOM      7  C   UNL     1      14.459 -25.584 -41.929  1.00  0.00     0.142 A 
ATOM      8  C   UNL     1      14.106 -26.462 -40.899  1.00  0.00     0.050 A 
ATOM      9  C   UNL     1      13.764 -25.960 -39.643  1.00  0.00     0.024 A 
ATOM     10  C   UNL     1      14.119 -23.698 -40.434  1.00  0.00     0.050 A 
ATOM     11  C   UNL     1      13.772 -24.586 -39.416  1.00  0.00     0.043 A 
ATOM     12  Cl  UNL     1      13.347 -23.982 -37.861  1.00  0.00    -0.084 Cl
BRANCH   7  13
ATOM     13  O   UNL     1      14.815 -25.970 -43.200  1.00  0.00    -0.495 OA
ATOM     14  C   UNL     1      16.136 -26.462 -43.386  1.00  0.00     0.278 C 
ENDBRANCH   7  13
ENDBRANCH   3   6
ENDBRANCH   1   2
BRANCH   1  15
ATOM     15  O   UNL     1      16.988 -22.433 -45.289  1.00  0.00    -0.452 OA
BRANCH  15  16
ATOM     16  C   UNL     1      16.576 -23.486 -46.028  1.00  0.00     0.342 C 
ATOM     17  O   UNL     1      17.118 -24.584 -46.056  1.00  0.00    -0.246 OA
BRANCH  16  18
ATOM     18  C   UNL     1      15.386 -23.168 -46.853  1.00  0.00     0.106 A 
ATOM     19  C   UNL     1      15.448 -22.207 -47.863  1.00  0.00     0.066 A 
ATOM     20  C   UNL     1      14.172 -23.838 -46.621  1.00  0.00     0.138 A 
ATOM     21  C   UNL     1      14.316 -21.919 -48.624  1.00  0.00     0.124 A 
ATOM     22  C   UNL     1      13.020 -23.565 -47.399  1.00  0.00     0.028 A 
ATOM     23  C   UNL     1      13.088 -22.594 -48.430  1.00  0.00     0.027 A 
ATOM     24  C   UNL     1      11.800 -24.241 -47.179  1.00  0.00     0.013 A 
ATOM     25  C   UNL     1      11.929 -22.363 -49.212  1.00  0.00     0.013 A 
ATOM     26  C   UNL     1      10.669 -23.984 -47.954  1.00  0.00     0.001 A 
ATOM     27  C   UNL     1      10.736 -23.048 -48.974  1.00  0.00     0.001 A 
BRANCH  20  28
ATOM     28  O   UNL     1      14.052 -24.794 -45.633  1.00  0.00    -0.506 OA
ATOM     29  H   UNL     1      13.454 -25.508 -45.941  1.00  0.00     0.293 HD
ENDBRANCH  20  28
BRANCH  21  30
ATOM     30  O   UNL     1      14.494 -20.935 -49.561  1.00  0.00    -0.507 OA
ATOM     31  H   UNL     1      13.641 -20.519 -49.759  1.00  0.00     0.293 HD
ENDBRANCH  21  30
ENDBRANCH  16  18
ENDBRANCH  15  16
ENDBRANCH   1  15
TORSDOF 8
ENDMDL
MODEL 8
REMARK VINA RESULT:    -7.606      5.612      8.651
REMARK INTER + INTRA:         -11.669
REMARK INTER:                 -10.452
REMARK INTRA:                  -1.217
REMARK UNBOUND:                -0.951
REMARK SMILES COc1ccc(Cl)cc1NC(=O)COC(=O)c1cc(O)c2ccccc2c1O
REMARK SMILES IDX 13 1 11 2 10 3 12 4 9 6 3 7 4 8 5 9 8 10 6 11 7 12 2 13 1 14
REMARK SMILES IDX 14 15 15 16 16 17 17 18 18 19 27 20 19 21 26 22 21 23 25 24
REMARK SMILES IDX 22 25 24 26 23 27 28 28 20 30
REMARK H PARENT 10 5 28 29 20 31
ROOT
ATOM      1  C   UNL     1      14.894 -21.987 -47.793  1.00  0.00     0.333 C 
ENDROOT
BRANCH   1   2
ATOM      2  C   UNL     1      15.023 -22.956 -46.612  1.00  0.00     0.262 C 
ATOM      3  N   UNL     1      14.961 -22.327 -45.385  1.00  0.00    -0.320 N 
ATOM      4  O   UNL     1      15.174 -24.159 -46.802  1.00  0.00    -0.271 OA
ATOM      5  H   UNL     1      14.812 -21.315 -45.379  1.00  0.00     0.170 HD
BRANCH   3   6
ATOM      6  C   UNL     1      15.021 -22.900 -44.095  1.00  0.00     0.085 A 
ATOM      7  C   UNL     1      16.222 -22.717 -43.372  1.00  0.00     0.142 A 
ATOM      8  C   UNL     1      16.354 -23.259 -42.090  1.00  0.00     0.050 A 
ATOM      9  C   UNL     1      15.297 -23.975 -41.525  1.00  0.00     0.024 A 
ATOM     10  C   UNL     1      13.969 -23.616 -43.519  1.00  0.00     0.050 A 
ATOM     11  C   UNL     1      14.114 -24.149 -42.238  1.00  0.00     0.043 A 
ATOM     12  Cl  UNL     1      12.820 -25.034 -41.527  1.00  0.00    -0.084 Cl
BRANCH   7  13
ATOM     13  O   UNL     1      17.196 -21.994 -44.022  1.00  0.00    -0.495 OA
ATOM     14  C   UNL     1      18.327 -22.709 -44.502  1.00  0.00     0.278 C 
ENDBRANCH   7  13
ENDBRANCH   3   6
ENDBRANCH   1   2
BRANCH   1  15
ATOM     15  O   UNL     1      13.788 -22.276 -48.654  1.00  0.00    -0.452 OA
BRANCH  15  16
ATOM     16  C   UNL     1      12.606 -21.730 -48.289  1.00  0.00     0.342 C 
ATOM     17  O   UNL     1      12.427 -20.549 -48.021  1.00  0.00    -0.246 OA
BRANCH  16  18
ATOM     18  C   UNL     1      11.518 -22.735 -48.212  1.00  0.00     0.106 A 
ATOM     19  C   UNL     1      11.496 -23.693 -47.198  1.00  0.00     0.066 A 
ATOM     20  C   UNL     1      10.490 -22.731 -49.171  1.00  0.00     0.138 A 
ATOM     21  C   UNL     1      10.467 -24.632 -47.146  1.00  0.00     0.124 A 
ATOM     22  C   UNL     1       9.431 -23.670 -49.119  1.00  0.00     0.028 A 
ATOM     23  C   UNL     1       9.407 -24.638 -48.082  1.00  0.00     0.027 A 
ATOM     24  C   UNL     1       8.389 -23.666 -50.072  1.00  0.00     0.013 A 
ATOM     25  C   UNL     1       8.319 -25.545 -48.037  1.00  0.00     0.013 A 
ATOM     26  C   UNL     1       7.338 -24.581 -50.012  1.00  0.00     0.001 A 
ATOM     27  C   UNL     1       7.301 -25.517 -48.992  1.00  0.00     0.001 A 
BRANCH  20  28
ATOM     28  O   UNL     1      10.465 -21.810 -50.198  1.00  0.00    -0.506 OA
ATOM     29  H   UNL     1      10.189 -22.254 -51.027  1.00  0.00     0.293 HD
ENDBRANCH  20  28
BRANCH  21  30
ATOM     30  O   UNL     1      10.575 -25.540 -46.125  1.00  0.00    -0.507 OA
ATOM     31  H   UNL     1      11.511 -25.705 -45.937  1.00  0.00     0.293 HD
ENDBRANCH  21  30
ENDBRANCH  16  18
ENDBRANCH  15  16
ENDBRANCH   1  15
TORSDOF 8
ENDMDL
MODEL 9
REMARK VINA RESULT:    -7.542      6.190      9.396
REMARK INTER + INTRA:         -11.580
REMARK INTER:                 -10.481
REMARK INTRA:                  -1.099
REMARK UNBOUND:                -0.951
REMARK SMILES COc1ccc(Cl)cc1NC(=O)COC(=O)c1cc(O)c2ccccc2c1O
REMARK SMILES IDX 13 1 11 2 10 3 12 4 9 6 3 7 4 8 5 9 8 10 6 11 7 12 2 13 1 14
REMARK SMILES IDX 14 15 15 16 16 17 17 18 18 19 27 20 19 21 26 22 21 23 25 24
REMARK SMILES IDX 22 25 24 26 23 27 28 28 20 30
REMARK H PARENT 10 5 28 29 20 31
ROOT
ATOM      1  C   UNL     1      12.186 -21.314 -48.649  1.00  0.00     0.333 C 
ENDROOT
BRANCH   1   2
ATOM      2  C   UNL     1      11.080 -22.343 -48.909  1.00  0.00     0.262 C 
ATOM      3  N   UNL     1      10.562 -22.273 -50.186  1.00  0.00    -0.320 N 
ATOM      4  O   UNL     1      10.726 -23.119 -48.025  1.00  0.00    -0.271 OA
ATOM      5  H   UNL     1      10.970 -21.585 -50.824  1.00  0.00     0.170 HD
BRANCH   3   6
ATOM      6  C   UNL     1       9.559 -23.072 -50.777  1.00  0.00     0.085 A 
ATOM      7  C   UNL     1       9.896 -23.729 -51.982  1.00  0.00     0.142 A 
ATOM      8  C   UNL     1       8.951 -24.534 -52.626  1.00  0.00     0.050 A 
ATOM      9  C   UNL     1       7.678 -24.691 -52.073  1.00  0.00     0.024 A 
ATOM     10  C   UNL     1       8.283 -23.237 -50.232  1.00  0.00     0.050 A 
ATOM     11  C   UNL     1       7.351 -24.046 -50.884  1.00  0.00     0.043 A 
ATOM     12  Cl  UNL     1       5.778 -24.249 -50.215  1.00  0.00    -0.084 Cl
BRANCH   7  13
ATOM     13  O   UNL     1      11.176 -23.508 -52.436  1.00  0.00    -0.495 OA
ATOM     14  C   UNL     1      11.574 -24.184 -53.621  1.00  0.00     0.278 C 
ENDBRANCH   7  13
ENDBRANCH   3   6
ENDBRANCH   1   2
BRANCH   1  15
ATOM     15  O   UNL     1      12.773 -21.418 -47.348  1.00  0.00    -0.452 OA
BRANCH  15  16
ATOM     16  C   UNL     1      13.963 -22.055 -47.293  1.00  0.00     0.342 C 
ATOM     17  O   UNL     1      14.691 -22.275 -48.253  1.00  0.00    -0.246 OA
BRANCH  16  18
ATOM     18  C   UNL     1      14.301 -22.506 -45.921  1.00  0.00     0.106 A 
ATOM     19  C   UNL     1      15.584 -22.330 -45.403  1.00  0.00     0.066 A 
ATOM     20  C   UNL     1      13.322 -23.125 -45.125  1.00  0.00     0.138 A 
ATOM     21  C   UNL     1      15.883 -22.766 -44.113  1.00  0.00     0.124 A 
ATOM     22  C   UNL     1      13.610 -23.558 -43.807  1.00  0.00     0.028 A 
ATOM     23  C   UNL     1      14.912 -23.369 -43.280  1.00  0.00     0.027 A 
ATOM     24  C   UNL     1      12.628 -24.171 -42.997  1.00  0.00     0.013 A 
ATOM     25  C   UNL     1      15.163 -23.784 -41.948  1.00  0.00     0.013 A 
ATOM     26  C   UNL     1      12.907 -24.583 -41.694  1.00  0.00     0.001 A 
ATOM     27  C   UNL     1      14.173 -24.385 -41.169  1.00  0.00     0.001 A 
BRANCH  20  28
ATOM     28  O   UNL     1      12.038 -23.330 -45.589  1.00  0.00    -0.506 OA
ATOM     29  H   UNL     1      11.444 -23.518 -44.831  1.00  0.00     0.293 HD
ENDBRANCH  20  28
BRANCH  21  30
ATOM     30  O   UNL     1      17.184 -22.566 -43.730  1.00  0.00    -0.507 OA
ATOM     31  H   UNL     1      17.699 -23.368 -43.908  1.00  0.00     0.293 HD
ENDBRANCH  21  30
ENDBRANCH  16  18
ENDBRANCH  15  16
ENDBRANCH   1  15
TORSDOF 8
ENDMDL
