REMARK SMILES CCOC(=O)Nc1cccc(C(=O)Nc2nnc(-c3ccc(C)cc3C)[nH]2)c1
REMARK SMILES IDX 7 1 8 2 9 3 10 4 11 5 28 6 6 7 4 8 5 9 3 11 2 12 1 13 12 14
REMARK SMILES IDX 13 15 14 16 15 18 16 19 27 20 17 21 18 22 19 24 20 25 25 26
REMARK SMILES IDX 21 27 24 28 22 29 26 30 23 31
REMARK H PARENT 6 10 14 17 27 23
ROOT
ATOM      1  C   UNL     1       2.653  -2.894   1.797  1.00  0.00     0.045 A 
ATOM      2  C   UNL     1       3.754  -2.427   2.525  1.00  0.00     0.026 A 
ATOM      3  C   UNL     1       4.149  -1.091   2.440  1.00  0.00     0.003 A 
ATOM      4  C   UNL     1       3.447  -0.211   1.618  1.00  0.00     0.014 A 
ATOM      5  C   UNL     1       2.350  -0.666   0.876  1.00  0.00     0.042 A 
ATOM      6  C   UNL     1       1.947  -2.005   0.980  1.00  0.00     0.040 A 
ENDROOT
BRANCH   1   7
ATOM      7  N   UNL     1       2.318  -4.251   1.942  1.00  0.00    -0.291 N 
ATOM      8  C   UNL     1       1.332  -4.954   1.311  1.00  0.00     0.411 C 
ATOM      9  O   UNL     1       0.537  -4.545   0.478  1.00  0.00    -0.224 OA
ATOM     10  H   UNL     1       2.869  -4.816   2.574  1.00  0.00     0.173 HD
BRANCH   8  11
ATOM     11  O   UNL     1       1.374  -6.236   1.761  1.00  0.00    -0.450 OA
BRANCH  11  12
ATOM     12  C   UNL     1       0.389  -7.100   1.178  1.00  0.00     0.231 C 
ATOM     13  C   UNL     1       0.559  -8.483   1.776  1.00  0.00     0.049 C 
ENDBRANCH  11  12
ENDBRANCH   8  11
ENDBRANCH   1   7
BRANCH   5  14
ATOM     14  C   UNL     1       1.632   0.316   0.013  1.00  0.00     0.258 C 
ATOM     15  O   UNL     1       1.681   1.513   0.293  1.00  0.00    -0.269 OA
ATOM     16  N   UNL     1       0.969  -0.199  -1.081  1.00  0.00    -0.291 N 
ATOM     17  H   UNL     1       0.991  -1.180  -1.326  1.00  0.00     0.173 HD
BRANCH  16  18
ATOM     18  C   UNL     1       0.280   0.604  -1.953  1.00  0.00     0.229 A 
ATOM     19  N   UNL     1      -0.357   0.213  -3.031  1.00  0.00    -0.111 NA
ATOM     20  N   UNL     1       0.158   1.958  -1.831  1.00  0.00    -0.307 N 
ATOM     21  N   UNL     1      -0.905   1.333  -3.621  1.00  0.00    -0.128 NA
ATOM     22  C   UNL     1      -0.612   2.386  -2.878  1.00  0.00     0.163 A 
ATOM     23  H   UNL     1       0.591   2.511  -1.105  1.00  0.00     0.171 HD
BRANCH  22  24
ATOM     24  C   UNL     1      -0.959   3.781  -3.148  1.00  0.00     0.022 A 
ATOM     25  C   UNL     1      -0.900   4.213  -4.485  1.00  0.00     0.012 A 
ATOM     26  C   UNL     1      -1.354   4.701  -2.154  1.00  0.00    -0.040 A 
ATOM     27  C   UNL     1      -1.179   5.536  -4.834  1.00  0.00     0.004 A 
ATOM     28  C   UNL     1      -1.617   6.036  -2.520  1.00  0.00     0.007 A 
ATOM     29  C   UNL     1      -1.520   6.464  -3.851  1.00  0.00    -0.051 A 
ATOM     30  C   UNL     1      -1.511   4.326  -0.704  1.00  0.00     0.045 C 
ATOM     31  C   UNL     1      -1.849   7.880  -4.221  1.00  0.00     0.044 C 
ENDBRANCH  22  24
ENDBRANCH  16  18
ENDBRANCH   5  14
TORSDOF 6
