MODEL 1
REMARK VINA RESULT:    -6.736      0.000      0.000
REMARK INTER + INTRA:          -8.860
REMARK INTER:                  -8.114
REMARK INTRA:                  -0.746
REMARK UNBOUND:                -0.746
REMARK SMILES CCOc1cc([C@H]2[NH2+]Cc3ccccc3-n3cccc32)ccc1O
REMARK SMILES IDX 4 1 5 2 6 3 21 4 22 5 23 6 3 7 2 8 1 9 24 10 7 12 8 13 20 14
REMARK SMILES IDX 9 15 19 16 16 17 10 18 18 19 15 20 17 21 11 22 14 23 12 24
REMARK SMILES IDX 13 25
REMARK H PARENT 24 11 8 26 8 27
ROOT
ATOM      1  C   UNL     1      11.468 -23.458 -48.071  1.00  0.00     0.161 A 
ATOM      2  C   UNL     1      11.867 -24.384 -47.097  1.00  0.00     0.060 A 
ATOM      3  C   UNL     1      12.668 -24.022 -45.996  1.00  0.00     0.019 A 
ATOM      4  C   UNL     1      13.047 -22.677 -45.884  1.00  0.00     0.014 A 
ATOM      5  C   UNL     1      12.654 -21.742 -46.848  1.00  0.00     0.051 A 
ATOM      6  C   UNL     1      11.874 -22.130 -47.940  1.00  0.00     0.157 A 
ENDROOT
BRANCH   1   7
ATOM      7  O   UNL     1      10.716 -24.033 -49.057  1.00  0.00    -0.490 OA
BRANCH   7   8
ATOM      8  C   UNL     1       9.669 -24.926 -48.679  1.00  0.00     0.226 C 
ATOM      9  C   UNL     1       8.441 -24.089 -48.358  1.00  0.00     0.049 C 
ENDBRANCH   7   8
ENDBRANCH   1   7
BRANCH   6  10
ATOM     10  O   UNL     1      11.535 -21.187 -48.865  1.00  0.00    -0.504 OA
ATOM     11  H   UNL     1      11.794 -20.303 -48.555  1.00  0.00     0.293 HD
ENDBRANCH   6  10
BRANCH   3  12
ATOM     12  C   UNL     1      13.087 -25.104 -45.014  1.00  0.00     0.262 C 
ATOM     13  N   UNL     1      14.111 -26.040 -45.519  1.00  0.00    -0.331 N 
ATOM     14  C   UNL     1      13.458 -24.684 -43.642  1.00  0.00     0.085 A 
ATOM     15  C   UNL     1      15.291 -25.420 -46.134  1.00  0.00     0.300 C 
ATOM     16  C   UNL     1      12.632 -24.720 -42.527  1.00  0.00     0.030 A 
ATOM     17  N   UNL     1      14.700 -24.188 -43.257  1.00  0.00    -0.315 N 
ATOM     18  C   UNL     1      16.092 -24.418 -45.353  1.00  0.00     0.030 A 
ATOM     19  C   UNL     1      13.375 -24.291 -41.421  1.00  0.00     0.020 A 
ATOM     20  C   UNL     1      15.851 -23.894 -44.064  1.00  0.00     0.054 A 
ATOM     21  C   UNL     1      14.633 -23.997 -41.885  1.00  0.00     0.092 A 
ATOM     22  C   UNL     1      17.262 -23.992 -46.040  1.00  0.00     0.012 A 
ATOM     23  C   UNL     1      16.790 -22.981 -43.524  1.00  0.00     0.027 A 
ATOM     24  C   UNL     1      18.171 -23.096 -45.485  1.00  0.00     0.001 A 
ATOM     25  C   UNL     1      17.934 -22.591 -44.222  1.00  0.00     0.002 A 
ATOM     26  H   UNL     1      14.405 -26.646 -44.744  1.00  0.00     0.347 HD
ATOM     27  H   UNL     1      13.672 -26.655 -46.210  1.00  0.00     0.347 HD
ENDBRANCH   3  12
TORSDOF 4
ENDMDL
MODEL 2
REMARK VINA RESULT:    -6.424     23.987     25.668
REMARK INTER + INTRA:          -8.484
REMARK INTER:                  -7.668
REMARK INTRA:                  -0.816
REMARK UNBOUND:                -0.746
REMARK SMILES CCOc1cc([C@H]2[NH2+]Cc3ccccc3-n3cccc32)ccc1O
REMARK SMILES IDX 4 1 5 2 6 3 21 4 22 5 23 6 3 7 2 8 1 9 24 10 7 12 8 13 20 14
REMARK SMILES IDX 9 15 19 16 16 17 10 18 18 19 15 20 17 21 11 22 14 23 12 24
REMARK SMILES IDX 13 25
REMARK H PARENT 24 11 8 26 8 27
ROOT
ATOM      1  C   UNL     1      -0.041  -8.430 -31.239  1.00  0.00     0.161 A 
ATOM      2  C   UNL     1       1.038  -8.150 -32.090  1.00  0.00     0.060 A 
ATOM      3  C   UNL     1       1.783  -6.959 -31.995  1.00  0.00     0.019 A 
ATOM      4  C   UNL     1       1.426  -6.049 -30.992  1.00  0.00     0.014 A 
ATOM      5  C   UNL     1       0.354  -6.315 -30.134  1.00  0.00     0.051 A 
ATOM      6  C   UNL     1      -0.381  -7.497 -30.260  1.00  0.00     0.157 A 
ENDROOT
BRANCH   1   7
ATOM      7  O   UNL     1      -0.631  -9.630 -31.524  1.00  0.00    -0.490 OA
BRANCH   7   8
ATOM      8  C   UNL     1      -0.894  -9.949 -32.890  1.00  0.00     0.226 C 
ATOM      9  C   UNL     1      -2.215  -9.299 -33.269  1.00  0.00     0.049 C 
ENDBRANCH   7   8
ENDBRANCH   1   7
BRANCH   6  10
ATOM     10  O   UNL     1      -1.432  -7.702 -29.415  1.00  0.00    -0.504 OA
ATOM     11  H   UNL     1      -2.144  -8.178 -29.874  1.00  0.00     0.293 HD
ENDBRANCH   6  10
BRANCH   3  12
ATOM     12  C   UNL     1       2.908  -6.724 -32.990  1.00  0.00     0.262 C 
ATOM     13  N   UNL     1       2.528  -6.880 -34.409  1.00  0.00    -0.331 N 
ATOM     14  C   UNL     1       3.711  -5.487 -32.844  1.00  0.00     0.085 A 
ATOM     15  C   UNL     1       1.316  -6.163 -34.823  1.00  0.00     0.300 C 
ATOM     16  C   UNL     1       4.946  -5.384 -32.217  1.00  0.00     0.030 A 
ATOM     17  N   UNL     1       3.350  -4.229 -33.318  1.00  0.00    -0.315 N 
ATOM     18  C   UNL     1       1.220  -4.680 -34.600  1.00  0.00     0.030 A 
ATOM     19  C   UNL     1       5.389  -4.062 -32.342  1.00  0.00     0.020 A 
ATOM     20  C   UNL     1       2.135  -3.814 -33.963  1.00  0.00     0.054 A 
ATOM     21  C   UNL     1       4.415  -3.386 -33.034  1.00  0.00     0.092 A 
ATOM     22  C   UNL     1       0.038  -4.115 -35.154  1.00  0.00     0.012 A 
ATOM     23  C   UNL     1       1.830  -2.432 -33.916  1.00  0.00     0.027 A 
ATOM     24  C   UNL     1      -0.236  -2.752 -35.097  1.00  0.00     0.001 A 
ATOM     25  C   UNL     1       0.664  -1.908 -34.478  1.00  0.00     0.002 A 
ATOM     26  H   UNL     1       3.319  -6.583 -34.991  1.00  0.00     0.347 HD
ATOM     27  H   UNL     1       2.393  -7.877 -34.598  1.00  0.00     0.347 HD
ENDBRANCH   3  12
TORSDOF 4
ENDMDL
MODEL 3
REMARK VINA RESULT:    -6.350      0.970      2.282
REMARK INTER + INTRA:          -8.395
REMARK INTER:                  -7.981
REMARK INTRA:                  -0.415
REMARK UNBOUND:                -0.746
REMARK SMILES CCOc1cc([C@H]2[NH2+]Cc3ccccc3-n3cccc32)ccc1O
REMARK SMILES IDX 4 1 5 2 6 3 21 4 22 5 23 6 3 7 2 8 1 9 24 10 7 12 8 13 20 14
REMARK SMILES IDX 9 15 19 16 16 17 10 18 18 19 15 20 17 21 11 22 14 23 12 24
REMARK SMILES IDX 13 25
REMARK H PARENT 24 11 8 26 8 27
ROOT
ATOM      1  C   UNL     1      12.254 -22.594 -46.932  1.00  0.00     0.161 A 
ATOM      2  C   UNL     1      12.819 -23.440 -45.967  1.00  0.00     0.060 A 
ATOM      3  C   UNL     1      12.493 -24.808 -45.880  1.00  0.00     0.019 A 
ATOM      4  C   UNL     1      11.585 -25.318 -46.817  1.00  0.00     0.014 A 
ATOM      5  C   UNL     1      11.015 -24.486 -47.787  1.00  0.00     0.051 A 
ATOM      6  C   UNL     1      11.342 -23.129 -47.841  1.00  0.00     0.157 A 
ENDROOT
BRANCH   1   7
ATOM      7  O   UNL     1      12.697 -21.305 -46.817  1.00  0.00    -0.490 OA
BRANCH   7   8
ATOM      8  C   UNL     1      13.370 -20.717 -47.929  1.00  0.00     0.226 C 
ATOM      9  C   UNL     1      14.554 -21.605 -48.274  1.00  0.00     0.049 C 
ENDBRANCH   7   8
ENDBRANCH   1   7
BRANCH   6  10
ATOM     10  O   UNL     1      10.743 -22.353 -48.790  1.00  0.00    -0.504 OA
ATOM     11  H   UNL     1      11.301 -22.303 -49.584  1.00  0.00     0.293 HD
ENDBRANCH   6  10
BRANCH   3  12
ATOM     12  C   UNL     1      13.123 -25.636 -44.773  1.00  0.00     0.262 C 
ATOM     13  N   UNL     1      14.274 -26.462 -45.192  1.00  0.00    -0.331 N 
ATOM     14  C   UNL     1      13.466 -24.948 -43.506  1.00  0.00     0.085 A 
ATOM     15  C   UNL     1      15.308 -25.765 -45.966  1.00  0.00     0.300 C 
ATOM     16  C   UNL     1      12.698 -24.939 -42.349  1.00  0.00     0.030 A 
ATOM     17  N   UNL     1      14.618 -24.201 -43.278  1.00  0.00    -0.315 N 
ATOM     18  C   UNL     1      15.955 -24.534 -45.396  1.00  0.00     0.030 A 
ATOM     19  C   UNL     1      13.396 -24.224 -41.369  1.00  0.00     0.020 A 
ATOM     20  C   UNL     1      15.674 -23.857 -44.190  1.00  0.00     0.054 A 
ATOM     21  C   UNL     1      14.568 -23.807 -41.949  1.00  0.00     0.092 A 
ATOM     22  C   UNL     1      17.010 -24.039 -46.211  1.00  0.00     0.012 A 
ATOM     23  C   UNL     1      16.462 -22.729 -43.853  1.00  0.00     0.027 A 
ATOM     24  C   UNL     1      17.772 -22.930 -45.855  1.00  0.00     0.001 A 
ATOM     25  C   UNL     1      17.497 -22.275 -44.671  1.00  0.00     0.002 A 
ATOM     26  H   UNL     1      14.694 -26.881 -44.354  1.00  0.00     0.347 HD
ATOM     27  H   UNL     1      13.922 -27.243 -45.754  1.00  0.00     0.347 HD
ENDBRANCH   3  12
TORSDOF 4
ENDMDL
MODEL 4
REMARK VINA RESULT:    -6.234     23.757     25.609
REMARK INTER + INTRA:          -8.255
REMARK INTER:                  -7.394
REMARK INTRA:                  -0.861
REMARK UNBOUND:                -0.746
REMARK SMILES CCOc1cc([C@H]2[NH2+]Cc3ccccc3-n3cccc32)ccc1O
REMARK SMILES IDX 4 1 5 2 6 3 21 4 22 5 23 6 3 7 2 8 1 9 24 10 7 12 8 13 20 14
REMARK SMILES IDX 9 15 19 16 16 17 10 18 18 19 15 20 17 21 11 22 14 23 12 24
REMARK SMILES IDX 13 25
REMARK H PARENT 24 11 8 26 8 27
ROOT
ATOM      1  C   UNL     1       0.605  -5.819 -34.139  1.00  0.00     0.161 A 
ATOM      2  C   UNL     1      -0.163  -6.992 -34.164  1.00  0.00     0.060 A 
ATOM      3  C   UNL     1       0.389  -8.260 -33.898  1.00  0.00     0.019 A 
ATOM      4  C   UNL     1       1.752  -8.320 -33.578  1.00  0.00     0.014 A 
ATOM      5  C   UNL     1       2.530  -7.157 -33.546  1.00  0.00     0.051 A 
ATOM      6  C   UNL     1       1.962  -5.913 -33.832  1.00  0.00     0.157 A 
ENDROOT
BRANCH   1   7
ATOM      7  O   UNL     1      -0.131  -4.709 -34.449  1.00  0.00    -0.490 OA
BRANCH   7   8
ATOM      8  C   UNL     1      -0.476  -4.483 -35.815  1.00  0.00     0.226 C 
ATOM      9  C   UNL     1       0.573  -3.558 -36.409  1.00  0.00     0.049 C 
ENDBRANCH   7   8
ENDBRANCH   1   7
BRANCH   6  10
ATOM     10  O   UNL     1       2.766  -4.811 -33.811  1.00  0.00    -0.504 OA
ATOM     11  H   UNL     1       2.670  -4.342 -32.965  1.00  0.00     0.293 HD
ENDBRANCH   6  10
BRANCH   3  12
ATOM     12  C   UNL     1      -0.513  -9.480 -33.992  1.00  0.00     0.262 C 
ATOM     13  N   UNL     1      -0.538 -10.330 -32.785  1.00  0.00    -0.331 N 
ATOM     14  C   UNL     1      -1.904  -9.275 -34.460  1.00  0.00     0.085 A 
ATOM     15  C   UNL     1      -0.756  -9.625 -31.516  1.00  0.00     0.300 C 
ATOM     16  C   UNL     1      -2.368  -9.479 -35.753  1.00  0.00     0.030 A 
ATOM     17  N   UNL     1      -2.967  -8.845 -33.671  1.00  0.00    -0.315 N 
ATOM     18  C   UNL     1      -1.970  -8.756 -31.352  1.00  0.00     0.030 A 
ATOM     19  C   UNL     1      -3.744  -9.224 -35.766  1.00  0.00     0.020 A 
ATOM     20  C   UNL     1      -2.969  -8.434 -32.295  1.00  0.00     0.054 A 
ATOM     21  C   UNL     1      -4.089  -8.865 -34.488  1.00  0.00     0.092 A 
ATOM     22  C   UNL     1      -2.098  -8.232 -30.035  1.00  0.00     0.012 A 
ATOM     23  C   UNL     1      -4.048  -7.615 -31.878  1.00  0.00     0.027 A 
ATOM     24  C   UNL     1      -3.170  -7.433 -29.651  1.00  0.00     0.001 A 
ATOM     25  C   UNL     1      -4.148  -7.125 -30.575  1.00  0.00     0.002 A 
ATOM     26  H   UNL     1      -1.261 -11.048 -32.909  1.00  0.00     0.347 HD
ATOM     27  H   UNL     1       0.353 -10.832 -32.726  1.00  0.00     0.347 HD
ENDBRANCH   3  12
TORSDOF 4
ENDMDL
MODEL 5
REMARK VINA RESULT:    -6.085      4.684      8.668
REMARK INTER + INTRA:          -8.076
REMARK INTER:                  -7.419
REMARK INTRA:                  -0.657
REMARK UNBOUND:                -0.746
REMARK SMILES CCOc1cc([C@H]2[NH2+]Cc3ccccc3-n3cccc32)ccc1O
REMARK SMILES IDX 4 1 5 2 6 3 21 4 22 5 23 6 3 7 2 8 1 9 24 10 7 12 8 13 20 14
REMARK SMILES IDX 9 15 19 16 16 17 10 18 18 19 15 20 17 21 11 22 14 23 12 24
REMARK SMILES IDX 13 25
REMARK H PARENT 24 11 8 26 8 27
ROOT
ATOM      1  C   UNL     1      12.009 -21.551 -49.559  1.00  0.00     0.161 A 
ATOM      2  C   UNL     1      11.644 -22.692 -50.289  1.00  0.00     0.060 A 
ATOM      3  C   UNL     1      11.415 -23.938 -49.673  1.00  0.00     0.019 A 
ATOM      4  C   UNL     1      11.541 -24.006 -48.280  1.00  0.00     0.014 A 
ATOM      5  C   UNL     1      11.902 -22.875 -47.539  1.00  0.00     0.051 A 
ATOM      6  C   UNL     1      12.142 -21.655 -48.175  1.00  0.00     0.157 A 
ENDROOT
BRANCH   1   7
ATOM      7  O   UNL     1      12.202 -20.461 -50.362  1.00  0.00    -0.490 OA
BRANCH   7   8
ATOM      8  C   UNL     1      13.389 -20.401 -51.152  1.00  0.00     0.226 C 
ATOM      9  C   UNL     1      13.727 -18.934 -51.365  1.00  0.00     0.049 C 
ENDBRANCH   7   8
ENDBRANCH   1   7
BRANCH   6  10
ATOM     10  O   UNL     1      12.514 -20.586 -47.413  1.00  0.00    -0.504 OA
ATOM     11  H   UNL     1      13.472 -20.443 -47.481  1.00  0.00     0.293 HD
ENDBRANCH   6  10
BRANCH   3  12
ATOM     12  C   UNL     1      11.065 -25.129 -50.551  1.00  0.00     0.262 C 
ATOM     13  N   UNL     1      10.026 -26.023 -50.003  1.00  0.00    -0.331 N 
ATOM     14  C   UNL     1      10.767 -24.868 -51.979  1.00  0.00     0.085 A 
ATOM     15  C   UNL     1       8.806 -25.361 -49.525  1.00  0.00     0.300 C 
ATOM     16  C   UNL     1      11.655 -25.011 -53.037  1.00  0.00     0.030 A 
ATOM     17  N   UNL     1       9.542 -24.441 -52.484  1.00  0.00    -0.315 N 
ATOM     18  C   UNL     1       8.037 -24.466 -50.455  1.00  0.00     0.030 A 
ATOM     19  C   UNL     1      10.969 -24.719 -54.223  1.00  0.00     0.020 A 
ATOM     20  C   UNL     1       8.344 -24.082 -51.778  1.00  0.00     0.054 A 
ATOM     21  C   UNL     1       9.684 -24.399 -53.863  1.00  0.00     0.092 A 
ATOM     22  C   UNL     1       6.825 -23.989 -49.883  1.00  0.00     0.012 A 
ATOM     23  C   UNL     1       7.425 -23.251 -52.466  1.00  0.00     0.027 A 
ATOM     24  C   UNL     1       5.938 -23.176 -50.582  1.00  0.00     0.001 A 
ATOM     25  C   UNL     1       6.240 -22.808 -51.878  1.00  0.00     0.002 A 
ATOM     26  H   UNL     1       9.783 -26.716 -50.721  1.00  0.00     0.347 HD
ATOM     27  H   UNL     1      10.433 -26.551 -49.225  1.00  0.00     0.347 HD
ENDBRANCH   3  12
TORSDOF 4
ENDMDL
MODEL 6
REMARK VINA RESULT:    -6.029      3.079      6.318
REMARK INTER + INTRA:          -8.008
REMARK INTER:                  -7.220
REMARK INTRA:                  -0.788
REMARK UNBOUND:                -0.746
REMARK SMILES CCOc1cc([C@H]2[NH2+]Cc3ccccc3-n3cccc32)ccc1O
REMARK SMILES IDX 4 1 5 2 6 3 21 4 22 5 23 6 3 7 2 8 1 9 24 10 7 12 8 13 20 14
REMARK SMILES IDX 9 15 19 16 16 17 10 18 18 19 15 20 17 21 11 22 14 23 12 24
REMARK SMILES IDX 13 25
REMARK H PARENT 24 11 8 26 8 27
ROOT
ATOM      1  C   UNL     1      16.427 -23.851 -43.778  1.00  0.00     0.161 A 
ATOM      2  C   UNL     1      15.105 -24.180 -44.112  1.00  0.00     0.060 A 
ATOM      3  C   UNL     1      14.696 -24.393 -45.443  1.00  0.00     0.019 A 
ATOM      4  C   UNL     1      15.669 -24.288 -46.446  1.00  0.00     0.014 A 
ATOM      5  C   UNL     1      16.992 -23.964 -46.126  1.00  0.00     0.051 A 
ATOM      6  C   UNL     1      17.369 -23.739 -44.800  1.00  0.00     0.157 A 
ENDROOT
BRANCH   1   7
ATOM      7  O   UNL     1      16.593 -23.668 -42.433  1.00  0.00    -0.490 OA
BRANCH   7   8
ATOM      8  C   UNL     1      15.615 -24.213 -41.548  1.00  0.00     0.226 C 
ATOM      9  C   UNL     1      16.046 -23.886 -40.127  1.00  0.00     0.049 C 
ENDBRANCH   7   8
ENDBRANCH   1   7
BRANCH   6  10
ATOM     10  O   UNL     1      18.665 -23.402 -44.541  1.00  0.00    -0.504 OA
ATOM     11  H   UNL     1      18.981 -23.866 -43.748  1.00  0.00     0.293 HD
ENDBRANCH   6  10
BRANCH   3  12
ATOM     12  C   UNL     1      13.232 -24.702 -45.712  1.00  0.00     0.262 C 
ATOM     13  N   UNL     1      12.285 -23.656 -45.279  1.00  0.00    -0.331 N 
ATOM     14  C   UNL     1      12.861 -25.148 -47.076  1.00  0.00     0.085 A 
ATOM     15  C   UNL     1      12.609 -22.289 -45.706  1.00  0.00     0.300 C 
ATOM     16  C   UNL     1      12.675 -26.462 -47.483  1.00  0.00     0.030 A 
ATOM     17  N   UNL     1      12.639 -24.312 -48.166  1.00  0.00    -0.315 N 
ATOM     18  C   UNL     1      12.803 -21.997 -47.167  1.00  0.00     0.030 A 
ATOM     19  C   UNL     1      12.282 -26.451 -48.826  1.00  0.00     0.020 A 
ATOM     20  C   UNL     1      12.784 -22.886 -48.263  1.00  0.00     0.054 A 
ATOM     21  C   UNL     1      12.244 -25.134 -49.212  1.00  0.00     0.092 A 
ATOM     22  C   UNL     1      13.001 -20.614 -47.431  1.00  0.00     0.012 A 
ATOM     23  C   UNL     1      12.955 -22.352 -49.565  1.00  0.00     0.027 A 
ATOM     24  C   UNL     1      13.162 -20.114 -48.719  1.00  0.00     0.001 A 
ATOM     25  C   UNL     1      13.137 -20.986 -49.789  1.00  0.00     0.002 A 
ATOM     26  H   UNL     1      11.348 -23.909 -45.614  1.00  0.00     0.347 HD
ATOM     27  H   UNL     1      12.234 -23.671 -44.257  1.00  0.00     0.347 HD
ENDBRANCH   3  12
TORSDOF 4
ENDMDL
MODEL 7
REMARK VINA RESULT:    -6.028     24.615     26.380
REMARK INTER + INTRA:          -8.007
REMARK INTER:                  -7.171
REMARK INTRA:                  -0.836
REMARK UNBOUND:                -0.746
REMARK SMILES CCOc1cc([C@H]2[NH2+]Cc3ccccc3-n3cccc32)ccc1O
REMARK SMILES IDX 4 1 5 2 6 3 21 4 22 5 23 6 3 7 2 8 1 9 24 10 7 12 8 13 20 14
REMARK SMILES IDX 9 15 19 16 16 17 10 18 18 19 15 20 17 21 11 22 14 23 12 24
REMARK SMILES IDX 13 25
REMARK H PARENT 24 11 8 26 8 27
ROOT
ATOM      1  C   UNL     1       1.302  -7.673 -31.550  1.00  0.00     0.161 A 
ATOM      2  C   UNL     1       2.047  -6.547 -31.929  1.00  0.00     0.060 A 
ATOM      3  C   UNL     1       2.460  -6.329 -33.258  1.00  0.00     0.019 A 
ATOM      4  C   UNL     1       2.079  -7.275 -34.219  1.00  0.00     0.014 A 
ATOM      5  C   UNL     1       1.333  -8.402 -33.856  1.00  0.00     0.051 A 
ATOM      6  C   UNL     1       0.952  -8.604 -32.527  1.00  0.00     0.157 A 
ENDROOT
BRANCH   1   7
ATOM      7  O   UNL     1       1.032  -7.691 -30.210  1.00  0.00    -0.490 OA
BRANCH   7   8
ATOM      8  C   UNL     1       0.729  -6.456 -29.562  1.00  0.00     0.226 C 
ATOM      9  C   UNL     1      -0.779  -6.270 -29.606  1.00  0.00     0.049 C 
ENDBRANCH   7   8
ENDBRANCH   1   7
BRANCH   6  10
ATOM     10  O   UNL     1       0.245  -9.730 -32.218  1.00  0.00    -0.504 OA
ATOM     11  H   UNL     1       0.617 -10.153 -31.426  1.00  0.00     0.293 HD
ENDBRANCH   6  10
BRANCH   3  12
ATOM     12  C   UNL     1       3.302  -5.102 -33.566  1.00  0.00     0.262 C 
ATOM     13  N   UNL     1       2.566  -3.980 -34.182  1.00  0.00    -0.331 N 
ATOM     14  C   UNL     1       4.165  -4.569 -32.485  1.00  0.00     0.085 A 
ATOM     15  C   UNL     1       1.318  -3.593 -33.512  1.00  0.00     0.300 C 
ATOM     16  C   UNL     1       5.522  -4.818 -32.327  1.00  0.00     0.030 A 
ATOM     17  N   UNL     1       3.746  -3.731 -31.456  1.00  0.00    -0.315 N 
ATOM     18  C   UNL     1       1.343  -3.231 -32.054  1.00  0.00     0.030 A 
ATOM     19  C   UNL     1       5.972  -4.090 -31.219  1.00  0.00     0.020 A 
ATOM     20  C   UNL     1       2.425  -3.259 -31.148  1.00  0.00     0.054 A 
ATOM     21  C   UNL     1       4.882  -3.420 -30.722  1.00  0.00     0.092 A 
ATOM     22  C   UNL     1       0.083  -2.773 -31.579  1.00  0.00     0.012 A 
ATOM     23  C   UNL     1       2.199  -2.824 -29.819  1.00  0.00     0.027 A 
ATOM     24  C   UNL     1      -0.111  -2.348 -30.269  1.00  0.00     0.001 A 
ATOM     25  C   UNL     1       0.951  -2.372 -29.387  1.00  0.00     0.002 A 
ATOM     26  H   UNL     1       3.194  -3.170 -34.235  1.00  0.00     0.347 HD
ATOM     27  H   UNL     1       2.347  -4.232 -35.150  1.00  0.00     0.347 HD
ENDBRANCH   3  12
TORSDOF 4
ENDMDL
MODEL 8
REMARK VINA RESULT:    -5.993     24.316     26.027
REMARK INTER + INTRA:          -7.964
REMARK INTER:                  -7.092
REMARK INTRA:                  -0.872
REMARK UNBOUND:                -0.746
REMARK SMILES CCOc1cc([C@H]2[NH2+]Cc3ccccc3-n3cccc32)ccc1O
REMARK SMILES IDX 4 1 5 2 6 3 21 4 22 5 23 6 3 7 2 8 1 9 24 10 7 12 8 13 20 14
REMARK SMILES IDX 9 15 19 16 16 17 10 18 18 19 15 20 17 21 11 22 14 23 12 24
REMARK SMILES IDX 13 25
REMARK H PARENT 24 11 8 26 8 27
ROOT
ATOM      1  C   UNL     1       0.139  -8.551 -33.594  1.00  0.00     0.161 A 
ATOM      2  C   UNL     1      -0.471  -7.326 -33.901  1.00  0.00     0.060 A 
ATOM      3  C   UNL     1      -1.794  -7.027 -33.522  1.00  0.00     0.019 A 
ATOM      4  C   UNL     1      -2.495  -7.998 -32.794  1.00  0.00     0.014 A 
ATOM      5  C   UNL     1      -1.898  -9.223 -32.479  1.00  0.00     0.051 A 
ATOM      6  C   UNL     1      -0.590  -9.503 -32.882  1.00  0.00     0.157 A 
ENDROOT
BRANCH   1   7
ATOM      7  O   UNL     1       1.415  -8.632 -34.078  1.00  0.00    -0.490 OA
BRANCH   7   8
ATOM      8  C   UNL     1       2.157  -7.424 -34.242  1.00  0.00     0.226 C 
ATOM      9  C   UNL     1       2.912  -7.166 -32.949  1.00  0.00     0.049 C 
ENDBRANCH   7   8
ENDBRANCH   1   7
BRANCH   6  10
ATOM     10  O   UNL     1      -0.060 -10.721 -32.571  1.00  0.00    -0.504 OA
ATOM     11  H   UNL     1      -0.765 -11.340 -32.322  1.00  0.00     0.293 HD
ENDBRANCH   6  10
BRANCH   3  12
ATOM     12  C   UNL     1      -2.384  -5.690 -33.937  1.00  0.00     0.262 C 
ATOM     13  N   UNL     1      -2.437  -4.673 -32.868  1.00  0.00    -0.331 N 
ATOM     14  C   UNL     1      -1.860  -5.058 -35.171  1.00  0.00     0.085 A 
ATOM     15  C   UNL     1      -1.191  -4.475 -32.117  1.00  0.00     0.300 C 
ATOM     16  C   UNL     1      -2.443  -5.117 -36.430  1.00  0.00     0.030 A 
ATOM     17  N   UNL     1      -0.695  -4.301 -35.258  1.00  0.00    -0.315 N 
ATOM     18  C   UNL     1       0.071  -4.133 -32.857  1.00  0.00     0.030 A 
ATOM     19  C   UNL     1      -1.667  -4.349 -37.306  1.00  0.00     0.020 A 
ATOM     20  C   UNL     1       0.287  -4.023 -34.247  1.00  0.00     0.054 A 
ATOM     21  C   UNL     1      -0.625  -3.845 -36.567  1.00  0.00     0.092 A 
ATOM     22  C   UNL     1       1.163  -3.864 -31.986  1.00  0.00     0.012 A 
ATOM     23  C   UNL     1       1.575  -3.643 -34.699  1.00  0.00     0.027 A 
ATOM     24  C   UNL     1       2.418  -3.489 -32.456  1.00  0.00     0.001 A 
ATOM     25  C   UNL     1       2.623  -3.377 -33.817  1.00  0.00     0.002 A 
ATOM     26  H   UNL     1      -2.736  -3.782 -33.282  1.00  0.00     0.347 HD
ATOM     27  H   UNL     1      -3.173  -4.940 -32.207  1.00  0.00     0.347 HD
ENDBRANCH   3  12
TORSDOF 4
ENDMDL
MODEL 9
REMARK VINA RESULT:    -5.977      3.189      6.651
REMARK INTER + INTRA:          -7.945
REMARK INTER:                  -7.173
REMARK INTRA:                  -0.772
REMARK UNBOUND:                -0.746
REMARK SMILES CCOc1cc([C@H]2[NH2+]Cc3ccccc3-n3cccc32)ccc1O
REMARK SMILES IDX 4 1 5 2 6 3 21 4 22 5 23 6 3 7 2 8 1 9 24 10 7 12 8 13 20 14
REMARK SMILES IDX 9 15 19 16 16 17 10 18 18 19 15 20 17 21 11 22 14 23 12 24
REMARK SMILES IDX 13 25
REMARK H PARENT 24 11 8 26 8 27
ROOT
ATOM      1  C   UNL     1      14.672 -25.247 -42.193  1.00  0.00     0.161 A 
ATOM      2  C   UNL     1      15.106 -25.216 -43.526  1.00  0.00     0.060 A 
ATOM      3  C   UNL     1      14.407 -24.516 -44.529  1.00  0.00     0.019 A 
ATOM      4  C   UNL     1      13.254 -23.817 -44.149  1.00  0.00     0.014 A 
ATOM      5  C   UNL     1      12.811 -23.837 -42.822  1.00  0.00     0.051 A 
ATOM      6  C   UNL     1      13.512 -24.554 -41.849  1.00  0.00     0.157 A 
ENDROOT
BRANCH   1   7
ATOM      7  O   UNL     1      15.488 -26.003 -41.398  1.00  0.00    -0.490 OA
BRANCH   7   8
ATOM      8  C   UNL     1      16.629 -25.380 -40.810  1.00  0.00     0.226 C 
ATOM      9  C   UNL     1      16.326 -25.156 -39.338  1.00  0.00     0.049 C 
ENDBRANCH   7   8
ENDBRANCH   1   7
BRANCH   6  10
ATOM     10  O   UNL     1      13.028 -24.563 -40.574  1.00  0.00    -0.504 OA
ATOM     11  H   UNL     1      12.900 -23.654 -40.256  1.00  0.00     0.293 HD
ENDBRANCH   6  10
BRANCH   3  12
ATOM     12  C   UNL     1      14.930 -24.575 -45.955  1.00  0.00     0.262 C 
ATOM     13  N   UNL     1      14.759 -25.878 -46.628  1.00  0.00    -0.331 N 
ATOM     14  C   UNL     1      14.516 -23.499 -46.887  1.00  0.00     0.085 A 
ATOM     15  C   UNL     1      13.415 -26.462 -46.548  1.00  0.00     0.300 C 
ATOM     16  C   UNL     1      15.260 -22.373 -47.214  1.00  0.00     0.030 A 
ATOM     17  N   UNL     1      13.312 -23.452 -47.583  1.00  0.00    -0.315 N 
ATOM     18  C   UNL     1      12.233 -25.668 -47.027  1.00  0.00     0.030 A 
ATOM     19  C   UNL     1      14.540 -21.637 -48.163  1.00  0.00     0.020 A 
ATOM     20  C   UNL     1      12.189 -24.346 -47.518  1.00  0.00     0.054 A 
ATOM     21  C   UNL     1      13.373 -22.324 -48.388  1.00  0.00     0.092 A 
ATOM     22  C   UNL     1      11.020 -26.409 -46.989  1.00  0.00     0.012 A 
ATOM     23  C   UNL     1      10.942 -23.831 -47.951  1.00  0.00     0.027 A 
ATOM     24  C   UNL     1       9.808 -25.881 -47.424  1.00  0.00     0.001 A 
ATOM     25  C   UNL     1       9.771 -24.588 -47.908  1.00  0.00     0.002 A 
ATOM     26  H   UNL     1      15.032 -25.773 -47.612  1.00  0.00     0.347 HD
ATOM     27  H   UNL     1      15.424 -26.541 -46.218  1.00  0.00     0.347 HD
ENDBRANCH   3  12
TORSDOF 4
ENDMDL
