REMARK SMILES CCOCCC(=O)NCC(=O)N[C@@H]1[C@H](O)[C@@H](O)[C@@H](/N=C2\NC=NC3=NC=N[C@H]32)O[C@@H]1CO
REMARK SMILES IDX 6 1 7 2 8 3 5 5 4 6 3 7 2 8 1 9 9 10 10 11 11 12 12 13 13 15
REMARK SMILES IDX 14 16 30 17 16 18 29 19 18 20 15 21 31 23 32 24 17 26 19 28
REMARK SMILES IDX 20 29 21 30 28 31 22 32 27 33 24 34 23 35 26 36 25 37
REMARK H PARENT 8 4 12 14 15 22 32 25 17 27 21 38
ROOT
ATOM      1  C   UNL     1       2.007  -2.822   1.259  1.00  0.00     0.222 C 
ATOM      2  O   UNL     1       2.300  -1.971   0.423  1.00  0.00    -0.275 OA
ATOM      3  N   UNL     1       0.798  -3.490   1.257  1.00  0.00    -0.347 N 
ATOM      4  H   UNL     1       0.522  -3.954   2.115  1.00  0.00     0.164 HD
ENDROOT
BRANCH   1   5
ATOM      5  C   UNL     1       2.943  -3.255   2.367  1.00  0.00     0.128 C 
BRANCH   5   6
ATOM      6  C   UNL     1       3.824  -2.093   2.812  1.00  0.00     0.170 C 
BRANCH   6   7
ATOM      7  O   UNL     1       3.052  -1.054   3.422  1.00  0.00    -0.381 OA
BRANCH   7   8
ATOM      8  C   UNL     1       2.797  -1.273   4.807  1.00  0.00     0.156 C 
ATOM      9  C   UNL     1       1.943  -0.129   5.317  1.00  0.00     0.035 C 
ENDBRANCH   7   8
ENDBRANCH   6   7
ENDBRANCH   5   6
ENDBRANCH   1   5
BRANCH   3  10
ATOM     10  C   UNL     1      -0.301  -2.982   0.450  1.00  0.00     0.216 C 
BRANCH  10  11
ATOM     11  C   UNL     1      -0.932  -1.845   1.254  1.00  0.00     0.239 C 
ATOM     12  O   UNL     1      -1.446  -2.027   2.359  1.00  0.00    -0.273 OA
ATOM     13  N   UNL     1      -0.764  -0.590   0.714  1.00  0.00    -0.346 N 
ATOM     14  H   UNL     1      -0.089  -0.521  -0.051  1.00  0.00     0.164 HD
BRANCH  13  15
ATOM     15  C   UNL     1      -0.827   0.606   1.570  1.00  0.00     0.145 C 
ATOM     16  C   UNL     1      -2.270   1.083   1.882  1.00  0.00     0.172 C 
ATOM     17  C   UNL     1      -0.024   1.772   0.955  1.00  0.00     0.171 C 
ATOM     18  C   UNL     1      -2.748   2.187   0.928  1.00  0.00     0.196 C 
ATOM     19  O   UNL     1      -0.580   2.230  -0.289  1.00  0.00    -0.346 OA
ATOM     20  C   UNL     1      -2.005   2.123  -0.425  1.00  0.00     0.268 C 
BRANCH  16  21
ATOM     21  O   UNL     1      -3.215   0.005   1.883  1.00  0.00    -0.388 OA
ATOM     22  H   UNL     1      -2.793  -0.743   2.356  1.00  0.00     0.211 HD
ENDBRANCH  16  21
BRANCH  17  23
ATOM     23  C   UNL     1       1.443   1.390   0.679  1.00  0.00     0.190 C 
BRANCH  23  24
ATOM     24  O   UNL     1       1.509   0.426  -0.381  1.00  0.00    -0.394 OA
ATOM     25  H   UNL     1       2.125  -0.287  -0.091  1.00  0.00     0.210 HD
ENDBRANCH  23  24
ENDBRANCH  17  23
BRANCH  18  26
ATOM     26  O   UNL     1      -2.502   3.477   1.528  1.00  0.00    -0.386 OA
ATOM     27  H   UNL     1      -2.708   4.111   0.811  1.00  0.00     0.211 HD
ENDBRANCH  18  26
BRANCH  20  28
ATOM     28  N   UNL     1      -2.584   3.171  -1.285  1.00  0.00    -0.236 NA
ATOM     29  C   UNL     1      -1.954   3.443  -2.379  1.00  0.00     0.138 C 
ATOM     30  N   UNL     1      -0.742   2.935  -2.808  1.00  0.00    -0.333 N 
ATOM     31  C   UNL     1      -2.501   4.500  -3.331  1.00  0.00     0.241 C 
ATOM     32  C   UNL     1      -0.121   3.267  -3.981  1.00  0.00     0.200 C 
ATOM     33  N   UNL     1      -3.959   4.423  -3.571  1.00  0.00    -0.254 NA
ATOM     34  C   UNL     1      -1.973   4.233  -4.707  1.00  0.00     0.164 C 
ATOM     35  N   UNL     1      -0.658   3.942  -4.949  1.00  0.00    -0.221 NA
ATOM     36  C   UNL     1      -4.051   4.314  -4.865  1.00  0.00     0.219 C 
ATOM     37  N   UNL     1      -2.897   4.199  -5.600  1.00  0.00    -0.219 NA
ATOM     38  H   UNL     1      -0.217   2.409  -2.107  1.00  0.00     0.169 HD
ENDBRANCH  20  28
ENDBRANCH  13  15
ENDBRANCH  10  11
ENDBRANCH   3  10
TORSDOF 12
