MODEL 1
REMARK VINA RESULT:    -8.180      0.000      0.000
REMARK INTER + INTRA:          -9.951
REMARK INTER:                  -9.375
REMARK INTRA:                  -0.576
REMARK UNBOUND:                -0.576
REMARK SMILES O=C(Nc1nc2ccccc2[nH]1)c1cc(O)nc2ccccc12
REMARK SMILES IDX 13 1 14 2 15 3 17 4 18 5 19 6 20 7 21 8 22 9 23 10 2 11 1 12
REMARK SMILES IDX 3 13 4 15 5 16 12 17 6 18 11 19 7 20 10 21 8 22 9 23 16 25
REMARK H PARENT 3 14 12 24 16 26
ROOT
ATOM      1  C   UNL     1      15.620 -24.843 -42.342  1.00  0.00     0.055 A 
ATOM      2  C   UNL     1      16.928 -25.315 -42.423  1.00  0.00     0.082 A 
ATOM      3  C   UNL     1      17.537 -25.636 -41.241  1.00  0.00     0.212 A 
ATOM      4  N   UNL     1      16.984 -25.537 -40.026  1.00  0.00    -0.214 NA
ATOM      5  C   UNL     1      15.724 -25.074 -39.952  1.00  0.00     0.075 A 
ATOM      6  C   UNL     1      15.140 -24.965 -38.696  1.00  0.00     0.029 A 
ATOM      7  C   UNL     1      13.834 -24.502 -38.527  1.00  0.00     0.002 A 
ATOM      8  C   UNL     1      13.085 -24.137 -39.634  1.00  0.00     0.001 A 
ATOM      9  C   UNL     1      13.646 -24.237 -40.906  1.00  0.00     0.011 A 
ATOM     10  C   UNL     1      14.973 -24.701 -41.089  1.00  0.00     0.013 A 
ENDROOT
BRANCH   1  11
ATOM     11  C   UNL     1      14.943 -24.477 -43.609  1.00  0.00     0.258 C 
ATOM     12  O   UNL     1      14.055 -25.194 -44.060  1.00  0.00    -0.269 OA
ATOM     13  N   UNL     1      15.398 -23.313 -44.185  1.00  0.00    -0.292 N 
ATOM     14  H   UNL     1      16.165 -22.779 -43.796  1.00  0.00     0.173 HD
BRANCH  13  15
ATOM     15  C   UNL     1      14.875 -22.817 -45.349  1.00  0.00     0.208 A 
ATOM     16  N   UNL     1      15.565 -22.620 -46.447  1.00  0.00    -0.213 NA
ATOM     17  N   UNL     1      13.561 -22.459 -45.512  1.00  0.00    -0.324 N 
ATOM     18  C   UNL     1      14.663 -22.118 -47.356  1.00  0.00     0.091 A 
ATOM     19  C   UNL     1      13.396 -22.007 -46.794  1.00  0.00     0.067 A 
ATOM     20  C   UNL     1      14.855 -21.730 -48.690  1.00  0.00     0.030 A 
ATOM     21  C   UNL     1      12.286 -21.525 -47.489  1.00  0.00     0.028 A 
ATOM     22  C   UNL     1      13.758 -21.243 -49.412  1.00  0.00     0.002 A 
ATOM     23  C   UNL     1      12.497 -21.144 -48.819  1.00  0.00     0.002 A 
ATOM     24  H   UNL     1      12.859 -22.533 -44.786  1.00  0.00     0.170 HD
ENDBRANCH  13  15
ENDBRANCH   1  11
BRANCH   3  25
ATOM     25  O   UNL     1      18.809 -26.102 -41.231  1.00  0.00    -0.493 OA
ATOM     26  H   UNL     1      19.237 -25.453 -41.818  1.00  0.00     0.295 HD
ENDBRANCH   3  25
TORSDOF 3
ENDMDL
MODEL 2
REMARK VINA RESULT:    -7.911      2.904      8.382
REMARK INTER + INTRA:          -9.643
REMARK INTER:                  -9.006
REMARK INTRA:                  -0.637
REMARK UNBOUND:                -0.576
REMARK SMILES O=C(Nc1nc2ccccc2[nH]1)c1cc(O)nc2ccccc12
REMARK SMILES IDX 13 1 14 2 15 3 17 4 18 5 19 6 20 7 21 8 22 9 23 10 2 11 1 12
REMARK SMILES IDX 3 13 4 15 5 16 12 17 6 18 11 19 7 20 10 21 8 22 9 23 16 25
REMARK H PARENT 3 14 12 24 16 26
ROOT
ATOM      1  C   UNL     1      13.381 -22.268 -48.255  1.00  0.00     0.055 A 
ATOM      2  C   UNL     1      13.877 -21.040 -48.684  1.00  0.00     0.082 A 
ATOM      3  C   UNL     1      13.332 -20.527 -49.830  1.00  0.00     0.212 A 
ATOM      4  N   UNL     1      12.371 -21.103 -50.563  1.00  0.00    -0.214 NA
ATOM      5  C   UNL     1      11.901 -22.292 -50.148  1.00  0.00     0.075 A 
ATOM      6  C   UNL     1      10.905 -22.899 -50.902  1.00  0.00     0.029 A 
ATOM      7  C   UNL     1      10.353 -24.130 -50.541  1.00  0.00     0.002 A 
ATOM      8  C   UNL     1      10.801 -24.776 -49.400  1.00  0.00     0.001 A 
ATOM      9  C   UNL     1      11.800 -24.189 -48.625  1.00  0.00     0.011 A 
ATOM     10  C   UNL     1      12.371 -22.942 -48.985  1.00  0.00     0.013 A 
ENDROOT
BRANCH   1  11
ATOM     11  C   UNL     1      13.963 -22.850 -47.022  1.00  0.00     0.258 C 
ATOM     12  O   UNL     1      14.992 -23.518 -47.084  1.00  0.00    -0.269 OA
ATOM     13  N   UNL     1      13.261 -22.573 -45.871  1.00  0.00    -0.292 N 
ATOM     14  H   UNL     1      12.392 -22.054 -45.878  1.00  0.00     0.173 HD
BRANCH  13  15
ATOM     15  C   UNL     1      13.664 -23.018 -44.640  1.00  0.00     0.208 A 
ATOM     16  N   UNL     1      12.892 -23.657 -43.794  1.00  0.00    -0.213 NA
ATOM     17  N   UNL     1      14.928 -22.847 -44.136  1.00  0.00    -0.324 N 
ATOM     18  C   UNL     1      13.687 -23.911 -42.700  1.00  0.00     0.091 A 
ATOM     19  C   UNL     1      14.972 -23.412 -42.890  1.00  0.00     0.067 A 
ATOM     20  C   UNL     1      13.378 -24.567 -41.500  1.00  0.00     0.030 A 
ATOM     21  C   UNL     1      15.989 -23.528 -41.940  1.00  0.00     0.028 A 
ATOM     22  C   UNL     1      14.380 -24.698 -40.530  1.00  0.00     0.002 A 
ATOM     23  C   UNL     1      15.662 -24.187 -40.750  1.00  0.00     0.002 A 
ATOM     24  H   UNL     1      15.677 -22.379 -44.630  1.00  0.00     0.170 HD
ENDBRANCH  13  15
ENDBRANCH   1  11
BRANCH   3  25
ATOM     25  O   UNL     1      13.759 -19.336 -50.317  1.00  0.00    -0.493 OA
ATOM     26  H   UNL     1      12.910 -18.947 -50.594  1.00  0.00     0.295 HD
ENDBRANCH   3  25
TORSDOF 3
ENDMDL
MODEL 3
REMARK VINA RESULT:    -7.604      2.515      7.965
REMARK INTER + INTRA:          -9.291
REMARK INTER:                  -8.707
REMARK INTRA:                  -0.584
REMARK UNBOUND:                -0.576
REMARK SMILES O=C(Nc1nc2ccccc2[nH]1)c1cc(O)nc2ccccc12
REMARK SMILES IDX 13 1 14 2 15 3 17 4 18 5 19 6 20 7 21 8 22 9 23 10 2 11 1 12
REMARK SMILES IDX 3 13 4 15 5 16 12 17 6 18 11 19 7 20 10 21 8 22 9 23 16 25
REMARK H PARENT 3 14 12 24 16 26
ROOT
ATOM      1  C   UNL     1      12.256 -23.846 -46.720  1.00  0.00     0.055 A 
ATOM      2  C   UNL     1      11.867 -25.061 -47.277  1.00  0.00     0.082 A 
ATOM      3  C   UNL     1      11.714 -25.090 -48.637  1.00  0.00     0.212 A 
ATOM      4  N   UNL     1      11.909 -24.057 -49.465  1.00  0.00    -0.214 NA
ATOM      5  C   UNL     1      12.278 -22.884 -48.922  1.00  0.00     0.075 A 
ATOM      6  C   UNL     1      12.481 -21.804 -49.772  1.00  0.00     0.029 A 
ATOM      7  C   UNL     1      12.873 -20.552 -49.295  1.00  0.00     0.002 A 
ATOM      8  C   UNL     1      13.070 -20.365 -47.936  1.00  0.00     0.001 A 
ATOM      9  C   UNL     1      12.873 -21.431 -47.060  1.00  0.00     0.011 A 
ATOM     10  C   UNL     1      12.470 -22.706 -47.534  1.00  0.00     0.013 A 
ENDROOT
BRANCH   1  11
ATOM     11  C   UNL     1      12.416 -23.786 -45.247  1.00  0.00     0.258 C 
ATOM     12  O   UNL     1      11.511 -23.341 -44.548  1.00  0.00    -0.269 OA
ATOM     13  N   UNL     1      13.624 -24.258 -44.783  1.00  0.00    -0.292 N 
ATOM     14  H   UNL     1      14.357 -24.574 -45.404  1.00  0.00     0.173 HD
BRANCH  13  15
ATOM     15  C   UNL     1      13.935 -24.292 -43.449  1.00  0.00     0.208 A 
ATOM     16  N   UNL     1      15.156 -24.244 -42.972  1.00  0.00    -0.213 NA
ATOM     17  N   UNL     1      13.007 -24.384 -42.444  1.00  0.00    -0.324 N 
ATOM     18  C   UNL     1      15.012 -24.306 -41.606  1.00  0.00     0.091 A 
ATOM     19  C   UNL     1      13.671 -24.394 -41.247  1.00  0.00     0.067 A 
ATOM     20  C   UNL     1      15.989 -24.292 -40.600  1.00  0.00     0.030 A 
ATOM     21  C   UNL     1      13.232 -24.471 -39.924  1.00  0.00     0.028 A 
ATOM     22  C   UNL     1      15.577 -24.367 -39.263  1.00  0.00     0.002 A 
ATOM     23  C   UNL     1      14.221 -24.454 -38.935  1.00  0.00     0.002 A 
ATOM     24  H   UNL     1      12.007 -24.432 -42.598  1.00  0.00     0.170 HD
ENDBRANCH  13  15
ENDBRANCH   1  11
BRANCH   3  25
ATOM     25  O   UNL     1      11.337 -26.233 -49.258  1.00  0.00    -0.493 OA
ATOM     26  H   UNL     1      10.480 -26.393 -48.823  1.00  0.00     0.295 HD
ENDBRANCH   3  25
TORSDOF 3
ENDMDL
MODEL 4
REMARK VINA RESULT:    -7.586      2.526      3.029
REMARK INTER + INTRA:          -9.271
REMARK INTER:                  -8.920
REMARK INTRA:                  -0.351
REMARK UNBOUND:                -0.576
REMARK SMILES O=C(Nc1nc2ccccc2[nH]1)c1cc(O)nc2ccccc12
REMARK SMILES IDX 13 1 14 2 15 3 17 4 18 5 19 6 20 7 21 8 22 9 23 10 2 11 1 12
REMARK SMILES IDX 3 13 4 15 5 16 12 17 6 18 11 19 7 20 10 21 8 22 9 23 16 25
REMARK H PARENT 3 14 12 24 16 26
ROOT
ATOM      1  C   UNL     1      14.834 -23.314 -43.973  1.00  0.00     0.055 A 
ATOM      2  C   UNL     1      16.107 -22.824 -44.257  1.00  0.00     0.082 A 
ATOM      3  C   UNL     1      17.025 -22.885 -43.244  1.00  0.00     0.212 A 
ATOM      4  N   UNL     1      16.803 -23.372 -42.017  1.00  0.00    -0.214 NA
ATOM      5  C   UNL     1      15.571 -23.837 -41.746  1.00  0.00     0.075 A 
ATOM      6  C   UNL     1      15.328 -24.343 -40.476  1.00  0.00     0.029 A 
ATOM      7  C   UNL     1      14.081 -24.854 -40.110  1.00  0.00     0.002 A 
ATOM      8  C   UNL     1      13.045 -24.863 -41.031  1.00  0.00     0.001 A 
ATOM      9  C   UNL     1      13.261 -24.360 -42.313  1.00  0.00     0.011 A 
ATOM     10  C   UNL     1      14.522 -23.835 -42.693  1.00  0.00     0.013 A 
ENDROOT
BRANCH   1  11
ATOM     11  C   UNL     1      13.819 -23.248 -45.051  1.00  0.00     0.258 C 
ATOM     12  O   UNL     1      12.730 -22.722 -44.838  1.00  0.00    -0.269 OA
ATOM     13  N   UNL     1      14.212 -23.812 -46.243  1.00  0.00    -0.292 N 
ATOM     14  H   UNL     1      15.105 -24.274 -46.356  1.00  0.00     0.173 HD
BRANCH  13  15
ATOM     15  C   UNL     1      13.406 -23.826 -47.350  1.00  0.00     0.208 A 
ATOM     16  N   UNL     1      12.894 -24.911 -47.881  1.00  0.00    -0.213 NA
ATOM     17  N   UNL     1      13.034 -22.705 -48.046  1.00  0.00    -0.324 N 
ATOM     18  C   UNL     1      12.162 -24.475 -48.960  1.00  0.00     0.091 A 
ATOM     19  C   UNL     1      12.233 -23.092 -49.087  1.00  0.00     0.067 A 
ATOM     20  C   UNL     1      11.405 -25.209 -49.885  1.00  0.00     0.030 A 
ATOM     21  C   UNL     1      11.585 -22.378 -50.096  1.00  0.00     0.028 A 
ATOM     22  C   UNL     1      10.743 -24.517 -50.909  1.00  0.00     0.002 A 
ATOM     23  C   UNL     1      10.833 -23.127 -51.009  1.00  0.00     0.002 A 
ATOM     24  H   UNL     1      13.320 -21.765 -47.802  1.00  0.00     0.170 HD
ENDBRANCH  13  15
ENDBRANCH   1  11
BRANCH   3  25
ATOM     25  O   UNL     1      18.287 -22.430 -43.436  1.00  0.00    -0.493 OA
ATOM     26  H   UNL     1      18.562 -22.285 -42.513  1.00  0.00     0.295 HD
ENDBRANCH   3  25
TORSDOF 3
ENDMDL
MODEL 5
REMARK VINA RESULT:    -7.487      2.697      3.194
REMARK INTER + INTRA:          -9.157
REMARK INTER:                  -8.507
REMARK INTRA:                  -0.650
REMARK UNBOUND:                -0.576
REMARK SMILES O=C(Nc1nc2ccccc2[nH]1)c1cc(O)nc2ccccc12
REMARK SMILES IDX 13 1 14 2 15 3 17 4 18 5 19 6 20 7 21 8 22 9 23 10 2 11 1 12
REMARK SMILES IDX 3 13 4 15 5 16 12 17 6 18 11 19 7 20 10 21 8 22 9 23 16 25
REMARK H PARENT 3 14 12 24 16 26
ROOT
ATOM      1  C   UNL     1      14.915 -24.233 -43.303  1.00  0.00     0.055 A 
ATOM      2  C   UNL     1      16.111 -23.660 -43.727  1.00  0.00     0.082 A 
ATOM      3  C   UNL     1      16.976 -23.252 -42.748  1.00  0.00     0.212 A 
ATOM      4  N   UNL     1      16.768 -23.359 -41.430  1.00  0.00    -0.214 NA
ATOM      5  C   UNL     1      15.609 -23.906 -41.025  1.00  0.00     0.075 A 
ATOM      6  C   UNL     1      15.381 -24.021 -39.660  1.00  0.00     0.029 A 
ATOM      7  C   UNL     1      14.210 -24.584 -39.151  1.00  0.00     0.002 A 
ATOM      8  C   UNL     1      13.235 -25.047 -40.021  1.00  0.00     0.001 A 
ATOM      9  C   UNL     1      13.437 -24.944 -41.396  1.00  0.00     0.011 A 
ATOM     10  C   UNL     1      14.621 -24.370 -41.923  1.00  0.00     0.013 A 
ENDROOT
BRANCH   1  11
ATOM     11  C   UNL     1      13.957 -24.672 -44.345  1.00  0.00     0.258 C 
ATOM     12  O   UNL     1      13.998 -25.822 -44.773  1.00  0.00    -0.269 OA
ATOM     13  N   UNL     1      13.071 -23.700 -44.754  1.00  0.00    -0.292 N 
ATOM     14  H   UNL     1      13.106 -22.752 -44.402  1.00  0.00     0.173 HD
BRANCH  13  15
ATOM     15  C   UNL     1      12.107 -23.936 -45.698  1.00  0.00     0.208 A 
ATOM     16  N   UNL     1      11.901 -23.182 -46.751  1.00  0.00    -0.213 NA
ATOM     17  N   UNL     1      11.233 -24.991 -45.658  1.00  0.00    -0.324 N 
ATOM     18  C   UNL     1      10.854 -23.772 -47.419  1.00  0.00     0.091 A 
ATOM     19  C   UNL     1      10.415 -24.912 -46.753  1.00  0.00     0.067 A 
ATOM     20  C   UNL     1      10.219 -23.388 -48.609  1.00  0.00     0.030 A 
ATOM     21  C   UNL     1       9.363 -25.710 -47.207  1.00  0.00     0.028 A 
ATOM     22  C   UNL     1       9.160 -24.172 -49.088  1.00  0.00     0.002 A 
ATOM     23  C   UNL     1       8.743 -25.312 -48.396  1.00  0.00     0.002 A 
ATOM     24  H   UNL     1      11.223 -25.693 -44.928  1.00  0.00     0.170 HD
ENDBRANCH  13  15
ENDBRANCH   1  11
BRANCH   3  25
ATOM     25  O   UNL     1      18.161 -22.684 -43.076  1.00  0.00    -0.493 OA
ATOM     26  H   UNL     1      17.893 -22.155 -43.849  1.00  0.00     0.295 HD
ENDBRANCH   3  25
TORSDOF 3
ENDMDL
MODEL 6
REMARK VINA RESULT:    -7.188      2.473      7.815
REMARK INTER + INTRA:          -8.814
REMARK INTER:                  -8.204
REMARK INTRA:                  -0.611
REMARK UNBOUND:                -0.576
REMARK SMILES O=C(Nc1nc2ccccc2[nH]1)c1cc(O)nc2ccccc12
REMARK SMILES IDX 13 1 14 2 15 3 17 4 18 5 19 6 20 7 21 8 22 9 23 10 2 11 1 12
REMARK SMILES IDX 3 13 4 15 5 16 12 17 6 18 11 19 7 20 10 21 8 22 9 23 16 25
REMARK H PARENT 3 14 12 24 16 26
ROOT
ATOM      1  C   UNL     1      13.519 -23.521 -46.651  1.00  0.00     0.055 A 
ATOM      2  C   UNL     1      14.452 -22.707 -47.288  1.00  0.00     0.082 A 
ATOM      3  C   UNL     1      14.069 -22.155 -48.481  1.00  0.00     0.212 A 
ATOM      4  N   UNL     1      12.884 -22.332 -49.077  1.00  0.00    -0.214 NA
ATOM      5  C   UNL     1      11.990 -23.125 -48.462  1.00  0.00     0.075 A 
ATOM      6  C   UNL     1      10.757 -23.317 -49.072  1.00  0.00     0.029 A 
ATOM      7  C   UNL     1       9.767 -24.118 -48.501  1.00  0.00     0.002 A 
ATOM      8  C   UNL     1      10.005 -24.745 -47.288  1.00  0.00     0.001 A 
ATOM      9  C   UNL     1      11.233 -24.570 -46.653  1.00  0.00     0.011 A 
ATOM     10  C   UNL     1      12.248 -23.763 -47.228  1.00  0.00     0.013 A 
ENDROOT
BRANCH   1  11
ATOM     11  C   UNL     1      13.915 -24.140 -45.363  1.00  0.00     0.258 C 
ATOM     12  O   UNL     1      14.479 -25.230 -45.353  1.00  0.00    -0.269 OA
ATOM     13  N   UNL     1      13.596 -23.396 -44.249  1.00  0.00    -0.292 N 
ATOM     14  H   UNL     1      13.090 -22.522 -44.307  1.00  0.00     0.173 HD
BRANCH  13  15
ATOM     15  C   UNL     1      13.902 -23.809 -42.979  1.00  0.00     0.208 A 
ATOM     16  N   UNL     1      13.014 -24.172 -42.084  1.00  0.00    -0.213 NA
ATOM     17  N   UNL     1      15.177 -23.891 -42.483  1.00  0.00    -0.324 N 
ATOM     18  C   UNL     1      13.743 -24.503 -40.966  1.00  0.00     0.091 A 
ATOM     19  C   UNL     1      15.106 -24.335 -41.190  1.00  0.00     0.067 A 
ATOM     20  C   UNL     1      13.307 -24.958 -39.713  1.00  0.00     0.030 A 
ATOM     21  C   UNL     1      16.081 -24.597 -40.226  1.00  0.00     0.028 A 
ATOM     22  C   UNL     1      14.264 -25.228 -38.727  1.00  0.00     0.002 A 
ATOM     23  C   UNL     1      15.626 -25.051 -38.982  1.00  0.00     0.002 A 
ATOM     24  H   UNL     1      16.008 -23.657 -43.012  1.00  0.00     0.170 HD
ENDBRANCH  13  15
ENDBRANCH   1  11
BRANCH   3  25
ATOM     25  O   UNL     1      14.917 -21.350 -49.165  1.00  0.00    -0.493 OA
ATOM     26  H   UNL     1      14.321 -21.022 -49.862  1.00  0.00     0.295 HD
ENDBRANCH   3  25
TORSDOF 3
ENDMDL
MODEL 7
REMARK VINA RESULT:    -6.944      2.953      4.349
REMARK INTER + INTRA:          -8.535
REMARK INTER:                  -8.016
REMARK INTRA:                  -0.519
REMARK UNBOUND:                -0.576
REMARK SMILES O=C(Nc1nc2ccccc2[nH]1)c1cc(O)nc2ccccc12
REMARK SMILES IDX 13 1 14 2 15 3 17 4 18 5 19 6 20 7 21 8 22 9 23 10 2 11 1 12
REMARK SMILES IDX 3 13 4 15 5 16 12 17 6 18 11 19 7 20 10 21 8 22 9 23 16 25
REMARK H PARENT 3 14 12 24 16 26
ROOT
ATOM      1  C   UNL     1      13.619 -23.725 -44.087  1.00  0.00     0.055 A 
ATOM      2  C   UNL     1      12.927 -24.274 -43.011  1.00  0.00     0.082 A 
ATOM      3  C   UNL     1      13.638 -24.461 -41.856  1.00  0.00     0.212 A 
ATOM      4  N   UNL     1      14.930 -24.160 -41.679  1.00  0.00    -0.214 NA
ATOM      5  C   UNL     1      15.597 -23.638 -42.723  1.00  0.00     0.075 A 
ATOM      6  C   UNL     1      16.939 -23.323 -42.552  1.00  0.00     0.029 A 
ATOM      7  C   UNL     1      17.705 -22.769 -43.579  1.00  0.00     0.002 A 
ATOM      8  C   UNL     1      17.123 -22.519 -44.812  1.00  0.00     0.001 A 
ATOM      9  C   UNL     1      15.778 -22.824 -45.012  1.00  0.00     0.011 A 
ATOM     10  C   UNL     1      14.992 -23.392 -43.976  1.00  0.00     0.013 A 
ENDROOT
BRANCH   1  11
ATOM     11  C   UNL     1      12.873 -23.524 -45.352  1.00  0.00     0.258 C 
ATOM     12  O   UNL     1      12.056 -22.613 -45.445  1.00  0.00    -0.269 OA
ATOM     13  N   UNL     1      13.183 -24.423 -46.347  1.00  0.00    -0.292 N 
ATOM     14  H   UNL     1      13.833 -25.186 -46.207  1.00  0.00     0.173 HD
BRANCH  13  15
ATOM     15  C   UNL     1      12.601 -24.375 -47.586  1.00  0.00     0.208 A 
ATOM     16  N   UNL     1      12.342 -25.428 -48.324  1.00  0.00    -0.213 NA
ATOM     17  N   UNL     1      12.218 -23.217 -48.213  1.00  0.00    -0.324 N 
ATOM     18  C   UNL     1      11.768 -24.933 -49.472  1.00  0.00     0.091 A 
ATOM     19  C   UNL     1      11.678 -23.546 -49.428  1.00  0.00     0.067 A 
ATOM     20  C   UNL     1      11.295 -25.613 -50.604  1.00  0.00     0.030 A 
ATOM     21  C   UNL     1      11.137 -22.777 -50.460  1.00  0.00     0.028 A 
ATOM     22  C   UNL     1      10.746 -24.866 -51.654  1.00  0.00     0.002 A 
ATOM     23  C   UNL     1      10.669 -23.473 -51.580  1.00  0.00     0.002 A 
ATOM     24  H   UNL     1      12.329 -22.293 -47.814  1.00  0.00     0.170 HD
ENDBRANCH  13  15
ENDBRANCH   1  11
BRANCH   3  25
ATOM     25  O   UNL     1      13.039 -24.990 -40.762  1.00  0.00    -0.493 OA
ATOM     26  H   UNL     1      13.237 -25.935 -40.896  1.00  0.00     0.295 HD
ENDBRANCH   3  25
TORSDOF 3
ENDMDL
MODEL 8
REMARK VINA RESULT:    -6.741      3.517      4.971
REMARK INTER + INTRA:          -8.302
REMARK INTER:                  -7.750
REMARK INTRA:                  -0.552
REMARK UNBOUND:                -0.576
REMARK SMILES O=C(Nc1nc2ccccc2[nH]1)c1cc(O)nc2ccccc12
REMARK SMILES IDX 13 1 14 2 15 3 17 4 18 5 19 6 20 7 21 8 22 9 23 10 2 11 1 12
REMARK SMILES IDX 3 13 4 15 5 16 12 17 6 18 11 19 7 20 10 21 8 22 9 23 16 25
REMARK H PARENT 3 14 12 24 16 26
ROOT
ATOM      1  C   UNL     1      13.657 -23.964 -43.625  1.00  0.00     0.055 A 
ATOM      2  C   UNL     1      13.585 -24.554 -42.366  1.00  0.00     0.082 A 
ATOM      3  C   UNL     1      14.741 -24.576 -41.633  1.00  0.00     0.212 A 
ATOM      4  N   UNL     1      15.921 -24.080 -42.024  1.00  0.00    -0.214 NA
ATOM      5  C   UNL     1      15.988 -23.518 -43.243  1.00  0.00     0.075 A 
ATOM      6  C   UNL     1      17.208 -23.002 -43.660  1.00  0.00     0.029 A 
ATOM      7  C   UNL     1      17.366 -22.393 -44.906  1.00  0.00     0.002 A 
ATOM      8  C   UNL     1      16.283 -22.293 -45.765  1.00  0.00     0.001 A 
ATOM      9  C   UNL     1      15.046 -22.803 -45.372  1.00  0.00     0.011 A 
ATOM     10  C   UNL     1      14.876 -23.427 -44.110  1.00  0.00     0.013 A 
ENDROOT
BRANCH   1  11
ATOM     11  C   UNL     1      12.421 -23.939 -44.443  1.00  0.00     0.258 C 
ATOM     12  O   UNL     1      11.529 -23.136 -44.184  1.00  0.00    -0.269 OA
ATOM     13  N   UNL     1      12.391 -24.863 -45.462  1.00  0.00    -0.292 N 
ATOM     14  H   UNL     1      13.133 -25.534 -45.608  1.00  0.00     0.173 HD
BRANCH  13  15
ATOM     15  C   UNL     1      11.332 -24.969 -46.326  1.00  0.00     0.208 A 
ATOM     16  N   UNL     1      10.549 -26.018 -46.413  1.00  0.00    -0.213 NA
ATOM     17  N   UNL     1      10.960 -23.991 -47.211  1.00  0.00    -0.324 N 
ATOM     18  C   UNL     1       9.635 -25.706 -47.391  1.00  0.00     0.091 A 
ATOM     19  C   UNL     1       9.870 -24.437 -47.909  1.00  0.00     0.067 A 
ATOM     20  C   UNL     1       8.566 -26.462 -47.894  1.00  0.00     0.030 A 
ATOM     21  C   UNL     1       9.094 -23.862 -48.917  1.00  0.00     0.028 A 
ATOM     22  C   UNL     1       7.770 -25.909 -48.905  1.00  0.00     0.002 A 
ATOM     23  C   UNL     1       8.032 -24.631 -49.405  1.00  0.00     0.002 A 
ATOM     24  H   UNL     1      11.433 -23.100 -47.304  1.00  0.00     0.170 HD
ENDBRANCH  13  15
ENDBRANCH   1  11
BRANCH   3  25
ATOM     25  O   UNL     1      14.757 -25.132 -40.398  1.00  0.00    -0.493 OA
ATOM     26  H   UNL     1      14.752 -26.077 -40.633  1.00  0.00     0.295 HD
ENDBRANCH   3  25
TORSDOF 3
ENDMDL
MODEL 9
REMARK VINA RESULT:    -6.708      1.795      3.130
REMARK INTER + INTRA:          -8.264
REMARK INTER:                  -8.101
REMARK INTRA:                  -0.163
REMARK UNBOUND:                -0.576
REMARK SMILES O=C(Nc1nc2ccccc2[nH]1)c1cc(O)nc2ccccc12
REMARK SMILES IDX 13 1 14 2 15 3 17 4 18 5 19 6 20 7 21 8 22 9 23 10 2 11 1 12
REMARK SMILES IDX 3 13 4 15 5 16 12 17 6 18 11 19 7 20 10 21 8 22 9 23 16 25
REMARK H PARENT 3 14 12 24 16 26
ROOT
ATOM      1  C   UNL     1      14.867 -24.009 -42.316  1.00  0.00     0.055 A 
ATOM      2  C   UNL     1      13.847 -23.835 -41.383  1.00  0.00     0.082 A 
ATOM      3  C   UNL     1      14.010 -24.459 -40.176  1.00  0.00     0.212 A 
ATOM      4  N   UNL     1      15.058 -25.213 -39.823  1.00  0.00    -0.214 NA
ATOM      5  C   UNL     1      16.035 -25.384 -40.729  1.00  0.00     0.075 A 
ATOM      6  C   UNL     1      17.127 -26.166 -40.374  1.00  0.00     0.029 A 
ATOM      7  C   UNL     1      18.191 -26.390 -41.249  1.00  0.00     0.002 A 
ATOM      8  C   UNL     1      18.173 -25.822 -42.514  1.00  0.00     0.001 A 
ATOM      9  C   UNL     1      17.089 -25.033 -42.896  1.00  0.00     0.011 A 
ATOM     10  C   UNL     1      16.001 -24.803 -42.016  1.00  0.00     0.013 A 
ENDROOT
BRANCH   1  11
ATOM     11  C   UNL     1      14.708 -23.352 -43.636  1.00  0.00     0.258 C 
ATOM     12  O   UNL     1      15.637 -22.713 -44.120  1.00  0.00    -0.269 OA
ATOM     13  N   UNL     1      13.473 -23.531 -44.219  1.00  0.00    -0.292 N 
ATOM     14  H   UNL     1      12.723 -24.030 -43.758  1.00  0.00     0.173 HD
BRANCH  13  15
ATOM     15  C   UNL     1      13.158 -23.008 -45.445  1.00  0.00     0.208 A 
ATOM     16  N   UNL     1      12.118 -23.367 -46.158  1.00  0.00    -0.213 NA
ATOM     17  N   UNL     1      13.895 -22.043 -46.083  1.00  0.00    -0.324 N 
ATOM     18  C   UNL     1      12.183 -22.605 -47.301  1.00  0.00     0.091 A 
ATOM     19  C   UNL     1      13.291 -21.764 -47.279  1.00  0.00     0.067 A 
ATOM     20  C   UNL     1      11.325 -22.575 -48.410  1.00  0.00     0.030 A 
ATOM     21  C   UNL     1      13.605 -20.878 -48.312  1.00  0.00     0.028 A 
ATOM     22  C   UNL     1      11.616 -21.696 -49.461  1.00  0.00     0.002 A 
ATOM     23  C   UNL     1      12.736 -20.863 -49.409  1.00  0.00     0.002 A 
ATOM     24  H   UNL     1      14.737 -21.629 -45.703  1.00  0.00     0.170 HD
ENDBRANCH  13  15
ENDBRANCH   1  11
BRANCH   3  25
ATOM     25  O   UNL     1      13.065 -24.340 -39.213  1.00  0.00    -0.493 OA
ATOM     26  H   UNL     1      13.614 -24.455 -38.415  1.00  0.00     0.295 HD
ENDBRANCH   3  25
TORSDOF 3
ENDMDL
