REMARK SMILES [NH3+][C@@H](c1ccc[nH]1)c1c2c(nc3ccccc13)CCCC2
REMARK SMILES IDX 2 1 1 2 3 6 4 7 7 8 5 9 6 10 8 12 9 13 17 14 10 15 21 16
REMARK SMILES IDX 16 17 12 18 11 19 18 20 20 21 15 22 13 23 19 24 14 25
REMARK H PARENT 1 3 1 4 1 5 7 11
ROOT
ATOM      1  C   UNL     1       1.494  -0.392   0.084  1.00  0.00     0.260 C 
ENDROOT
BRANCH   1   2
ATOM      2  N   UNL     1       2.279  -0.595  -1.155  1.00  0.00    -0.346 N 
ATOM      3  H   UNL     1       2.103  -1.528  -1.543  1.00  0.00     0.345 HD
ATOM      4  H   UNL     1       3.280  -0.501  -0.961  1.00  0.00     0.345 HD
ATOM      5  H   UNL     1       2.022   0.094  -1.865  1.00  0.00     0.345 HD
ENDBRANCH   1   2
BRANCH   1   6
ATOM      6  C   UNL     1       1.772   0.937   0.715  1.00  0.00     0.078 A 
ATOM      7  C   UNL     1       2.654   1.956   0.387  1.00  0.00     0.030 A 
ATOM      8  N   UNL     1       1.124   1.326   1.875  1.00  0.00    -0.360 N 
ATOM      9  C   UNL     1       2.515   2.979   1.354  1.00  0.00     0.020 A 
ATOM     10  C   UNL     1       1.565   2.564   2.255  1.00  0.00     0.083 A 
ATOM     11  H   UNL     1       0.409   0.801   2.370  1.00  0.00     0.166 HD
ENDBRANCH   1   6
BRANCH   1  12
ATOM     12  C   UNL     1       0.023  -0.725  -0.156  1.00  0.00     0.030 A 
ATOM     13  C   UNL     1      -0.851   0.165  -0.851  1.00  0.00    -0.016 A 
ATOM     14  C   UNL     1      -0.481  -2.005   0.281  1.00  0.00     0.010 A 
ATOM     15  C   UNL     1      -2.178  -0.239  -1.036  1.00  0.00     0.045 A 
ATOM     16  C   UNL     1      -0.445   1.549  -1.320  1.00  0.00     0.038 C 
ATOM     17  C   UNL     1       0.255  -3.020   0.963  1.00  0.00     0.011 A 
ATOM     18  C   UNL     1      -1.836  -2.288   0.007  1.00  0.00     0.071 A 
ATOM     19  N   UNL     1      -2.639  -1.437  -0.628  1.00  0.00    -0.253 NA
ATOM     20  C   UNL     1      -3.198   0.595  -1.771  1.00  0.00     0.056 C 
ATOM     21  C   UNL     1      -1.377   2.173  -2.358  1.00  0.00     0.005 C 
ATOM     22  C   UNL     1      -0.326  -4.233   1.344  1.00  0.00     0.001 A 
ATOM     23  C   UNL     1      -2.394  -3.498   0.393  1.00  0.00     0.029 A 
ATOM     24  C   UNL     1      -2.818   2.062  -1.893  1.00  0.00     0.007 C 
ATOM     25  C   UNL     1      -1.657  -4.473   1.058  1.00  0.00     0.002 A 
ENDBRANCH   1  12
TORSDOF 3
