REMARK SMILES Cc1ncc(COP(=O)([O-])[O-])c(/C=N/NC(=S)NCc2ccco2)c1O
REMARK SMILES IDX 1 1 2 2 3 3 4 4 5 5 12 6 25 7 26 8 13 10 14 11 15 12 16 13
REMARK SMILES IDX 17 14 18 15 19 18 20 19 21 20 24 21 22 22 23 23 6 24 7 25
REMARK SMILES IDX 8 26 9 27 10 28 11 29
REMARK H PARENT 26 9 15 16 18 17
ROOT
ATOM      1  C   UNL     1       0.496  -0.312   3.326  1.00  0.00     0.071 C 
ATOM      2  C   UNL     1       1.444  -0.768   2.258  1.00  0.00     0.080 A 
ATOM      3  N   UNL     1       2.659  -1.203   2.670  1.00  0.00    -0.257 NA
ATOM      4  C   UNL     1       3.533  -1.577   1.701  1.00  0.00     0.118 A 
ATOM      5  C   UNL     1       3.251  -1.613   0.338  1.00  0.00     0.009 A 
ATOM      6  C   UNL     1       1.990  -1.155  -0.059  1.00  0.00     0.045 A 
ATOM      7  C   UNL     1       1.074  -0.723   0.914  1.00  0.00     0.145 A 
ENDROOT
BRANCH   7   8
ATOM      8  O   UNL     1      -0.177  -0.248   0.594  1.00  0.00    -0.505 OA
ATOM      9  H   UNL     1      -0.194  -0.208  -0.390  1.00  0.00     0.293 HD
ENDBRANCH   7   8
BRANCH   6  10
ATOM     10  C   UNL     1       1.617  -1.115  -1.494  1.00  0.00     0.145 C 
ATOM     11  N   UNL     1       0.368  -1.017  -1.860  1.00  0.00    -0.181 NA
BRANCH  11  12
ATOM     12  N   UNL     1       0.215  -0.909  -3.220  1.00  0.00    -0.254 N 
ATOM     13  C   UNL     1      -1.043  -0.886  -3.786  1.00  0.00     0.187 C 
ATOM     14  S   UNL     1      -1.259  -0.656  -5.423  1.00  0.00    -0.039 S 
ATOM     15  N   UNL     1      -2.039  -1.067  -2.858  1.00  0.00    -0.354 N 
ATOM     16  H   UNL     1       1.049  -0.748  -3.794  1.00  0.00     0.193 HD
ATOM     17  H   UNL     1      -1.642  -1.397  -1.983  1.00  0.00     0.163 HD
BRANCH  15  18
ATOM     18  C   UNL     1      -3.446  -1.267  -3.112  1.00  0.00     0.190 C 
BRANCH  18  19
ATOM     19  C   UNL     1      -4.201  -1.188  -1.834  1.00  0.00     0.122 A 
ATOM     20  C   UNL     1      -4.016  -0.491  -0.655  1.00  0.00     0.047 A 
ATOM     21  O   UNL     1      -5.342  -1.936  -1.752  1.00  0.00    -0.467 OA
ATOM     22  C   UNL     1      -5.090  -0.844   0.195  1.00  0.00     0.042 A 
ATOM     23  C   UNL     1      -5.868  -1.724  -0.519  1.00  0.00     0.195 A 
ENDBRANCH  18  19
ENDBRANCH  15  18
ENDBRANCH  11  12
ENDBRANCH   6  10
BRANCH   5  24
ATOM     24  C   UNL     1       4.303  -2.129  -0.605  1.00  0.00     0.204 C 
BRANCH  24  25
ATOM     25  O   UNL     1       5.275  -1.155  -0.883  1.00  0.00    -0.346 OA
BRANCH  25  26
ATOM     26  P   UNL     1       5.124  -0.354  -2.302  1.00  0.00     0.060 P 
ATOM     27  O   UNL     1       6.475   0.311  -2.481  1.00  0.00    -0.326 OA
ATOM     28  O   UNL     1       3.962   0.593  -2.045  1.00  0.00    -0.790 OA
ATOM     29  O   UNL     1       4.802  -1.450  -3.308  1.00  0.00    -0.790 OA
ENDBRANCH  25  26
ENDBRANCH  24  25
ENDBRANCH   5  24
TORSDOF 8
