REMARK SMILES N#Cc1cn(C2CC2)c(=O)n(CC(=O)N2C[C@H](C(N)=O)Oc3ccccc32)c1=O
REMARK SMILES IDX 13 1 14 2 12 3 11 4 1 5 2 6 3 7 4 8 28 9 5 10 29 11 9 12
REMARK SMILES IDX 10 13 6 14 7 15 8 16 15 17 16 18 27 19 17 20 26 21 22 22
REMARK SMILES IDX 21 23 25 24 23 25 24 26 18 27 19 28 20 29
REMARK H PARENT 19 30 19 31
ROOT
ATOM      1  C   UNL     1      -0.128  -3.044   0.344  1.00  0.00     0.247 C 
ATOM      2  O   UNL     1      -0.150  -4.037   1.075  1.00  0.00    -0.272 OA
ENDROOT
BRANCH   1   3
ATOM      3  C   UNL     1       0.254  -3.158  -1.139  1.00  0.00     0.231 C 
BRANCH   3   4
ATOM      4  N   UNL     1      -0.294  -2.088  -1.964  1.00  0.00    -0.250 N 
ATOM      5  N   UNL     1      -4.600  -1.148  -4.043  1.00  0.00    -0.192 NA
ATOM      6  C   UNL     1      -3.516  -1.161  -3.626  1.00  0.00     0.107 C 
ATOM      7  C   UNL     1      -2.169  -1.116  -3.185  1.00  0.00     0.134 C 
ATOM      8  C   UNL     1      -1.366  -0.095  -3.500  1.00  0.00     0.116 C 
ATOM      9  C   UNL     1      -1.629  -2.197  -2.334  1.00  0.00     0.274 C 
ATOM     10  N   UNL     1      -0.058  -0.024  -3.078  1.00  0.00    -0.296 N 
ATOM     11  O   UNL     1      -2.339  -3.144  -2.000  1.00  0.00    -0.268 OA
ATOM     12  C   UNL     1       0.550  -1.052  -2.350  1.00  0.00     0.331 C 
ATOM     13  O   UNL     1       1.754  -1.050  -2.089  1.00  0.00    -0.248 OA
BRANCH  10  14
ATOM     14  C   UNL     1       0.723   1.122  -3.486  1.00  0.00     0.092 C 
ATOM     15  C   UNL     1       1.391   2.010  -2.463  1.00  0.00     0.028 C 
ATOM     16  C   UNL     1       0.251   2.542  -3.273  1.00  0.00     0.028 C 
ENDBRANCH  10  14
ENDBRANCH   3   4
ENDBRANCH   1   3
BRANCH   1  17
ATOM     17  N   UNL     1      -0.405  -1.768   0.828  1.00  0.00    -0.303 N 
ATOM     18  C   UNL     1      -1.646  -1.640   1.588  1.00  0.00     0.181 C 
ATOM     19  C   UNL     1       0.642  -0.916   1.312  1.00  0.00     0.086 A 
ATOM     20  C   UNL     1      -1.990  -0.182   1.852  1.00  0.00     0.281 C 
ATOM     21  C   UNL     1       1.991  -1.146   1.016  1.00  0.00     0.030 A 
ATOM     22  C   UNL     1       0.322   0.183   2.134  1.00  0.00     0.144 A 
ATOM     23  O   UNL     1      -0.948   0.508   2.546  1.00  0.00    -0.477 OA
ATOM     24  C   UNL     1       2.990  -0.297   1.507  1.00  0.00     0.002 A 
ATOM     25  C   UNL     1       1.323   1.021   2.634  1.00  0.00     0.049 A 
ATOM     26  C   UNL     1       2.657   0.785   2.315  1.00  0.00     0.004 A 
BRANCH  20  27
ATOM     27  C   UNL     1      -2.394   0.582   0.584  1.00  0.00     0.260 C 
ATOM     28  N   UNL     1      -2.464   1.943   0.736  1.00  0.00    -0.366 N 
ATOM     29  O   UNL     1      -2.696   0.063  -0.485  1.00  0.00    -0.271 OA
ATOM     30  H   UNL     1      -2.633   2.492  -0.096  1.00  0.00     0.159 HD
ATOM     31  H   UNL     1      -1.945   2.379   1.490  1.00  0.00     0.159 HD
ENDBRANCH  20  27
ENDBRANCH   1  17
TORSDOF 5
