MODEL 1
REMARK VINA RESULT:    -6.862      0.000      0.000
REMARK INTER + INTRA:         -10.038
REMARK INTER:                  -9.469
REMARK INTRA:                  -0.569
REMARK UNBOUND:                -0.569
REMARK SMILES C/C(N)=C(/C#N)C(=O)COC(=O)c1sc(-c2cccs2)nc1C
REMARK SMILES IDX 9 1 7 2 8 3 4 4 2 5 5 6 6 7 1 8 3 9 10 12 11 13 12 14 13 15
REMARK SMILES IDX 14 16 22 17 15 18 21 19 23 20 16 21 17 22 20 23 18 24 19 25
REMARK H PARENT 3 10 3 11
ROOT
ATOM      1  C   UNL     1      14.369 -21.614 -47.809  1.00  0.00     0.315 C 
ENDROOT
BRANCH   1   2
ATOM      2  C   UNL     1      13.159 -20.802 -48.284  1.00  0.00     0.212 C 
ATOM      3  O   UNL     1      12.701 -19.877 -47.610  1.00  0.00    -0.289 OA
BRANCH   2   4
ATOM      4  C   UNL     1      12.573 -21.151 -49.620  1.00  0.00     0.117 C 
ATOM      5  C   UNL     1      11.651 -22.136 -49.768  1.00  0.00     0.027 C 
ATOM      6  C   UNL     1      13.012 -20.378 -50.732  1.00  0.00     0.105 C 
ATOM      7  N   UNL     1      13.366 -19.730 -51.626  1.00  0.00    -0.192 NA
ATOM      8  C   UNL     1      11.098 -22.911 -48.586  1.00  0.00     0.065 C 
BRANCH   5   9
ATOM      9  N   UNL     1      11.089 -22.506 -50.988  1.00  0.00    -0.401 N 
ATOM     10  H   UNL     1      10.935 -23.509 -51.088  1.00  0.00     0.156 HD
ATOM     11  H   UNL     1      11.523 -22.108 -51.822  1.00  0.00     0.156 HD
ENDBRANCH   5   9
ENDBRANCH   2   4
ENDBRANCH   1   2
BRANCH   1  12
ATOM     12  O   UNL     1      14.303 -21.912 -46.412  1.00  0.00    -0.453 OA
BRANCH  12  13
ATOM     13  C   UNL     1      14.576 -23.217 -46.107  1.00  0.00     0.350 C 
ATOM     14  O   UNL     1      14.530 -24.120 -46.936  1.00  0.00    -0.245 OA
BRANCH  13  15
ATOM     15  C   UNL     1      14.940 -23.349 -44.714  1.00  0.00     0.135 A 
ATOM     16  S   UNL     1      13.799 -24.026 -43.619  1.00  0.00    -0.106 S 
ATOM     17  C   UNL     1      16.095 -23.017 -44.022  1.00  0.00     0.064 A 
ATOM     18  C   UNL     1      14.911 -23.847 -42.324  1.00  0.00     0.134 A 
ATOM     19  N   UNL     1      16.065 -23.315 -42.666  1.00  0.00    -0.240 NA
ATOM     20  C   UNL     1      17.335 -22.387 -44.551  1.00  0.00     0.068 C 
BRANCH  18  21
ATOM     21  C   UNL     1      14.604 -24.250 -40.969  1.00  0.00     0.063 A 
ATOM     22  C   UNL     1      13.378 -24.248 -40.321  1.00  0.00     0.023 A 
ATOM     23  S   UNL     1      15.839 -24.828 -39.916  1.00  0.00    -0.141 S 
ATOM     24  C   UNL     1      13.458 -24.718 -38.976  1.00  0.00     0.012 A 
ATOM     25  C   UNL     1      14.742 -25.065 -38.629  1.00  0.00     0.065 A 
ENDBRANCH  18  21
ENDBRANCH  13  15
ENDBRANCH  12  13
ENDBRANCH   1  12
TORSDOF 7
ENDMDL
MODEL 2
REMARK VINA RESULT:    -6.690      1.365      2.246
REMARK INTER + INTRA:          -9.801
REMARK INTER:                  -9.375
REMARK INTRA:                  -0.426
REMARK UNBOUND:                -0.569
REMARK SMILES C/C(N)=C(/C#N)C(=O)COC(=O)c1sc(-c2cccs2)nc1C
REMARK SMILES IDX 9 1 7 2 8 3 4 4 2 5 5 6 6 7 1 8 3 9 10 12 11 13 12 14 13 15
REMARK SMILES IDX 14 16 22 17 15 18 21 19 23 20 16 21 17 22 20 23 18 24 19 25
REMARK H PARENT 3 10 3 11
ROOT
ATOM      1  C   UNL     1      14.184 -23.084 -47.132  1.00  0.00     0.315 C 
ENDROOT
BRANCH   1   2
ATOM      2  C   UNL     1      12.741 -22.613 -46.919  1.00  0.00     0.212 C 
ATOM      3  O   UNL     1      12.323 -22.308 -45.800  1.00  0.00    -0.289 OA
BRANCH   2   4
ATOM      4  C   UNL     1      11.864 -22.501 -48.131  1.00  0.00     0.117 C 
ATOM      5  C   UNL     1      12.011 -21.503 -49.038  1.00  0.00     0.027 C 
ATOM      6  C   UNL     1      10.877 -23.512 -48.302  1.00  0.00     0.105 C 
ATOM      7  N   UNL     1      10.088 -24.352 -48.436  1.00  0.00    -0.192 NA
ATOM      8  C   UNL     1      13.116 -20.466 -48.929  1.00  0.00     0.065 C 
BRANCH   5   9
ATOM      9  N   UNL     1      11.214 -21.348 -50.170  1.00  0.00    -0.401 N 
ATOM     10  H   UNL     1      11.734 -21.136 -51.021  1.00  0.00     0.156 HD
ATOM     11  H   UNL     1      10.400 -20.740 -50.067  1.00  0.00     0.156 HD
ENDBRANCH   5   9
ENDBRANCH   2   4
ENDBRANCH   1   2
BRANCH   1  12
ATOM     12  O   UNL     1      15.096 -22.448 -46.233  1.00  0.00    -0.453 OA
BRANCH  12  13
ATOM     13  C   UNL     1      16.156 -23.230 -45.868  1.00  0.00     0.350 C 
ATOM     14  O   UNL     1      16.963 -23.681 -46.674  1.00  0.00    -0.245 OA
BRANCH  13  15
ATOM     15  C   UNL     1      16.188 -23.408 -44.433  1.00  0.00     0.135 A 
ATOM     16  S   UNL     1      14.743 -23.867 -43.622  1.00  0.00    -0.106 S 
ATOM     17  C   UNL     1      17.209 -23.272 -43.504  1.00  0.00     0.064 A 
ATOM     18  C   UNL     1      15.567 -23.868 -42.117  1.00  0.00     0.134 A 
ATOM     19  N   UNL     1      16.842 -23.546 -42.194  1.00  0.00    -0.240 NA
ATOM     20  C   UNL     1      18.623 -22.871 -43.743  1.00  0.00     0.068 C 
BRANCH  18  21
ATOM     21  C   UNL     1      14.915 -24.197 -40.868  1.00  0.00     0.063 A 
ATOM     22  C   UNL     1      13.562 -24.188 -40.569  1.00  0.00     0.023 A 
ATOM     23  S   UNL     1      15.832 -24.680 -39.492  1.00  0.00    -0.141 S 
ATOM     24  C   UNL     1      13.286 -24.574 -39.223  1.00  0.00     0.012 A 
ATOM     25  C   UNL     1      14.435 -24.868 -38.528  1.00  0.00     0.065 A 
ENDBRANCH  18  21
ENDBRANCH  13  15
ENDBRANCH  12  13
ENDBRANCH   1  12
TORSDOF 7
ENDMDL
MODEL 3
REMARK VINA RESULT:    -6.642      3.181      8.752
REMARK INTER + INTRA:          -9.735
REMARK INTER:                  -8.920
REMARK INTRA:                  -0.815
REMARK UNBOUND:                -0.569
REMARK SMILES C/C(N)=C(/C#N)C(=O)COC(=O)c1sc(-c2cccs2)nc1C
REMARK SMILES IDX 9 1 7 2 8 3 4 4 2 5 5 6 6 7 1 8 3 9 10 12 11 13 12 14 13 15
REMARK SMILES IDX 14 16 22 17 15 18 21 19 23 20 16 21 17 22 20 23 18 24 19 25
REMARK H PARENT 3 10 3 11
ROOT
ATOM      1  C   UNL     1      13.333 -25.015 -46.198  1.00  0.00     0.315 C 
ENDROOT
BRANCH   1   2
ATOM      2  C   UNL     1      14.634 -25.008 -45.386  1.00  0.00     0.212 C 
ATOM      3  O   UNL     1      15.512 -25.852 -45.573  1.00  0.00    -0.289 OA
BRANCH   2   4
ATOM      4  C   UNL     1      14.815 -23.910 -44.380  1.00  0.00     0.117 C 
ATOM      5  C   UNL     1      15.510 -22.780 -44.662  1.00  0.00     0.027 C 
ATOM      6  C   UNL     1      14.197 -24.098 -43.111  1.00  0.00     0.105 C 
ATOM      7  N   UNL     1      13.676 -24.258 -42.087  1.00  0.00    -0.192 NA
ATOM      8  C   UNL     1      16.098 -22.514 -46.037  1.00  0.00     0.065 C 
BRANCH   5   9
ATOM      9  N   UNL     1      15.719 -21.741 -43.758  1.00  0.00    -0.401 N 
ATOM     10  H   UNL     1      14.964 -21.618 -43.084  1.00  0.00     0.156 HD
ATOM     11  H   UNL     1      16.013 -20.849 -44.157  1.00  0.00     0.156 HD
ENDBRANCH   5   9
ENDBRANCH   2   4
ENDBRANCH   1   2
BRANCH   1  12
ATOM     12  O   UNL     1      13.384 -24.111 -47.304  1.00  0.00    -0.453 OA
BRANCH  12  13
ATOM     13  C   UNL     1      12.548 -23.036 -47.185  1.00  0.00     0.350 C 
ATOM     14  O   UNL     1      11.961 -22.759 -46.144  1.00  0.00    -0.245 OA
BRANCH  13  15
ATOM     15  C   UNL     1      12.494 -22.292 -48.423  1.00  0.00     0.135 A 
ATOM     16  S   UNL     1      13.743 -21.161 -48.767  1.00  0.00    -0.106 S 
ATOM     17  C   UNL     1      11.580 -22.292 -49.467  1.00  0.00     0.064 A 
ATOM     18  C   UNL     1      13.000 -20.769 -50.263  1.00  0.00     0.134 A 
ATOM     19  N   UNL     1      11.887 -21.428 -50.508  1.00  0.00    -0.240 NA
ATOM     20  C   UNL     1      10.331 -23.093 -49.595  1.00  0.00     0.068 C 
BRANCH  18  21
ATOM     21  C   UNL     1      13.553 -19.794 -51.179  1.00  0.00     0.063 A 
ATOM     22  C   UNL     1      13.961 -18.496 -50.920  1.00  0.00     0.023 A 
ATOM     23  S   UNL     1      13.786 -20.177 -52.842  1.00  0.00    -0.141 S 
ATOM     24  C   UNL     1      14.460 -17.826 -52.078  1.00  0.00     0.012 A 
ATOM     25  C   UNL     1      14.418 -18.630 -53.192  1.00  0.00     0.065 A 
ENDBRANCH  18  21
ENDBRANCH  13  15
ENDBRANCH  12  13
ENDBRANCH   1  12
TORSDOF 7
ENDMDL
MODEL 4
REMARK VINA RESULT:    -6.553      1.485      2.183
REMARK INTER + INTRA:          -9.612
REMARK INTER:                  -9.095
REMARK INTRA:                  -0.517
REMARK UNBOUND:                -0.569
REMARK SMILES C/C(N)=C(/C#N)C(=O)COC(=O)c1sc(-c2cccs2)nc1C
REMARK SMILES IDX 9 1 7 2 8 3 4 4 2 5 5 6 6 7 1 8 3 9 10 12 11 13 12 14 13 15
REMARK SMILES IDX 14 16 22 17 15 18 21 19 23 20 16 21 17 22 20 23 18 24 19 25
REMARK H PARENT 3 10 3 11
ROOT
ATOM      1  C   UNL     1      13.226 -22.001 -46.636  1.00  0.00     0.315 C 
ENDROOT
BRANCH   1   2
ATOM      2  C   UNL     1      12.528 -21.077 -47.641  1.00  0.00     0.212 C 
ATOM      3  O   UNL     1      12.488 -19.857 -47.471  1.00  0.00    -0.289 OA
BRANCH   2   4
ATOM      4  C   UNL     1      11.926 -21.710 -48.860  1.00  0.00     0.117 C 
ATOM      5  C   UNL     1      12.408 -21.476 -50.107  1.00  0.00     0.027 C 
ATOM      6  C   UNL     1      10.831 -22.594 -48.647  1.00  0.00     0.105 C 
ATOM      7  N   UNL     1       9.950 -23.324 -48.456  1.00  0.00    -0.192 NA
ATOM      8  C   UNL     1      13.632 -20.612 -50.352  1.00  0.00     0.065 C 
BRANCH   5   9
ATOM      9  N   UNL     1      11.874 -22.027 -51.270  1.00  0.00    -0.401 N 
ATOM     10  H   UNL     1      11.215 -21.419 -51.755  1.00  0.00     0.156 HD
ATOM     11  H   UNL     1      11.517 -22.981 -51.193  1.00  0.00     0.156 HD
ENDBRANCH   5   9
ENDBRANCH   2   4
ENDBRANCH   1   2
BRANCH   1  12
ATOM     12  O   UNL     1      12.291 -22.753 -45.858  1.00  0.00    -0.453 OA
BRANCH  12  13
ATOM     13  C   UNL     1      12.615 -24.074 -45.721  1.00  0.00     0.350 C 
ATOM     14  O   UNL     1      12.289 -24.929 -46.538  1.00  0.00    -0.245 OA
BRANCH  13  15
ATOM     15  C   UNL     1      13.397 -24.287 -44.524  1.00  0.00     0.135 A 
ATOM     16  S   UNL     1      12.615 -24.195 -42.995  1.00  0.00    -0.106 S 
ATOM     17  C   UNL     1      14.743 -24.563 -44.332  1.00  0.00     0.064 A 
ATOM     18  C   UNL     1      14.095 -24.540 -42.198  1.00  0.00     0.134 A 
ATOM     19  N   UNL     1      15.121 -24.713 -43.004  1.00  0.00    -0.240 NA
ATOM     20  C   UNL     1      15.808 -24.710 -45.361  1.00  0.00     0.068 C 
BRANCH  18  21
ATOM     21  C   UNL     1      14.204 -24.633 -40.758  1.00  0.00     0.063 A 
ATOM     22  C   UNL     1      13.279 -24.267 -39.793  1.00  0.00     0.023 A 
ATOM     23  S   UNL     1      15.624 -25.268 -40.018  1.00  0.00    -0.141 S 
ATOM     24  C   UNL     1      13.736 -24.507 -38.463  1.00  0.00     0.012 A 
ATOM     25  C   UNL     1      14.998 -25.050 -38.444  1.00  0.00     0.065 A 
ENDBRANCH  18  21
ENDBRANCH  13  15
ENDBRANCH  12  13
ENDBRANCH   1  12
TORSDOF 7
ENDMDL
MODEL 5
REMARK VINA RESULT:    -6.507      2.947      8.955
REMARK INTER + INTRA:          -9.548
REMARK INTER:                  -9.098
REMARK INTRA:                  -0.451
REMARK UNBOUND:                -0.569
REMARK SMILES C/C(N)=C(/C#N)C(=O)COC(=O)c1sc(-c2cccs2)nc1C
REMARK SMILES IDX 9 1 7 2 8 3 4 4 2 5 5 6 6 7 1 8 3 9 10 12 11 13 12 14 13 15
REMARK SMILES IDX 14 16 22 17 15 18 21 19 23 20 16 21 17 22 20 23 18 24 19 25
REMARK H PARENT 3 10 3 11
ROOT
ATOM      1  C   UNL     1      13.850 -22.636 -44.906  1.00  0.00     0.315 C 
ENDROOT
BRANCH   1   2
ATOM      2  C   UNL     1      14.555 -23.888 -44.372  1.00  0.00     0.212 C 
ATOM      3  O   UNL     1      14.709 -24.889 -45.075  1.00  0.00    -0.289 OA
BRANCH   2   4
ATOM      4  C   UNL     1      15.084 -23.838 -42.968  1.00  0.00     0.117 C 
ATOM      5  C   UNL     1      14.352 -24.260 -41.907  1.00  0.00     0.027 C 
ATOM      6  C   UNL     1      16.410 -23.349 -42.802  1.00  0.00     0.105 C 
ATOM      7  N   UNL     1      17.498 -22.962 -42.684  1.00  0.00    -0.192 NA
ATOM      8  C   UNL     1      12.972 -24.873 -42.067  1.00  0.00     0.065 C 
BRANCH   5   9
ATOM      9  N   UNL     1      14.793 -24.220 -40.586  1.00  0.00    -0.401 N 
ATOM     10  H   UNL     1      15.763 -24.507 -40.462  1.00  0.00     0.156 HD
ATOM     11  H   UNL     1      14.182 -24.655 -39.894  1.00  0.00     0.156 HD
ENDBRANCH   5   9
ENDBRANCH   2   4
ENDBRANCH   1   2
BRANCH   1  12
ATOM     12  O   UNL     1      13.833 -22.597 -46.335  1.00  0.00    -0.453 OA
BRANCH  12  13
ATOM     13  C   UNL     1      12.590 -22.751 -46.882  1.00  0.00     0.350 C 
ATOM     14  O   UNL     1      11.681 -23.351 -46.317  1.00  0.00    -0.245 OA
BRANCH  13  15
ATOM     15  C   UNL     1      12.513 -22.095 -48.169  1.00  0.00     0.135 A 
ATOM     16  S   UNL     1      13.772 -21.017 -48.626  1.00  0.00    -0.106 S 
ATOM     17  C   UNL     1      11.569 -22.150 -49.183  1.00  0.00     0.064 A 
ATOM     18  C   UNL     1      12.993 -20.716 -50.125  1.00  0.00     0.134 A 
ATOM     19  N   UNL     1      11.861 -21.368 -50.292  1.00  0.00    -0.240 NA
ATOM     20  C   UNL     1      10.302 -22.932 -49.219  1.00  0.00     0.068 C 
BRANCH  18  21
ATOM     21  C   UNL     1      13.537 -19.820 -51.123  1.00  0.00     0.063 A 
ATOM     22  C   UNL     1      13.971 -18.513 -50.970  1.00  0.00     0.023 A 
ATOM     23  S   UNL     1      13.721 -20.326 -52.759  1.00  0.00    -0.141 S 
ATOM     24  C   UNL     1      14.449 -17.938 -52.185  1.00  0.00     0.012 A 
ATOM     25  C   UNL     1      14.368 -18.820 -53.236  1.00  0.00     0.065 A 
ENDBRANCH  18  21
ENDBRANCH  13  15
ENDBRANCH  12  13
ENDBRANCH   1  12
TORSDOF 7
ENDMDL
MODEL 6
REMARK VINA RESULT:    -6.484      1.657      2.407
REMARK INTER + INTRA:          -9.517
REMARK INTER:                  -8.834
REMARK INTRA:                  -0.683
REMARK UNBOUND:                -0.569
REMARK SMILES C/C(N)=C(/C#N)C(=O)COC(=O)c1sc(-c2cccs2)nc1C
REMARK SMILES IDX 9 1 7 2 8 3 4 4 2 5 5 6 6 7 1 8 3 9 10 12 11 13 12 14 13 15
REMARK SMILES IDX 14 16 22 17 15 18 21 19 23 20 16 21 17 22 20 23 18 24 19 25
REMARK H PARENT 3 10 3 11
ROOT
ATOM      1  C   UNL     1      11.439 -24.250 -47.023  1.00  0.00     0.315 C 
ENDROOT
BRANCH   1   2
ATOM      2  C   UNL     1      11.655 -24.254 -48.541  1.00  0.00     0.212 C 
ATOM      3  O   UNL     1      12.326 -25.128 -49.092  1.00  0.00    -0.289 OA
BRANCH   2   4
ATOM      4  C   UNL     1      10.988 -23.171 -49.337  1.00  0.00     0.117 C 
ATOM      5  C   UNL     1       9.814 -23.372 -49.987  1.00  0.00     0.027 C 
ATOM      6  C   UNL     1      11.635 -21.903 -49.359  1.00  0.00     0.105 C 
ATOM      7  N   UNL     1      12.166 -20.871 -49.355  1.00  0.00    -0.192 NA
ATOM      8  C   UNL     1       9.057 -24.686 -49.901  1.00  0.00     0.065 C 
BRANCH   5   9
ATOM      9  N   UNL     1       9.165 -22.405 -50.750  1.00  0.00    -0.401 N 
ATOM     10  H   UNL     1       9.765 -21.636 -51.047  1.00  0.00     0.156 HD
ATOM     11  H   UNL     1       8.275 -22.065 -50.382  1.00  0.00     0.156 HD
ENDBRANCH   5   9
ENDBRANCH   2   4
ENDBRANCH   1   2
BRANCH   1  12
ATOM     12  O   UNL     1      12.675 -24.226 -46.304  1.00  0.00    -0.453 OA
BRANCH  12  13
ATOM     13  C   UNL     1      12.889 -23.073 -45.601  1.00  0.00     0.350 C 
ATOM     14  O   UNL     1      12.520 -21.972 -45.997  1.00  0.00    -0.245 OA
BRANCH  13  15
ATOM     15  C   UNL     1      13.566 -23.353 -44.354  1.00  0.00     0.135 A 
ATOM     16  S   UNL     1      12.716 -24.199 -43.121  1.00  0.00    -0.106 S 
ATOM     17  C   UNL     1      14.845 -23.059 -43.907  1.00  0.00     0.064 A 
ATOM     18  C   UNL     1      14.094 -24.129 -42.101  1.00  0.00     0.134 A 
ATOM     19  N   UNL     1      15.132 -23.515 -42.628  1.00  0.00    -0.240 NA
ATOM     20  C   UNL     1      15.923 -22.323 -44.623  1.00  0.00     0.068 C 
BRANCH  18  21
ATOM     21  C   UNL     1      14.112 -24.700 -40.771  1.00  0.00     0.063 A 
ATOM     22  C   UNL     1      13.444 -24.271 -39.635  1.00  0.00     0.023 A 
ATOM     23  S   UNL     1      15.051 -26.101 -40.423  1.00  0.00    -0.141 S 
ATOM     24  C   UNL     1      13.702 -25.088 -38.494  1.00  0.00     0.012 A 
ATOM     25  C   UNL     1      14.562 -26.120 -38.787  1.00  0.00     0.065 A 
ENDBRANCH  18  21
ENDBRANCH  13  15
ENDBRANCH  12  13
ENDBRANCH   1  12
TORSDOF 7
ENDMDL
MODEL 7
REMARK VINA RESULT:    -6.380      3.199      8.661
REMARK INTER + INTRA:          -9.373
REMARK INTER:                  -8.803
REMARK INTRA:                  -0.570
REMARK UNBOUND:                -0.569
REMARK SMILES C/C(N)=C(/C#N)C(=O)COC(=O)c1sc(-c2cccs2)nc1C
REMARK SMILES IDX 9 1 7 2 8 3 4 4 2 5 5 6 6 7 1 8 3 9 10 12 11 13 12 14 13 15
REMARK SMILES IDX 14 16 22 17 15 18 21 19 23 20 16 21 17 22 20 23 18 24 19 25
REMARK H PARENT 3 10 3 11
ROOT
ATOM      1  C   UNL     1      15.122 -22.316 -46.417  1.00  0.00     0.315 C 
ENDROOT
BRANCH   1   2
ATOM      2  C   UNL     1      16.073 -23.330 -45.770  1.00  0.00     0.212 C 
ATOM      3  O   UNL     1      16.362 -24.388 -46.332  1.00  0.00    -0.289 OA
BRANCH   2   4
ATOM      4  C   UNL     1      16.668 -22.970 -44.441  1.00  0.00     0.117 C 
ATOM      5  C   UNL     1      16.035 -23.237 -43.271  1.00  0.00     0.027 C 
ATOM      6  C   UNL     1      17.951 -22.354 -44.461  1.00  0.00     0.105 C 
ATOM      7  N   UNL     1      19.003 -21.866 -44.492  1.00  0.00    -0.192 NA
ATOM      8  C   UNL     1      14.710 -23.978 -43.218  1.00  0.00     0.065 C 
BRANCH   5   9
ATOM      9  N   UNL     1      16.539 -22.910 -42.014  1.00  0.00    -0.401 N 
ATOM     10  H   UNL     1      15.886 -23.070 -41.248  1.00  0.00     0.156 HD
ATOM     11  H   UNL     1      16.993 -21.999 -41.935  1.00  0.00     0.156 HD
ENDBRANCH   5   9
ENDBRANCH   2   4
ENDBRANCH   1   2
BRANCH   1  12
ATOM     12  O   UNL     1      14.147 -22.947 -47.250  1.00  0.00    -0.453 OA
BRANCH  12  13
ATOM     13  C   UNL     1      12.868 -22.513 -47.039  1.00  0.00     0.350 C 
ATOM     14  O   UNL     1      12.423 -22.265 -45.923  1.00  0.00    -0.245 OA
BRANCH  13  15
ATOM     15  C   UNL     1      12.164 -22.372 -48.294  1.00  0.00     0.135 A 
ATOM     16  S   UNL     1      10.883 -23.461 -48.654  1.00  0.00    -0.106 S 
ATOM     17  C   UNL     1      12.316 -21.483 -49.347  1.00  0.00     0.064 A 
ATOM     18  C   UNL     1      10.615 -22.677 -50.156  1.00  0.00     0.134 A 
ATOM     19  N   UNL     1      11.423 -21.664 -50.394  1.00  0.00    -0.240 NA
ATOM     20  C   UNL     1      13.309 -20.382 -49.486  1.00  0.00     0.068 C 
BRANCH  18  21
ATOM     21  C   UNL     1       9.586 -23.094 -51.084  1.00  0.00     0.063 A 
ATOM     22  C   UNL     1       8.244 -22.746 -51.103  1.00  0.00     0.023 A 
ATOM     23  S   UNL     1       9.948 -24.164 -52.384  1.00  0.00    -0.141 S 
ATOM     24  C   UNL     1       7.526 -23.355 -52.175  1.00  0.00     0.012 A 
ATOM     25  C   UNL     1       8.336 -24.152 -52.948  1.00  0.00     0.065 A 
ENDBRANCH  18  21
ENDBRANCH  13  15
ENDBRANCH  12  13
ENDBRANCH   1  12
TORSDOF 7
ENDMDL
MODEL 8
REMARK VINA RESULT:    -6.138     23.588     25.194
REMARK INTER + INTRA:          -9.039
REMARK INTER:                  -8.002
REMARK INTRA:                  -1.037
REMARK UNBOUND:                -0.569
REMARK SMILES C/C(N)=C(/C#N)C(=O)COC(=O)c1sc(-c2cccs2)nc1C
REMARK SMILES IDX 9 1 7 2 8 3 4 4 2 5 5 6 6 7 1 8 3 9 10 12 11 13 12 14 13 15
REMARK SMILES IDX 14 16 22 17 15 18 21 19 23 20 16 21 17 22 20 23 18 24 19 25
REMARK H PARENT 3 10 3 11
ROOT
ATOM      1  C   UNL     1      -1.721  -6.951 -33.634  1.00  0.00     0.315 C 
ENDROOT
BRANCH   1   2
ATOM      2  C   UNL     1      -1.444  -8.416 -33.992  1.00  0.00     0.212 C 
ATOM      3  O   UNL     1      -2.079  -8.992 -34.878  1.00  0.00    -0.289 OA
BRANCH   2   4
ATOM      4  C   UNL     1      -0.344  -9.114 -33.249  1.00  0.00     0.117 C 
ATOM      5  C   UNL     1       0.958  -8.762 -33.389  1.00  0.00     0.027 C 
ATOM      6  C   UNL     1      -0.734 -10.156 -32.361  1.00  0.00     0.105 C 
ATOM      7  N   UNL     1      -1.068 -10.993 -31.629  1.00  0.00    -0.192 NA
ATOM      8  C   UNL     1       1.391  -7.593 -34.258  1.00  0.00     0.065 C 
BRANCH   5   9
ATOM      9  N   UNL     1       2.015  -9.388 -32.733  1.00  0.00    -0.401 N 
ATOM     10  H   UNL     1       1.978  -9.313 -31.717  1.00  0.00     0.156 HD
ATOM     11  H   UNL     1       2.950  -9.185 -33.090  1.00  0.00     0.156 HD
ENDBRANCH   5   9
ENDBRANCH   2   4
ENDBRANCH   1   2
BRANCH   1  12
ATOM     12  O   UNL     1      -2.017  -6.784 -32.245  1.00  0.00    -0.453 OA
BRANCH  12  13
ATOM     13  C   UNL     1      -1.559  -5.611 -31.715  1.00  0.00     0.350 C 
ATOM     14  O   UNL     1      -2.285  -4.646 -31.500  1.00  0.00    -0.245 OA
BRANCH  13  15
ATOM     15  C   UNL     1      -0.143  -5.698 -31.432  1.00  0.00     0.135 A 
ATOM     16  S   UNL     1       0.938  -4.666 -32.282  1.00  0.00    -0.106 S 
ATOM     17  C   UNL     1       0.580  -6.499 -30.561  1.00  0.00     0.064 A 
ATOM     18  C   UNL     1       2.271  -5.336 -31.434  1.00  0.00     0.134 A 
ATOM     19  N   UNL     1       1.950  -6.274 -30.568  1.00  0.00    -0.240 NA
ATOM     20  C   UNL     1       0.071  -7.553 -29.641  1.00  0.00     0.068 C 
BRANCH  18  21
ATOM     21  C   UNL     1       3.635  -4.903 -31.652  1.00  0.00     0.063 A 
ATOM     22  C   UNL     1       4.499  -5.248 -32.680  1.00  0.00     0.023 A 
ATOM     23  S   UNL     1       4.402  -3.813 -30.562  1.00  0.00    -0.141 S 
ATOM     24  C   UNL     1       5.776  -4.621 -32.568  1.00  0.00     0.012 A 
ATOM     25  C   UNL     1       5.856  -3.814 -31.458  1.00  0.00     0.065 A 
ENDBRANCH  18  21
ENDBRANCH  13  15
ENDBRANCH  12  13
ENDBRANCH   1  12
TORSDOF 7
ENDMDL
MODEL 9
REMARK VINA RESULT:    -6.016      2.314      2.908
REMARK INTER + INTRA:          -8.871
REMARK INTER:                  -8.267
REMARK INTRA:                  -0.604
REMARK UNBOUND:                -0.569
REMARK SMILES C/C(N)=C(/C#N)C(=O)COC(=O)c1sc(-c2cccs2)nc1C
REMARK SMILES IDX 9 1 7 2 8 3 4 4 2 5 5 6 6 7 1 8 3 9 10 12 11 13 12 14 13 15
REMARK SMILES IDX 14 16 22 17 15 18 21 19 23 20 16 21 17 22 20 23 18 24 19 25
REMARK H PARENT 3 10 3 11
ROOT
ATOM      1  C   UNL     1      12.506 -22.973 -49.035  1.00  0.00     0.315 C 
ENDROOT
BRANCH   1   2
ATOM      2  C   UNL     1      11.278 -22.372 -49.728  1.00  0.00     0.212 C 
ATOM      3  O   UNL     1      11.229 -21.178 -50.030  1.00  0.00    -0.289 OA
BRANCH   2   4
ATOM      4  C   UNL     1      10.148 -23.302 -50.061  1.00  0.00     0.117 C 
ATOM      5  C   UNL     1      10.016 -23.867 -51.287  1.00  0.00     0.027 C 
ATOM      6  C   UNL     1       9.226 -23.588 -49.014  1.00  0.00     0.105 C 
ATOM      7  N   UNL     1       8.492 -23.823 -48.147  1.00  0.00    -0.192 NA
ATOM      8  C   UNL     1      11.036 -23.653 -52.391  1.00  0.00     0.065 C 
BRANCH   5   9
ATOM      9  N   UNL     1       8.978 -24.723 -51.648  1.00  0.00    -0.401 N 
ATOM     10  H   UNL     1       9.286 -25.583 -52.101  1.00  0.00     0.156 HD
ATOM     11  H   UNL     1       8.196 -24.296 -52.146  1.00  0.00     0.156 HD
ENDBRANCH   5   9
ENDBRANCH   2   4
ENDBRANCH   1   2
BRANCH   1  12
ATOM     12  O   UNL     1      12.313 -23.113 -47.625  1.00  0.00    -0.453 OA
BRANCH  12  13
ATOM     13  C   UNL     1      12.845 -24.258 -47.101  1.00  0.00     0.350 C 
ATOM     14  O   UNL     1      12.795 -25.341 -47.675  1.00  0.00    -0.245 OA
BRANCH  13  15
ATOM     15  C   UNL     1      13.475 -23.992 -45.827  1.00  0.00     0.135 A 
ATOM     16  S   UNL     1      12.830 -24.726 -44.412  1.00  0.00    -0.106 S 
ATOM     17  C   UNL     1      14.565 -23.208 -45.478  1.00  0.00     0.064 A 
ATOM     18  C   UNL     1      14.037 -23.974 -43.451  1.00  0.00     0.134 A 
ATOM     19  N   UNL     1      14.877 -23.216 -44.125  1.00  0.00    -0.240 NA
ATOM     20  C   UNL     1      15.419 -22.372 -46.366  1.00  0.00     0.068 C 
BRANCH  18  21
ATOM     21  C   UNL     1      14.124 -24.160 -42.019  1.00  0.00     0.063 A 
ATOM     22  C   UNL     1      13.097 -24.252 -41.093  1.00  0.00     0.023 A 
ATOM     23  S   UNL     1      15.652 -24.299 -41.237  1.00  0.00    -0.141 S 
ATOM     24  C   UNL     1      13.564 -24.436 -39.757  1.00  0.00     0.012 A 
ATOM     25  C   UNL     1      14.937 -24.478 -39.696  1.00  0.00     0.065 A 
ENDBRANCH  18  21
ENDBRANCH  13  15
ENDBRANCH  12  13
ENDBRANCH   1  12
TORSDOF 7
ENDMDL
