REMARK SMILES NC(=O)c1cc(NC(=O)c2cn(Cc3ccccc3)nn2)ccc1F
REMARK SMILES IDX 7 1 8 2 9 3 6 5 4 6 5 7 24 8 23 9 22 10 25 11 2 12 1 13 3 14
REMARK SMILES IDX 10 17 11 18 21 19 12 20 20 21 13 22 14 23 15 24 19 25 16 26
REMARK SMILES IDX 18 27 17 28
REMARK H PARENT 7 4 1 15 1 16
ROOT
ATOM      1  N   UNL     1      -1.778   1.710  -0.212  1.00  0.00    -0.321 N 
ATOM      2  C   UNL     1      -1.079   1.557  -1.404  1.00  0.00     0.277 C 
ATOM      3  O   UNL     1      -1.013   2.409  -2.284  1.00  0.00    -0.267 OA
ATOM      4  H   UNL     1      -1.808   0.910   0.402  1.00  0.00     0.170 HD
ENDROOT
BRANCH   1   5
ATOM      5  C   UNL     1      -2.491   2.847   0.226  1.00  0.00     0.042 A 
ATOM      6  C   UNL     1      -3.248   5.157   0.045  1.00  0.00     0.077 A 
ATOM      7  C   UNL     1      -2.499   4.074  -0.447  1.00  0.00     0.043 A 
ATOM      8  C   UNL     1      -3.971   5.007   1.228  1.00  0.00     0.136 A 
ATOM      9  C   UNL     1      -3.958   3.796   1.914  1.00  0.00     0.042 A 
ATOM     10  C   UNL     1      -3.220   2.721   1.416  1.00  0.00     0.029 A 
ATOM     11  F   UNL     1      -4.716   6.002   1.727  1.00  0.00    -0.206 F 
BRANCH   6  12
ATOM     12  C   UNL     1      -3.257   6.463  -0.656  1.00  0.00     0.251 C 
ATOM     13  N   UNL     1      -3.079   6.445  -2.013  1.00  0.00    -0.366 N 
ATOM     14  O   UNL     1      -3.421   7.522  -0.066  1.00  0.00    -0.269 OA
ATOM     15  H   UNL     1      -3.144   7.333  -2.493  1.00  0.00     0.159 HD
ATOM     16  H   UNL     1      -3.072   5.604  -2.573  1.00  0.00     0.159 HD
ENDBRANCH   6  12
ENDBRANCH   1   5
BRANCH   2  17
ATOM     17  C   UNL     1      -0.418   0.257  -1.557  1.00  0.00     0.170 A 
ATOM     18  C   UNL     1      -0.401  -0.839  -0.712  1.00  0.00     0.145 A 
ATOM     19  N   UNL     1       0.335  -0.049  -2.670  1.00  0.00    -0.125 NA
ATOM     20  N   UNL     1       0.393  -1.749  -1.353  1.00  0.00    -0.247 N 
ATOM     21  N   UNL     1       0.817  -1.276  -2.535  1.00  0.00    -0.066 NA
BRANCH  20  22
ATOM     22  C   UNL     1       0.749  -3.094  -0.932  1.00  0.00     0.181 C 
BRANCH  22  23
ATOM     23  C   UNL     1       1.436  -3.101   0.411  1.00  0.00    -0.026 A 
ATOM     24  C   UNL     1       0.830  -3.712   1.519  1.00  0.00     0.005 A 
ATOM     25  C   UNL     1       2.695  -2.502   0.571  1.00  0.00     0.005 A 
ATOM     26  C   UNL     1       1.467  -3.714   2.761  1.00  0.00     0.000 A 
ATOM     27  C   UNL     1       3.328  -2.505   1.814  1.00  0.00     0.000 A 
ATOM     28  C   UNL     1       2.714  -3.110   2.908  1.00  0.00     0.000 A 
ENDBRANCH  22  23
ENDBRANCH  20  22
ENDBRANCH   2  17
TORSDOF 5
