MODEL 1
REMARK VINA RESULT:    -7.717      0.000      0.000
REMARK INTER + INTRA:         -13.448
REMARK INTER:                 -12.679
REMARK INTRA:                  -0.768
REMARK UNBOUND:                -0.768
REMARK SMILES COC(=O)CCCCCCNC(=O)CCc1c(C)c2c(=O)[n-]n(C)c2[nH]c1=O
REMARK SMILES IDX 8 1 7 2 6 3 5 4 3 5 4 6 2 7 1 8 9 9 10 10 11 11 12 12 13 13
REMARK SMILES IDX 14 15 15 16 16 17 17 18 27 19 19 20 26 21 28 22 20 23 25 24
REMARK SMILES IDX 21 25 22 26 23 27 18 28 24 30
REMARK H PARENT 11 14 26 29
ROOT
ATOM      1  C   UNL     1      14.463 -19.026 -52.661  1.00  0.00     0.002 C 
ENDROOT
BRANCH   1   2
ATOM      2  C   UNL     1      14.606 -17.523 -52.905  1.00  0.00     0.001 C 
BRANCH   2   3
ATOM      3  C   UNL     1      15.615 -17.242 -54.021  1.00  0.00     0.012 C 
BRANCH   3   4
ATOM      4  C   UNL     1      17.047 -17.474 -53.545  1.00  0.00     0.123 C 
BRANCH   4   5
ATOM      5  C   UNL     1      17.544 -16.342 -52.676  1.00  0.00     0.305 C 
ATOM      6  O   UNL     1      17.519 -16.319 -51.450  1.00  0.00    -0.252 OA
BRANCH   5   7
ATOM      7  O   UNL     1      17.924 -15.294 -53.463  1.00  0.00    -0.469 OA
ATOM      8  C   UNL     1      18.817 -14.385 -52.826  1.00  0.00     0.282 C 
ENDBRANCH   5   7
ENDBRANCH   4   5
ENDBRANCH   3   4
ENDBRANCH   2   3
ENDBRANCH   1   2
BRANCH   1   9
ATOM      9  C   UNL     1      13.319 -19.380 -51.704  1.00  0.00     0.021 C 
BRANCH   9  10
ATOM     10  C   UNL     1      13.725 -19.587 -50.246  1.00  0.00     0.116 C 
BRANCH  10  11
ATOM     11  N   UNL     1      13.135 -20.785 -49.684  1.00  0.00    -0.356 N 
ATOM     12  C   UNL     1      12.558 -20.788 -48.432  1.00  0.00     0.220 C 
ATOM     13  O   UNL     1      12.624 -19.854 -47.638  1.00  0.00    -0.275 OA
ATOM     14  H   UNL     1      12.773 -21.459 -50.348  1.00  0.00     0.163 HD
BRANCH  12  15
ATOM     15  C   UNL     1      11.816 -22.067 -48.105  1.00  0.00     0.105 C 
BRANCH  15  16
ATOM     16  C   UNL     1      12.768 -23.237 -47.860  1.00  0.00     0.051 C 
BRANCH  16  17
ATOM     17  C   UNL     1      13.470 -23.183 -46.524  1.00  0.00     0.022 C 
ATOM     18  C   UNL     1      14.734 -22.745 -46.301  1.00  0.00    -0.030 C 
ATOM     19  C   UNL     1      12.644 -23.677 -45.350  1.00  0.00     0.252 C 
ATOM     20  C   UNL     1      15.231 -22.770 -44.944  1.00  0.00     0.043 C 
ATOM     21  N   UNL     1      13.227 -23.615 -44.113  1.00  0.00    -0.309 N 
ATOM     22  O   UNL     1      11.494 -24.082 -45.504  1.00  0.00    -0.269 OA
ATOM     23  C   UNL     1      16.577 -22.445 -44.385  1.00  0.00     0.101 C 
ATOM     24  C   UNL     1      14.494 -23.179 -43.907  1.00  0.00     0.104 C 
ATOM     25  O   UNL     1      17.501 -22.012 -45.063  1.00  0.00    -0.313 OA
ATOM     26  N   UNL     1      16.582 -22.722 -43.064  1.00  0.00    -0.559 NA
ATOM     27  N   UNL     1      15.172 -23.095 -42.722  1.00  0.00    -0.432 N 
ATOM     28  C   UNL     1      15.669 -22.195 -47.339  1.00  0.00     0.046 C 
ATOM     29  H   UNL     1      12.697 -23.912 -43.312  1.00  0.00     0.171 HD
ATOM     30  C   UNL     1      15.039 -24.022 -41.618  1.00  0.00     0.126 C 
ENDBRANCH  16  17
ENDBRANCH  15  16
ENDBRANCH  12  15
ENDBRANCH  10  11
ENDBRANCH   9  10
ENDBRANCH   1   9
TORSDOF 11
ENDMDL
MODEL 2
REMARK VINA RESULT:    -7.270      3.381      9.635
REMARK INTER + INTRA:         -12.713
REMARK INTER:                 -13.014
REMARK INTRA:                   0.302
REMARK UNBOUND:                -0.768
REMARK SMILES COC(=O)CCCCCCNC(=O)CCc1c(C)c2c(=O)[n-]n(C)c2[nH]c1=O
REMARK SMILES IDX 8 1 7 2 6 3 5 4 3 5 4 6 2 7 1 8 9 9 10 10 11 11 12 12 13 13
REMARK SMILES IDX 14 15 15 16 16 17 17 18 27 19 19 20 26 21 28 22 20 23 25 24
REMARK SMILES IDX 21 25 22 26 23 27 18 28 24 30
REMARK H PARENT 11 14 26 29
ROOT
ATOM      1  C   UNL     1      13.791 -22.764 -48.135  1.00  0.00     0.002 C 
ENDROOT
BRANCH   1   2
ATOM      2  C   UNL     1      14.744 -23.321 -47.076  1.00  0.00     0.001 C 
BRANCH   2   3
ATOM      3  C   UNL     1      15.804 -22.286 -46.693  1.00  0.00     0.012 C 
BRANCH   3   4
ATOM      4  C   UNL     1      16.963 -22.932 -45.937  1.00  0.00     0.123 C 
BRANCH   4   5
ATOM      5  C   UNL     1      17.414 -22.090 -44.767  1.00  0.00     0.305 C 
ATOM      6  O   UNL     1      18.578 -21.850 -44.466  1.00  0.00    -0.252 OA
BRANCH   5   7
ATOM      7  O   UNL     1      16.330 -21.723 -44.024  1.00  0.00    -0.469 OA
ATOM      8  C   UNL     1      15.909 -22.711 -43.087  1.00  0.00     0.282 C 
ENDBRANCH   5   7
ENDBRANCH   4   5
ENDBRANCH   3   4
ENDBRANCH   2   3
ENDBRANCH   1   2
BRANCH   1   9
ATOM      9  C   UNL     1      14.365 -21.566 -48.900  1.00  0.00     0.021 C 
BRANCH   9  10
ATOM     10  C   UNL     1      13.351 -20.493 -49.292  1.00  0.00     0.116 C 
BRANCH  10  11
ATOM     11  N   UNL     1      13.797 -19.716 -50.430  1.00  0.00    -0.356 N 
ATOM     12  C   UNL     1      13.532 -20.110 -51.724  1.00  0.00     0.220 C 
ATOM     13  O   UNL     1      13.049 -21.197 -52.030  1.00  0.00    -0.275 OA
ATOM     14  H   UNL     1      13.905 -18.720 -50.277  1.00  0.00     0.163 HD
BRANCH  12  15
ATOM     15  C   UNL     1      13.893 -19.073 -52.765  1.00  0.00     0.105 C 
BRANCH  15  16
ATOM     16  C   UNL     1      15.118 -19.480 -53.583  1.00  0.00     0.051 C 
BRANCH  16  17
ATOM     17  C   UNL     1      16.214 -18.442 -53.598  1.00  0.00     0.022 C 
ATOM     18  C   UNL     1      17.546 -18.686 -53.676  1.00  0.00    -0.030 C 
ATOM     19  C   UNL     1      15.733 -17.005 -53.517  1.00  0.00     0.252 C 
ATOM     20  C   UNL     1      18.444 -17.553 -53.679  1.00  0.00     0.043 C 
ATOM     21  N   UNL     1      16.689 -16.027 -53.562  1.00  0.00    -0.309 N 
ATOM     22  O   UNL     1      14.535 -16.736 -53.446  1.00  0.00    -0.269 OA
ATOM     23  C   UNL     1      19.936 -17.481 -53.668  1.00  0.00     0.101 C 
ATOM     24  C   UNL     1      18.018 -16.287 -53.635  1.00  0.00     0.104 C 
ATOM     25  O   UNL     1      20.657 -18.470 -53.727  1.00  0.00    -0.313 OA
ATOM     26  N   UNL     1      20.313 -16.190 -53.570  1.00  0.00    -0.559 NA
ATOM     27  N   UNL     1      19.049 -15.390 -53.667  1.00  0.00    -0.432 N 
ATOM     28  C   UNL     1      18.187 -20.039 -53.797  1.00  0.00     0.046 C 
ATOM     29  H   UNL     1      16.400 -15.064 -53.535  1.00  0.00     0.171 HD
ATOM     30  C   UNL     1      19.076 -14.124 -52.964  1.00  0.00     0.126 C 
ENDBRANCH  16  17
ENDBRANCH  15  16
ENDBRANCH  12  15
ENDBRANCH  10  11
ENDBRANCH   9  10
ENDBRANCH   1   9
TORSDOF 11
ENDMDL
MODEL 3
REMARK VINA RESULT:    -7.218      1.713      3.376
REMARK INTER + INTRA:         -12.628
REMARK INTER:                 -12.101
REMARK INTRA:                  -0.527
REMARK UNBOUND:                -0.768
REMARK SMILES COC(=O)CCCCCCNC(=O)CCc1c(C)c2c(=O)[n-]n(C)c2[nH]c1=O
REMARK SMILES IDX 8 1 7 2 6 3 5 4 3 5 4 6 2 7 1 8 9 9 10 10 11 11 12 12 13 13
REMARK SMILES IDX 14 15 15 16 16 17 17 18 27 19 19 20 26 21 28 22 20 23 25 24
REMARK SMILES IDX 21 25 22 26 23 27 18 28 24 30
REMARK H PARENT 11 14 26 29
ROOT
ATOM      1  C   UNL     1      13.815 -19.640 -51.295  1.00  0.00     0.002 C 
ENDROOT
BRANCH   1   2
ATOM      2  C   UNL     1      14.242 -18.214 -51.646  1.00  0.00     0.001 C 
BRANCH   2   3
ATOM      3  C   UNL     1      14.342 -18.029 -53.162  1.00  0.00     0.012 C 
BRANCH   3   4
ATOM      4  C   UNL     1      15.060 -16.729 -53.515  1.00  0.00     0.123 C 
BRANCH   4   5
ATOM      5  C   UNL     1      16.561 -16.864 -53.403  1.00  0.00     0.305 C 
ATOM      6  O   UNL     1      17.170 -17.909 -53.200  1.00  0.00    -0.252 OA
BRANCH   5   7
ATOM      7  O   UNL     1      17.136 -15.627 -53.450  1.00  0.00    -0.469 OA
ATOM      8  C   UNL     1      18.560 -15.649 -53.419  1.00  0.00     0.282 C 
ENDBRANCH   5   7
ENDBRANCH   4   5
ENDBRANCH   3   4
ENDBRANCH   2   3
ENDBRANCH   1   2
BRANCH   1   9
ATOM      9  C   UNL     1      13.432 -19.814 -49.820  1.00  0.00     0.021 C 
BRANCH   9  10
ATOM     10  C   UNL     1      13.379 -21.257 -49.323  1.00  0.00     0.116 C 
BRANCH  10  11
ATOM     11  N   UNL     1      14.378 -21.517 -48.307  1.00  0.00    -0.356 N 
ATOM     12  C   UNL     1      14.495 -22.752 -47.707  1.00  0.00     0.220 C 
ATOM     13  O   UNL     1      13.694 -23.671 -47.854  1.00  0.00    -0.275 OA
ATOM     14  H   UNL     1      15.223 -20.960 -48.358  1.00  0.00     0.163 HD
BRANCH  12  15
ATOM     15  C   UNL     1      15.720 -22.891 -46.829  1.00  0.00     0.105 C 
BRANCH  15  16
ATOM     16  C   UNL     1      15.653 -21.985 -45.600  1.00  0.00     0.051 C 
BRANCH  16  17
ATOM     17  C   UNL     1      15.552 -22.735 -44.293  1.00  0.00     0.022 C 
ATOM     18  C   UNL     1      14.435 -23.316 -43.789  1.00  0.00    -0.030 C 
ATOM     19  C   UNL     1      16.846 -22.820 -43.505  1.00  0.00     0.252 C 
ATOM     20  C   UNL     1      14.539 -23.992 -42.516  1.00  0.00     0.043 C 
ATOM     21  N   UNL     1      16.811 -23.519 -42.329  1.00  0.00    -0.309 N 
ATOM     22  O   UNL     1      17.883 -22.309 -43.923  1.00  0.00    -0.269 OA
ATOM     23  C   UNL     1      13.501 -24.646 -41.662  1.00  0.00     0.101 C 
ATOM     24  C   UNL     1      15.685 -24.091 -41.835  1.00  0.00     0.104 C 
ATOM     25  O   UNL     1      12.328 -24.758 -41.997  1.00  0.00    -0.313 OA
ATOM     26  N   UNL     1      14.073 -25.050 -40.509  1.00  0.00    -0.559 NA
ATOM     27  N   UNL     1      15.540 -24.791 -40.670  1.00  0.00    -0.432 N 
ATOM     28  C   UNL     1      13.088 -23.355 -44.452  1.00  0.00     0.046 C 
ATOM     29  H   UNL     1      17.658 -23.614 -41.796  1.00  0.00     0.171 HD
ATOM     30  C   UNL     1      16.247 -24.514 -39.437  1.00  0.00     0.126 C 
ENDBRANCH  16  17
ENDBRANCH  15  16
ENDBRANCH  12  15
ENDBRANCH  10  11
ENDBRANCH   9  10
ENDBRANCH   1   9
TORSDOF 11
ENDMDL
MODEL 4
REMARK VINA RESULT:    -6.977      1.879      2.616
REMARK INTER + INTRA:         -12.232
REMARK INTER:                 -11.933
REMARK INTRA:                  -0.299
REMARK UNBOUND:                -0.768
REMARK SMILES COC(=O)CCCCCCNC(=O)CCc1c(C)c2c(=O)[n-]n(C)c2[nH]c1=O
REMARK SMILES IDX 8 1 7 2 6 3 5 4 3 5 4 6 2 7 1 8 9 9 10 10 11 11 12 12 13 13
REMARK SMILES IDX 14 15 15 16 16 17 17 18 27 19 19 20 26 21 28 22 20 23 25 24
REMARK SMILES IDX 21 25 22 26 23 27 18 28 24 30
REMARK H PARENT 11 14 26 29
ROOT
ATOM      1  C   UNL     1      13.827 -19.928 -51.351  1.00  0.00     0.002 C 
ENDROOT
BRANCH   1   2
ATOM      2  C   UNL     1      13.909 -18.545 -51.998  1.00  0.00     0.001 C 
BRANCH   2   3
ATOM      3  C   UNL     1      14.458 -18.636 -53.423  1.00  0.00     0.012 C 
BRANCH   3   4
ATOM      4  C   UNL     1      15.875 -18.076 -53.509  1.00  0.00     0.123 C 
BRANCH   4   5
ATOM      5  C   UNL     1      15.883 -16.619 -53.907  1.00  0.00     0.305 C 
ATOM      6  O   UNL     1      14.915 -15.985 -54.315  1.00  0.00    -0.252 OA
BRANCH   5   7
ATOM      7  O   UNL     1      17.158 -16.136 -53.851  1.00  0.00    -0.469 OA
ATOM      8  C   UNL     1      17.710 -16.111 -52.538  1.00  0.00     0.282 C 
ENDBRANCH   5   7
ENDBRANCH   4   5
ENDBRANCH   3   4
ENDBRANCH   2   3
ENDBRANCH   1   2
BRANCH   1   9
ATOM      9  C   UNL     1      13.292 -19.896 -49.914  1.00  0.00     0.021 C 
BRANCH   9  10
ATOM     10  C   UNL     1      12.390 -21.066 -49.525  1.00  0.00     0.116 C 
BRANCH  10  11
ATOM     11  N   UNL     1      12.879 -21.760 -48.351  1.00  0.00    -0.356 N 
ATOM     12  C   UNL     1      12.844 -23.134 -48.256  1.00  0.00     0.220 C 
ATOM     13  O   UNL     1      12.272 -23.868 -49.058  1.00  0.00    -0.275 OA
ATOM     14  H   UNL     1      13.609 -21.292 -47.826  1.00  0.00     0.163 HD
BRANCH  12  15
ATOM     15  C   UNL     1      13.584 -23.683 -47.055  1.00  0.00     0.105 C 
BRANCH  15  16
ATOM     16  C   UNL     1      13.692 -22.657 -45.928  1.00  0.00     0.051 C 
BRANCH  16  17
ATOM     17  C   UNL     1      13.726 -23.267 -44.548  1.00  0.00     0.022 C 
ATOM     18  C   UNL     1      14.748 -23.181 -43.659  1.00  0.00    -0.030 C 
ATOM     19  C   UNL     1      12.478 -24.040 -44.161  1.00  0.00     0.252 C 
ATOM     20  C   UNL     1      14.591 -23.835 -42.380  1.00  0.00     0.043 C 
ATOM     21  N   UNL     1      12.449 -24.582 -42.905  1.00  0.00    -0.309 N 
ATOM     22  O   UNL     1      11.527 -24.143 -44.933  1.00  0.00    -0.269 OA
ATOM     23  C   UNL     1      15.539 -24.001 -41.238  1.00  0.00     0.101 C 
ATOM     24  C   UNL     1      13.480 -24.492 -42.030  1.00  0.00     0.104 C 
ATOM     25  O   UNL     1      16.656 -23.499 -41.213  1.00  0.00    -0.313 OA
ATOM     26  N   UNL     1      14.964 -24.782 -40.300  1.00  0.00    -0.559 NA
ATOM     27  N   UNL     1      13.559 -25.010 -40.767  1.00  0.00    -0.432 N 
ATOM     28  C   UNL     1      16.032 -22.431 -43.867  1.00  0.00     0.046 C 
ATOM     29  H   UNL     1      11.626 -25.079 -42.610  1.00  0.00     0.171 HD
ATOM     30  C   UNL     1      12.974 -26.265 -40.343  1.00  0.00     0.126 C 
ENDBRANCH  16  17
ENDBRANCH  15  16
ENDBRANCH  12  15
ENDBRANCH  10  11
ENDBRANCH   9  10
ENDBRANCH   1   9
TORSDOF 11
ENDMDL
MODEL 5
REMARK VINA RESULT:    -6.891      4.425      8.983
REMARK INTER + INTRA:         -12.090
REMARK INTER:                 -10.632
REMARK INTRA:                  -1.458
REMARK UNBOUND:                -0.768
REMARK SMILES COC(=O)CCCCCCNC(=O)CCc1c(C)c2c(=O)[n-]n(C)c2[nH]c1=O
REMARK SMILES IDX 8 1 7 2 6 3 5 4 3 5 4 6 2 7 1 8 9 9 10 10 11 11 12 12 13 13
REMARK SMILES IDX 14 15 15 16 16 17 17 18 27 19 19 20 26 21 28 22 20 23 25 24
REMARK SMILES IDX 21 25 22 26 23 27 18 28 24 30
REMARK H PARENT 11 14 26 29
ROOT
ATOM      1  C   UNL     1      13.579 -24.442 -40.872  1.00  0.00     0.002 C 
ENDROOT
BRANCH   1   2
ATOM      2  C   UNL     1      14.751 -24.614 -39.904  1.00  0.00     0.001 C 
BRANCH   2   3
ATOM      3  C   UNL     1      16.089 -24.433 -40.623  1.00  0.00     0.012 C 
BRANCH   3   4
ATOM      4  C   UNL     1      15.988 -23.386 -41.729  1.00  0.00     0.123 C 
BRANCH   4   5
ATOM      5  C   UNL     1      17.147 -23.471 -42.695  1.00  0.00     0.305 C 
ATOM      6  O   UNL     1      18.091 -24.250 -42.610  1.00  0.00    -0.252 OA
BRANCH   5   7
ATOM      7  O   UNL     1      17.045 -22.474 -43.620  1.00  0.00    -0.469 OA
ATOM      8  C   UNL     1      18.133 -22.423 -44.539  1.00  0.00     0.282 C 
ENDBRANCH   5   7
ENDBRANCH   4   5
ENDBRANCH   3   4
ENDBRANCH   2   3
ENDBRANCH   1   2
BRANCH   1   9
ATOM      9  C   UNL     1      12.985 -25.772 -41.349  1.00  0.00     0.021 C 
BRANCH   9  10
ATOM     10  C   UNL     1      12.545 -25.805 -42.812  1.00  0.00     0.116 C 
BRANCH  10  11
ATOM     11  N   UNL     1      13.361 -24.943 -43.643  1.00  0.00    -0.356 N 
ATOM     12  C   UNL     1      12.861 -23.781 -44.190  1.00  0.00     0.220 C 
ATOM     13  O   UNL     1      11.677 -23.456 -44.160  1.00  0.00    -0.275 OA
ATOM     14  H   UNL     1      14.358 -24.963 -43.463  1.00  0.00     0.163 HD
BRANCH  12  15
ATOM     15  C   UNL     1      13.912 -22.915 -44.850  1.00  0.00     0.105 C 
BRANCH  15  16
ATOM     16  C   UNL     1      14.500 -23.573 -46.098  1.00  0.00     0.051 C 
BRANCH  16  17
ATOM     17  C   UNL     1      13.538 -23.648 -47.259  1.00  0.00     0.022 C 
ATOM     18  C   UNL     1      13.170 -22.617 -48.061  1.00  0.00    -0.030 C 
ATOM     19  C   UNL     1      12.954 -25.025 -47.516  1.00  0.00     0.252 C 
ATOM     20  C   UNL     1      12.232 -22.889 -49.127  1.00  0.00     0.043 C 
ATOM     21  N   UNL     1      12.103 -25.148 -48.580  1.00  0.00    -0.309 N 
ATOM     22  O   UNL     1      13.260 -25.988 -46.816  1.00  0.00    -0.269 OA
ATOM     23  C   UNL     1      11.572 -21.979 -50.110  1.00  0.00     0.101 C 
ATOM     24  C   UNL     1      11.739 -24.108 -49.370  1.00  0.00     0.104 C 
ATOM     25  O   UNL     1      11.815 -20.781 -50.186  1.00  0.00    -0.313 OA
ATOM     26  N   UNL     1      10.694 -22.692 -50.846  1.00  0.00    -0.559 NA
ATOM     27  N   UNL     1      10.888 -24.121 -50.439  1.00  0.00    -0.432 N 
ATOM     28  C   UNL     1      13.676 -21.207 -47.967  1.00  0.00     0.046 C 
ATOM     29  H   UNL     1      11.718 -26.054 -48.791  1.00  0.00     0.171 HD
ATOM     30  C   UNL     1       9.708 -24.952 -50.555  1.00  0.00     0.126 C 
ENDBRANCH  16  17
ENDBRANCH  15  16
ENDBRANCH  12  15
ENDBRANCH  10  11
ENDBRANCH   9  10
ENDBRANCH   1   9
TORSDOF 11
ENDMDL
MODEL 6
REMARK VINA RESULT:    -6.693      3.947     10.192
REMARK INTER + INTRA:         -11.765
REMARK INTER:                 -10.247
REMARK INTRA:                  -1.518
REMARK UNBOUND:                -0.768
REMARK SMILES COC(=O)CCCCCCNC(=O)CCc1c(C)c2c(=O)[n-]n(C)c2[nH]c1=O
REMARK SMILES IDX 8 1 7 2 6 3 5 4 3 5 4 6 2 7 1 8 9 9 10 10 11 11 12 12 13 13
REMARK SMILES IDX 14 15 15 16 16 17 17 18 27 19 19 20 26 21 28 22 20 23 25 24
REMARK SMILES IDX 21 25 22 26 23 27 18 28 24 30
REMARK H PARENT 11 14 26 29
ROOT
ATOM      1  C   UNL     1      15.420 -23.425 -42.319  1.00  0.00     0.002 C 
ENDROOT
BRANCH   1   2
ATOM      2  C   UNL     1      14.390 -24.546 -42.171  1.00  0.00     0.001 C 
BRANCH   2   3
ATOM      3  C   UNL     1      13.418 -24.251 -41.027  1.00  0.00     0.012 C 
BRANCH   3   4
ATOM      4  C   UNL     1      13.415 -25.377 -39.997  1.00  0.00     0.123 C 
BRANCH   4   5
ATOM      5  C   UNL     1      13.890 -24.904 -38.643  1.00  0.00     0.305 C 
ATOM      6  O   UNL     1      13.642 -23.814 -38.140  1.00  0.00    -0.252 OA
BRANCH   5   7
ATOM      7  O   UNL     1      14.734 -25.832 -38.105  1.00  0.00    -0.469 OA
ATOM      8  C   UNL     1      15.709 -26.327 -39.019  1.00  0.00     0.282 C 
ENDBRANCH   5   7
ENDBRANCH   4   5
ENDBRANCH   3   4
ENDBRANCH   2   3
ENDBRANCH   1   2
BRANCH   1   9
ATOM      9  C   UNL     1      16.869 -23.925 -42.307  1.00  0.00     0.021 C 
BRANCH   9  10
ATOM     10  C   UNL     1      17.625 -23.776 -43.627  1.00  0.00     0.116 C 
BRANCH  10  11
ATOM     11  N   UNL     1      16.777 -24.047 -44.770  1.00  0.00    -0.356 N 
ATOM     12  C   UNL     1      16.602 -25.326 -45.253  1.00  0.00     0.220 C 
ATOM     13  O   UNL     1      17.245 -26.302 -44.875  1.00  0.00    -0.275 OA
ATOM     14  H   UNL     1      16.013 -23.400 -44.924  1.00  0.00     0.163 HD
BRANCH  12  15
ATOM     15  C   UNL     1      15.526 -25.437 -46.312  1.00  0.00     0.105 C 
BRANCH  15  16
ATOM     16  C   UNL     1      14.258 -24.677 -45.925  1.00  0.00     0.051 C 
BRANCH  16  17
ATOM     17  C   UNL     1      13.777 -23.713 -46.983  1.00  0.00     0.022 C 
ATOM     18  C   UNL     1      12.835 -23.963 -47.926  1.00  0.00    -0.030 C 
ATOM     19  C   UNL     1      14.440 -22.347 -46.949  1.00  0.00     0.252 C 
ATOM     20  C   UNL     1      12.509 -22.906 -48.856  1.00  0.00     0.043 C 
ATOM     21  N   UNL     1      14.012 -21.428 -47.867  1.00  0.00    -0.309 N 
ATOM     22  O   UNL     1      15.297 -22.075 -46.111  1.00  0.00    -0.269 OA
ATOM     23  C   UNL     1      11.599 -22.885 -50.041  1.00  0.00     0.101 C 
ATOM     24  C   UNL     1      13.072 -21.695 -48.808  1.00  0.00     0.104 C 
ATOM     25  O   UNL     1      10.898 -23.835 -50.367  1.00  0.00    -0.313 OA
ATOM     26  N   UNL     1      11.707 -21.689 -50.656  1.00  0.00    -0.559 NA
ATOM     27  N   UNL     1      12.591 -20.858 -49.776  1.00  0.00    -0.432 N 
ATOM     28  C   UNL     1      12.062 -25.241 -48.078  1.00  0.00     0.046 C 
ATOM     29  H   UNL     1      14.414 -20.506 -47.855  1.00  0.00     0.171 HD
ATOM     30  C   UNL     1      13.367 -19.852 -50.470  1.00  0.00     0.126 C 
ENDBRANCH  16  17
ENDBRANCH  15  16
ENDBRANCH  12  15
ENDBRANCH  10  11
ENDBRANCH   9  10
ENDBRANCH   1   9
TORSDOF 11
ENDMDL
MODEL 7
REMARK VINA RESULT:    -6.658      4.384      9.400
REMARK INTER + INTRA:         -11.707
REMARK INTER:                 -10.220
REMARK INTRA:                  -1.488
REMARK UNBOUND:                -0.768
REMARK SMILES COC(=O)CCCCCCNC(=O)CCc1c(C)c2c(=O)[n-]n(C)c2[nH]c1=O
REMARK SMILES IDX 8 1 7 2 6 3 5 4 3 5 4 6 2 7 1 8 9 9 10 10 11 11 12 12 13 13
REMARK SMILES IDX 14 15 15 16 16 17 17 18 27 19 19 20 26 21 28 22 20 23 25 24
REMARK SMILES IDX 21 25 22 26 23 27 18 28 24 30
REMARK H PARENT 11 14 26 29
ROOT
ATOM      1  C   UNL     1      16.063 -22.284 -43.806  1.00  0.00     0.002 C 
ENDROOT
BRANCH   1   2
ATOM      2  C   UNL     1      16.215 -23.057 -42.495  1.00  0.00     0.001 C 
BRANCH   2   3
ATOM      3  C   UNL     1      15.110 -24.105 -42.343  1.00  0.00     0.012 C 
BRANCH   3   4
ATOM      4  C   UNL     1      14.905 -24.487 -40.879  1.00  0.00     0.123 C 
BRANCH   4   5
ATOM      5  C   UNL     1      13.448 -24.724 -40.557  1.00  0.00     0.305 C 
ATOM      6  O   UNL     1      12.682 -25.436 -41.197  1.00  0.00    -0.252 OA
BRANCH   5   7
ATOM      7  O   UNL     1      13.078 -23.937 -39.505  1.00  0.00    -0.469 OA
ATOM      8  C   UNL     1      13.851 -24.144 -38.327  1.00  0.00     0.282 C 
ENDBRANCH   5   7
ENDBRANCH   4   5
ENDBRANCH   3   4
ENDBRANCH   2   3
ENDBRANCH   1   2
BRANCH   1   9
ATOM      9  C   UNL     1      17.384 -22.104 -44.563  1.00  0.00     0.021 C 
BRANCH   9  10
ATOM     10  C   UNL     1      17.886 -23.340 -45.306  1.00  0.00     0.116 C 
BRANCH  10  11
ATOM     11  N   UNL     1      16.820 -24.017 -46.015  1.00  0.00    -0.356 N 
ATOM     12  C   UNL     1      16.405 -25.283 -45.662  1.00  0.00     0.220 C 
ATOM     13  O   UNL     1      16.982 -25.996 -44.845  1.00  0.00    -0.275 OA
ATOM     14  H   UNL     1      16.125 -23.422 -46.452  1.00  0.00     0.163 HD
BRANCH  12  15
ATOM     15  C   UNL     1      15.151 -25.737 -46.377  1.00  0.00     0.105 C 
BRANCH  15  16
ATOM     16  C   UNL     1      13.925 -24.924 -45.961  1.00  0.00     0.051 C 
BRANCH  16  17
ATOM     17  C   UNL     1      13.198 -24.281 -47.117  1.00  0.00     0.022 C 
ATOM     18  C   UNL     1      13.303 -22.986 -47.508  1.00  0.00    -0.030 C 
ATOM     19  C   UNL     1      12.274 -25.209 -47.885  1.00  0.00     0.252 C 
ATOM     20  C   UNL     1      12.522 -22.557 -48.646  1.00  0.00     0.043 C 
ATOM     21  N   UNL     1      11.620 -24.679 -48.963  1.00  0.00    -0.309 N 
ATOM     22  O   UNL     1      12.149 -26.390 -47.568  1.00  0.00    -0.269 OA
ATOM     23  C   UNL     1      12.347 -21.209 -49.265  1.00  0.00     0.101 C 
ATOM     24  C   UNL     1      11.730 -23.382 -49.339  1.00  0.00     0.104 C 
ATOM     25  O   UNL     1      12.953 -20.212 -48.890  1.00  0.00    -0.313 OA
ATOM     26  N   UNL     1      11.432 -21.295 -50.253  1.00  0.00    -0.559 NA
ATOM     27  N   UNL     1      11.109 -22.752 -50.382  1.00  0.00    -0.432 N 
ATOM     28  C   UNL     1      14.191 -21.949 -46.885  1.00  0.00     0.046 C 
ATOM     29  H   UNL     1      11.019 -25.276 -49.507  1.00  0.00     0.171 HD
ATOM     30  C   UNL     1       9.770 -23.040 -50.851  1.00  0.00     0.126 C 
ENDBRANCH  16  17
ENDBRANCH  15  16
ENDBRANCH  12  15
ENDBRANCH  10  11
ENDBRANCH   9  10
ENDBRANCH   1   9
TORSDOF 11
ENDMDL
MODEL 8
REMARK VINA RESULT:    -6.608      4.316      6.762
REMARK INTER + INTRA:         -11.625
REMARK INTER:                 -10.279
REMARK INTRA:                  -1.346
REMARK UNBOUND:                -0.768
REMARK SMILES COC(=O)CCCCCCNC(=O)CCc1c(C)c2c(=O)[n-]n(C)c2[nH]c1=O
REMARK SMILES IDX 8 1 7 2 6 3 5 4 3 5 4 6 2 7 1 8 9 9 10 10 11 11 12 12 13 13
REMARK SMILES IDX 14 15 15 16 16 17 17 18 27 19 19 20 26 21 28 22 20 23 25 24
REMARK SMILES IDX 21 25 22 26 23 27 18 28 24 30
REMARK H PARENT 11 14 26 29
ROOT
ATOM      1  C   UNL     1       9.896 -24.355 -51.989  1.00  0.00     0.002 C 
ENDROOT
BRANCH   1   2
ATOM      2  C   UNL     1       8.574 -24.320 -51.220  1.00  0.00     0.001 C 
BRANCH   2   3
ATOM      3  C   UNL     1       8.424 -25.556 -50.330  1.00  0.00     0.012 C 
BRANCH   3   4
ATOM      4  C   UNL     1       7.812 -25.196 -48.979  1.00  0.00     0.123 C 
BRANCH   4   5
ATOM      5  C   UNL     1       8.870 -24.911 -47.939  1.00  0.00     0.305 C 
ATOM      6  O   UNL     1       9.278 -23.798 -47.622  1.00  0.00    -0.252 OA
BRANCH   5   7
ATOM      7  O   UNL     1       9.388 -26.086 -47.479  1.00  0.00    -0.469 OA
ATOM      8  C   UNL     1      10.383 -25.927 -46.473  1.00  0.00     0.282 C 
ENDBRANCH   5   7
ENDBRANCH   4   5
ENDBRANCH   3   4
ENDBRANCH   2   3
ENDBRANCH   1   2
BRANCH   1   9
ATOM      9  C   UNL     1      10.995 -23.500 -51.348  1.00  0.00     0.021 C 
BRANCH   9  10
ATOM     10  C   UNL     1      10.504 -22.395 -50.414  1.00  0.00     0.116 C 
BRANCH  10  11
ATOM     11  N   UNL     1      11.234 -22.380 -49.162  1.00  0.00    -0.356 N 
ATOM     12  C   UNL     1      12.086 -21.348 -48.834  1.00  0.00     0.220 C 
ATOM     13  O   UNL     1      12.419 -20.454 -49.608  1.00  0.00    -0.275 OA
ATOM     14  H   UNL     1      10.804 -22.871 -48.387  1.00  0.00     0.163 HD
BRANCH  12  15
ATOM     15  C   UNL     1      12.594 -21.404 -47.409  1.00  0.00     0.105 C 
BRANCH  15  16
ATOM     16  C   UNL     1      12.897 -22.833 -46.962  1.00  0.00     0.051 C 
BRANCH  16  17
ATOM     17  C   UNL     1      13.776 -22.917 -45.737  1.00  0.00     0.022 C 
ATOM     18  C   UNL     1      15.117 -22.715 -45.699  1.00  0.00    -0.030 C 
ATOM     19  C   UNL     1      13.046 -23.261 -44.452  1.00  0.00     0.252 C 
ATOM     20  C   UNL     1      15.784 -22.839 -44.423  1.00  0.00     0.043 C 
ATOM     21  N   UNL     1      13.797 -23.314 -43.309  1.00  0.00    -0.309 N 
ATOM     22  O   UNL     1      11.832 -23.451 -44.438  1.00  0.00    -0.269 OA
ATOM     23  C   UNL     1      17.232 -22.766 -44.061  1.00  0.00     0.101 C 
ATOM     24  C   UNL     1      15.137 -23.115 -43.287  1.00  0.00     0.104 C 
ATOM     25  O   UNL     1      18.115 -22.502 -44.868  1.00  0.00    -0.313 OA
ATOM     26  N   UNL     1      17.370 -23.049 -42.749  1.00  0.00    -0.559 NA
ATOM     27  N   UNL     1      15.977 -23.164 -42.209  1.00  0.00    -0.432 N 
ATOM     28  C   UNL     1      15.982 -22.335 -46.866  1.00  0.00     0.046 C 
ATOM     29  H   UNL     1      13.338 -23.516 -42.436  1.00  0.00     0.171 HD
ATOM     30  C   UNL     1      15.835 -24.059 -41.080  1.00  0.00     0.126 C 
ENDBRANCH  16  17
ENDBRANCH  15  16
ENDBRANCH  12  15
ENDBRANCH  10  11
ENDBRANCH   9  10
ENDBRANCH   1   9
TORSDOF 11
ENDMDL
MODEL 9
REMARK VINA RESULT:    -6.540      4.854     10.020
REMARK INTER + INTRA:         -11.514
REMARK INTER:                 -10.232
REMARK INTRA:                  -1.282
REMARK UNBOUND:                -0.768
REMARK SMILES COC(=O)CCCCCCNC(=O)CCc1c(C)c2c(=O)[n-]n(C)c2[nH]c1=O
REMARK SMILES IDX 8 1 7 2 6 3 5 4 3 5 4 6 2 7 1 8 9 9 10 10 11 11 12 12 13 13
REMARK SMILES IDX 14 15 15 16 16 17 17 18 27 19 19 20 26 21 28 22 20 23 25 24
REMARK SMILES IDX 21 25 22 26 23 27 18 28 24 30
REMARK H PARENT 11 14 26 29
ROOT
ATOM      1  C   UNL     1      14.393 -23.610 -42.636  1.00  0.00     0.002 C 
ENDROOT
BRANCH   1   2
ATOM      2  C   UNL     1      13.941 -25.062 -42.475  1.00  0.00     0.001 C 
BRANCH   2   3
ATOM      3  C   UNL     1      13.070 -25.232 -41.229  1.00  0.00     0.012 C 
BRANCH   3   4
ATOM      4  C   UNL     1      13.397 -24.178 -40.175  1.00  0.00     0.123 C 
BRANCH   4   5
ATOM      5  C   UNL     1      14.008 -24.789 -38.936  1.00  0.00     0.305 C 
ATOM      6  O   UNL     1      13.787 -24.436 -37.783  1.00  0.00    -0.252 OA
BRANCH   5   7
ATOM      7  O   UNL     1      14.934 -25.725 -39.297  1.00  0.00    -0.469 OA
ATOM      8  C   UNL     1      16.279 -25.258 -39.249  1.00  0.00     0.282 C 
ENDBRANCH   5   7
ENDBRANCH   4   5
ENDBRANCH   3   4
ENDBRANCH   2   3
ENDBRANCH   1   2
BRANCH   1   9
ATOM      9  C   UNL     1      15.903 -23.419 -42.448  1.00  0.00     0.021 C 
BRANCH   9  10
ATOM     10  C   UNL     1      16.691 -23.137 -43.726  1.00  0.00     0.116 C 
BRANCH  10  11
ATOM     11  N   UNL     1      15.823 -22.794 -44.834  1.00  0.00    -0.356 N 
ATOM     12  C   UNL     1      16.139 -23.132 -46.132  1.00  0.00     0.220 C 
ATOM     13  O   UNL     1      17.220 -23.598 -46.482  1.00  0.00    -0.275 OA
ATOM     14  H   UNL     1      14.836 -22.709 -44.619  1.00  0.00     0.163 HD
BRANCH  12  15
ATOM     15  C   UNL     1      15.020 -22.876 -47.119  1.00  0.00     0.105 C 
BRANCH  15  16
ATOM     16  C   UNL     1      13.761 -22.343 -46.436  1.00  0.00     0.051 C 
BRANCH  16  17
ATOM     17  C   UNL     1      12.475 -22.829 -47.062  1.00  0.00     0.022 C 
ATOM     18  C   UNL     1      11.817 -23.974 -46.752  1.00  0.00    -0.030 C 
ATOM     19  C   UNL     1      11.903 -21.918 -48.133  1.00  0.00     0.252 C 
ATOM     20  C   UNL     1      10.594 -24.266 -47.465  1.00  0.00     0.043 C 
ATOM     21  N   UNL     1      10.721 -22.300 -48.704  1.00  0.00    -0.309 N 
ATOM     22  O   UNL     1      12.465 -20.870 -48.445  1.00  0.00    -0.269 OA
ATOM     23  C   UNL     1       9.695 -25.458 -47.424  1.00  0.00     0.101 C 
ATOM     24  C   UNL     1      10.076 -23.450 -48.388  1.00  0.00     0.104 C 
ATOM     25  O   UNL     1       9.862 -26.401 -46.660  1.00  0.00    -0.313 OA
ATOM     26  N   UNL     1       8.727 -25.309 -48.352  1.00  0.00    -0.559 NA
ATOM     27  N   UNL     1       8.907 -23.930 -48.909  1.00  0.00    -0.432 N 
ATOM     28  C   UNL     1      12.224 -24.965 -45.700  1.00  0.00     0.046 C 
ATOM     29  H   UNL     1      10.303 -21.705 -49.400  1.00  0.00     0.171 HD
ATOM     30  C   UNL     1       8.478 -23.768 -50.282  1.00  0.00     0.126 C 
ENDBRANCH  16  17
ENDBRANCH  15  16
ENDBRANCH  12  15
ENDBRANCH  10  11
ENDBRANCH   9  10
ENDBRANCH   1   9
TORSDOF 11
ENDMDL
