REMARK SMILES Cc1nnc(S[C@H](C)C(=O)N2CCNC2=O)n1N
REMARK SMILES IDX 6 1 5 2 2 3 3 4 17 5 4 6 1 7 18 8 7 11 8 12 9 13 10 14 11 15
REMARK SMILES IDX 12 16 15 17 13 18 14 19 16 20
REMARK H PARENT 18 9 18 10 14 21
ROOT
ATOM      1  S   UNL     1      -3.435  -0.620  -0.204  1.00  0.00    -0.071 SA
ENDROOT
BRANCH   1   2
ATOM      2  C   UNL     1      -2.119   0.435   0.167  1.00  0.00     0.210 A 
ATOM      3  C   UNL     1      -0.480   1.854  -0.091  1.00  0.00     0.149 A 
ATOM      4  N   UNL     1      -0.425   1.376   1.140  1.00  0.00    -0.133 NA
ATOM      5  N   UNL     1      -1.544   1.286  -0.746  1.00  0.00    -0.222 N 
ATOM      6  N   UNL     1      -1.468   0.490   1.304  1.00  0.00    -0.121 NA
ATOM      7  C   UNL     1       0.446   2.821  -0.717  1.00  0.00     0.092 C 
BRANCH   5   8
ATOM      8  N   UNL     1      -1.884   1.464  -2.124  1.00  0.00    -0.336 N 
ATOM      9  H   UNL     1      -1.495   0.686  -2.675  1.00  0.00     0.178 HD
ATOM     10  H   UNL     1      -2.892   1.379  -2.260  1.00  0.00     0.178 HD
ENDBRANCH   5   8
ENDBRANCH   1   2
BRANCH   1  11
ATOM     11  C   UNL     1      -2.573  -2.169  -0.678  1.00  0.00     0.141 C 
ATOM     12  C   UNL     1      -2.652  -3.226   0.411  1.00  0.00     0.030 C 
BRANCH  11  13
ATOM     13  C   UNL     1      -1.235  -1.885  -1.379  1.00  0.00     0.243 C 
ATOM     14  O   UNL     1      -1.301  -1.476  -2.548  1.00  0.00    -0.273 OA
BRANCH  13  15
ATOM     15  N   UNL     1      -0.040  -1.958  -0.699  1.00  0.00    -0.262 N 
ATOM     16  C   UNL     1       0.199  -2.271   0.701  1.00  0.00     0.152 C 
ATOM     17  C   UNL     1       1.208  -1.724  -1.317  1.00  0.00     0.324 C 
ATOM     18  C   UNL     1       1.616  -1.795   0.958  1.00  0.00     0.140 C 
ATOM     19  N   UNL     1       2.201  -1.823  -0.346  1.00  0.00    -0.336 N 
ATOM     20  O   UNL     1       1.461  -1.454  -2.478  1.00  0.00    -0.248 OA
ATOM     21  H   UNL     1       3.113  -1.448  -0.577  1.00  0.00     0.165 HD
ENDBRANCH  13  15
ENDBRANCH  11  13
ENDBRANCH   1  11
TORSDOF 5
