MODEL 1
REMARK VINA RESULT:    -6.506      0.000      0.000
REMARK INTER + INTRA:          -8.106
REMARK INTER:                  -7.647
REMARK INTRA:                  -0.459
REMARK UNBOUND:                -0.459
REMARK SMILES Cn1cc(C(=O)Nc2cnn(C)c2C(N)=O)cn1
REMARK SMILES IDX 8 1 9 2 10 3 11 4 12 5 13 6 7 7 5 8 6 9 4 11 2 12 3 13 18 14
REMARK SMILES IDX 17 15 1 16 14 17 15 18 16 19
REMARK H PARENT 7 10 15 20 15 21
ROOT
ATOM      1  C   UNL     1      14.605 -22.905 -44.232  1.00  0.00     0.093 A 
ATOM      2  C   UNL     1      15.836 -22.808 -43.553  1.00  0.00     0.162 A 
ATOM      3  N   UNL     1      15.844 -23.519 -42.424  1.00  0.00    -0.179 NA
ATOM      4  N   UNL     1      14.601 -24.032 -42.358  1.00  0.00    -0.261 N 
ATOM      5  C   UNL     1      14.210 -24.708 -41.141  1.00  0.00     0.174 C 
ATOM      6  C   UNL     1      13.836 -23.774 -43.471  1.00  0.00     0.149 A 
ENDROOT
BRANCH   1   7
ATOM      7  N   UNL     1      14.163 -22.319 -45.407  1.00  0.00    -0.319 N 
ATOM      8  C   UNL     1      14.821 -22.386 -46.617  1.00  0.00     0.258 C 
ATOM      9  O   UNL     1      15.860 -23.010 -46.815  1.00  0.00    -0.269 OA
ATOM     10  H   UNL     1      13.310 -21.775 -45.331  1.00  0.00     0.170 HD
BRANCH   8  11
ATOM     11  C   UNL     1      14.179 -21.645 -47.694  1.00  0.00     0.078 A 
ATOM     12  N   UNL     1      13.571 -20.748 -49.612  1.00  0.00    -0.275 N 
ATOM     13  C   UNL     1      14.491 -21.581 -49.042  1.00  0.00     0.122 A 
ATOM     14  N   UNL     1      12.679 -20.258 -48.737  1.00  0.00    -0.181 NA
ATOM     15  C   UNL     1      13.046 -20.805 -47.576  1.00  0.00     0.149 A 
ATOM     16  C   UNL     1      13.481 -20.372 -51.002  1.00  0.00     0.173 C 
ENDBRANCH   8  11
ENDBRANCH   1   7
BRANCH   6  17
ATOM     17  C   UNL     1      12.508 -24.242 -43.773  1.00  0.00     0.269 C 
ATOM     18  N   UNL     1      12.337 -25.591 -43.895  1.00  0.00    -0.364 N 
ATOM     19  O   UNL     1      11.562 -23.493 -44.004  1.00  0.00    -0.268 OA
ATOM     20  H   UNL     1      13.118 -26.174 -44.163  1.00  0.00     0.160 HD
ATOM     21  H   UNL     1      11.439 -25.861 -44.280  1.00  0.00     0.160 HD
ENDBRANCH   6  17
TORSDOF 3
ENDMDL
MODEL 2
REMARK VINA RESULT:    -6.339      1.608      2.817
REMARK INTER + INTRA:          -7.909
REMARK INTER:                  -7.306
REMARK INTRA:                  -0.603
REMARK UNBOUND:                -0.459
REMARK SMILES Cn1cc(C(=O)Nc2cnn(C)c2C(N)=O)cn1
REMARK SMILES IDX 8 1 9 2 10 3 11 4 12 5 13 6 7 7 5 8 6 9 4 11 2 12 3 13 18 14
REMARK SMILES IDX 17 15 1 16 14 17 15 18 16 19
REMARK H PARENT 7 10 15 20 15 21
ROOT
ATOM      1  C   UNL     1      15.002 -23.067 -44.282  1.00  0.00     0.093 A 
ATOM      2  C   UNL     1      14.335 -23.709 -43.220  1.00  0.00     0.162 A 
ATOM      3  N   UNL     1      15.181 -24.354 -42.413  1.00  0.00    -0.179 NA
ATOM      4  N   UNL     1      16.383 -24.163 -42.989  1.00  0.00    -0.261 N 
ATOM      5  C   UNL     1      17.510 -24.901 -42.464  1.00  0.00     0.174 C 
ATOM      6  C   UNL     1      16.351 -23.312 -44.068  1.00  0.00     0.149 A 
ENDROOT
BRANCH   1   7
ATOM      7  N   UNL     1      14.518 -22.322 -45.345  1.00  0.00    -0.319 N 
ATOM      8  C   UNL     1      14.436 -22.767 -46.647  1.00  0.00     0.258 C 
ATOM      9  O   UNL     1      14.741 -23.896 -47.022  1.00  0.00    -0.269 OA
ATOM     10  H   UNL     1      14.247 -21.369 -45.124  1.00  0.00     0.170 HD
BRANCH   8  11
ATOM     11  C   UNL     1      13.937 -21.777 -47.592  1.00  0.00     0.078 A 
ATOM     12  N   UNL     1      13.511 -20.511 -49.344  1.00  0.00    -0.275 N 
ATOM     13  C   UNL     1      14.277 -21.558 -48.917  1.00  0.00     0.122 A 
ATOM     14  N   UNL     1      12.696 -20.024 -48.396  1.00  0.00    -0.181 NA
ATOM     15  C   UNL     1      12.952 -20.793 -47.336  1.00  0.00     0.149 A 
ATOM     16  C   UNL     1      13.505 -19.917 -50.659  1.00  0.00     0.173 C 
ENDBRANCH   8  11
ENDBRANCH   1   7
BRANCH   6  17
ATOM     17  C   UNL     1      17.453 -22.821 -44.853  1.00  0.00     0.269 C 
ATOM     18  N   UNL     1      17.885 -23.608 -45.882  1.00  0.00    -0.364 N 
ATOM     19  O   UNL     1      18.064 -21.787 -44.590  1.00  0.00    -0.268 OA
ATOM     20  H   UNL     1      17.735 -24.606 -45.846  1.00  0.00     0.160 HD
ATOM     21  H   UNL     1      18.765 -23.312 -46.288  1.00  0.00     0.160 HD
ENDBRANCH   6  17
TORSDOF 3
ENDMDL
MODEL 3
REMARK VINA RESULT:    -6.207      1.976      5.850
REMARK INTER + INTRA:          -7.755
REMARK INTER:                  -7.216
REMARK INTRA:                  -0.539
REMARK UNBOUND:                -0.459
REMARK SMILES Cn1cc(C(=O)Nc2cnn(C)c2C(N)=O)cn1
REMARK SMILES IDX 8 1 9 2 10 3 11 4 12 5 13 6 7 7 5 8 6 9 4 11 2 12 3 13 18 14
REMARK SMILES IDX 17 15 1 16 14 17 15 18 16 19
REMARK H PARENT 7 10 15 20 15 21
ROOT
ATOM      1  C   UNL     1      13.053 -21.753 -47.144  1.00  0.00     0.093 A 
ATOM      2  C   UNL     1      12.948 -20.606 -47.954  1.00  0.00     0.162 A 
ATOM      3  N   UNL     1      12.080 -20.776 -48.955  1.00  0.00    -0.179 NA
ATOM      4  N   UNL     1      11.667 -22.049 -48.809  1.00  0.00    -0.261 N 
ATOM      5  C   UNL     1      10.854 -22.621 -49.858  1.00  0.00     0.174 C 
ATOM      6  C   UNL     1      12.148 -22.661 -47.675  1.00  0.00     0.149 A 
ENDROOT
BRANCH   1   7
ATOM      7  N   UNL     1      13.840 -22.017 -46.034  1.00  0.00    -0.319 N 
ATOM      8  C   UNL     1      15.180 -22.339 -46.077  1.00  0.00     0.258 C 
ATOM      9  O   UNL     1      15.855 -22.390 -47.102  1.00  0.00    -0.269 OA
ATOM     10  H   UNL     1      13.358 -22.002 -45.142  1.00  0.00     0.170 HD
BRANCH   8  11
ATOM     11  C   UNL     1      15.774 -22.620 -44.778  1.00  0.00     0.078 A 
ATOM     12  N   UNL     1      16.202 -23.232 -42.705  1.00  0.00    -0.275 N 
ATOM     13  C   UNL     1      15.214 -23.192 -43.647  1.00  0.00     0.122 A 
ATOM     14  N   UNL     1      17.370 -22.726 -43.133  1.00  0.00    -0.181 NA
ATOM     15  C   UNL     1      17.109 -22.359 -44.390  1.00  0.00     0.149 A 
ATOM     16  C   UNL     1      16.103 -23.747 -41.360  1.00  0.00     0.173 C 
ENDBRANCH   8  11
ENDBRANCH   1   7
BRANCH   6  17
ATOM     17  C   UNL     1      11.839 -23.972 -47.167  1.00  0.00     0.269 C 
ATOM     18  N   UNL     1      12.656 -24.997 -47.551  1.00  0.00    -0.364 N 
ATOM     19  O   UNL     1      10.846 -24.219 -46.487  1.00  0.00    -0.268 OA
ATOM     20  H   UNL     1      13.166 -24.932 -48.421  1.00  0.00     0.160 HD
ATOM     21  H   UNL     1      12.301 -25.917 -47.319  1.00  0.00     0.160 HD
ENDBRANCH   6  17
TORSDOF 3
ENDMDL
MODEL 4
REMARK VINA RESULT:    -6.177      1.642      2.690
REMARK INTER + INTRA:          -7.719
REMARK INTER:                  -7.071
REMARK INTRA:                  -0.648
REMARK UNBOUND:                -0.459
REMARK SMILES Cn1cc(C(=O)Nc2cnn(C)c2C(N)=O)cn1
REMARK SMILES IDX 8 1 9 2 10 3 11 4 12 5 13 6 7 7 5 8 6 9 4 11 2 12 3 13 18 14
REMARK SMILES IDX 17 15 1 16 14 17 15 18 16 19
REMARK H PARENT 7 10 15 20 15 21
ROOT
ATOM      1  C   UNL     1      13.085 -23.119 -45.050  1.00  0.00     0.093 A 
ATOM      2  C   UNL     1      12.173 -23.796 -44.217  1.00  0.00     0.162 A 
ATOM      3  N   UNL     1      12.777 -24.375 -43.177  1.00  0.00    -0.179 NA
ATOM      4  N   UNL     1      14.081 -24.106 -43.372  1.00  0.00    -0.261 N 
ATOM      5  C   UNL     1      15.044 -24.760 -42.515  1.00  0.00     0.174 C 
ATOM      6  C   UNL     1      14.321 -23.269 -44.436  1.00  0.00     0.149 A 
ENDROOT
BRANCH   1   7
ATOM      7  N   UNL     1      12.895 -22.417 -46.229  1.00  0.00    -0.319 N 
ATOM      8  C   UNL     1      13.061 -22.941 -47.494  1.00  0.00     0.258 C 
ATOM      9  O   UNL     1      13.355 -24.109 -47.734  1.00  0.00    -0.269 OA
ATOM     10  H   UNL     1      12.655 -21.436 -46.122  1.00  0.00     0.170 HD
BRANCH   8  11
ATOM     11  C   UNL     1      12.850 -21.987 -48.573  1.00  0.00     0.078 A 
ATOM     12  N   UNL     1      13.031 -20.442 -50.133  1.00  0.00    -0.275 N 
ATOM     13  C   UNL     1      13.736 -21.103 -49.168  1.00  0.00     0.122 A 
ATOM     14  N   UNL     1      11.747 -20.825 -50.215  1.00  0.00    -0.181 NA
ATOM     15  C   UNL     1      11.640 -21.763 -49.272  1.00  0.00     0.149 A 
ATOM     16  C   UNL     1      13.526 -19.422 -51.027  1.00  0.00     0.173 C 
ENDBRANCH   8  11
ENDBRANCH   1   7
BRANCH   6  17
ATOM     17  C   UNL     1      15.574 -22.709 -44.870  1.00  0.00     0.269 C 
ATOM     18  N   UNL     1      16.049 -21.633 -44.175  1.00  0.00    -0.364 N 
ATOM     19  O   UNL     1      16.180 -23.094 -45.867  1.00  0.00    -0.268 OA
ATOM     20  H   UNL     1      15.405 -21.031 -43.682  1.00  0.00     0.160 HD
ATOM     21  H   UNL     1      16.831 -21.167 -44.619  1.00  0.00     0.160 HD
ENDBRANCH   6  17
TORSDOF 3
ENDMDL
MODEL 5
REMARK VINA RESULT:    -6.101      1.923      2.189
REMARK INTER + INTRA:          -7.630
REMARK INTER:                  -6.967
REMARK INTRA:                  -0.663
REMARK UNBOUND:                -0.459
REMARK SMILES Cn1cc(C(=O)Nc2cnn(C)c2C(N)=O)cn1
REMARK SMILES IDX 8 1 9 2 10 3 11 4 12 5 13 6 7 7 5 8 6 9 4 11 2 12 3 13 18 14
REMARK SMILES IDX 17 15 1 16 14 17 15 18 16 19
REMARK H PARENT 7 10 15 20 15 21
ROOT
ATOM      1  C   UNL     1      14.847 -23.016 -44.924  1.00  0.00     0.093 A 
ATOM      2  C   UNL     1      15.241 -22.449 -43.696  1.00  0.00     0.162 A 
ATOM      3  N   UNL     1      15.609 -23.377 -42.810  1.00  0.00    -0.179 NA
ATOM      4  N   UNL     1      15.405 -24.539 -43.458  1.00  0.00    -0.261 N 
ATOM      5  C   UNL     1      15.527 -25.766 -42.703  1.00  0.00     0.174 C 
ATOM      6  C   UNL     1      15.036 -24.382 -44.773  1.00  0.00     0.149 A 
ENDROOT
BRANCH   1   7
ATOM      7  N   UNL     1      14.376 -22.432 -46.089  1.00  0.00    -0.319 N 
ATOM      8  C   UNL     1      13.044 -22.288 -46.415  1.00  0.00     0.258 C 
ATOM      9  O   UNL     1      12.107 -22.620 -45.695  1.00  0.00    -0.269 OA
ATOM     10  H   UNL     1      15.087 -22.133 -46.748  1.00  0.00     0.170 HD
BRANCH   8  11
ATOM     11  C   UNL     1      12.805 -21.686 -47.719  1.00  0.00     0.078 A 
ATOM     12  N   UNL     1      12.924 -20.594 -49.629  1.00  0.00    -0.275 N 
ATOM     13  C   UNL     1      13.626 -20.883 -48.494  1.00  0.00     0.122 A 
ATOM     14  N   UNL     1      11.701 -21.147 -49.656  1.00  0.00    -0.181 NA
ATOM     15  C   UNL     1      11.631 -21.811 -48.500  1.00  0.00     0.149 A 
ATOM     16  C   UNL     1      13.363 -19.790 -50.744  1.00  0.00     0.173 C 
ENDBRANCH   8  11
ENDBRANCH   1   7
BRANCH   6  17
ATOM     17  C   UNL     1      14.828 -25.399 -45.771  1.00  0.00     0.269 C 
ATOM     18  N   UNL     1      15.941 -25.977 -46.312  1.00  0.00    -0.364 N 
ATOM     19  O   UNL     1      13.721 -25.703 -46.209  1.00  0.00    -0.268 OA
ATOM     20  H   UNL     1      16.813 -25.468 -46.327  1.00  0.00     0.160 HD
ATOM     21  H   UNL     1      15.755 -26.550 -47.126  1.00  0.00     0.160 HD
ENDBRANCH   6  17
TORSDOF 3
ENDMDL
MODEL 6
REMARK VINA RESULT:    -6.062      2.531      6.149
REMARK INTER + INTRA:          -7.585
REMARK INTER:                  -7.012
REMARK INTRA:                  -0.572
REMARK UNBOUND:                -0.459
REMARK SMILES Cn1cc(C(=O)Nc2cnn(C)c2C(N)=O)cn1
REMARK SMILES IDX 8 1 9 2 10 3 11 4 12 5 13 6 7 7 5 8 6 9 4 11 2 12 3 13 18 14
REMARK SMILES IDX 17 15 1 16 14 17 15 18 16 19
REMARK H PARENT 7 10 15 20 15 21
ROOT
ATOM      1  C   UNL     1      13.285 -23.468 -47.992  1.00  0.00     0.093 A 
ATOM      2  C   UNL     1      12.537 -24.612 -48.332  1.00  0.00     0.162 A 
ATOM      3  N   UNL     1      11.599 -24.347 -49.243  1.00  0.00    -0.179 NA
ATOM      4  N   UNL     1      11.718 -23.022 -49.450  1.00  0.00    -0.261 N 
ATOM      5  C   UNL     1      10.708 -22.368 -50.253  1.00  0.00     0.174 C 
ATOM      6  C   UNL     1      12.783 -22.452 -48.794  1.00  0.00     0.149 A 
ENDROOT
BRANCH   1   7
ATOM      7  N   UNL     1      14.319 -23.289 -47.088  1.00  0.00    -0.319 N 
ATOM      8  C   UNL     1      14.159 -22.901 -45.774  1.00  0.00     0.258 C 
ATOM      9  O   UNL     1      13.076 -22.706 -45.229  1.00  0.00    -0.269 OA
ATOM     10  H   UNL     1      15.254 -23.424 -47.458  1.00  0.00     0.170 HD
BRANCH   8  11
ATOM     11  C   UNL     1      15.404 -22.735 -45.039  1.00  0.00     0.078 A 
ATOM     12  N   UNL     1      17.498 -22.488 -44.399  1.00  0.00    -0.275 N 
ATOM     13  C   UNL     1      16.707 -22.638 -45.502  1.00  0.00     0.122 A 
ATOM     14  N   UNL     1      16.812 -22.482 -43.245  1.00  0.00    -0.181 NA
ATOM     15  C   UNL     1      15.543 -22.628 -43.635  1.00  0.00     0.149 A 
ATOM     16  C   UNL     1      18.934 -22.341 -44.371  1.00  0.00     0.173 C 
ENDBRANCH   8  11
ENDBRANCH   1   7
BRANCH   6  17
ATOM     17  C   UNL     1      13.254 -21.093 -48.863  1.00  0.00     0.269 C 
ATOM     18  N   UNL     1      14.283 -20.834 -49.722  1.00  0.00    -0.364 N 
ATOM     19  O   UNL     1      12.836 -20.194 -48.136  1.00  0.00    -0.268 OA
ATOM     20  H   UNL     1      14.925 -21.572 -49.972  1.00  0.00     0.160 HD
ATOM     21  H   UNL     1      14.695 -19.915 -49.607  1.00  0.00     0.160 HD
ENDBRANCH   6  17
TORSDOF 3
ENDMDL
MODEL 7
REMARK VINA RESULT:    -5.876      2.594      3.076
REMARK INTER + INTRA:          -7.365
REMARK INTER:                  -6.701
REMARK INTRA:                  -0.664
REMARK UNBOUND:                -0.459
REMARK SMILES Cn1cc(C(=O)Nc2cnn(C)c2C(N)=O)cn1
REMARK SMILES IDX 8 1 9 2 10 3 11 4 12 5 13 6 7 7 5 8 6 9 4 11 2 12 3 13 18 14
REMARK SMILES IDX 17 15 1 16 14 17 15 18 16 19
REMARK H PARENT 7 10 15 20 15 21
ROOT
ATOM      1  C   UNL     1      14.474 -22.772 -46.381  1.00  0.00     0.093 A 
ATOM      2  C   UNL     1      15.817 -22.350 -46.435  1.00  0.00     0.162 A 
ATOM      3  N   UNL     1      16.396 -22.365 -45.232  1.00  0.00    -0.179 NA
ATOM      4  N   UNL     1      15.408 -22.753 -44.404  1.00  0.00    -0.261 N 
ATOM      5  C   UNL     1      15.653 -22.688 -42.981  1.00  0.00     0.174 C 
ATOM      6  C   UNL     1      14.248 -23.106 -45.053  1.00  0.00     0.149 A 
ENDROOT
BRANCH   1   7
ATOM      7  N   UNL     1      13.512 -22.882 -47.372  1.00  0.00    -0.319 N 
ATOM      8  C   UNL     1      12.649 -21.875 -47.747  1.00  0.00     0.258 C 
ATOM      9  O   UNL     1      12.653 -20.739 -47.280  1.00  0.00    -0.269 OA
ATOM     10  H   UNL     1      13.436 -23.794 -47.810  1.00  0.00     0.170 HD
BRANCH   8  11
ATOM     11  C   UNL     1      11.695 -22.252 -48.781  1.00  0.00     0.078 A 
ATOM     12  N   UNL     1      10.035 -23.092 -49.961  1.00  0.00    -0.275 N 
ATOM     13  C   UNL     1      10.586 -23.079 -48.711  1.00  0.00     0.122 A 
ATOM     14  N   UNL     1      10.704 -22.337 -50.848  1.00  0.00    -0.181 NA
ATOM     15  C   UNL     1      11.707 -21.827 -50.131  1.00  0.00     0.149 A 
ATOM     16  C   UNL     1       8.857 -23.809 -50.386  1.00  0.00     0.173 C 
ENDBRANCH   8  11
ENDBRANCH   1   7
BRANCH   6  17
ATOM     17  C   UNL     1      13.038 -23.647 -44.491  1.00  0.00     0.269 C 
ATOM     18  N   UNL     1      13.113 -24.890 -43.931  1.00  0.00    -0.364 N 
ATOM     19  O   UNL     1      11.946 -23.088 -44.568  1.00  0.00    -0.268 OA
ATOM     20  H   UNL     1      13.824 -25.537 -44.242  1.00  0.00     0.160 HD
ATOM     21  H   UNL     1      12.213 -25.300 -43.713  1.00  0.00     0.160 HD
ENDBRANCH   6  17
TORSDOF 3
ENDMDL
MODEL 8
REMARK VINA RESULT:    -5.753      2.114      6.846
REMARK INTER + INTRA:          -7.221
REMARK INTER:                  -6.596
REMARK INTRA:                  -0.625
REMARK UNBOUND:                -0.459
REMARK SMILES Cn1cc(C(=O)Nc2cnn(C)c2C(N)=O)cn1
REMARK SMILES IDX 8 1 9 2 10 3 11 4 12 5 13 6 7 7 5 8 6 9 4 11 2 12 3 13 18 14
REMARK SMILES IDX 17 15 1 16 14 17 15 18 16 19
REMARK H PARENT 7 10 15 20 15 21
ROOT
ATOM      1  C   UNL     1      13.924 -22.850 -45.175  1.00  0.00     0.093 A 
ATOM      2  C   UNL     1      12.731 -22.725 -45.913  1.00  0.00     0.162 A 
ATOM      3  N   UNL     1      12.963 -22.477 -47.204  1.00  0.00    -0.179 NA
ATOM      4  N   UNL     1      14.305 -22.398 -47.280  1.00  0.00    -0.261 N 
ATOM      5  C   UNL     1      14.887 -21.944 -48.523  1.00  0.00     0.174 C 
ATOM      6  C   UNL     1      14.945 -22.709 -46.104  1.00  0.00     0.149 A 
ENDROOT
BRANCH   1   7
ATOM      7  N   UNL     1      14.141 -23.077 -43.826  1.00  0.00    -0.319 N 
ATOM      8  C   UNL     1      14.130 -24.318 -43.224  1.00  0.00     0.258 C 
ATOM      9  O   UNL     1      13.969 -25.381 -43.816  1.00  0.00    -0.269 OA
ATOM     10  H   UNL     1      14.278 -22.247 -43.258  1.00  0.00     0.170 HD
BRANCH   8  11
ATOM     11  C   UNL     1      14.337 -24.290 -41.783  1.00  0.00     0.078 A 
ATOM     12  N   UNL     1      14.135 -24.276 -39.589  1.00  0.00    -0.275 N 
ATOM     13  C   UNL     1      13.415 -24.320 -40.749  1.00  0.00     0.122 A 
ATOM     14  N   UNL     1      15.462 -24.217 -39.785  1.00  0.00    -0.181 NA
ATOM     15  C   UNL     1      15.583 -24.228 -41.114  1.00  0.00     0.149 A 
ATOM     16  C   UNL     1      13.617 -24.291 -38.242  1.00  0.00     0.173 C 
ENDBRANCH   8  11
ENDBRANCH   1   7
BRANCH   6  17
ATOM     17  C   UNL     1      16.359 -22.813 -45.856  1.00  0.00     0.269 C 
ATOM     18  N   UNL     1      17.000 -23.911 -46.354  1.00  0.00    -0.364 N 
ATOM     19  O   UNL     1      16.985 -22.018 -45.158  1.00  0.00    -0.268 OA
ATOM     20  H   UNL     1      16.482 -24.763 -46.515  1.00  0.00     0.160 HD
ATOM     21  H   UNL     1      17.944 -24.032 -46.007  1.00  0.00     0.160 HD
ENDBRANCH   6  17
TORSDOF 3
ENDMDL
MODEL 9
REMARK VINA RESULT:    -5.658     23.765     24.669
REMARK INTER + INTRA:          -7.109
REMARK INTER:                  -6.609
REMARK INTRA:                  -0.500
REMARK UNBOUND:                -0.459
REMARK SMILES Cn1cc(C(=O)Nc2cnn(C)c2C(N)=O)cn1
REMARK SMILES IDX 8 1 9 2 10 3 11 4 12 5 13 6 7 7 5 8 6 9 4 11 2 12 3 13 18 14
REMARK SMILES IDX 17 15 1 16 14 17 15 18 16 19
REMARK H PARENT 7 10 15 20 15 21
ROOT
ATOM      1  C   UNL     1      -1.102  -7.481 -32.503  1.00  0.00     0.093 A 
ATOM      2  C   UNL     1      -2.315  -7.000 -31.972  1.00  0.00     0.162 A 
ATOM      3  N   UNL     1      -3.308  -7.882 -32.109  1.00  0.00    -0.179 NA
ATOM      4  N   UNL     1      -2.737  -8.908 -32.769  1.00  0.00    -0.261 N 
ATOM      5  C   UNL     1      -3.598  -9.965 -33.251  1.00  0.00     0.174 C 
ATOM      6  C   UNL     1      -1.382  -8.764 -32.951  1.00  0.00     0.149 A 
ENDROOT
BRANCH   1   7
ATOM      7  N   UNL     1       0.150  -6.894 -32.595  1.00  0.00    -0.319 N 
ATOM      8  C   UNL     1       1.154  -7.028 -31.659  1.00  0.00     0.258 C 
ATOM      9  O   UNL     1       1.080  -7.721 -30.648  1.00  0.00    -0.269 OA
ATOM     10  H   UNL     1       0.295  -6.296 -33.402  1.00  0.00     0.170 HD
BRANCH   8  11
ATOM     11  C   UNL     1       2.361  -6.273 -31.959  1.00  0.00     0.078 A 
ATOM     12  N   UNL     1       4.039  -4.845 -32.009  1.00  0.00    -0.275 N 
ATOM     13  C   UNL     1       2.889  -5.151 -31.339  1.00  0.00     0.122 A 
ATOM     14  N   UNL     1       4.304  -5.681 -33.025  1.00  0.00    -0.181 NA
ATOM     15  C   UNL     1       3.289  -6.547 -32.992  1.00  0.00     0.149 A 
ATOM     16  C   UNL     1       4.946  -3.757 -31.730  1.00  0.00     0.173 C 
ENDBRANCH   8  11
ENDBRANCH   1   7
BRANCH   6  17
ATOM     17  C   UNL     1      -0.453  -9.700 -33.529  1.00  0.00     0.269 C 
ATOM     18  N   UNL     1      -0.110  -9.509 -34.837  1.00  0.00    -0.364 N 
ATOM     19  O   UNL     1      -0.031 -10.690 -32.936  1.00  0.00    -0.268 OA
ATOM     20  H   UNL     1      -0.745  -9.026 -35.457  1.00  0.00     0.160 HD
ATOM     21  H   UNL     1       0.398 -10.283 -35.248  1.00  0.00     0.160 HD
ENDBRANCH   6  17
TORSDOF 3
ENDMDL
