MODEL 1
REMARK VINA RESULT:    -7.514      0.000      0.000
REMARK INTER + INTRA:          -9.476
REMARK INTER:                  -8.612
REMARK INTRA:                  -0.864
REMARK UNBOUND:                -0.864
REMARK SMILES Cc1ccc(C2=C[C@H](c3cc(Cl)ccc3O)NN2)cc1
REMARK SMILES IDX 9 1 10 2 11 3 12 4 13 5 14 6 15 7 8 8 6 9 7 10 18 11 17 12
REMARK SMILES IDX 5 15 2 16 3 17 20 18 4 19 19 20 1 21 16 22
REMARK H PARENT 18 13 17 14 16 23
ROOT
ATOM      1  C   UNL     1      14.674 -22.906 -46.909  1.00  0.00     0.018 A 
ATOM      2  C   UNL     1      14.556 -21.703 -47.632  1.00  0.00     0.030 A 
ATOM      3  C   UNL     1      13.596 -21.565 -48.637  1.00  0.00     0.041 A 
ATOM      4  Cl  UNL     1      13.481 -20.082 -49.505  1.00  0.00    -0.084 Cl
ATOM      5  C   UNL     1      12.731 -22.611 -48.940  1.00  0.00     0.024 A 
ATOM      6  C   UNL     1      12.825 -23.805 -48.229  1.00  0.00     0.048 A 
ATOM      7  C   UNL     1      13.785 -23.947 -47.227  1.00  0.00     0.120 A 
ENDROOT
BRANCH   1   8
ATOM      8  C   UNL     1      15.707 -22.986 -45.802  1.00  0.00     0.133 C 
ATOM      9  C   UNL     1      15.259 -23.845 -43.710  1.00  0.00     0.054 C 
ATOM     10  C   UNL     1      15.122 -22.737 -44.445  1.00  0.00     0.026 C 
ATOM     11  N   UNL     1      15.838 -24.857 -44.446  1.00  0.00    -0.320 N 
ATOM     12  N   UNL     1      16.335 -24.350 -45.678  1.00  0.00    -0.225 NA
ATOM     13  H   UNL     1      16.350 -25.569 -43.924  1.00  0.00     0.181 HD
ATOM     14  H   UNL     1      17.346 -24.197 -45.603  1.00  0.00     0.148 HD
BRANCH   9  15
ATOM     15  C   UNL     1      14.865 -24.019 -42.313  1.00  0.00    -0.001 A 
ATOM     16  C   UNL     1      14.116 -24.351 -39.613  1.00  0.00    -0.051 A 
ATOM     17  C   UNL     1      15.457 -24.153 -39.957  1.00  0.00     0.004 A 
ATOM     18  C   UNL     1      13.150 -24.361 -40.624  1.00  0.00     0.004 A 
ATOM     19  C   UNL     1      15.829 -23.994 -41.297  1.00  0.00     0.010 A 
ATOM     20  C   UNL     1      13.522 -24.200 -41.962  1.00  0.00     0.010 A 
ATOM     21  C   UNL     1      13.714 -24.487 -38.173  1.00  0.00     0.044 C 
ENDBRANCH   9  15
ENDBRANCH   1   8
BRANCH   7  22
ATOM     22  O   UNL     1      13.805 -25.152 -46.581  1.00  0.00    -0.508 OA
ATOM     23  H   UNL     1      14.673 -25.221 -46.116  1.00  0.00     0.293 HD
ENDBRANCH   7  22
TORSDOF 3
ENDMDL
MODEL 2
REMARK VINA RESULT:    -7.463      3.133      7.173
REMARK INTER + INTRA:          -9.418
REMARK INTER:                  -8.538
REMARK INTRA:                  -0.880
REMARK UNBOUND:                -0.864
REMARK SMILES Cc1ccc(C2=C[C@H](c3cc(Cl)ccc3O)NN2)cc1
REMARK SMILES IDX 9 1 10 2 11 3 12 4 13 5 14 6 15 7 8 8 6 9 7 10 18 11 17 12
REMARK SMILES IDX 5 15 2 16 3 17 20 18 4 19 19 20 1 21 16 22
REMARK H PARENT 18 13 17 14 16 23
ROOT
ATOM      1  C   UNL     1      14.081 -24.721 -42.034  1.00  0.00     0.018 A 
ATOM      2  C   UNL     1      13.376 -24.555 -40.826  1.00  0.00     0.030 A 
ATOM      3  C   UNL     1      14.051 -24.280 -39.635  1.00  0.00     0.041 A 
ATOM      4  Cl  UNL     1      13.159 -24.088 -38.176  1.00  0.00    -0.084 Cl
ATOM      5  C   UNL     1      15.436 -24.154 -39.618  1.00  0.00     0.024 A 
ATOM      6  C   UNL     1      16.152 -24.304 -40.805  1.00  0.00     0.048 A 
ATOM      7  C   UNL     1      15.479 -24.583 -41.995  1.00  0.00     0.120 A 
ENDROOT
BRANCH   1   8
ATOM      8  C   UNL     1      13.293 -24.979 -43.303  1.00  0.00     0.133 C 
ATOM      9  C   UNL     1      13.686 -23.873 -45.286  1.00  0.00     0.054 C 
ATOM     10  C   UNL     1      13.070 -23.736 -44.108  1.00  0.00     0.026 C 
ATOM     11  N   UNL     1      14.360 -25.074 -45.354  1.00  0.00    -0.320 N 
ATOM     12  N   UNL     1      13.999 -25.906 -44.258  1.00  0.00    -0.225 NA
ATOM     13  H   UNL     1      14.510 -25.464 -46.285  1.00  0.00     0.181 HD
ATOM     14  H   UNL     1      13.302 -26.592 -44.563  1.00  0.00     0.148 HD
BRANCH   9  15
ATOM     15  C   UNL     1      13.683 -22.914 -46.389  1.00  0.00    -0.001 A 
ATOM     16  C   UNL     1      13.687 -21.066 -48.523  1.00  0.00    -0.051 A 
ATOM     17  C   UNL     1      14.804 -21.872 -48.281  1.00  0.00     0.004 A 
ATOM     18  C   UNL     1      12.561 -21.204 -47.704  1.00  0.00     0.004 A 
ATOM     19  C   UNL     1      14.804 -22.784 -47.220  1.00  0.00     0.010 A 
ATOM     20  C   UNL     1      12.561 -22.117 -46.645  1.00  0.00     0.010 A 
ATOM     21  C   UNL     1      13.674 -20.113 -49.682  1.00  0.00     0.044 C 
ENDBRANCH   9  15
ENDBRANCH   1   8
BRANCH   7  22
ATOM     22  O   UNL     1      16.261 -24.712 -43.109  1.00  0.00    -0.508 OA
ATOM     23  H   UNL     1      15.662 -24.674 -43.893  1.00  0.00     0.293 HD
ENDBRANCH   7  22
TORSDOF 3
ENDMDL
MODEL 3
REMARK VINA RESULT:    -7.320      4.391      8.675
REMARK INTER + INTRA:          -9.254
REMARK INTER:                  -8.556
REMARK INTRA:                  -0.698
REMARK UNBOUND:                -0.864
REMARK SMILES Cc1ccc(C2=C[C@H](c3cc(Cl)ccc3O)NN2)cc1
REMARK SMILES IDX 9 1 10 2 11 3 12 4 13 5 14 6 15 7 8 8 6 9 7 10 18 11 17 12
REMARK SMILES IDX 5 15 2 16 3 17 20 18 4 19 19 20 1 21 16 22
REMARK H PARENT 18 13 17 14 16 23
ROOT
ATOM      1  C   UNL     1      12.927 -22.612 -47.133  1.00  0.00     0.018 A 
ATOM      2  C   UNL     1      14.333 -22.570 -47.051  1.00  0.00     0.030 A 
ATOM      3  C   UNL     1      15.048 -23.631 -46.490  1.00  0.00     0.041 A 
ATOM      4  Cl  UNL     1      16.765 -23.545 -46.401  1.00  0.00    -0.084 Cl
ATOM      5  C   UNL     1      14.387 -24.756 -46.008  1.00  0.00     0.024 A 
ATOM      6  C   UNL     1      12.998 -24.821 -46.089  1.00  0.00     0.048 A 
ATOM      7  C   UNL     1      12.281 -23.762 -46.646  1.00  0.00     0.120 A 
ENDROOT
BRANCH   1   8
ATOM      8  C   UNL     1      12.206 -21.451 -47.787  1.00  0.00     0.133 C 
ATOM      9  C   UNL     1      12.822 -20.561 -49.823  1.00  0.00     0.054 C 
ATOM     10  C   UNL     1      13.134 -20.534 -48.523  1.00  0.00     0.026 C 
ATOM     11  N   UNL     1      11.797 -21.450 -50.065  1.00  0.00    -0.320 N 
ATOM     12  N   UNL     1      11.219 -21.886 -48.841  1.00  0.00    -0.225 NA
ATOM     13  H   UNL     1      11.218 -21.271 -50.886  1.00  0.00     0.181 HD
ATOM     14  H   UNL     1      10.357 -21.362 -48.662  1.00  0.00     0.148 HD
BRANCH   9  15
ATOM     15  C   UNL     1      13.448 -19.778 -50.887  1.00  0.00    -0.001 A 
ATOM     16  C   UNL     1      14.652 -18.274 -52.948  1.00  0.00    -0.051 A 
ATOM     17  C   UNL     1      14.164 -19.560 -53.201  1.00  0.00     0.004 A 
ATOM     18  C   UNL     1      14.516 -17.737 -51.664  1.00  0.00     0.004 A 
ATOM     19  C   UNL     1      13.572 -20.307 -52.177  1.00  0.00     0.010 A 
ATOM     20  C   UNL     1      13.923 -18.484 -50.642  1.00  0.00     0.010 A 
ATOM     21  C   UNL     1      15.256 -17.460 -54.055  1.00  0.00     0.044 C 
ENDBRANCH   9  15
ENDBRANCH   1   8
BRANCH   7  22
ATOM     22  O   UNL     1      10.923 -23.912 -46.686  1.00  0.00    -0.508 OA
ATOM     23  H   UNL     1      10.664 -23.985 -47.635  1.00  0.00     0.293 HD
ENDBRANCH   7  22
TORSDOF 3
ENDMDL
MODEL 4
REMARK VINA RESULT:    -7.086      3.075      7.130
REMARK INTER + INTRA:          -8.986
REMARK INTER:                  -8.341
REMARK INTRA:                  -0.645
REMARK UNBOUND:                -0.864
REMARK SMILES Cc1ccc(C2=C[C@H](c3cc(Cl)ccc3O)NN2)cc1
REMARK SMILES IDX 9 1 10 2 11 3 12 4 13 5 14 6 15 7 8 8 6 9 7 10 18 11 17 12
REMARK SMILES IDX 5 15 2 16 3 17 20 18 4 19 19 20 1 21 16 22
REMARK H PARENT 18 13 17 14 16 23
ROOT
ATOM      1  C   UNL     1      15.557 -24.188 -42.527  1.00  0.00     0.018 A 
ATOM      2  C   UNL     1      14.440 -25.041 -42.625  1.00  0.00     0.030 A 
ATOM      3  C   UNL     1      13.726 -25.416 -41.485  1.00  0.00     0.041 A 
ATOM      4  Cl  UNL     1      12.367 -26.462 -41.639  1.00  0.00    -0.084 Cl
ATOM      5  C   UNL     1      14.098 -24.949 -40.229  1.00  0.00     0.024 A 
ATOM      6  C   UNL     1      15.194 -24.097 -40.112  1.00  0.00     0.048 A 
ATOM      7  C   UNL     1      15.912 -23.724 -41.249  1.00  0.00     0.120 A 
ENDROOT
BRANCH   1   8
ATOM      8  C   UNL     1      16.271 -23.782 -43.801  1.00  0.00     0.133 C 
ATOM      9  C   UNL     1      15.258 -22.594 -45.497  1.00  0.00     0.054 C 
ATOM     10  C   UNL     1      15.379 -23.830 -45.004  1.00  0.00     0.026 C 
ATOM     11  N   UNL     1      15.941 -21.684 -44.719  1.00  0.00    -0.320 N 
ATOM     12  N   UNL     1      16.763 -22.358 -43.775  1.00  0.00    -0.225 NA
ATOM     13  H   UNL     1      16.260 -20.831 -45.182  1.00  0.00     0.181 HD
ATOM     14  H   UNL     1      17.729 -22.380 -44.114  1.00  0.00     0.148 HD
BRANCH   9  15
ATOM     15  C   UNL     1      14.515 -22.200 -46.693  1.00  0.00    -0.001 A 
ATOM     16  C   UNL     1      13.072 -21.438 -48.996  1.00  0.00    -0.051 A 
ATOM     17  C   UNL     1      12.424 -21.570 -47.764  1.00  0.00     0.004 A 
ATOM     18  C   UNL     1      14.450 -21.670 -49.065  1.00  0.00     0.004 A 
ATOM     19  C   UNL     1      13.138 -21.953 -46.624  1.00  0.00     0.010 A 
ATOM     20  C   UNL     1      15.164 -22.051 -47.925  1.00  0.00     0.010 A 
ATOM     21  C   UNL     1      12.312 -20.994 -50.211  1.00  0.00     0.044 C 
ENDBRANCH   9  15
ENDBRANCH   1   8
BRANCH   7  22
ATOM     22  O   UNL     1      16.971 -22.884 -41.041  1.00  0.00    -0.508 OA
ATOM     23  H   UNL     1      16.716 -22.265 -40.316  1.00  0.00     0.293 HD
ENDBRANCH   7  22
TORSDOF 3
ENDMDL
MODEL 5
REMARK VINA RESULT:    -6.925      6.085      8.769
REMARK INTER + INTRA:          -8.801
REMARK INTER:                  -8.284
REMARK INTRA:                  -0.517
REMARK UNBOUND:                -0.864
REMARK SMILES Cc1ccc(C2=C[C@H](c3cc(Cl)ccc3O)NN2)cc1
REMARK SMILES IDX 9 1 10 2 11 3 12 4 13 5 14 6 15 7 8 8 6 9 7 10 18 11 17 12
REMARK SMILES IDX 5 15 2 16 3 17 20 18 4 19 19 20 1 21 16 22
REMARK H PARENT 18 13 17 14 16 23
ROOT
ATOM      1  C   UNL     1      15.792 -18.582 -53.573  1.00  0.00     0.018 A 
ATOM      2  C   UNL     1      17.132 -19.003 -53.688  1.00  0.00     0.030 A 
ATOM      3  C   UNL     1      18.170 -18.073 -53.768  1.00  0.00     0.041 A 
ATOM      4  Cl  UNL     1      19.795 -18.622 -53.912  1.00  0.00    -0.084 Cl
ATOM      5  C   UNL     1      17.904 -16.708 -53.727  1.00  0.00     0.024 A 
ATOM      6  C   UNL     1      16.587 -16.271 -53.603  1.00  0.00     0.048 A 
ATOM      7  C   UNL     1      15.548 -17.198 -53.527  1.00  0.00     0.120 A 
ENDROOT
BRANCH   1   8
ATOM      8  C   UNL     1      14.710 -19.635 -53.450  1.00  0.00     0.133 C 
ATOM      9  C   UNL     1      13.749 -20.237 -51.443  1.00  0.00     0.054 C 
ATOM     10  C   UNL     1      14.833 -20.447 -52.197  1.00  0.00     0.026 C 
ATOM     11  N   UNL     1      12.910 -19.316 -52.032  1.00  0.00    -0.320 N 
ATOM     12  N   UNL     1      13.323 -19.051 -53.366  1.00  0.00    -0.225 NA
ATOM     13  H   UNL     1      11.920 -19.375 -51.788  1.00  0.00     0.181 HD
ATOM     14  H   UNL     1      12.744 -19.588 -54.018  1.00  0.00     0.148 HD
BRANCH   9  15
ATOM     15  C   UNL     1      13.444 -20.869 -50.160  1.00  0.00    -0.001 A 
ATOM     16  C   UNL     1      12.865 -22.086 -47.681  1.00  0.00    -0.051 A 
ATOM     17  C   UNL     1      14.186 -21.804 -48.041  1.00  0.00     0.004 A 
ATOM     18  C   UNL     1      11.833 -21.736 -48.558  1.00  0.00     0.004 A 
ATOM     19  C   UNL     1      14.473 -21.206 -49.273  1.00  0.00     0.010 A 
ATOM     20  C   UNL     1      12.121 -21.136 -49.788  1.00  0.00     0.010 A 
ATOM     21  C   UNL     1      12.555 -22.696 -46.345  1.00  0.00     0.044 C 
ENDBRANCH   9  15
ENDBRANCH   1   8
BRANCH   7  22
ATOM     22  O   UNL     1      14.288 -16.679 -53.405  1.00  0.00    -0.508 OA
ATOM     23  H   UNL     1      13.673 -17.293 -53.873  1.00  0.00     0.293 HD
ENDBRANCH   7  22
TORSDOF 3
ENDMDL
MODEL 6
REMARK VINA RESULT:    -6.811      1.859      2.124
REMARK INTER + INTRA:          -8.671
REMARK INTER:                  -8.250
REMARK INTRA:                  -0.421
REMARK UNBOUND:                -0.864
REMARK SMILES Cc1ccc(C2=C[C@H](c3cc(Cl)ccc3O)NN2)cc1
REMARK SMILES IDX 9 1 10 2 11 3 12 4 13 5 14 6 15 7 8 8 6 9 7 10 18 11 17 12
REMARK SMILES IDX 5 15 2 16 3 17 20 18 4 19 19 20 1 21 16 22
REMARK H PARENT 18 13 17 14 16 23
ROOT
ATOM      1  C   UNL     1      13.617 -22.978 -46.995  1.00  0.00     0.018 A 
ATOM      2  C   UNL     1      13.315 -24.214 -47.599  1.00  0.00     0.030 A 
ATOM      3  C   UNL     1      12.284 -24.321 -48.534  1.00  0.00     0.041 A 
ATOM      4  Cl  UNL     1      11.939 -25.848 -49.250  1.00  0.00    -0.084 Cl
ATOM      5  C   UNL     1      11.536 -23.205 -48.895  1.00  0.00     0.024 A 
ATOM      6  C   UNL     1      11.825 -21.971 -48.317  1.00  0.00     0.048 A 
ATOM      7  C   UNL     1      12.853 -21.862 -47.380  1.00  0.00     0.120 A 
ENDROOT
BRANCH   1   8
ATOM      8  C   UNL     1      14.773 -22.913 -46.017  1.00  0.00     0.133 C 
ATOM      9  C   UNL     1      14.693 -23.821 -43.900  1.00  0.00     0.054 C 
ATOM     10  C   UNL     1      14.321 -22.744 -44.598  1.00  0.00     0.026 C 
ATOM     11  N   UNL     1      15.316 -24.744 -44.712  1.00  0.00    -0.320 N 
ATOM     12  N   UNL     1      15.592 -24.177 -45.986  1.00  0.00    -0.225 NA
ATOM     13  H   UNL     1      15.979 -25.379 -44.263  1.00  0.00     0.181 HD
ATOM     14  H   UNL     1      16.574 -23.885 -46.027  1.00  0.00     0.148 HD
BRANCH   9  15
ATOM     15  C   UNL     1      14.493 -24.045 -42.469  1.00  0.00    -0.001 A 
ATOM     16  C   UNL     1      14.118 -24.474 -39.705  1.00  0.00    -0.051 A 
ATOM     17  C   UNL     1      15.398 -24.245 -40.220  1.00  0.00     0.004 A 
ATOM     18  C   UNL     1      13.025 -24.467 -40.578  1.00  0.00     0.004 A 
ATOM     19  C   UNL     1      15.584 -24.038 -41.591  1.00  0.00     0.010 A 
ATOM     20  C   UNL     1      13.212 -24.258 -41.948  1.00  0.00     0.010 A 
ATOM     21  C   UNL     1      13.915 -24.661 -38.230  1.00  0.00     0.044 C 
ENDBRANCH   9  15
ENDBRANCH   1   8
BRANCH   7  22
ATOM     22  O   UNL     1      13.067 -20.614 -46.866  1.00  0.00    -0.508 OA
ATOM     23  H   UNL     1      13.457 -20.730 -45.967  1.00  0.00     0.293 HD
ENDBRANCH   7  22
TORSDOF 3
ENDMDL
MODEL 7
REMARK VINA RESULT:    -6.798     23.231     24.697
REMARK INTER + INTRA:          -8.656
REMARK INTER:                  -7.970
REMARK INTRA:                  -0.686
REMARK UNBOUND:                -0.864
REMARK SMILES Cc1ccc(C2=C[C@H](c3cc(Cl)ccc3O)NN2)cc1
REMARK SMILES IDX 9 1 10 2 11 3 12 4 13 5 14 6 15 7 8 8 6 9 7 10 18 11 17 12
REMARK SMILES IDX 5 15 2 16 3 17 20 18 4 19 19 20 1 21 16 22
REMARK H PARENT 18 13 17 14 16 23
ROOT
ATOM      1  C   UNL     1      -0.365  -8.765 -33.721  1.00  0.00     0.018 A 
ATOM      2  C   UNL     1      -1.290  -7.776 -34.107  1.00  0.00     0.030 A 
ATOM      3  C   UNL     1      -2.644  -7.899 -33.788  1.00  0.00     0.041 A 
ATOM      4  Cl  UNL     1      -3.748  -6.673 -34.280  1.00  0.00    -0.084 Cl
ATOM      5  C   UNL     1      -3.107  -8.999 -33.075  1.00  0.00     0.024 A 
ATOM      6  C   UNL     1      -2.207  -9.984 -32.674  1.00  0.00     0.048 A 
ATOM      7  C   UNL     1      -0.854  -9.865 -32.994  1.00  0.00     0.120 A 
ENDROOT
BRANCH   1   8
ATOM      8  C   UNL     1       1.098  -8.560 -34.059  1.00  0.00     0.133 C 
ATOM      9  C   UNL     1       2.322  -6.744 -33.340  1.00  0.00     0.054 C 
ATOM     10  C   UNL     1       1.445  -7.119 -34.276  1.00  0.00     0.026 C 
ATOM     11  N   UNL     1       2.578  -7.776 -32.462  1.00  0.00    -0.320 N 
ATOM     12  N   UNL     1       2.027  -8.991 -32.953  1.00  0.00    -0.225 NA
ATOM     13  H   UNL     1       3.481  -7.761 -31.987  1.00  0.00     0.181 HD
ATOM     14  H   UNL     1       2.763  -9.549 -33.395  1.00  0.00     0.148 HD
BRANCH   9  15
ATOM     15  C   UNL     1       2.956  -5.433 -33.214  1.00  0.00    -0.001 A 
ATOM     16  C   UNL     1       4.170  -2.896 -32.973  1.00  0.00    -0.051 A 
ATOM     17  C   UNL     1       2.870  -3.016 -33.476  1.00  0.00     0.004 A 
ATOM     18  C   UNL     1       4.850  -4.050 -32.572  1.00  0.00     0.004 A 
ATOM     19  C   UNL     1       2.271  -4.274 -33.601  1.00  0.00     0.010 A 
ATOM     20  C   UNL     1       4.250  -5.307 -32.695  1.00  0.00     0.010 A 
ATOM     21  C   UNL     1       4.798  -1.544 -32.808  1.00  0.00     0.044 C 
ENDBRANCH   9  15
ENDBRANCH   1   8
BRANCH   7  22
ATOM     22  O   UNL     1      -0.044 -10.877 -32.560  1.00  0.00    -0.508 OA
ATOM     23  H   UNL     1       0.885 -10.621 -32.774  1.00  0.00     0.293 HD
ENDBRANCH   7  22
TORSDOF 3
ENDMDL
MODEL 8
REMARK VINA RESULT:    -6.703      2.230      2.878
REMARK INTER + INTRA:          -8.547
REMARK INTER:                  -7.839
REMARK INTRA:                  -0.708
REMARK UNBOUND:                -0.864
REMARK SMILES Cc1ccc(C2=C[C@H](c3cc(Cl)ccc3O)NN2)cc1
REMARK SMILES IDX 9 1 10 2 11 3 12 4 13 5 14 6 15 7 8 8 6 9 7 10 18 11 17 12
REMARK SMILES IDX 5 15 2 16 3 17 20 18 4 19 19 20 1 21 16 22
REMARK H PARENT 18 13 17 14 16 23
ROOT
ATOM      1  C   UNL     1      12.216 -23.761 -47.350  1.00  0.00     0.018 A 
ATOM      2  C   UNL     1      13.494 -23.229 -47.608  1.00  0.00     0.030 A 
ATOM      3  C   UNL     1      13.677 -22.251 -48.589  1.00  0.00     0.041 A 
ATOM      4  Cl  UNL     1      15.253 -21.625 -48.882  1.00  0.00    -0.084 Cl
ATOM      5  C   UNL     1      12.598 -21.776 -49.327  1.00  0.00     0.024 A 
ATOM      6  C   UNL     1      11.323 -22.283 -49.080  1.00  0.00     0.048 A 
ATOM      7  C   UNL     1      11.139 -23.262 -48.103  1.00  0.00     0.120 A 
ENDROOT
BRANCH   1   8
ATOM      8  C   UNL     1      12.069 -24.791 -46.248  1.00  0.00     0.133 C 
ATOM      9  C   UNL     1      12.866 -24.477 -44.107  1.00  0.00     0.054 C 
ATOM     10  C   UNL     1      13.257 -24.833 -45.335  1.00  0.00     0.026 C 
ATOM     11  N   UNL     1      11.529 -24.142 -44.093  1.00  0.00    -0.320 N 
ATOM     12  N   UNL     1      10.914 -24.507 -45.323  1.00  0.00    -0.225 NA
ATOM     13  H   UNL     1      11.037 -24.252 -43.206  1.00  0.00     0.181 HD
ATOM     14  H   UNL     1      10.413 -25.392 -45.207  1.00  0.00     0.148 HD
BRANCH   9  15
ATOM     15  C   UNL     1      13.698 -24.430 -42.907  1.00  0.00    -0.001 A 
ATOM     16  C   UNL     1      15.296 -24.343 -40.582  1.00  0.00    -0.051 A 
ATOM     17  C   UNL     1      13.914 -24.532 -40.486  1.00  0.00     0.004 A 
ATOM     18  C   UNL     1      15.877 -24.218 -41.848  1.00  0.00     0.004 A 
ATOM     19  C   UNL     1      13.121 -24.570 -41.638  1.00  0.00     0.010 A 
ATOM     20  C   UNL     1      15.084 -24.257 -42.999  1.00  0.00     0.010 A 
ATOM     21  C   UNL     1      16.150 -24.337 -39.348  1.00  0.00     0.044 C 
ENDBRANCH   9  15
ENDBRANCH   1   8
BRANCH   7  22
ATOM     22  O   UNL     1       9.855 -23.700 -47.928  1.00  0.00    -0.508 OA
ATOM     23  H   UNL     1       9.894 -24.493 -47.342  1.00  0.00     0.293 HD
ENDBRANCH   7  22
TORSDOF 3
ENDMDL
MODEL 9
REMARK VINA RESULT:    -6.593     23.543     25.087
REMARK INTER + INTRA:          -8.421
REMARK INTER:                  -7.733
REMARK INTRA:                  -0.688
REMARK UNBOUND:                -0.864
REMARK SMILES Cc1ccc(C2=C[C@H](c3cc(Cl)ccc3O)NN2)cc1
REMARK SMILES IDX 9 1 10 2 11 3 12 4 13 5 14 6 15 7 8 8 6 9 7 10 18 11 17 12
REMARK SMILES IDX 5 15 2 16 3 17 20 18 4 19 19 20 1 21 16 22
REMARK H PARENT 18 13 17 14 16 23
ROOT
ATOM      1  C   UNL     1       0.098  -7.823 -33.467  1.00  0.00     0.018 A 
ATOM      2  C   UNL     1      -0.374  -7.481 -32.185  1.00  0.00     0.030 A 
ATOM      3  C   UNL     1      -1.071  -8.409 -31.409  1.00  0.00     0.041 A 
ATOM      4  Cl  UNL     1      -1.639  -7.958 -29.848  1.00  0.00    -0.084 Cl
ATOM      5  C   UNL     1      -1.307  -9.695 -31.883  1.00  0.00     0.024 A 
ATOM      6  C   UNL     1      -0.839 -10.056 -33.145  1.00  0.00     0.048 A 
ATOM      7  C   UNL     1      -0.146  -9.129 -33.924  1.00  0.00     0.120 A 
ENDROOT
BRANCH   1   8
ATOM      8  C   UNL     1       0.883  -6.788 -34.249  1.00  0.00     0.133 C 
ATOM      9  C   UNL     1       2.546  -5.491 -33.319  1.00  0.00     0.054 C 
ATOM     10  C   UNL     1       1.217  -5.577 -33.432  1.00  0.00     0.026 C 
ATOM     11  N   UNL     1       3.164  -6.556 -33.938  1.00  0.00    -0.320 N 
ATOM     12  N   UNL     1       2.225  -7.291 -34.713  1.00  0.00    -0.225 NA
ATOM     13  H   UNL     1       4.118  -6.405 -34.269  1.00  0.00     0.181 HD
ATOM     14  H   UNL     1       2.309  -7.023 -35.698  1.00  0.00     0.148 HD
BRANCH   9  15
ATOM     15  C   UNL     1       3.297  -4.434 -32.643  1.00  0.00    -0.001 A 
ATOM     16  C   UNL     1       4.749  -2.403 -31.328  1.00  0.00    -0.051 A 
ATOM     17  C   UNL     1       4.425  -3.588 -30.661  1.00  0.00     0.004 A 
ATOM     18  C   UNL     1       4.360  -2.248 -32.663  1.00  0.00     0.004 A 
ATOM     19  C   UNL     1       3.700  -4.593 -31.311  1.00  0.00     0.010 A 
ATOM     20  C   UNL     1       3.638  -3.253 -33.313  1.00  0.00     0.010 A 
ATOM     21  C   UNL     1       5.556  -1.340 -30.641  1.00  0.00     0.044 C 
ENDBRANCH   9  15
ENDBRANCH   1   8
BRANCH   7  22
ATOM     22  O   UNL     1       0.277  -9.570 -35.147  1.00  0.00    -0.508 OA
ATOM     23  H   UNL     1       1.036  -9.001 -35.417  1.00  0.00     0.293 HD
ENDBRANCH   7  22
TORSDOF 3
ENDMDL
