REMARK SMILES CCc1ccc(Nc2nc(N)nc(CN3CC[NH+](C)CC3)n2)cc1
REMARK SMILES IDX 8 1 9 2 10 3 12 4 13 5 22 6 7 7 6 9 3 10 4 11 24 12 5 13
REMARK SMILES IDX 23 14 2 15 1 16 11 17 14 20 15 21 16 22 21 23 17 24 20 25
REMARK SMILES IDX 18 26 19 27
REMARK H PARENT 7 8 11 18 11 19 18 28
ROOT
ATOM      1  C   UNL     1       2.345  -0.226   0.716  1.00  0.00     0.232 A 
ATOM      2  N   UNL     1       3.581  -0.355   0.240  1.00  0.00    -0.177 NA
ATOM      3  C   UNL     1       3.941   0.508  -0.696  1.00  0.00     0.225 A 
ATOM      4  N   UNL     1       3.176   1.473  -1.176  1.00  0.00    -0.197 NA
ATOM      5  C   UNL     1       1.958   1.536  -0.639  1.00  0.00     0.150 A 
ATOM      6  N   UNL     1       1.496   0.704   0.295  1.00  0.00    -0.196 NA
ENDROOT
BRANCH   1   7
ATOM      7  N   UNL     1       1.977  -1.171   1.670  1.00  0.00    -0.324 N 
ATOM      8  H   UNL     1       2.755  -1.793   1.845  1.00  0.00     0.170 HD
BRANCH   7   9
ATOM      9  C   UNL     1       0.848  -1.349   2.478  1.00  0.00     0.041 A 
ATOM     10  C   UNL     1      -1.418  -1.868   4.109  1.00  0.00    -0.048 A 
ATOM     11  C   UNL     1      -1.338  -0.701   3.345  1.00  0.00     0.006 A 
ATOM     12  C   UNL     1      -0.358  -2.777   4.055  1.00  0.00     0.006 A 
ATOM     13  C   UNL     1      -0.222  -0.452   2.535  1.00  0.00     0.026 A 
ATOM     14  C   UNL     1       0.754  -2.520   3.246  1.00  0.00     0.026 A 
BRANCH  10  15
ATOM     15  C   UNL     1      -2.606  -2.126   4.999  1.00  0.00     0.032 C 
ATOM     16  C   UNL     1      -2.403  -1.553   6.393  1.00  0.00     0.009 C 
ENDBRANCH  10  15
ENDBRANCH   7   9
ENDBRANCH   1   7
BRANCH   3  17
ATOM     17  N   UNL     1       5.215   0.395  -1.210  1.00  0.00    -0.368 N 
ATOM     18  H   UNL     1       5.821  -0.090  -0.562  1.00  0.00     0.159 HD
ATOM     19  H   UNL     1       5.547   1.282  -1.562  1.00  0.00     0.159 HD
ENDBRANCH   3  17
BRANCH   5  20
ATOM     20  C   UNL     1       0.984   2.549  -1.221  1.00  0.00     0.162 C 
BRANCH  20  21
ATOM     21  N   UNL     1      -0.073   1.945  -2.077  1.00  0.00    -0.285 NA
ATOM     22  C   UNL     1      -1.090   2.946  -2.447  1.00  0.00     0.146 C 
ATOM     23  C   UNL     1       0.504   1.326  -3.295  1.00  0.00     0.146 C 
ATOM     24  C   UNL     1      -2.259   2.317  -3.246  1.00  0.00     0.277 C 
ATOM     25  C   UNL     1      -0.581   0.752  -4.240  1.00  0.00     0.277 C 
ATOM     26  N   UNL     1      -1.937   0.868  -3.569  1.00  0.00    -0.335 N 
ATOM     27  C   UNL     1      -3.028   0.154  -4.286  1.00  0.00     0.332 C 
ATOM     28  H   UNL     1      -1.796   0.430  -2.644  1.00  0.00     0.347 HD
ENDBRANCH  20  21
ENDBRANCH   5  20
TORSDOF 6
