REMARK SMILES COC(=O)Nc1ccc(S(=O)(=O)Nc2cc(C(C)C)c(O)cc2C)cc1
REMARK SMILES IDX 10 1 11 2 12 3 9 4 6 5 7 6 26 7 8 8 25 9 5 10 3 11 4 12 2 14
REMARK SMILES IDX 1 15 13 16 14 18 15 19 23 20 16 21 22 22 20 23 24 24 17 25
REMARK SMILES IDX 18 26 19 27 21 28
REMARK H PARENT 5 13 13 17 21 29
ROOT
ATOM      1  S   UNL     1       3.189   0.075  -1.334  1.00  0.00     0.261 S 
ATOM      2  O   UNL     1       2.996   1.014  -2.418  1.00  0.00    -0.201 OA
ATOM      3  O   UNL     1       4.512  -0.197  -0.811  1.00  0.00    -0.201 OA
ENDROOT
BRANCH   1   4
ATOM      4  C   UNL     1       2.173   0.594   0.031  1.00  0.00     0.087 A 
ATOM      5  C   UNL     1       0.596   1.450   2.182  1.00  0.00     0.044 A 
ATOM      6  C   UNL     1       0.251   1.795   0.873  1.00  0.00     0.027 A 
ATOM      7  C   UNL     1       1.750   0.684   2.405  1.00  0.00     0.027 A 
ATOM      8  C   UNL     1       1.042   1.377  -0.203  1.00  0.00     0.024 A 
ATOM      9  C   UNL     1       2.543   0.259   1.335  1.00  0.00     0.024 A 
BRANCH   5  10
ATOM     10  N   UNL     1      -0.147   1.832   3.311  1.00  0.00    -0.291 N 
ATOM     11  C   UNL     1      -1.299   2.564   3.363  1.00  0.00     0.411 C 
ATOM     12  O   UNL     1      -1.933   3.041   2.435  1.00  0.00    -0.224 OA
ATOM     13  H   UNL     1       0.184   1.547   4.221  1.00  0.00     0.173 HD
BRANCH  11  14
ATOM     14  O   UNL     1      -1.655   2.689   4.671  1.00  0.00    -0.453 OA
ATOM     15  C   UNL     1      -2.853   3.439   4.880  1.00  0.00     0.284 C 
ENDBRANCH  11  14
ENDBRANCH   5  10
ENDBRANCH   1   4
BRANCH   1  16
ATOM     16  N   UNL     1       2.545  -1.427  -1.757  1.00  0.00    -0.279 N 
ATOM     17  H   UNL     1       3.020  -2.196  -1.290  1.00  0.00     0.180 HD
BRANCH  16  18
ATOM     18  C   UNL     1       1.152  -1.556  -2.034  1.00  0.00     0.052 A 
ATOM     19  C   UNL     1       0.594  -0.850  -3.108  1.00  0.00     0.034 A 
ATOM     20  C   UNL     1       0.344  -2.368  -1.227  1.00  0.00    -0.023 A 
ATOM     21  C   UNL     1      -0.781  -0.908  -3.399  1.00  0.00    -0.002 A 
ATOM     22  C   UNL     1      -1.029  -2.419  -1.500  1.00  0.00     0.052 A 
ATOM     23  C   UNL     1      -1.581  -1.685  -2.552  1.00  0.00     0.119 A 
ATOM     24  C   UNL     1       0.893  -3.168  -0.081  1.00  0.00     0.047 C 
BRANCH  21  25
ATOM     25  C   UNL     1      -1.356  -0.131  -4.574  1.00  0.00     0.017 C 
ATOM     26  C   UNL     1      -0.472  -0.148  -5.828  1.00  0.00     0.012 C 
ATOM     27  C   UNL     1      -1.659   1.309  -4.155  1.00  0.00     0.012 C 
ENDBRANCH  21  25
BRANCH  23  28
ATOM     28  O   UNL     1      -2.937  -1.782  -2.681  1.00  0.00    -0.508 OA
ATOM     29  H   UNL     1      -3.266  -1.015  -3.176  1.00  0.00     0.293 HD
ENDBRANCH  23  28
ENDBRANCH  16  18
ENDBRANCH   1  16
TORSDOF 7
