REMARK SMILES Cc1ccc(-c2[nH]nc3c2C(=O)c2c(NC(N)=O)cccc2-3)s1
REMARK SMILES IDX 6 1 7 2 8 3 9 4 10 5 11 6 12 7 13 8 14 9 19 10 20 11 21 12
REMARK SMILES IDX 22 13 5 15 2 16 3 17 23 18 4 19 1 20 15 21 16 22 17 23 18 24
REMARK H PARENT 7 14 15 25 17 26 17 27
ROOT
ATOM      1  C   UNL     1      -1.161  -1.475   1.947  1.00  0.00     0.087 A 
ATOM      2  N   UNL     1      -0.785  -2.193   3.074  1.00  0.00    -0.276 N 
ATOM      3  N   UNL     1       0.449  -1.887   3.562  1.00  0.00    -0.174 NA
ATOM      4  C   UNL     1       0.850  -0.952   2.716  1.00  0.00     0.105 A 
ATOM      5  C   UNL     1      -0.085  -0.661   1.714  1.00  0.00     0.077 A 
ATOM      6  C   UNL     1       0.436   0.354   0.836  1.00  0.00     0.200 C 
ATOM      7  O   UNL     1      -0.060   0.870  -0.150  1.00  0.00    -0.288 OA
ATOM      8  C   UNL     1       1.792   0.668   1.400  1.00  0.00     0.056 A 
ATOM      9  C   UNL     1       2.729   1.580   0.944  1.00  0.00     0.054 A 
ATOM     10  C   UNL     1       3.915   1.667   1.683  1.00  0.00     0.027 A 
ATOM     11  C   UNL     1       4.136   0.859   2.826  1.00  0.00     0.003 A 
ATOM     12  C   UNL     1       3.180  -0.060   3.269  1.00  0.00     0.011 A 
ATOM     13  C   UNL     1       2.015  -0.140   2.544  1.00  0.00     0.016 A 
ATOM     14  H   UNL     1      -1.331  -2.892   3.565  1.00  0.00     0.190 HD
ENDROOT
BRANCH   1  15
ATOM     15  C   UNL     1      -2.424  -1.651   1.295  1.00  0.00     0.053 A 
ATOM     16  C   UNL     1      -4.514  -1.353  -0.004  1.00  0.00     0.002 A 
ATOM     17  C   UNL     1      -4.433  -2.603   0.570  1.00  0.00     0.016 A 
ATOM     18  S   UNL     1      -3.142  -0.404   0.366  1.00  0.00    -0.139 S 
ATOM     19  C   UNL     1      -3.231  -2.773   1.319  1.00  0.00     0.022 A 
ATOM     20  C   UNL     1      -5.597  -0.790  -0.858  1.00  0.00     0.056 C 
ENDBRANCH   1  15
BRANCH   9  21
ATOM     21  N   UNL     1       2.437   2.348  -0.201  1.00  0.00    -0.307 N 
ATOM     22  C   UNL     1       3.248   3.247  -0.834  1.00  0.00     0.316 C 
ATOM     23  N   UNL     1       2.628   3.829  -1.900  1.00  0.00    -0.351 N 
ATOM     24  O   UNL     1       4.400   3.548  -0.559  1.00  0.00    -0.249 OA
ATOM     25  H   UNL     1       1.554   2.148  -0.664  1.00  0.00     0.171 HD
ATOM     26  H   UNL     1       1.643   4.035  -1.808  1.00  0.00     0.161 HD
ATOM     27  H   UNL     1       3.175   4.576  -2.311  1.00  0.00     0.161 HD
ENDBRANCH   9  21
TORSDOF 2
