MODEL 1
REMARK VINA RESULT:    -7.824      0.000      0.000
REMARK INTER + INTRA:         -13.800
REMARK INTER:                 -11.941
REMARK INTRA:                  -1.858
REMARK UNBOUND:                -1.858
REMARK SMILES CCCCCCn1nc(C(=O)NCc2cccc(C(N)=O)c2)c2ccccc2c1=O
REMARK SMILES IDX 7 1 8 2 9 3 23 4 24 5 25 6 26 7 27 8 28 9 29 10 30 11 6 12
REMARK SMILES IDX 5 13 4 14 3 15 2 16 1 17 10 18 11 19 12 20 13 22 14 23 15 24
REMARK SMILES IDX 22 25 16 26 18 27 17 28 19 29 20 30 21 31
REMARK H PARENT 12 21 20 32 20 33
ROOT
ATOM      1  N   UNL     1      15.874 -23.077 -44.078  1.00  0.00    -0.229 N 
ATOM      2  N   UNL     1      14.630 -23.399 -44.559  1.00  0.00    -0.164 NA
ATOM      3  C   UNL     1      13.740 -23.884 -43.743  1.00  0.00     0.156 C 
ATOM      4  C   UNL     1      13.986 -24.127 -42.314  1.00  0.00     0.020 A 
ATOM      5  C   UNL     1      13.025 -24.647 -41.439  1.00  0.00     0.011 A 
ATOM      6  C   UNL     1      13.337 -24.836 -40.090  1.00  0.00     0.001 A 
ATOM      7  C   UNL     1      14.602 -24.502 -39.609  1.00  0.00     0.001 A 
ATOM      8  C   UNL     1      15.557 -23.976 -40.476  1.00  0.00     0.014 A 
ATOM      9  C   UNL     1      15.246 -23.787 -41.830  1.00  0.00     0.051 A 
ATOM     10  C   UNL     1      16.252 -23.209 -42.743  1.00  0.00     0.274 C 
ATOM     11  O   UNL     1      17.347 -22.869 -42.301  1.00  0.00    -0.267 OA
ENDROOT
BRANCH   1  12
ATOM     12  C   UNL     1      16.786 -22.460 -45.035  1.00  0.00     0.148 C 
BRANCH  12  13
ATOM     13  C   UNL     1      16.567 -22.949 -46.471  1.00  0.00     0.024 C 
BRANCH  13  14
ATOM     14  C   UNL     1      15.706 -21.993 -47.304  1.00  0.00     0.002 C 
BRANCH  14  15
ATOM     15  C   UNL     1      14.565 -22.726 -48.011  1.00  0.00    -0.000 C 
BRANCH  15  16
ATOM     16  C   UNL     1      13.428 -21.765 -48.360  1.00  0.00    -0.003 C 
ATOM     17  C   UNL     1      12.331 -21.791 -47.309  1.00  0.00     0.004 C 
ENDBRANCH  15  16
ENDBRANCH  14  15
ENDBRANCH  13  14
ENDBRANCH  12  13
ENDBRANCH   1  12
BRANCH   3  18
ATOM     18  C   UNL     1      12.366 -24.130 -44.363  1.00  0.00     0.272 C 
ATOM     19  O   UNL     1      11.414 -23.408 -44.120  1.00  0.00    -0.267 OA
ATOM     20  N   UNL     1      12.354 -25.241 -45.171  1.00  0.00    -0.347 N 
ATOM     21  H   UNL     1      13.147 -25.868 -45.061  1.00  0.00     0.164 HD
BRANCH  20  22
ATOM     22  C   UNL     1      11.130 -25.766 -45.714  1.00  0.00     0.152 C 
BRANCH  22  23
ATOM     23  C   UNL     1      10.981 -25.348 -47.152  1.00  0.00    -0.028 A 
ATOM     24  C   UNL     1      12.050 -25.474 -48.050  1.00  0.00     0.005 A 
ATOM     25  C   UNL     1       9.782 -24.772 -47.601  1.00  0.00     0.019 A 
ATOM     26  C   UNL     1      11.915 -25.054 -49.374  1.00  0.00     0.001 A 
ATOM     27  C   UNL     1       9.649 -24.333 -48.925  1.00  0.00     0.039 A 
ATOM     28  C   UNL     1      10.719 -24.489 -49.815  1.00  0.00     0.014 A 
BRANCH  27  29
ATOM     29  C   UNL     1       8.355 -23.725 -49.338  1.00  0.00     0.248 C 
ATOM     30  N   UNL     1       8.350 -22.946 -50.461  1.00  0.00    -0.366 N 
ATOM     31  O   UNL     1       7.334 -23.881 -48.681  1.00  0.00    -0.270 OA
ATOM     32  H   UNL     1       7.489 -22.444 -50.642  1.00  0.00     0.159 HD
ATOM     33  H   UNL     1       9.197 -22.566 -50.856  1.00  0.00     0.159 HD
ENDBRANCH  27  29
ENDBRANCH  22  23
ENDBRANCH  20  22
ENDBRANCH   3  18
TORSDOF 9
ENDMDL
MODEL 2
REMARK VINA RESULT:    -7.663      3.355      7.680
REMARK INTER + INTRA:         -13.553
REMARK INTER:                 -12.671
REMARK INTRA:                  -0.883
REMARK UNBOUND:                -1.858
REMARK SMILES CCCCCCn1nc(C(=O)NCc2cccc(C(N)=O)c2)c2ccccc2c1=O
REMARK SMILES IDX 7 1 8 2 9 3 23 4 24 5 25 6 26 7 27 8 28 9 29 10 30 11 6 12
REMARK SMILES IDX 5 13 4 14 3 15 2 16 1 17 10 18 11 19 12 20 13 22 14 23 15 24
REMARK SMILES IDX 22 25 16 26 18 27 17 28 19 29 20 30 21 31
REMARK H PARENT 12 21 20 32 20 33
ROOT
ATOM      1  N   UNL     1      12.968 -21.039 -49.092  1.00  0.00    -0.229 N 
ATOM      2  N   UNL     1      13.882 -21.456 -48.157  1.00  0.00    -0.164 NA
ATOM      3  C   UNL     1      13.588 -22.467 -47.391  1.00  0.00     0.156 C 
ATOM      4  C   UNL     1      12.315 -23.197 -47.452  1.00  0.00     0.020 A 
ATOM      5  C   UNL     1      12.005 -24.285 -46.627  1.00  0.00     0.011 A 
ATOM      6  C   UNL     1      10.773 -24.933 -46.758  1.00  0.00     0.001 A 
ATOM      7  C   UNL     1       9.853 -24.505 -47.713  1.00  0.00     0.001 A 
ATOM      8  C   UNL     1      10.163 -23.427 -48.542  1.00  0.00     0.014 A 
ATOM      9  C   UNL     1      11.397 -22.776 -48.410  1.00  0.00     0.051 A 
ATOM     10  C   UNL     1      11.734 -21.649 -49.303  1.00  0.00     0.274 C 
ATOM     11  O   UNL     1      10.939 -21.310 -50.176  1.00  0.00    -0.267 OA
ENDROOT
BRANCH   1  12
ATOM     12  C   UNL     1      13.405 -19.957 -49.969  1.00  0.00     0.148 C 
BRANCH  12  13
ATOM     13  C   UNL     1      13.779 -20.440 -51.375  1.00  0.00     0.024 C 
BRANCH  13  14
ATOM     14  C   UNL     1      13.700 -19.331 -52.429  1.00  0.00     0.002 C 
BRANCH  14  15
ATOM     15  C   UNL     1      14.436 -18.067 -51.979  1.00  0.00    -0.000 C 
BRANCH  15  16
ATOM     16  C   UNL     1      14.765 -17.169 -53.172  1.00  0.00    -0.003 C 
ATOM     17  C   UNL     1      16.191 -16.651 -53.106  1.00  0.00     0.004 C 
ENDBRANCH  15  16
ENDBRANCH  14  15
ENDBRANCH  13  14
ENDBRANCH  12  13
ENDBRANCH   1  12
BRANCH   3  18
ATOM     18  C   UNL     1      14.707 -22.900 -46.445  1.00  0.00     0.272 C 
ATOM     19  O   UNL     1      15.570 -23.688 -46.791  1.00  0.00    -0.267 OA
ATOM     20  N   UNL     1      14.586 -22.324 -45.203  1.00  0.00    -0.347 N 
ATOM     21  H   UNL     1      13.682 -21.905 -45.004  1.00  0.00     0.164 HD
BRANCH  20  22
ATOM     22  C   UNL     1      15.419 -22.726 -44.101  1.00  0.00     0.152 C 
BRANCH  22  23
ATOM     23  C   UNL     1      14.607 -23.490 -43.091  1.00  0.00    -0.028 A 
ATOM     24  C   UNL     1      13.302 -23.904 -43.385  1.00  0.00     0.005 A 
ATOM     25  C   UNL     1      15.131 -23.749 -41.814  1.00  0.00     0.019 A 
ATOM     26  C   UNL     1      12.543 -24.584 -42.431  1.00  0.00     0.001 A 
ATOM     27  C   UNL     1      14.365 -24.416 -40.848  1.00  0.00     0.039 A 
ATOM     28  C   UNL     1      13.071 -24.844 -41.166  1.00  0.00     0.014 A 
BRANCH  27  29
ATOM     29  C   UNL     1      14.974 -24.654 -39.511  1.00  0.00     0.248 C 
ATOM     30  N   UNL     1      16.123 -23.979 -39.207  1.00  0.00    -0.366 N 
ATOM     31  O   UNL     1      14.491 -25.453 -38.718  1.00  0.00    -0.270 OA
ATOM     32  H   UNL     1      16.581 -24.257 -38.347  1.00  0.00     0.159 HD
ATOM     33  H   UNL     1      16.696 -23.546 -39.915  1.00  0.00     0.159 HD
ENDBRANCH  27  29
ENDBRANCH  22  23
ENDBRANCH  20  22
ENDBRANCH   3  18
TORSDOF 9
ENDMDL
MODEL 3
REMARK VINA RESULT:    -7.527      4.992      7.889
REMARK INTER + INTRA:         -13.346
REMARK INTER:                 -12.485
REMARK INTRA:                  -0.860
REMARK UNBOUND:                -1.858
REMARK SMILES CCCCCCn1nc(C(=O)NCc2cccc(C(N)=O)c2)c2ccccc2c1=O
REMARK SMILES IDX 7 1 8 2 9 3 23 4 24 5 25 6 26 7 27 8 28 9 29 10 30 11 6 12
REMARK SMILES IDX 5 13 4 14 3 15 2 16 1 17 10 18 11 19 12 20 13 22 14 23 15 24
REMARK SMILES IDX 22 25 16 26 18 27 17 28 19 29 20 30 21 31
REMARK H PARENT 12 21 20 32 20 33
ROOT
ATOM      1  N   UNL     1      14.958 -22.981 -47.248  1.00  0.00    -0.229 N 
ATOM      2  N   UNL     1      14.733 -21.844 -47.981  1.00  0.00    -0.164 NA
ATOM      3  C   UNL     1      13.569 -21.666 -48.535  1.00  0.00     0.156 C 
ATOM      4  C   UNL     1      12.461 -22.626 -48.437  1.00  0.00     0.020 A 
ATOM      5  C   UNL     1      11.209 -22.431 -49.033  1.00  0.00     0.011 A 
ATOM      6  C   UNL     1      10.204 -23.390 -48.881  1.00  0.00     0.001 A 
ATOM      7  C   UNL     1      10.440 -24.540 -48.130  1.00  0.00     0.001 A 
ATOM      8  C   UNL     1      11.683 -24.734 -47.528  1.00  0.00     0.014 A 
ATOM      9  C   UNL     1      12.692 -23.773 -47.682  1.00  0.00     0.051 A 
ATOM     10  C   UNL     1      14.000 -23.968 -47.026  1.00  0.00     0.274 C 
ATOM     11  O   UNL     1      14.184 -24.960 -46.324  1.00  0.00    -0.267 OA
ENDROOT
BRANCH   1  12
ATOM     12  C   UNL     1      16.257 -23.066 -46.589  1.00  0.00     0.148 C 
BRANCH  12  13
ATOM     13  C   UNL     1      16.391 -22.102 -45.404  1.00  0.00     0.024 C 
BRANCH  13  14
ATOM     14  C   UNL     1      16.698 -22.816 -44.084  1.00  0.00     0.002 C 
BRANCH  14  15
ATOM     15  C   UNL     1      18.193 -23.101 -43.927  1.00  0.00    -0.000 C 
BRANCH  15  16
ATOM     16  C   UNL     1      19.033 -21.996 -44.566  1.00  0.00    -0.003 C 
ATOM     17  C   UNL     1      20.471 -22.033 -44.078  1.00  0.00     0.004 C 
ENDBRANCH  15  16
ENDBRANCH  14  15
ENDBRANCH  13  14
ENDBRANCH  12  13
ENDBRANCH   1  12
BRANCH   3  18
ATOM     18  C   UNL     1      13.399 -20.331 -49.257  1.00  0.00     0.272 C 
ATOM     19  O   UNL     1      13.049 -19.323 -48.668  1.00  0.00    -0.267 OA
ATOM     20  N   UNL     1      13.656 -20.434 -50.603  1.00  0.00    -0.347 N 
ATOM     21  H   UNL     1      13.680 -21.381 -50.971  1.00  0.00     0.164 HD
BRANCH  20  22
ATOM     22  C   UNL     1      13.385 -19.349 -51.508  1.00  0.00     0.152 C 
BRANCH  22  23
ATOM     23  C   UNL     1      14.593 -19.073 -52.361  1.00  0.00    -0.028 A 
ATOM     24  C   UNL     1      15.015 -19.995 -53.329  1.00  0.00     0.005 A 
ATOM     25  C   UNL     1      15.350 -17.908 -52.159  1.00  0.00     0.019 A 
ATOM     26  C   UNL     1      16.155 -19.747 -54.094  1.00  0.00     0.001 A 
ATOM     27  C   UNL     1      16.507 -17.665 -52.913  1.00  0.00     0.039 A 
ATOM     28  C   UNL     1      16.899 -18.585 -53.892  1.00  0.00     0.014 A 
BRANCH  27  29
ATOM     29  C   UNL     1      17.270 -16.415 -52.646  1.00  0.00     0.248 C 
ATOM     30  N   UNL     1      17.861 -16.283 -51.421  1.00  0.00    -0.366 N 
ATOM     31  O   UNL     1      17.341 -15.516 -53.474  1.00  0.00    -0.270 OA
ATOM     32  H   UNL     1      18.262 -15.374 -51.223  1.00  0.00     0.159 HD
ATOM     33  H   UNL     1      17.596 -16.851 -50.630  1.00  0.00     0.159 HD
ENDBRANCH  27  29
ENDBRANCH  22  23
ENDBRANCH  20  22
ENDBRANCH   3  18
TORSDOF 9
ENDMDL
MODEL 4
REMARK VINA RESULT:    -7.058      2.823      7.799
REMARK INTER + INTRA:         -12.630
REMARK INTER:                 -11.914
REMARK INTRA:                  -0.716
REMARK UNBOUND:                -1.858
REMARK SMILES CCCCCCn1nc(C(=O)NCc2cccc(C(N)=O)c2)c2ccccc2c1=O
REMARK SMILES IDX 7 1 8 2 9 3 23 4 24 5 25 6 26 7 27 8 28 9 29 10 30 11 6 12
REMARK SMILES IDX 5 13 4 14 3 15 2 16 1 17 10 18 11 19 12 20 13 22 14 23 15 24
REMARK SMILES IDX 22 25 16 26 18 27 17 28 19 29 20 30 21 31
REMARK H PARENT 12 21 20 32 20 33
ROOT
ATOM      1  N   UNL     1      12.696 -22.129 -48.921  1.00  0.00    -0.229 N 
ATOM      2  N   UNL     1      12.992 -22.791 -47.756  1.00  0.00    -0.164 NA
ATOM      3  C   UNL     1      12.128 -23.634 -47.269  1.00  0.00     0.156 C 
ATOM      4  C   UNL     1      10.827 -23.922 -47.889  1.00  0.00     0.020 A 
ATOM      5  C   UNL     1       9.902 -24.832 -47.363  1.00  0.00     0.011 A 
ATOM      6  C   UNL     1       8.690 -25.057 -48.021  1.00  0.00     0.001 A 
ATOM      7  C   UNL     1       8.400 -24.383 -49.207  1.00  0.00     0.001 A 
ATOM      8  C   UNL     1       9.323 -23.483 -49.737  1.00  0.00     0.014 A 
ATOM      9  C   UNL     1      10.538 -23.256 -49.076  1.00  0.00     0.051 A 
ATOM     10  C   UNL     1      11.525 -22.319 -49.651  1.00  0.00     0.274 C 
ATOM     11  O   UNL     1      11.284 -21.768 -50.722  1.00  0.00    -0.267 OA
ENDROOT
BRANCH   1  12
ATOM     12  C   UNL     1      13.749 -21.266 -49.447  1.00  0.00     0.148 C 
BRANCH  12  13
ATOM     13  C   UNL     1      13.410 -19.775 -49.340  1.00  0.00     0.024 C 
BRANCH  13  14
ATOM     14  C   UNL     1      13.773 -18.988 -50.604  1.00  0.00     0.002 C 
BRANCH  14  15
ATOM     15  C   UNL     1      13.765 -19.877 -51.849  1.00  0.00    -0.000 C 
BRANCH  15  16
ATOM     16  C   UNL     1      14.492 -19.201 -53.012  1.00  0.00    -0.003 C 
ATOM     17  C   UNL     1      14.854 -17.763 -52.685  1.00  0.00     0.004 C 
ENDBRANCH  15  16
ENDBRANCH  14  15
ENDBRANCH  13  14
ENDBRANCH  12  13
ENDBRANCH   1  12
BRANCH   3  18
ATOM     18  C   UNL     1      12.592 -24.376 -46.017  1.00  0.00     0.272 C 
ATOM     19  O   UNL     1      13.062 -25.499 -46.075  1.00  0.00    -0.267 OA
ATOM     20  N   UNL     1      12.385 -23.642 -44.875  1.00  0.00    -0.347 N 
ATOM     21  H   UNL     1      11.756 -22.850 -44.974  1.00  0.00     0.164 HD
BRANCH  20  22
ATOM     22  C   UNL     1      12.578 -24.211 -43.567  1.00  0.00     0.152 C 
BRANCH  22  23
ATOM     23  C   UNL     1      13.922 -23.811 -43.023  1.00  0.00    -0.028 A 
ATOM     24  C   UNL     1      14.801 -23.029 -43.783  1.00  0.00     0.005 A 
ATOM     25  C   UNL     1      14.337 -24.267 -41.761  1.00  0.00     0.019 A 
ATOM     26  C   UNL     1      16.059 -22.689 -43.285  1.00  0.00     0.001 A 
ATOM     27  C   UNL     1      15.607 -23.943 -41.264  1.00  0.00     0.039 A 
ATOM     28  C   UNL     1      16.463 -23.140 -42.028  1.00  0.00     0.014 A 
BRANCH  27  29
ATOM     29  C   UNL     1      15.991 -24.461 -39.923  1.00  0.00     0.248 C 
ATOM     30  N   UNL     1      15.167 -24.173 -38.872  1.00  0.00    -0.366 N 
ATOM     31  O   UNL     1      17.025 -25.094 -39.751  1.00  0.00    -0.270 OA
ATOM     32  H   UNL     1      15.519 -24.427 -37.957  1.00  0.00     0.159 HD
ATOM     33  H   UNL     1      14.480 -23.435 -38.913  1.00  0.00     0.159 HD
ENDBRANCH  27  29
ENDBRANCH  22  23
ENDBRANCH  20  22
ENDBRANCH   3  18
TORSDOF 9
ENDMDL
MODEL 5
REMARK VINA RESULT:    -6.932      2.508      7.465
REMARK INTER + INTRA:         -12.438
REMARK INTER:                 -11.547
REMARK INTRA:                  -0.891
REMARK UNBOUND:                -1.858
REMARK SMILES CCCCCCn1nc(C(=O)NCc2cccc(C(N)=O)c2)c2ccccc2c1=O
REMARK SMILES IDX 7 1 8 2 9 3 23 4 24 5 25 6 26 7 27 8 28 9 29 10 30 11 6 12
REMARK SMILES IDX 5 13 4 14 3 15 2 16 1 17 10 18 11 19 12 20 13 22 14 23 15 24
REMARK SMILES IDX 22 25 16 26 18 27 17 28 19 29 20 30 21 31
REMARK H PARENT 12 21 20 32 20 33
ROOT
ATOM      1  N   UNL     1      12.405 -22.388 -49.026  1.00  0.00    -0.229 N 
ATOM      2  N   UNL     1      12.607 -23.014 -47.822  1.00  0.00    -0.164 NA
ATOM      3  C   UNL     1      11.686 -23.807 -47.357  1.00  0.00     0.156 C 
ATOM      4  C   UNL     1      10.413 -24.073 -48.042  1.00  0.00     0.020 A 
ATOM      5  C   UNL     1       9.425 -24.928 -47.539  1.00  0.00     0.011 A 
ATOM      6  C   UNL     1       8.246 -25.135 -48.259  1.00  0.00     0.001 A 
ATOM      7  C   UNL     1       8.051 -24.498 -49.484  1.00  0.00     0.001 A 
ATOM      8  C   UNL     1       9.037 -23.653 -49.991  1.00  0.00     0.014 A 
ATOM      9  C   UNL     1      10.219 -23.443 -49.268  1.00  0.00     0.051 A 
ATOM     10  C   UNL     1      11.272 -22.565 -49.817  1.00  0.00     0.274 C 
ATOM     11  O   UNL     1      11.114 -22.047 -50.920  1.00  0.00    -0.267 OA
ENDROOT
BRANCH   1  12
ATOM     12  C   UNL     1      13.519 -21.584 -49.519  1.00  0.00     0.148 C 
BRANCH  12  13
ATOM     13  C   UNL     1      13.325 -20.082 -49.280  1.00  0.00     0.024 C 
BRANCH  13  14
ATOM     14  C   UNL     1      13.718 -19.229 -50.491  1.00  0.00     0.002 C 
BRANCH  14  15
ATOM     15  C   UNL     1      13.670 -20.033 -51.792  1.00  0.00    -0.000 C 
BRANCH  15  16
ATOM     16  C   UNL     1      14.235 -19.223 -52.959  1.00  0.00    -0.003 C 
ATOM     17  C   UNL     1      14.658 -17.832 -52.521  1.00  0.00     0.004 C 
ENDBRANCH  15  16
ENDBRANCH  14  15
ENDBRANCH  13  14
ENDBRANCH  12  13
ENDBRANCH   1  12
BRANCH   3  18
ATOM     18  C   UNL     1      12.048 -24.516 -46.053  1.00  0.00     0.272 C 
ATOM     19  O   UNL     1      12.186 -25.726 -45.998  1.00  0.00    -0.267 OA
ATOM     20  N   UNL     1      12.159 -23.639 -45.002  1.00  0.00    -0.347 N 
ATOM     21  H   UNL     1      11.764 -22.716 -45.160  1.00  0.00     0.164 HD
BRANCH  20  22
ATOM     22  C   UNL     1      12.314 -24.101 -43.648  1.00  0.00     0.152 C 
BRANCH  22  23
ATOM     23  C   UNL     1      13.730 -23.883 -43.186  1.00  0.00    -0.028 A 
ATOM     24  C   UNL     1      14.129 -24.256 -41.896  1.00  0.00     0.005 A 
ATOM     25  C   UNL     1      14.657 -23.249 -44.027  1.00  0.00     0.019 A 
ATOM     26  C   UNL     1      15.435 -24.021 -41.463  1.00  0.00     0.001 A 
ATOM     27  C   UNL     1      15.965 -22.995 -43.590  1.00  0.00     0.039 A 
ATOM     28  C   UNL     1      16.354 -23.396 -42.307  1.00  0.00     0.014 A 
BRANCH  27  29
ATOM     29  C   UNL     1      16.899 -22.313 -44.526  1.00  0.00     0.248 C 
ATOM     30  N   UNL     1      16.535 -22.233 -45.841  1.00  0.00    -0.366 N 
ATOM     31  O   UNL     1      17.976 -21.868 -44.149  1.00  0.00    -0.270 OA
ATOM     32  H   UNL     1      17.244 -21.881 -46.472  1.00  0.00     0.159 HD
ATOM     33  H   UNL     1      15.816 -22.821 -46.237  1.00  0.00     0.159 HD
ENDBRANCH  27  29
ENDBRANCH  22  23
ENDBRANCH  20  22
ENDBRANCH   3  18
TORSDOF 9
ENDMDL
MODEL 6
REMARK VINA RESULT:    -6.898      2.143      5.088
REMARK INTER + INTRA:         -12.386
REMARK INTER:                 -10.997
REMARK INTRA:                  -1.389
REMARK UNBOUND:                -1.858
REMARK SMILES CCCCCCn1nc(C(=O)NCc2cccc(C(N)=O)c2)c2ccccc2c1=O
REMARK SMILES IDX 7 1 8 2 9 3 23 4 24 5 25 6 26 7 27 8 28 9 29 10 30 11 6 12
REMARK SMILES IDX 5 13 4 14 3 15 2 16 1 17 10 18 11 19 12 20 13 22 14 23 15 24
REMARK SMILES IDX 22 25 16 26 18 27 17 28 19 29 20 30 21 31
REMARK H PARENT 12 21 20 32 20 33
ROOT
ATOM      1  N   UNL     1      13.721 -24.725 -42.664  1.00  0.00    -0.229 N 
ATOM      2  N   UNL     1      12.881 -25.197 -43.641  1.00  0.00    -0.164 NA
ATOM      3  C   UNL     1      13.057 -24.807 -44.870  1.00  0.00     0.156 C 
ATOM      4  C   UNL     1      14.106 -23.867 -45.289  1.00  0.00     0.020 A 
ATOM      5  C   UNL     1      14.292 -23.452 -46.613  1.00  0.00     0.011 A 
ATOM      6  C   UNL     1      15.324 -22.563 -46.929  1.00  0.00     0.001 A 
ATOM      7  C   UNL     1      16.175 -22.093 -45.930  1.00  0.00     0.001 A 
ATOM      8  C   UNL     1      15.997 -22.512 -44.613  1.00  0.00     0.014 A 
ATOM      9  C   UNL     1      14.962 -23.401 -44.295  1.00  0.00     0.051 A 
ATOM     10  C   UNL     1      14.789 -23.862 -42.902  1.00  0.00     0.274 C 
ATOM     11  O   UNL     1      15.574 -23.483 -42.037  1.00  0.00    -0.267 OA
ENDROOT
BRANCH   1  12
ATOM     12  C   UNL     1      13.514 -25.275 -41.328  1.00  0.00     0.148 C 
BRANCH  12  13
ATOM     13  C   UNL     1      13.039 -24.225 -40.316  1.00  0.00     0.024 C 
BRANCH  13  14
ATOM     14  C   UNL     1      13.882 -24.205 -39.036  1.00  0.00     0.002 C 
BRANCH  14  15
ATOM     15  C   UNL     1      14.773 -25.444 -38.923  1.00  0.00    -0.000 C 
BRANCH  15  16
ATOM     16  C   UNL     1      16.250 -25.071 -39.054  1.00  0.00    -0.003 C 
ATOM     17  C   UNL     1      16.995 -26.045 -39.951  1.00  0.00     0.004 C 
ENDBRANCH  15  16
ENDBRANCH  14  15
ENDBRANCH  13  14
ENDBRANCH  12  13
ENDBRANCH   1  12
BRANCH   3  18
ATOM     18  C   UNL     1      12.121 -25.455 -45.889  1.00  0.00     0.272 C 
ATOM     19  O   UNL     1      12.437 -26.461 -46.499  1.00  0.00    -0.267 OA
ATOM     20  N   UNL     1      10.946 -24.758 -46.029  1.00  0.00    -0.347 N 
ATOM     21  H   UNL     1      10.950 -23.816 -45.647  1.00  0.00     0.164 HD
BRANCH  20  22
ATOM     22  C   UNL     1       9.995 -25.081 -47.059  1.00  0.00     0.152 C 
BRANCH  22  23
ATOM     23  C   UNL     1      10.369 -24.389 -48.342  1.00  0.00    -0.028 A 
ATOM     24  C   UNL     1      10.144 -25.004 -49.581  1.00  0.00     0.005 A 
ATOM     25  C   UNL     1      11.001 -23.136 -48.311  1.00  0.00     0.019 A 
ATOM     26  C   UNL     1      10.522 -24.370 -50.765  1.00  0.00     0.001 A 
ATOM     27  C   UNL     1      11.400 -22.505 -49.497  1.00  0.00     0.039 A 
ATOM     28  C   UNL     1      11.145 -23.122 -50.727  1.00  0.00     0.014 A 
BRANCH  27  29
ATOM     29  C   UNL     1      12.072 -21.181 -49.397  1.00  0.00     0.248 C 
ATOM     30  N   UNL     1      12.522 -20.609 -50.554  1.00  0.00    -0.366 N 
ATOM     31  O   UNL     1      12.255 -20.632 -48.318  1.00  0.00    -0.270 OA
ATOM     32  H   UNL     1      13.086 -19.776 -50.441  1.00  0.00     0.159 HD
ATOM     33  H   UNL     1      12.649 -21.139 -51.403  1.00  0.00     0.159 HD
ENDBRANCH  27  29
ENDBRANCH  22  23
ENDBRANCH  20  22
ENDBRANCH   3  18
TORSDOF 9
ENDMDL
MODEL 7
REMARK VINA RESULT:    -6.778      1.955      2.722
REMARK INTER + INTRA:         -12.202
REMARK INTER:                 -10.947
REMARK INTRA:                  -1.255
REMARK UNBOUND:                -1.858
REMARK SMILES CCCCCCn1nc(C(=O)NCc2cccc(C(N)=O)c2)c2ccccc2c1=O
REMARK SMILES IDX 7 1 8 2 9 3 23 4 24 5 25 6 26 7 27 8 28 9 29 10 30 11 6 12
REMARK SMILES IDX 5 13 4 14 3 15 2 16 1 17 10 18 11 19 12 20 13 22 14 23 15 24
REMARK SMILES IDX 22 25 16 26 18 27 17 28 19 29 20 30 21 31
REMARK H PARENT 12 21 20 32 20 33
ROOT
ATOM      1  N   UNL     1      14.834 -22.933 -46.376  1.00  0.00    -0.229 N 
ATOM      2  N   UNL     1      13.796 -23.741 -46.765  1.00  0.00    -0.164 NA
ATOM      3  C   UNL     1      13.152 -24.424 -45.864  1.00  0.00     0.156 C 
ATOM      4  C   UNL     1      13.475 -24.397 -44.430  1.00  0.00     0.020 A 
ATOM      5  C   UNL     1      12.778 -25.132 -43.464  1.00  0.00     0.011 A 
ATOM      6  C   UNL     1      13.143 -25.040 -42.118  1.00  0.00     0.001 A 
ATOM      7  C   UNL     1      14.196 -24.213 -41.731  1.00  0.00     0.001 A 
ATOM      8  C   UNL     1      14.886 -23.474 -42.691  1.00  0.00     0.014 A 
ATOM      9  C   UNL     1      14.522 -23.566 -44.041  1.00  0.00     0.051 A 
ATOM     10  C   UNL     1      15.239 -22.765 -45.053  1.00  0.00     0.274 C 
ATOM     11  O   UNL     1      16.132 -22.000 -44.699  1.00  0.00    -0.267 OA
ENDROOT
BRANCH   1  12
ATOM     12  C   UNL     1      15.449 -22.136 -47.432  1.00  0.00     0.148 C 
BRANCH  12  13
ATOM     13  C   UNL     1      14.567 -22.013 -48.680  1.00  0.00     0.024 C 
BRANCH  13  14
ATOM     14  C   UNL     1      13.688 -20.758 -48.668  1.00  0.00     0.002 C 
BRANCH  14  15
ATOM     15  C   UNL     1      12.984 -20.544 -50.010  1.00  0.00    -0.000 C 
BRANCH  15  16
ATOM     16  C   UNL     1      13.555 -19.330 -50.743  1.00  0.00    -0.003 C 
ATOM     17  C   UNL     1      13.753 -19.612 -52.222  1.00  0.00     0.004 C 
ENDBRANCH  15  16
ENDBRANCH  14  15
ENDBRANCH  13  14
ENDBRANCH  12  13
ENDBRANCH   1  12
BRANCH   3  18
ATOM     18  C   UNL     1      11.964 -25.226 -46.393  1.00  0.00     0.272 C 
ATOM     19  O   UNL     1      12.011 -26.437 -46.515  1.00  0.00    -0.267 OA
ATOM     20  N   UNL     1      10.902 -24.419 -46.722  1.00  0.00    -0.347 N 
ATOM     21  H   UNL     1      11.116 -23.429 -46.805  1.00  0.00     0.164 HD
BRANCH  20  22
ATOM     22  C   UNL     1       9.747 -24.935 -47.407  1.00  0.00     0.152 C 
BRANCH  22  23
ATOM     23  C   UNL     1       9.641 -24.321 -48.777  1.00  0.00    -0.028 A 
ATOM     24  C   UNL     1      10.786 -24.094 -49.552  1.00  0.00     0.005 A 
ATOM     25  C   UNL     1       8.392 -23.916 -49.275  1.00  0.00     0.019 A 
ATOM     26  C   UNL     1      10.683 -23.494 -50.808  1.00  0.00     0.001 A 
ATOM     27  C   UNL     1       8.287 -23.297 -50.528  1.00  0.00     0.039 A 
ATOM     28  C   UNL     1       9.439 -23.099 -51.299  1.00  0.00     0.014 A 
BRANCH  27  29
ATOM     29  C   UNL     1       6.937 -22.883 -50.997  1.00  0.00     0.248 C 
ATOM     30  N   UNL     1       6.748 -22.743 -52.343  1.00  0.00    -0.366 N 
ATOM     31  O   UNL     1       6.031 -22.639 -50.211  1.00  0.00    -0.270 OA
ATOM     32  H   UNL     1       5.863 -22.338 -52.622  1.00  0.00     0.159 HD
ATOM     33  H   UNL     1       7.519 -22.654 -52.989  1.00  0.00     0.159 HD
ENDBRANCH  27  29
ENDBRANCH  22  23
ENDBRANCH  20  22
ENDBRANCH   3  18
TORSDOF 9
ENDMDL
MODEL 8
REMARK VINA RESULT:    -6.736      2.844      5.682
REMARK INTER + INTRA:         -12.138
REMARK INTER:                 -11.709
REMARK INTRA:                  -0.429
REMARK UNBOUND:                -1.858
REMARK SMILES CCCCCCn1nc(C(=O)NCc2cccc(C(N)=O)c2)c2ccccc2c1=O
REMARK SMILES IDX 7 1 8 2 9 3 23 4 24 5 25 6 26 7 27 8 28 9 29 10 30 11 6 12
REMARK SMILES IDX 5 13 4 14 3 15 2 16 1 17 10 18 11 19 12 20 13 22 14 23 15 24
REMARK SMILES IDX 22 25 16 26 18 27 17 28 19 29 20 30 21 31
REMARK H PARENT 12 21 20 32 20 33
ROOT
ATOM      1  N   UNL     1      14.139 -25.364 -43.570  1.00  0.00    -0.229 N 
ATOM      2  N   UNL     1      13.353 -24.700 -44.477  1.00  0.00    -0.164 NA
ATOM      3  C   UNL     1      13.885 -23.768 -45.215  1.00  0.00     0.156 C 
ATOM      4  C   UNL     1      15.294 -23.363 -45.131  1.00  0.00     0.020 A 
ATOM      5  C   UNL     1      15.862 -22.361 -45.927  1.00  0.00     0.011 A 
ATOM      6  C   UNL     1      17.217 -22.044 -45.792  1.00  0.00     0.001 A 
ATOM      7  C   UNL     1      18.009 -22.727 -44.871  1.00  0.00     0.001 A 
ATOM      8  C   UNL     1      17.448 -23.731 -44.083  1.00  0.00     0.014 A 
ATOM      9  C   UNL     1      16.089 -24.048 -44.217  1.00  0.00     0.051 A 
ATOM     10  C   UNL     1      15.502 -25.127 -43.398  1.00  0.00     0.274 C 
ATOM     11  O   UNL     1      16.217 -25.759 -42.624  1.00  0.00    -0.267 OA
ENDROOT
BRANCH   1  12
ATOM     12  C   UNL     1      13.492 -26.451 -42.844  1.00  0.00     0.148 C 
BRANCH  12  13
ATOM     13  C   UNL     1      12.803 -25.984 -41.556  1.00  0.00     0.024 C 
BRANCH  13  14
ATOM     14  C   UNL     1      13.051 -24.504 -41.250  1.00  0.00     0.002 C 
BRANCH  14  15
ATOM     15  C   UNL     1      14.172 -24.315 -40.226  1.00  0.00    -0.000 C 
BRANCH  15  16
ATOM     16  C   UNL     1      13.844 -25.027 -38.914  1.00  0.00    -0.003 C 
ATOM     17  C   UNL     1      13.480 -24.040 -37.818  1.00  0.00     0.004 C 
ENDBRANCH  15  16
ENDBRANCH  14  15
ENDBRANCH  13  14
ENDBRANCH  12  13
ENDBRANCH   1  12
BRANCH   3  18
ATOM     18  C   UNL     1      12.942 -23.151 -46.247  1.00  0.00     0.272 C 
ATOM     19  O   UNL     1      11.942 -22.539 -45.917  1.00  0.00    -0.267 OA
ATOM     20  N   UNL     1      13.351 -23.401 -47.535  1.00  0.00    -0.347 N 
ATOM     21  H   UNL     1      14.048 -24.134 -47.636  1.00  0.00     0.164 HD
BRANCH  20  22
ATOM     22  C   UNL     1      12.524 -23.073 -48.666  1.00  0.00     0.152 C 
BRANCH  22  23
ATOM     23  C   UNL     1      12.946 -21.752 -49.249  1.00  0.00    -0.028 A 
ATOM     24  C   UNL     1      13.165 -20.641 -48.424  1.00  0.00     0.005 A 
ATOM     25  C   UNL     1      13.072 -21.601 -50.639  1.00  0.00     0.019 A 
ATOM     26  C   UNL     1      13.525 -19.410 -48.975  1.00  0.00     0.001 A 
ATOM     27  C   UNL     1      13.415 -20.362 -51.197  1.00  0.00     0.039 A 
ATOM     28  C   UNL     1      13.654 -19.268 -50.357  1.00  0.00     0.014 A 
BRANCH  27  29
ATOM     29  C   UNL     1      13.526 -20.264 -52.678  1.00  0.00     0.248 C 
ATOM     30  N   UNL     1      13.241 -19.059 -53.257  1.00  0.00    -0.366 N 
ATOM     31  O   UNL     1      13.825 -21.232 -53.365  1.00  0.00    -0.270 OA
ATOM     32  H   UNL     1      13.199 -19.059 -54.269  1.00  0.00     0.159 HD
ATOM     33  H   UNL     1      12.727 -18.338 -52.774  1.00  0.00     0.159 HD
ENDBRANCH  27  29
ENDBRANCH  22  23
ENDBRANCH  20  22
ENDBRANCH   3  18
TORSDOF 9
ENDMDL
MODEL 9
REMARK VINA RESULT:    -6.664      2.002      5.385
REMARK INTER + INTRA:         -12.028
REMARK INTER:                 -11.051
REMARK INTRA:                  -0.977
REMARK UNBOUND:                -1.858
REMARK SMILES CCCCCCn1nc(C(=O)NCc2cccc(C(N)=O)c2)c2ccccc2c1=O
REMARK SMILES IDX 7 1 8 2 9 3 23 4 24 5 25 6 26 7 27 8 28 9 29 10 30 11 6 12
REMARK SMILES IDX 5 13 4 14 3 15 2 16 1 17 10 18 11 19 12 20 13 22 14 23 15 24
REMARK SMILES IDX 22 25 16 26 18 27 17 28 19 29 20 30 21 31
REMARK H PARENT 12 21 20 32 20 33
ROOT
ATOM      1  N   UNL     1      13.163 -24.659 -44.507  1.00  0.00    -0.229 N 
ATOM      2  N   UNL     1      12.083 -24.855 -45.329  1.00  0.00    -0.164 NA
ATOM      3  C   UNL     1      12.070 -24.293 -46.503  1.00  0.00     0.156 C 
ATOM      4  C   UNL     1      13.150 -23.436 -47.012  1.00  0.00     0.020 A 
ATOM      5  C   UNL     1      13.133 -22.835 -48.276  1.00  0.00     0.011 A 
ATOM      6  C   UNL     1      14.208 -22.042 -48.689  1.00  0.00     0.001 A 
ATOM      7  C   UNL     1      15.303 -21.853 -47.848  1.00  0.00     0.001 A 
ATOM      8  C   UNL     1      15.327 -22.457 -46.592  1.00  0.00     0.014 A 
ATOM      9  C   UNL     1      14.248 -23.251 -46.177  1.00  0.00     0.051 A 
ATOM     10  C   UNL     1      14.284 -23.909 -44.856  1.00  0.00     0.274 C 
ATOM     11  O   UNL     1      15.275 -23.779 -44.141  1.00  0.00    -0.267 OA
ENDROOT
BRANCH   1  12
ATOM     12  C   UNL     1      13.141 -25.392 -43.245  1.00  0.00     0.148 C 
BRANCH  12  13
ATOM     13  C   UNL     1      12.664 -24.536 -42.065  1.00  0.00     0.024 C 
BRANCH  13  14
ATOM     14  C   UNL     1      13.562 -24.668 -40.830  1.00  0.00     0.002 C 
BRANCH  14  15
ATOM     15  C   UNL     1      13.032 -23.849 -39.652  1.00  0.00    -0.000 C 
BRANCH  15  16
ATOM     16  C   UNL     1      13.685 -24.285 -38.340  1.00  0.00    -0.003 C 
ATOM     17  C   UNL     1      14.749 -25.345 -38.571  1.00  0.00     0.004 C 
ENDBRANCH  15  16
ENDBRANCH  14  15
ENDBRANCH  13  14
ENDBRANCH  12  13
ENDBRANCH   1  12
BRANCH   3  18
ATOM     18  C   UNL     1      10.861 -24.642 -47.369  1.00  0.00     0.272 C 
ATOM     19  O   UNL     1       9.784 -24.092 -47.219  1.00  0.00    -0.267 OA
ATOM     20  N   UNL     1      11.144 -25.636 -48.275  1.00  0.00    -0.347 N 
ATOM     21  H   UNL     1      11.998 -26.159 -48.096  1.00  0.00     0.164 HD
BRANCH  20  22
ATOM     22  C   UNL     1      10.112 -26.250 -49.067  1.00  0.00     0.152 C 
BRANCH  22  23
ATOM     23  C   UNL     1      10.001 -25.558 -50.398  1.00  0.00    -0.028 A 
ATOM     24  C   UNL     1      10.985 -25.730 -51.381  1.00  0.00     0.005 A 
ATOM     25  C   UNL     1       8.934 -24.682 -50.653  1.00  0.00     0.019 A 
ATOM     26  C   UNL     1      10.893 -25.059 -52.601  1.00  0.00     0.001 A 
ATOM     27  C   UNL     1       8.847 -23.992 -51.870  1.00  0.00     0.039 A 
ATOM     28  C   UNL     1       9.826 -24.195 -52.850  1.00  0.00     0.014 A 
BRANCH  27  29
ATOM     29  C   UNL     1       7.696 -23.072 -52.076  1.00  0.00     0.248 C 
ATOM     30  N   UNL     1       6.944 -23.240 -53.206  1.00  0.00    -0.366 N 
ATOM     31  O   UNL     1       7.444 -22.170 -51.287  1.00  0.00    -0.270 OA
ATOM     32  H   UNL     1       6.252 -22.522 -53.382  1.00  0.00     0.159 HD
ATOM     33  H   UNL     1       7.277 -23.765 -54.001  1.00  0.00     0.159 HD
ENDBRANCH  27  29
ENDBRANCH  22  23
ENDBRANCH  20  22
ENDBRANCH   3  18
TORSDOF 9
ENDMDL
