REMARK SMILES Oc1cccc(/C=N/Nc2nncn2/N=C/c2cccc(O)c2)c1
REMARK SMILES IDX 10 1 11 2 12 3 13 4 14 5 9 6 8 8 7 9 6 10 2 11 3 12 24 13
REMARK SMILES IDX 4 14 5 15 1 16 15 18 16 19 17 20 18 21 23 22 19 23 21 24
REMARK SMILES IDX 20 25 22 26
REMARK H PARENT 9 7 1 17 22 27
ROOT
ATOM      1  C   UNL     1      -2.216  -2.929  -1.342  1.00  0.00     0.265 A 
ATOM      2  N   UNL     1      -3.057  -3.813  -1.850  1.00  0.00    -0.108 NA
ATOM      3  N   UNL     1      -2.493  -5.060  -1.756  1.00  0.00    -0.135 NA
ATOM      4  C   UNL     1      -1.334  -4.915  -1.160  1.00  0.00     0.252 A 
ATOM      5  N   UNL     1      -1.126  -3.609  -0.788  1.00  0.00    -0.185 N 
ENDROOT
BRANCH   1   6
ATOM      6  N   UNL     1      -2.384  -1.578  -1.392  1.00  0.00    -0.244 N 
ATOM      7  H   UNL     1      -3.220  -1.311  -1.912  1.00  0.00     0.193 HD
BRANCH   6   8
ATOM      8  N   UNL     1      -1.364  -0.679  -1.318  1.00  0.00    -0.180 NA
ATOM      9  C   UNL     1      -1.694   0.557  -1.520  1.00  0.00     0.141 C 
BRANCH   9  10
ATOM     10  C   UNL     1      -0.698   1.644  -1.452  1.00  0.00    -0.002 A 
ATOM     11  C   UNL     1      -0.188   3.990  -1.567  1.00  0.00     0.116 A 
ATOM     12  C   UNL     1       1.153   3.721  -1.308  1.00  0.00     0.046 A 
ATOM     13  C   UNL     1      -1.124   2.962  -1.642  1.00  0.00     0.056 A 
ATOM     14  C   UNL     1       1.574   2.405  -1.121  1.00  0.00     0.004 A 
ATOM     15  C   UNL     1       0.649   1.363  -1.194  1.00  0.00     0.010 A 
BRANCH  11  16
ATOM     16  O   UNL     1      -0.547   5.294  -1.742  1.00  0.00    -0.508 OA
ATOM     17  H   UNL     1      -1.500   5.344  -1.917  1.00  0.00     0.293 HD
ENDBRANCH  11  16
ENDBRANCH   9  10
ENDBRANCH   6   8
ENDBRANCH   1   6
BRANCH   5  18
ATOM     18  N   UNL     1      -0.024  -3.219  -0.067  1.00  0.00    -0.172 NA
ATOM     19  C   UNL     1      -0.228  -2.253   0.769  1.00  0.00     0.142 C 
BRANCH  19  20
ATOM     20  C   UNL     1       0.877  -1.649   1.541  1.00  0.00    -0.002 A 
ATOM     21  C   UNL     1       2.190  -2.111   1.401  1.00  0.00     0.010 A 
ATOM     22  C   UNL     1       0.591  -0.588   2.401  1.00  0.00     0.056 A 
ATOM     23  C   UNL     1       3.219  -1.509   2.129  1.00  0.00     0.004 A 
ATOM     24  C   UNL     1       1.625   0.002   3.119  1.00  0.00     0.116 A 
ATOM     25  C   UNL     1       2.937  -0.449   2.992  1.00  0.00     0.046 A 
BRANCH  24  26
ATOM     26  O   UNL     1       1.308   1.037   3.949  1.00  0.00    -0.508 OA
ATOM     27  H   UNL     1       2.120   1.356   4.376  1.00  0.00     0.293 HD
ENDBRANCH  24  26
ENDBRANCH  19  20
ENDBRANCH   5  18
TORSDOF 7
