MODEL 1
REMARK VINA RESULT:    -6.987      0.000      0.000
REMARK INTER + INTRA:          -8.913
REMARK INTER:                  -8.212
REMARK INTRA:                  -0.701
REMARK UNBOUND:                -0.701
REMARK SMILES Cc1cc(C)cc(NC(=O)N2CCC[C@H]2c2cccs2)c1
REMARK SMILES IDX 8 1 9 2 10 3 7 5 2 6 3 7 21 8 4 9 6 10 1 11 5 12 11 13 12 14
REMARK SMILES IDX 15 15 13 16 14 17 16 18 17 19 20 20 18 21 19 22
REMARK H PARENT 8 4
ROOT
ATOM      1  N   UNL     1      13.051 -24.781 -44.762  1.00  0.00    -0.308 N 
ATOM      2  C   UNL     1      12.311 -23.880 -45.496  1.00  0.00     0.322 C 
ATOM      3  O   UNL     1      12.043 -22.734 -45.150  1.00  0.00    -0.248 OA
ATOM      4  H   UNL     1      12.942 -25.744 -45.035  1.00  0.00     0.171 HD
ENDROOT
BRANCH   1   5
ATOM      5  C   UNL     1      13.743 -24.554 -43.554  1.00  0.00     0.043 A 
ATOM      6  C   UNL     1      15.841 -23.883 -42.502  1.00  0.00    -0.049 A 
ATOM      7  C   UNL     1      15.243 -24.016 -41.244  1.00  0.00     0.007 A 
ATOM      8  C   UNL     1      15.079 -24.143 -43.650  1.00  0.00     0.029 A 
ATOM      9  C   UNL     1      13.912 -24.433 -41.128  1.00  0.00    -0.049 A 
ATOM     10  C   UNL     1      13.166 -24.687 -42.290  1.00  0.00     0.029 A 
ATOM     11  C   UNL     1      17.259 -23.409 -42.622  1.00  0.00     0.044 C 
ATOM     12  C   UNL     1      13.264 -24.547 -39.779  1.00  0.00     0.044 C 
ENDBRANCH   1   5
BRANCH   2  13
ATOM     13  N   UNL     1      11.861 -24.397 -46.705  1.00  0.00    -0.317 N 
ATOM     14  C   UNL     1      10.726 -25.295 -46.861  1.00  0.00     0.122 C 
ATOM     15  C   UNL     1      12.775 -24.505 -47.844  1.00  0.00     0.127 C 
ATOM     16  C   UNL     1      11.160 -26.272 -47.941  1.00  0.00     0.024 C 
ATOM     17  C   UNL     1      12.035 -25.411 -48.839  1.00  0.00     0.033 C 
BRANCH  15  18
ATOM     18  C   UNL     1      13.063 -23.159 -48.457  1.00  0.00     0.027 A 
ATOM     19  C   UNL     1      14.194 -22.367 -48.361  1.00  0.00     0.017 A 
ATOM     20  S   UNL     1      11.858 -22.399 -49.416  1.00  0.00    -0.147 S 
ATOM     21  C   UNL     1      14.071 -21.146 -49.083  1.00  0.00     0.012 A 
ATOM     22  C   UNL     1      12.848 -21.038 -49.705  1.00  0.00     0.065 A 
ENDBRANCH  15  18
ENDBRANCH   2  13
TORSDOF 3
ENDMDL
MODEL 2
REMARK VINA RESULT:    -6.861      0.349      1.909
REMARK INTER + INTRA:          -8.765
REMARK INTER:                  -8.109
REMARK INTRA:                  -0.656
REMARK UNBOUND:                -0.701
REMARK SMILES Cc1cc(C)cc(NC(=O)N2CCC[C@H]2c2cccs2)c1
REMARK SMILES IDX 8 1 9 2 10 3 7 5 2 6 3 7 21 8 4 9 6 10 1 11 5 12 11 13 12 14
REMARK SMILES IDX 15 15 13 16 14 17 16 18 17 19 20 20 18 21 19 22
REMARK H PARENT 8 4
ROOT
ATOM      1  N   UNL     1      13.164 -24.536 -44.983  1.00  0.00    -0.308 N 
ATOM      2  C   UNL     1      12.452 -23.598 -45.700  1.00  0.00     0.322 C 
ATOM      3  O   UNL     1      12.288 -22.428 -45.370  1.00  0.00    -0.248 OA
ATOM      4  H   UNL     1      12.970 -25.494 -45.224  1.00  0.00     0.171 HD
ENDROOT
BRANCH   1   5
ATOM      5  C   UNL     1      13.937 -24.334 -43.820  1.00  0.00     0.043 A 
ATOM      6  C   UNL     1      13.990 -24.350 -41.380  1.00  0.00    -0.049 A 
ATOM      7  C   UNL     1      15.348 -24.014 -41.416  1.00  0.00     0.007 A 
ATOM      8  C   UNL     1      13.297 -24.519 -42.587  1.00  0.00     0.029 A 
ATOM      9  C   UNL     1      16.001 -23.818 -42.637  1.00  0.00    -0.049 A 
ATOM     10  C   UNL     1      15.290 -23.993 -43.835  1.00  0.00     0.029 A 
ATOM     11  C   UNL     1      13.301 -24.587 -40.069  1.00  0.00     0.044 C 
ATOM     12  C   UNL     1      17.464 -23.486 -42.674  1.00  0.00     0.044 C 
ENDBRANCH   1   5
BRANCH   2  13
ATOM     13  N   UNL     1      11.899 -24.107 -46.868  1.00  0.00    -0.317 N 
ATOM     14  C   UNL     1      10.741 -24.987 -46.933  1.00  0.00     0.122 C 
ATOM     15  C   UNL     1      12.718 -24.229 -48.077  1.00  0.00     0.127 C 
ATOM     16  C   UNL     1      11.071 -25.969 -48.044  1.00  0.00     0.024 C 
ATOM     17  C   UNL     1      11.886 -25.122 -49.009  1.00  0.00     0.033 C 
BRANCH  15  18
ATOM     18  C   UNL     1      12.977 -22.887 -48.711  1.00  0.00     0.027 A 
ATOM     19  C   UNL     1      14.070 -22.046 -48.586  1.00  0.00     0.017 A 
ATOM     20  S   UNL     1      11.786 -22.202 -49.742  1.00  0.00    -0.147 S 
ATOM     21  C   UNL     1      13.929 -20.849 -49.345  1.00  0.00     0.012 A 
ATOM     22  C   UNL     1      12.731 -20.808 -50.022  1.00  0.00     0.065 A 
ENDBRANCH  15  18
ENDBRANCH   2  13
TORSDOF 3
ENDMDL
MODEL 3
REMARK VINA RESULT:    -6.713      2.588      7.050
REMARK INTER + INTRA:          -8.591
REMARK INTER:                  -7.941
REMARK INTRA:                  -0.650
REMARK UNBOUND:                -0.701
REMARK SMILES Cc1cc(C)cc(NC(=O)N2CCC[C@H]2c2cccs2)c1
REMARK SMILES IDX 8 1 9 2 10 3 7 5 2 6 3 7 21 8 4 9 6 10 1 11 5 12 11 13 12 14
REMARK SMILES IDX 15 15 13 16 14 17 16 18 17 19 20 20 18 21 19 22
REMARK H PARENT 8 4
ROOT
ATOM      1  N   UNL     1      14.274 -22.167 -46.331  1.00  0.00    -0.308 N 
ATOM      2  C   UNL     1      15.059 -23.269 -46.066  1.00  0.00     0.322 C 
ATOM      3  O   UNL     1      15.028 -24.327 -46.685  1.00  0.00    -0.248 OA
ATOM      4  H   UNL     1      14.207 -21.501 -45.579  1.00  0.00     0.171 HD
ENDROOT
BRANCH   1   5
ATOM      5  C   UNL     1      13.384 -21.977 -47.409  1.00  0.00     0.043 A 
ATOM      6  C   UNL     1      12.930 -20.787 -49.492  1.00  0.00    -0.049 A 
ATOM      7  C   UNL     1      11.744 -21.515 -49.639  1.00  0.00     0.007 A 
ATOM      8  C   UNL     1      13.749 -21.035 -48.380  1.00  0.00     0.029 A 
ATOM      9  C   UNL     1      11.360 -22.454 -48.676  1.00  0.00    -0.049 A 
ATOM     10  C   UNL     1      12.193 -22.688 -47.570  1.00  0.00     0.029 A 
ATOM     11  C   UNL     1      13.352 -19.803 -50.542  1.00  0.00     0.044 C 
ATOM     12  C   UNL     1      10.102 -23.253 -48.850  1.00  0.00     0.044 C 
ENDBRANCH   1   5
BRANCH   2  13
ATOM     13  N   UNL     1      15.916 -23.083 -44.988  1.00  0.00    -0.317 N 
ATOM     14  C   UNL     1      16.933 -22.046 -44.896  1.00  0.00     0.122 C 
ATOM     15  C   UNL     1      16.225 -24.201 -44.094  1.00  0.00     0.127 C 
ATOM     16  C   UNL     1      18.109 -22.726 -44.215  1.00  0.00     0.024 C 
ATOM     17  C   UNL     1      17.429 -23.709 -43.276  1.00  0.00     0.033 C 
BRANCH  15  18
ATOM     18  C   UNL     1      15.064 -24.530 -43.192  1.00  0.00     0.027 A 
ATOM     19  C   UNL     1      14.560 -23.831 -42.109  1.00  0.00     0.017 A 
ATOM     20  S   UNL     1      14.186 -25.983 -43.452  1.00  0.00    -0.147 S 
ATOM     21  C   UNL     1      13.449 -24.486 -41.504  1.00  0.00     0.012 A 
ATOM     22  C   UNL     1      13.140 -25.668 -42.139  1.00  0.00     0.065 A 
ENDBRANCH  15  18
ENDBRANCH   2  13
TORSDOF 3
ENDMDL
MODEL 4
REMARK VINA RESULT:    -6.565      2.172      6.464
REMARK INTER + INTRA:          -8.417
REMARK INTER:                  -7.911
REMARK INTRA:                  -0.506
REMARK UNBOUND:                -0.701
REMARK SMILES Cc1cc(C)cc(NC(=O)N2CCC[C@H]2c2cccs2)c1
REMARK SMILES IDX 8 1 9 2 10 3 7 5 2 6 3 7 21 8 4 9 6 10 1 11 5 12 11 13 12 14
REMARK SMILES IDX 15 15 13 16 14 17 16 18 17 19 20 20 18 21 19 22
REMARK H PARENT 8 4
ROOT
ATOM      1  N   UNL     1      13.593 -23.436 -46.091  1.00  0.00    -0.308 N 
ATOM      2  C   UNL     1      12.862 -23.502 -44.924  1.00  0.00     0.322 C 
ATOM      3  O   UNL     1      11.734 -23.050 -44.768  1.00  0.00    -0.248 OA
ATOM      4  H   UNL     1      14.583 -23.586 -45.983  1.00  0.00     0.171 HD
ENDROOT
BRANCH   1   5
ATOM      5  C   UNL     1      13.172 -22.962 -47.351  1.00  0.00     0.043 A 
ATOM      6  C   UNL     1      11.857 -23.404 -49.359  1.00  0.00    -0.049 A 
ATOM      7  C   UNL     1      12.211 -22.146 -49.857  1.00  0.00     0.007 A 
ATOM      8  C   UNL     1      12.333 -23.798 -48.100  1.00  0.00     0.029 A 
ATOM      9  C   UNL     1      13.054 -21.301 -49.127  1.00  0.00    -0.049 A 
ATOM     10  C   UNL     1      13.519 -21.713 -47.868  1.00  0.00     0.029 A 
ATOM     11  C   UNL     1      10.930 -24.294 -50.132  1.00  0.00     0.044 C 
ATOM     12  C   UNL     1      13.409 -19.941 -49.651  1.00  0.00     0.044 C 
ENDBRANCH   1   5
BRANCH   2  13
ATOM     13  N   UNL     1      13.539 -24.138 -43.890  1.00  0.00    -0.317 N 
ATOM     14  C   UNL     1      13.071 -25.322 -43.185  1.00  0.00     0.122 C 
ATOM     15  C   UNL     1      14.508 -23.395 -43.080  1.00  0.00     0.127 C 
ATOM     16  C   UNL     1      13.468 -25.086 -41.738  1.00  0.00     0.024 C 
ATOM     17  C   UNL     1      14.766 -24.306 -41.871  1.00  0.00     0.033 C 
BRANCH  15  18
ATOM     18  C   UNL     1      15.784 -23.135 -43.837  1.00  0.00     0.027 A 
ATOM     19  C   UNL     1      16.320 -21.939 -44.283  1.00  0.00     0.017 A 
ATOM     20  S   UNL     1      16.780 -24.462 -44.283  1.00  0.00    -0.147 S 
ATOM     21  C   UNL     1      17.550 -22.116 -44.978  1.00  0.00     0.012 A 
ATOM     22  C   UNL     1      17.915 -23.441 -45.048  1.00  0.00     0.065 A 
ENDBRANCH  15  18
ENDBRANCH   2  13
TORSDOF 3
ENDMDL
MODEL 5
REMARK VINA RESULT:    -6.551      2.185      6.300
REMARK INTER + INTRA:          -8.400
REMARK INTER:                  -7.800
REMARK INTRA:                  -0.601
REMARK UNBOUND:                -0.701
REMARK SMILES Cc1cc(C)cc(NC(=O)N2CCC[C@H]2c2cccs2)c1
REMARK SMILES IDX 8 1 9 2 10 3 7 5 2 6 3 7 21 8 4 9 6 10 1 11 5 12 11 13 12 14
REMARK SMILES IDX 15 15 13 16 14 17 16 18 17 19 20 20 18 21 19 22
REMARK H PARENT 8 4
ROOT
ATOM      1  N   UNL     1      13.467 -23.629 -46.051  1.00  0.00    -0.308 N 
ATOM      2  C   UNL     1      12.806 -23.620 -44.840  1.00  0.00     0.322 C 
ATOM      3  O   UNL     1      11.713 -23.105 -44.633  1.00  0.00    -0.248 OA
ATOM      4  H   UNL     1      14.452 -23.827 -45.997  1.00  0.00     0.171 HD
ENDROOT
BRANCH   1   5
ATOM      5  C   UNL     1      12.993 -23.174 -47.299  1.00  0.00     0.043 A 
ATOM      6  C   UNL     1      12.968 -21.359 -48.931  1.00  0.00    -0.049 A 
ATOM      7  C   UNL     1      12.172 -22.140 -49.775  1.00  0.00     0.007 A 
ATOM      8  C   UNL     1      13.383 -21.889 -47.701  1.00  0.00     0.029 A 
ATOM      9  C   UNL     1      11.766 -23.422 -49.387  1.00  0.00    -0.049 A 
ATOM     10  C   UNL     1      12.192 -23.935 -48.152  1.00  0.00     0.029 A 
ATOM     11  C   UNL     1      13.424 -19.997 -49.364  1.00  0.00     0.044 C 
ATOM     12  C   UNL     1      10.935 -24.269 -50.306  1.00  0.00     0.044 C 
ENDBRANCH   1   5
BRANCH   2  13
ATOM     13  N   UNL     1      13.513 -24.257 -43.827  1.00  0.00    -0.317 N 
ATOM     14  C   UNL     1      13.084 -25.465 -43.138  1.00  0.00     0.122 C 
ATOM     15  C   UNL     1      14.474 -23.505 -43.016  1.00  0.00     0.127 C 
ATOM     16  C   UNL     1      13.495 -25.245 -41.692  1.00  0.00     0.024 C 
ATOM     17  C   UNL     1      14.771 -24.431 -41.828  1.00  0.00     0.033 C 
BRANCH  15  18
ATOM     18  C   UNL     1      15.732 -23.200 -43.786  1.00  0.00     0.027 A 
ATOM     19  C   UNL     1      16.214 -21.986 -44.246  1.00  0.00     0.017 A 
ATOM     20  S   UNL     1      16.780 -24.488 -44.226  1.00  0.00    -0.147 S 
ATOM     21  C   UNL     1      17.446 -22.119 -44.949  1.00  0.00     0.012 A 
ATOM     22  C   UNL     1      17.866 -23.428 -45.010  1.00  0.00     0.065 A 
ENDBRANCH  15  18
ENDBRANCH   2  13
TORSDOF 3
ENDMDL
MODEL 6
REMARK VINA RESULT:    -6.539      2.903      7.404
REMARK INTER + INTRA:          -8.386
REMARK INTER:                  -7.829
REMARK INTRA:                  -0.557
REMARK UNBOUND:                -0.701
REMARK SMILES Cc1cc(C)cc(NC(=O)N2CCC[C@H]2c2cccs2)c1
REMARK SMILES IDX 8 1 9 2 10 3 7 5 2 6 3 7 21 8 4 9 6 10 1 11 5 12 11 13 12 14
REMARK SMILES IDX 15 15 13 16 14 17 16 18 17 19 20 20 18 21 19 22
REMARK H PARENT 8 4
ROOT
ATOM      1  N   UNL     1      15.681 -23.991 -45.288  1.00  0.00    -0.308 N 
ATOM      2  C   UNL     1      15.585 -23.509 -44.000  1.00  0.00     0.322 C 
ATOM      3  O   UNL     1      14.796 -22.649 -43.622  1.00  0.00    -0.248 OA
ATOM      4  H   UNL     1      16.543 -24.464 -45.503  1.00  0.00     0.171 HD
ENDROOT
BRANCH   1   5
ATOM      5  C   UNL     1      14.841 -23.704 -46.385  1.00  0.00     0.043 A 
ATOM      6  C   UNL     1      12.888 -24.374 -47.686  1.00  0.00    -0.049 A 
ATOM      7  C   UNL     1      13.055 -23.249 -48.500  1.00  0.00     0.007 A 
ATOM      8  C   UNL     1      13.779 -24.586 -46.624  1.00  0.00     0.029 A 
ATOM      9  C   UNL     1      14.114 -22.361 -48.281  1.00  0.00    -0.049 A 
ATOM     10  C   UNL     1      14.995 -22.591 -47.213  1.00  0.00     0.029 A 
ATOM     11  C   UNL     1      11.734 -25.306 -47.907  1.00  0.00     0.044 C 
ATOM     12  C   UNL     1      14.274 -21.140 -49.138  1.00  0.00     0.044 C 
ENDBRANCH   1   5
BRANCH   2  13
ATOM     13  N   UNL     1      16.500 -24.087 -43.130  1.00  0.00    -0.317 N 
ATOM     14  C   UNL     1      17.948 -23.975 -43.240  1.00  0.00     0.122 C 
ATOM     15  C   UNL     1      16.125 -25.265 -42.345  1.00  0.00     0.127 C 
ATOM     16  C   UNL     1      18.467 -25.346 -42.843  1.00  0.00     0.024 C 
ATOM     17  C   UNL     1      17.458 -25.796 -41.798  1.00  0.00     0.033 C 
BRANCH  15  18
ATOM     18  C   UNL     1      15.189 -24.909 -41.220  1.00  0.00     0.027 A 
ATOM     19  C   UNL     1      13.804 -24.900 -41.191  1.00  0.00     0.017 A 
ATOM     20  S   UNL     1      15.841 -24.402 -39.714  1.00  0.00    -0.147 S 
ATOM     21  C   UNL     1      13.286 -24.487 -39.930  1.00  0.00     0.012 A 
ATOM     22  C   UNL     1      14.288 -24.188 -39.035  1.00  0.00     0.065 A 
ENDBRANCH  15  18
ENDBRANCH   2  13
TORSDOF 3
ENDMDL
MODEL 7
REMARK VINA RESULT:    -6.305      2.583      7.201
REMARK INTER + INTRA:          -8.111
REMARK INTER:                  -7.494
REMARK INTRA:                  -0.617
REMARK UNBOUND:                -0.701
REMARK SMILES Cc1cc(C)cc(NC(=O)N2CCC[C@H]2c2cccs2)c1
REMARK SMILES IDX 8 1 9 2 10 3 7 5 2 6 3 7 21 8 4 9 6 10 1 11 5 12 11 13 12 14
REMARK SMILES IDX 15 15 13 16 14 17 16 18 17 19 20 20 18 21 19 22
REMARK H PARENT 8 4
ROOT
ATOM      1  N   UNL     1      15.614 -23.935 -45.365  1.00  0.00    -0.308 N 
ATOM      2  C   UNL     1      15.493 -23.504 -44.061  1.00  0.00     0.322 C 
ATOM      3  O   UNL     1      14.606 -22.772 -43.635  1.00  0.00    -0.248 OA
ATOM      4  H   UNL     1      16.526 -24.279 -45.617  1.00  0.00     0.171 HD
ENDROOT
BRANCH   1   5
ATOM      5  C   UNL     1      14.709 -23.739 -46.429  1.00  0.00     0.043 A 
ATOM      6  C   UNL     1      13.992 -22.283 -48.252  1.00  0.00    -0.049 A 
ATOM      7  C   UNL     1      13.015 -23.221 -48.605  1.00  0.00     0.007 A 
ATOM      8  C   UNL     1      14.841 -22.557 -47.170  1.00  0.00     0.029 A 
ATOM      9  C   UNL     1      12.864 -24.402 -47.871  1.00  0.00    -0.049 A 
ATOM     10  C   UNL     1      13.724 -24.658 -46.792  1.00  0.00     0.029 A 
ATOM     11  C   UNL     1      14.169 -21.031 -49.059  1.00  0.00     0.044 C 
ATOM     12  C   UNL     1      11.834 -25.419 -48.269  1.00  0.00     0.044 C 
ENDBRANCH   1   5
BRANCH   2  13
ATOM     13  N   UNL     1      16.506 -23.973 -43.234  1.00  0.00    -0.317 N 
ATOM     14  C   UNL     1      17.926 -23.707 -43.414  1.00  0.00     0.122 C 
ATOM     15  C   UNL     1      16.298 -25.178 -42.427  1.00  0.00     0.127 C 
ATOM     16  C   UNL     1      18.609 -25.010 -43.037  1.00  0.00     0.024 C 
ATOM     17  C   UNL     1      17.705 -25.557 -41.943  1.00  0.00     0.033 C 
BRANCH  15  18
ATOM     18  C   UNL     1      15.383 -24.915 -41.259  1.00  0.00     0.027 A 
ATOM     19  C   UNL     1      15.643 -24.277 -40.059  1.00  0.00     0.017 A 
ATOM     20  S   UNL     1      13.761 -25.476 -41.322  1.00  0.00    -0.147 S 
ATOM     21  C   UNL     1      14.506 -24.241 -39.201  1.00  0.00     0.012 A 
ATOM     22  C   UNL     1      13.414 -24.858 -39.768  1.00  0.00     0.065 A 
ENDBRANCH  15  18
ENDBRANCH   2  13
TORSDOF 3
ENDMDL
MODEL 8
REMARK VINA RESULT:    -6.061      2.573      7.235
REMARK INTER + INTRA:          -7.824
REMARK INTER:                  -7.393
REMARK INTRA:                  -0.432
REMARK UNBOUND:                -0.701
REMARK SMILES Cc1cc(C)cc(NC(=O)N2CCC[C@H]2c2cccs2)c1
REMARK SMILES IDX 8 1 9 2 10 3 7 5 2 6 3 7 21 8 4 9 6 10 1 11 5 12 11 13 12 14
REMARK SMILES IDX 15 15 13 16 14 17 16 18 17 19 20 20 18 21 19 22
REMARK H PARENT 8 4
ROOT
ATOM      1  N   UNL     1      14.820 -22.664 -46.529  1.00  0.00    -0.308 N 
ATOM      2  C   UNL     1      14.403 -22.860 -45.229  1.00  0.00     0.322 C 
ATOM      3  O   UNL     1      13.252 -22.732 -44.827  1.00  0.00    -0.248 OA
ATOM      4  H   UNL     1      15.811 -22.524 -46.642  1.00  0.00     0.171 HD
ENDROOT
BRANCH   1   5
ATOM      5  C   UNL     1      14.024 -22.407 -47.664  1.00  0.00     0.043 A 
ATOM      6  C   UNL     1      12.224 -23.196 -49.112  1.00  0.00    -0.049 A 
ATOM      7  C   UNL     1      12.331 -22.024 -49.869  1.00  0.00     0.007 A 
ATOM      8  C   UNL     1      13.066 -23.373 -48.005  1.00  0.00     0.029 A 
ATOM      9  C   UNL     1      13.286 -21.053 -49.548  1.00  0.00    -0.049 A 
ATOM     10  C   UNL     1      14.120 -21.248 -48.436  1.00  0.00     0.029 A 
ATOM     11  C   UNL     1      11.179 -24.220 -49.443  1.00  0.00     0.044 C 
ATOM     12  C   UNL     1      13.380 -19.785 -50.344  1.00  0.00     0.044 C 
ENDBRANCH   1   5
BRANCH   2  13
ATOM     13  N   UNL     1      15.436 -23.214 -44.371  1.00  0.00    -0.317 N 
ATOM     14  C   UNL     1      16.690 -22.489 -44.225  1.00  0.00     0.122 C 
ATOM     15  C   UNL     1      15.580 -24.602 -43.926  1.00  0.00     0.127 C 
ATOM     16  C   UNL     1      17.740 -23.574 -44.055  1.00  0.00     0.024 C 
ATOM     17  C   UNL     1      16.982 -24.657 -43.303  1.00  0.00     0.033 C 
BRANCH  15  18
ATOM     18  C   UNL     1      14.528 -24.973 -42.912  1.00  0.00     0.027 A 
ATOM     19  C   UNL     1      13.405 -25.769 -43.055  1.00  0.00     0.017 A 
ATOM     20  S   UNL     1      14.640 -24.343 -41.318  1.00  0.00    -0.147 S 
ATOM     21  C   UNL     1      12.647 -25.866 -41.853  1.00  0.00     0.012 A 
ATOM     22  C   UNL     1      13.210 -25.138 -40.829  1.00  0.00     0.065 A 
ENDBRANCH  15  18
ENDBRANCH   2  13
TORSDOF 3
ENDMDL
MODEL 9
REMARK VINA RESULT:    -5.930      2.571      6.978
REMARK INTER + INTRA:          -7.671
REMARK INTER:                  -6.941
REMARK INTRA:                  -0.730
REMARK UNBOUND:                -0.701
REMARK SMILES Cc1cc(C)cc(NC(=O)N2CCC[C@H]2c2cccs2)c1
REMARK SMILES IDX 8 1 9 2 10 3 7 5 2 6 3 7 21 8 4 9 6 10 1 11 5 12 11 13 12 14
REMARK SMILES IDX 15 15 13 16 14 17 16 18 17 19 20 20 18 21 19 22
REMARK H PARENT 8 4
ROOT
ATOM      1  N   UNL     1      13.435 -23.947 -44.191  1.00  0.00    -0.308 N 
ATOM      2  C   UNL     1      13.839 -25.157 -43.669  1.00  0.00     0.322 C 
ATOM      3  O   UNL     1      13.998 -26.189 -44.312  1.00  0.00    -0.248 OA
ATOM      4  H   UNL     1      13.078 -23.290 -43.517  1.00  0.00     0.171 HD
ENDROOT
BRANCH   1   5
ATOM      5  C   UNL     1      13.243 -23.610 -45.547  1.00  0.00     0.043 A 
ATOM      6  C   UNL     1      11.735 -23.659 -47.467  1.00  0.00    -0.049 A 
ATOM      7  C   UNL     1      12.690 -22.970 -48.223  1.00  0.00     0.007 A 
ATOM      8  C   UNL     1      12.017 -23.963 -46.127  1.00  0.00     0.029 A 
ATOM      9  C   UNL     1      13.922 -22.615 -47.664  1.00  0.00    -0.049 A 
ATOM     10  C   UNL     1      14.185 -22.928 -46.321  1.00  0.00     0.029 A 
ATOM     11  C   UNL     1      10.405 -24.011 -48.062  1.00  0.00     0.044 C 
ATOM     12  C   UNL     1      14.932 -21.851 -48.468  1.00  0.00     0.044 C 
ENDBRANCH   1   5
BRANCH   2  13
ATOM     13  N   UNL     1      14.049 -25.118 -42.296  1.00  0.00    -0.317 N 
ATOM     14  C   UNL     1      13.047 -25.429 -41.287  1.00  0.00     0.122 C 
ATOM     15  C   UNL     1      15.111 -24.278 -41.738  1.00  0.00     0.127 C 
ATOM     16  C   UNL     1      13.299 -24.422 -40.178  1.00  0.00     0.024 C 
ATOM     17  C   UNL     1      14.806 -24.233 -40.234  1.00  0.00     0.033 C 
BRANCH  15  18
ATOM     18  C   UNL     1      16.475 -24.865 -41.991  1.00  0.00     0.027 A 
ATOM     19  C   UNL     1      17.106 -25.934 -41.377  1.00  0.00     0.017 A 
ATOM     20  S   UNL     1      17.486 -24.154 -43.184  1.00  0.00    -0.147 S 
ATOM     21  C   UNL     1      18.411 -26.171 -41.896  1.00  0.00     0.012 A 
ATOM     22  C   UNL     1      18.741 -25.274 -42.887  1.00  0.00     0.065 A 
ENDBRANCH  15  18
ENDBRANCH   2  13
TORSDOF 3
ENDMDL
