MODEL 1
REMARK VINA RESULT:    -8.044      0.000      0.000
REMARK INTER + INTRA:          -9.783
REMARK INTER:                  -9.454
REMARK INTRA:                  -0.329
REMARK UNBOUND:                -0.329
REMARK SMILES CC[C@@H]1CCc2sc(C(=O)Nc3cccc(C)n3)cc2C1
REMARK SMILES IDX 3 1 4 2 5 3 6 4 7 5 8 6 19 7 20 8 21 9 2 10 1 11 9 12 10 13
REMARK SMILES IDX 11 14 12 16 13 17 18 18 14 19 16 20 15 21 17 22
REMARK H PARENT 11 15
ROOT
ATOM      1  C   UNL     1      13.755 -21.594 -49.335  1.00  0.00    -0.007 C 
ATOM      2  C   UNL     1      12.559 -22.533 -49.056  1.00  0.00     0.009 C 
ATOM      3  C   UNL     1      12.146 -22.654 -47.583  1.00  0.00     0.047 C 
ATOM      4  C   UNL     1      13.346 -22.673 -46.694  1.00  0.00     0.009 A 
ATOM      5  S   UNL     1      13.233 -23.096 -45.052  1.00  0.00    -0.135 S 
ATOM      6  C   UNL     1      14.910 -22.832 -44.792  1.00  0.00     0.093 A 
ATOM      7  C   UNL     1      15.535 -22.444 -45.967  1.00  0.00     0.029 A 
ATOM      8  C   UNL     1      14.630 -22.342 -47.070  1.00  0.00    -0.033 A 
ATOM      9  C   UNL     1      14.986 -21.962 -48.475  1.00  0.00     0.040 C 
ENDROOT
BRANCH   1  10
ATOM     10  C   UNL     1      13.397 -20.091 -49.309  1.00  0.00     0.000 C 
ATOM     11  C   UNL     1      13.546 -19.301 -50.599  1.00  0.00     0.004 C 
ENDBRANCH   1  10
BRANCH   6  12
ATOM     12  C   UNL     1      15.463 -23.044 -43.450  1.00  0.00     0.266 C 
ATOM     13  O   UNL     1      16.361 -22.342 -42.996  1.00  0.00    -0.268 OA
ATOM     14  N   UNL     1      14.881 -24.115 -42.792  1.00  0.00    -0.306 N 
ATOM     15  H   UNL     1      14.245 -24.694 -43.314  1.00  0.00     0.171 HD
BRANCH  14  16
ATOM     16  C   UNL     1      15.160 -24.522 -41.481  1.00  0.00     0.133 A 
ATOM     17  C   UNL     1      16.307 -25.286 -41.282  1.00  0.00     0.047 A 
ATOM     18  N   UNL     1      14.343 -24.198 -40.467  1.00  0.00    -0.236 NA
ATOM     19  C   UNL     1      16.618 -25.720 -39.996  1.00  0.00     0.006 A 
ATOM     20  C   UNL     1      14.651 -24.619 -39.218  1.00  0.00     0.040 A 
ATOM     21  C   UNL     1      15.779 -25.382 -38.944  1.00  0.00     0.023 A 
ATOM     22  C   UNL     1      13.714 -24.228 -38.114  1.00  0.00     0.067 C 
ENDBRANCH  14  16
ENDBRANCH   6  12
TORSDOF 3
ENDMDL
MODEL 2
REMARK VINA RESULT:    -7.709      2.301      8.421
REMARK INTER + INTRA:          -9.389
REMARK INTER:                  -9.173
REMARK INTRA:                  -0.216
REMARK UNBOUND:                -0.329
REMARK SMILES CC[C@@H]1CCc2sc(C(=O)Nc3cccc(C)n3)cc2C1
REMARK SMILES IDX 3 1 4 2 5 3 6 4 7 5 8 6 19 7 20 8 21 9 2 10 1 11 9 12 10 13
REMARK SMILES IDX 11 14 12 16 13 17 18 18 14 19 16 20 15 21 17 22
REMARK H PARENT 11 15
ROOT
ATOM      1  C   UNL     1      13.609 -25.056 -40.016  1.00  0.00    -0.007 C 
ATOM      2  C   UNL     1      15.147 -25.214 -40.002  1.00  0.00     0.009 C 
ATOM      3  C   UNL     1      15.919 -24.220 -40.879  1.00  0.00     0.047 C 
ATOM      4  C   UNL     1      15.197 -23.969 -42.162  1.00  0.00     0.009 A 
ATOM      5  S   UNL     1      15.937 -23.156 -43.457  1.00  0.00    -0.135 S 
ATOM      6  C   UNL     1      14.519 -23.247 -44.421  1.00  0.00     0.093 A 
ATOM      7  C   UNL     1      13.507 -23.913 -43.747  1.00  0.00     0.029 A 
ATOM      8  C   UNL     1      13.893 -24.326 -42.433  1.00  0.00    -0.033 A 
ATOM      9  C   UNL     1      13.043 -25.078 -41.454  1.00  0.00     0.040 C 
ENDROOT
BRANCH   1  10
ATOM     10  C   UNL     1      13.087 -23.885 -39.153  1.00  0.00     0.000 C 
ATOM     11  C   UNL     1      13.473 -23.858 -37.683  1.00  0.00     0.004 C 
ENDBRANCH   1  10
BRANCH   6  12
ATOM     12  C   UNL     1      14.534 -22.660 -45.766  1.00  0.00     0.266 C 
ATOM     13  O   UNL     1      15.579 -22.428 -46.365  1.00  0.00    -0.268 OA
ATOM     14  N   UNL     1      13.264 -22.385 -46.246  1.00  0.00    -0.306 N 
ATOM     15  H   UNL     1      12.490 -22.500 -45.613  1.00  0.00     0.171 HD
BRANCH  14  16
ATOM     16  C   UNL     1      12.959 -21.878 -47.516  1.00  0.00     0.133 A 
ATOM     17  C   UNL     1      13.453 -20.616 -47.832  1.00  0.00     0.047 A 
ATOM     18  N   UNL     1      12.209 -22.581 -48.380  1.00  0.00    -0.236 NA
ATOM     19  C   UNL     1      13.167 -20.070 -49.081  1.00  0.00     0.006 A 
ATOM     20  C   UNL     1      11.936 -22.047 -49.593  1.00  0.00     0.040 A 
ATOM     21  C   UNL     1      12.397 -20.796 -49.979  1.00  0.00     0.023 A 
ATOM     22  C   UNL     1      11.101 -22.869 -50.529  1.00  0.00     0.067 C 
ENDBRANCH  14  16
ENDBRANCH   6  12
TORSDOF 3
ENDMDL
MODEL 3
REMARK VINA RESULT:    -7.463      2.200      8.312
REMARK INTER + INTRA:          -9.100
REMARK INTER:                  -8.641
REMARK INTRA:                  -0.459
REMARK UNBOUND:                -0.329
REMARK SMILES CC[C@@H]1CCc2sc(C(=O)Nc3cccc(C)n3)cc2C1
REMARK SMILES IDX 3 1 4 2 5 3 6 4 7 5 8 6 19 7 20 8 21 9 2 10 1 11 9 12 10 13
REMARK SMILES IDX 11 14 12 16 13 17 18 18 14 19 16 20 15 21 17 22
REMARK H PARENT 11 15
ROOT
ATOM      1  C   UNL     1      15.509 -24.606 -39.391  1.00  0.00    -0.007 C 
ATOM      2  C   UNL     1      13.994 -24.416 -39.140  1.00  0.00     0.009 C 
ATOM      3  C   UNL     1      13.083 -24.756 -40.327  1.00  0.00     0.047 C 
ATOM      4  C   UNL     1      13.697 -24.314 -41.615  1.00  0.00     0.009 A 
ATOM      5  S   UNL     1      12.807 -24.279 -43.062  1.00  0.00    -0.135 S 
ATOM      6  C   UNL     1      14.163 -23.747 -43.970  1.00  0.00     0.093 A 
ATOM      7  C   UNL     1      15.271 -23.585 -43.152  1.00  0.00     0.029 A 
ATOM      8  C   UNL     1      15.007 -23.922 -41.787  1.00  0.00    -0.033 A 
ATOM      9  C   UNL     1      15.981 -23.844 -40.650  1.00  0.00     0.040 C 
ENDROOT
BRANCH   1  10
ATOM     10  C   UNL     1      15.977 -26.078 -39.335  1.00  0.00     0.000 C 
ATOM     11  C   UNL     1      17.236 -26.454 -40.101  1.00  0.00     0.004 C 
ENDBRANCH   1  10
BRANCH   6  12
ATOM     12  C   UNL     1      14.011 -23.525 -45.412  1.00  0.00     0.266 C 
ATOM     13  O   UNL     1      14.703 -24.110 -46.239  1.00  0.00    -0.268 OA
ATOM     14  N   UNL     1      13.038 -22.585 -45.710  1.00  0.00    -0.306 N 
ATOM     15  H   UNL     1      12.626 -22.080 -44.944  1.00  0.00     0.171 HD
BRANCH  14  16
ATOM     16  C   UNL     1      12.629 -22.208 -46.996  1.00  0.00     0.133 A 
ATOM     17  C   UNL     1      13.262 -21.108 -47.568  1.00  0.00     0.047 A 
ATOM     18  N   UNL     1      11.655 -22.875 -47.636  1.00  0.00    -0.236 NA
ATOM     19  C   UNL     1      12.880 -20.693 -48.841  1.00  0.00     0.006 A 
ATOM     20  C   UNL     1      11.289 -22.470 -48.874  1.00  0.00     0.040 A 
ATOM     21  C   UNL     1      11.878 -21.384 -49.509  1.00  0.00     0.023 A 
ATOM     22  C   UNL     1      10.203 -23.248 -49.554  1.00  0.00     0.067 C 
ENDBRANCH  14  16
ENDBRANCH   6  12
TORSDOF 3
ENDMDL
MODEL 4
REMARK VINA RESULT:    -6.966      1.232      2.538
REMARK INTER + INTRA:          -8.516
REMARK INTER:                  -8.176
REMARK INTRA:                  -0.339
REMARK UNBOUND:                -0.329
REMARK SMILES CC[C@@H]1CCc2sc(C(=O)Nc3cccc(C)n3)cc2C1
REMARK SMILES IDX 3 1 4 2 5 3 6 4 7 5 8 6 19 7 20 8 21 9 2 10 1 11 9 12 10 13
REMARK SMILES IDX 11 14 12 16 13 17 18 18 14 19 16 20 15 21 17 22
REMARK H PARENT 11 15
ROOT
ATOM      1  C   UNL     1      12.519 -22.089 -48.753  1.00  0.00    -0.007 C 
ATOM      2  C   UNL     1      13.881 -21.431 -49.078  1.00  0.00     0.009 C 
ATOM      3  C   UNL     1      15.083 -21.992 -48.307  1.00  0.00     0.047 C 
ATOM      4  C   UNL     1      14.712 -22.304 -46.894  1.00  0.00     0.009 A 
ATOM      5  S   UNL     1      15.888 -22.653 -45.719  1.00  0.00    -0.135 S 
ATOM      6  C   UNL     1      14.703 -22.918 -44.505  1.00  0.00     0.093 A 
ATOM      7  C   UNL     1      13.428 -22.717 -45.009  1.00  0.00     0.029 A 
ATOM      8  C   UNL     1      13.428 -22.370 -46.397  1.00  0.00    -0.033 A 
ATOM      9  C   UNL     1      12.222 -22.074 -47.237  1.00  0.00     0.040 C 
ENDROOT
BRANCH   1  10
ATOM     10  C   UNL     1      12.310 -23.466 -49.422  1.00  0.00     0.000 C 
ATOM     11  C   UNL     1      11.436 -24.481 -48.701  1.00  0.00     0.004 C 
ENDBRANCH   1  10
BRANCH   6  12
ATOM     12  C   UNL     1      15.140 -23.291 -43.155  1.00  0.00     0.266 C 
ATOM     13  O   UNL     1      16.235 -22.963 -42.709  1.00  0.00    -0.268 OA
ATOM     14  N   UNL     1      14.203 -24.057 -42.480  1.00  0.00    -0.306 N 
ATOM     15  H   UNL     1      13.397 -24.369 -42.994  1.00  0.00     0.171 HD
BRANCH  14  16
ATOM     16  C   UNL     1      14.313 -24.510 -41.159  1.00  0.00     0.133 A 
ATOM     17  C   UNL     1      13.292 -24.161 -40.280  1.00  0.00     0.047 A 
ATOM     18  N   UNL     1      15.370 -25.237 -40.762  1.00  0.00    -0.236 NA
ATOM     19  C   UNL     1      13.364 -24.583 -38.955  1.00  0.00     0.006 A 
ATOM     20  C   UNL     1      15.434 -25.647 -39.474  1.00  0.00     0.040 A 
ATOM     21  C   UNL     1      14.452 -25.340 -38.542  1.00  0.00     0.023 A 
ATOM     22  C   UNL     1      16.628 -26.462 -39.076  1.00  0.00     0.067 C 
ENDBRANCH  14  16
ENDBRANCH   6  12
TORSDOF 3
ENDMDL
MODEL 5
REMARK VINA RESULT:    -6.823      2.942      8.346
REMARK INTER + INTRA:          -8.348
REMARK INTER:                  -8.013
REMARK INTRA:                  -0.335
REMARK UNBOUND:                -0.329
REMARK SMILES CC[C@@H]1CCc2sc(C(=O)Nc3cccc(C)n3)cc2C1
REMARK SMILES IDX 3 1 4 2 5 3 6 4 7 5 8 6 19 7 20 8 21 9 2 10 1 11 9 12 10 13
REMARK SMILES IDX 11 14 12 16 13 17 18 18 14 19 16 20 15 21 17 22
REMARK H PARENT 11 15
ROOT
ATOM      1  C   UNL     1      14.892 -25.249 -40.221  1.00  0.00    -0.007 C 
ATOM      2  C   UNL     1      16.274 -25.011 -40.875  1.00  0.00     0.009 C 
ATOM      3  C   UNL     1      16.311 -23.922 -41.956  1.00  0.00     0.047 C 
ATOM      4  C   UNL     1      15.075 -23.959 -42.793  1.00  0.00     0.009 A 
ATOM      5  S   UNL     1      14.954 -23.086 -44.245  1.00  0.00    -0.135 S 
ATOM      6  C   UNL     1      13.338 -23.605 -44.510  1.00  0.00     0.093 A 
ATOM      7  C   UNL     1      12.921 -24.453 -43.495  1.00  0.00     0.029 A 
ATOM      8  C   UNL     1      13.922 -24.654 -42.493  1.00  0.00    -0.033 A 
ATOM      9  C   UNL     1      13.797 -25.521 -41.277  1.00  0.00     0.040 C 
ENDROOT
BRANCH   1  10
ATOM     10  C   UNL     1      14.502 -24.186 -39.170  1.00  0.00     0.000 C 
ATOM     11  C   UNL     1      13.027 -23.846 -39.016  1.00  0.00     0.004 C 
ENDBRANCH   1  10
BRANCH   6  12
ATOM     12  C   UNL     1      12.628 -23.136 -45.704  1.00  0.00     0.266 C 
ATOM     13  O   UNL     1      12.653 -21.963 -46.060  1.00  0.00    -0.268 OA
ATOM     14  N   UNL     1      11.927 -24.146 -46.343  1.00  0.00    -0.306 N 
ATOM     15  H   UNL     1      11.878 -25.041 -45.886  1.00  0.00     0.171 HD
BRANCH  14  16
ATOM     16  C   UNL     1      11.205 -24.016 -47.536  1.00  0.00     0.133 A 
ATOM     17  C   UNL     1      11.926 -23.706 -48.686  1.00  0.00     0.047 A 
ATOM     18  N   UNL     1       9.871 -24.168 -47.558  1.00  0.00    -0.236 NA
ATOM     19  C   UNL     1      11.247 -23.559 -49.892  1.00  0.00     0.006 A 
ATOM     20  C   UNL     1       9.216 -24.026 -48.734  1.00  0.00     0.040 A 
ATOM     21  C   UNL     1       9.869 -23.721 -49.921  1.00  0.00     0.023 A 
ATOM     22  C   UNL     1       7.728 -24.212 -48.714  1.00  0.00     0.067 C 
ENDBRANCH  14  16
ENDBRANCH   6  12
TORSDOF 3
ENDMDL
MODEL 6
REMARK VINA RESULT:    -6.632      1.682      2.180
REMARK INTER + INTRA:          -8.124
REMARK INTER:                  -7.758
REMARK INTRA:                  -0.366
REMARK UNBOUND:                -0.329
REMARK SMILES CC[C@@H]1CCc2sc(C(=O)Nc3cccc(C)n3)cc2C1
REMARK SMILES IDX 3 1 4 2 5 3 6 4 7 5 8 6 19 7 20 8 21 9 2 10 1 11 9 12 10 13
REMARK SMILES IDX 11 14 12 16 13 17 18 18 14 19 16 20 15 21 17 22
REMARK H PARENT 11 15
ROOT
ATOM      1  C   UNL     1      13.942 -21.792 -48.859  1.00  0.00    -0.007 C 
ATOM      2  C   UNL     1      12.862 -22.775 -49.368  1.00  0.00     0.009 C 
ATOM      3  C   UNL     1      11.886 -23.290 -48.302  1.00  0.00     0.047 C 
ATOM      4  C   UNL     1      12.594 -23.548 -47.012  1.00  0.00     0.009 A 
ATOM      5  S   UNL     1      11.852 -24.399 -45.742  1.00  0.00    -0.135 S 
ATOM      6  C   UNL     1      13.219 -24.212 -44.720  1.00  0.00     0.093 A 
ATOM      7  C   UNL     1      14.229 -23.519 -45.369  1.00  0.00     0.029 A 
ATOM      8  C   UNL     1      13.867 -23.123 -46.696  1.00  0.00    -0.033 A 
ATOM      9  C   UNL     1      14.732 -22.376 -47.665  1.00  0.00     0.040 C 
ENDROOT
BRANCH   1  10
ATOM     10  C   UNL     1      13.427 -20.353 -48.628  1.00  0.00     0.000 C 
ATOM     11  C   UNL     1      13.498 -19.377 -49.792  1.00  0.00     0.004 C 
ENDBRANCH   1  10
BRANCH   6  12
ATOM     12  C   UNL     1      13.178 -24.778 -43.367  1.00  0.00     0.266 C 
ATOM     13  O   UNL     1      12.485 -25.751 -43.088  1.00  0.00    -0.268 OA
ATOM     14  N   UNL     1      13.971 -24.082 -42.469  1.00  0.00    -0.306 N 
ATOM     15  H   UNL     1      14.392 -23.225 -42.786  1.00  0.00     0.171 HD
BRANCH  14  16
ATOM     16  C   UNL     1      14.178 -24.419 -41.125  1.00  0.00     0.133 A 
ATOM     17  C   UNL     1      13.258 -23.935 -40.200  1.00  0.00     0.047 A 
ATOM     18  N   UNL     1      15.230 -25.164 -40.753  1.00  0.00    -0.236 NA
ATOM     19  C   UNL     1      13.430 -24.239 -38.852  1.00  0.00     0.006 A 
ATOM     20  C   UNL     1      15.392 -25.458 -39.442  1.00  0.00     0.040 A 
ATOM     21  C   UNL     1      14.514 -25.014 -38.463  1.00  0.00     0.023 A 
ATOM     22  C   UNL     1      16.577 -26.299 -39.072  1.00  0.00     0.067 C 
ENDBRANCH  14  16
ENDBRANCH   6  12
TORSDOF 3
ENDMDL
MODEL 7
REMARK VINA RESULT:    -6.622      4.410      9.034
REMARK INTER + INTRA:          -8.112
REMARK INTER:                  -7.712
REMARK INTRA:                  -0.400
REMARK UNBOUND:                -0.329
REMARK SMILES CC[C@@H]1CCc2sc(C(=O)Nc3cccc(C)n3)cc2C1
REMARK SMILES IDX 3 1 4 2 5 3 6 4 7 5 8 6 19 7 20 8 21 9 2 10 1 11 9 12 10 13
REMARK SMILES IDX 11 14 12 16 13 17 18 18 14 19 16 20 15 21 17 22
REMARK H PARENT 11 15
ROOT
ATOM      1  C   UNL     1      16.608 -22.988 -45.378  1.00  0.00    -0.007 C 
ATOM      2  C   UNL     1      15.512 -22.755 -44.311  1.00  0.00     0.009 C 
ATOM      3  C   UNL     1      14.087 -23.128 -44.739  1.00  0.00     0.047 C 
ATOM      4  C   UNL     1      13.844 -22.756 -46.165  1.00  0.00     0.009 A 
ATOM      5  S   UNL     1      12.283 -22.767 -46.836  1.00  0.00    -0.135 S 
ATOM      6  C   UNL     1      12.866 -22.305 -48.385  1.00  0.00     0.093 A 
ATOM      7  C   UNL     1      14.241 -22.130 -48.362  1.00  0.00     0.029 A 
ATOM      8  C   UNL     1      14.814 -22.401 -47.078  1.00  0.00    -0.033 A 
ATOM      9  C   UNL     1      16.263 -22.293 -46.715  1.00  0.00     0.040 C 
ENDROOT
BRANCH   1  10
ATOM     10  C   UNL     1      17.035 -24.465 -45.530  1.00  0.00     0.000 C 
ATOM     11  C   UNL     1      17.366 -25.243 -44.266  1.00  0.00     0.004 C 
ENDBRANCH   1  10
BRANCH   6  12
ATOM     12  C   UNL     1      11.909 -22.144 -49.485  1.00  0.00     0.266 C 
ATOM     13  O   UNL     1      11.756 -21.074 -50.065  1.00  0.00    -0.268 OA
ATOM     14  N   UNL     1      11.205 -23.305 -49.758  1.00  0.00    -0.306 N 
ATOM     15  H   UNL     1      11.326 -24.083 -49.132  1.00  0.00     0.171 HD
BRANCH  14  16
ATOM     16  C   UNL     1      10.269 -23.474 -50.788  1.00  0.00     0.133 A 
ATOM     17  C   UNL     1      10.702 -24.124 -51.940  1.00  0.00     0.047 A 
ATOM     18  N   UNL     1       9.015 -23.011 -50.666  1.00  0.00    -0.236 NA
ATOM     19  C   UNL     1       9.808 -24.305 -52.992  1.00  0.00     0.006 A 
ATOM     20  C   UNL     1       8.149 -23.192 -51.690  1.00  0.00     0.040 A 
ATOM     21  C   UNL     1       8.508 -23.834 -52.867  1.00  0.00     0.023 A 
ATOM     22  C   UNL     1       6.757 -22.665 -51.508  1.00  0.00     0.067 C 
ENDBRANCH  14  16
ENDBRANCH   6  12
TORSDOF 3
ENDMDL
MODEL 8
REMARK VINA RESULT:    -6.471      6.849     10.014
REMARK INTER + INTRA:          -7.934
REMARK INTER:                  -7.545
REMARK INTRA:                  -0.390
REMARK UNBOUND:                -0.329
REMARK SMILES CC[C@@H]1CCc2sc(C(=O)Nc3cccc(C)n3)cc2C1
REMARK SMILES IDX 3 1 4 2 5 3 6 4 7 5 8 6 19 7 20 8 21 9 2 10 1 11 9 12 10 13
REMARK SMILES IDX 11 14 12 16 13 17 18 18 14 19 16 20 15 21 17 22
REMARK H PARENT 11 15
ROOT
ATOM      1  C   UNL     1       3.647 -23.786 -51.523  1.00  0.00    -0.007 C 
ATOM      2  C   UNL     1       3.838 -24.817 -50.386  1.00  0.00     0.009 C 
ATOM      3  C   UNL     1       5.041 -24.568 -49.467  1.00  0.00     0.047 C 
ATOM      4  C   UNL     1       6.216 -24.078 -50.249  1.00  0.00     0.009 A 
ATOM      5  S   UNL     1       7.771 -24.000 -49.568  1.00  0.00    -0.135 S 
ATOM      6  C   UNL     1       8.447 -23.340 -51.002  1.00  0.00     0.093 A 
ATOM      7  C   UNL     1       7.479 -23.208 -51.987  1.00  0.00     0.029 A 
ATOM      8  C   UNL     1       6.182 -23.625 -51.551  1.00  0.00    -0.033 A 
ATOM      9  C   UNL     1       4.928 -23.624 -52.371  1.00  0.00     0.040 C 
ENDROOT
BRANCH   1  10
ATOM     10  C   UNL     1       3.024 -22.449 -51.063  1.00  0.00     0.000 C 
ATOM     11  C   UNL     1       2.308 -21.602 -52.104  1.00  0.00     0.004 C 
ENDBRANCH   1  10
BRANCH   6  12
ATOM     12  C   UNL     1       9.878 -23.022 -51.033  1.00  0.00     0.266 C 
ATOM     13  O   UNL     1      10.596 -23.332 -51.978  1.00  0.00    -0.268 OA
ATOM     14  N   UNL     1      10.309 -22.374 -49.886  1.00  0.00    -0.306 N 
ATOM     15  H   UNL     1       9.656 -22.288 -49.126  1.00  0.00     0.171 HD
BRANCH  14  16
ATOM     16  C   UNL     1      11.604 -21.895 -49.652  1.00  0.00     0.133 A 
ATOM     17  C   UNL     1      12.416 -22.645 -48.806  1.00  0.00     0.047 A 
ATOM     18  N   UNL     1      12.031 -20.752 -50.212  1.00  0.00    -0.236 NA
ATOM     19  C   UNL     1      13.709 -22.201 -48.539  1.00  0.00     0.006 A 
ATOM     20  C   UNL     1      13.288 -20.326 -49.952  1.00  0.00     0.040 A 
ATOM     21  C   UNL     1      14.156 -21.023 -49.121  1.00  0.00     0.023 A 
ATOM     22  C   UNL     1      13.726 -19.048 -50.603  1.00  0.00     0.067 C 
ENDBRANCH  14  16
ENDBRANCH   6  12
TORSDOF 3
ENDMDL
MODEL 9
REMARK VINA RESULT:    -6.301      5.265      9.308
REMARK INTER + INTRA:          -7.734
REMARK INTER:                  -7.328
REMARK INTRA:                  -0.406
REMARK UNBOUND:                -0.329
REMARK SMILES CC[C@@H]1CCc2sc(C(=O)Nc3cccc(C)n3)cc2C1
REMARK SMILES IDX 3 1 4 2 5 3 6 4 7 5 8 6 19 7 20 8 21 9 2 10 1 11 9 12 10 13
REMARK SMILES IDX 11 14 12 16 13 17 18 18 14 19 16 20 15 21 17 22
REMARK H PARENT 11 15
ROOT
ATOM      1  C   UNL     1      15.302 -23.696 -45.789  1.00  0.00    -0.007 C 
ATOM      2  C   UNL     1      15.695 -22.586 -46.793  1.00  0.00     0.009 C 
ATOM      3  C   UNL     1      14.526 -21.923 -47.532  1.00  0.00     0.047 C 
ATOM      4  C   UNL     1      13.481 -22.929 -47.889  1.00  0.00     0.009 A 
ATOM      5  S   UNL     1      12.218 -22.561 -48.964  1.00  0.00    -0.135 S 
ATOM      6  C   UNL     1      11.513 -24.117 -48.786  1.00  0.00     0.093 A 
ATOM      7  C   UNL     1      12.263 -24.901 -47.923  1.00  0.00     0.029 A 
ATOM      8  C   UNL     1      13.400 -24.213 -47.393  1.00  0.00    -0.033 A 
ATOM      9  C   UNL     1      14.417 -24.778 -46.448  1.00  0.00     0.040 C 
ENDROOT
BRANCH   1  10
ATOM     10  C   UNL     1      14.750 -23.164 -44.447  1.00  0.00     0.000 C 
ATOM     11  C   UNL     1      15.690 -22.366 -43.558  1.00  0.00     0.004 C 
ENDBRANCH   1  10
BRANCH   6  12
ATOM     12  C   UNL     1      10.285 -24.429 -49.525  1.00  0.00     0.266 C 
ATOM     13  O   UNL     1      10.094 -25.527 -50.037  1.00  0.00    -0.268 OA
ATOM     14  N   UNL     1       9.411 -23.357 -49.592  1.00  0.00    -0.306 N 
ATOM     15  H   UNL     1       9.733 -22.470 -49.244  1.00  0.00     0.171 HD
BRANCH  14  16
ATOM     16  C   UNL     1       8.138 -23.372 -50.179  1.00  0.00     0.133 A 
ATOM     17  C   UNL     1       8.049 -22.985 -51.513  1.00  0.00     0.047 A 
ATOM     18  N   UNL     1       7.055 -23.729 -49.472  1.00  0.00    -0.236 NA
ATOM     19  C   UNL     1       6.803 -22.977 -52.134  1.00  0.00     0.006 A 
ATOM     20  C   UNL     1       5.846 -23.721 -50.080  1.00  0.00     0.040 A 
ATOM     21  C   UNL     1       5.680 -23.351 -51.408  1.00  0.00     0.023 A 
ATOM     22  C   UNL     1       4.664 -24.135 -49.256  1.00  0.00     0.067 C 
ENDBRANCH  14  16
ENDBRANCH   6  12
TORSDOF 3
ENDMDL
