REMARK SMILES C[C@H]1CC[C@H]2O[C@@H](C(C)(C)C)C[C@@H](C(C)(C)C)[C@@H]2C1
REMARK SMILES IDX 1 1 2 2 3 3 4 4 5 5 6 6 7 7 12 8 13 9 18 10 19 11 14 12
REMARK SMILES IDX 15 13 16 14 17 15 8 16 9 17 10 18 11 19
REMARK H PARENT
ROOT
ATOM      1  C   UNL     1       0.222   3.053  -3.638  1.00  0.00     0.007 C 
ATOM      2  C   UNL     1      -0.323   1.911  -2.784  1.00  0.00    -0.014 C 
ATOM      3  C   UNL     1      -0.302   0.589  -3.547  1.00  0.00     0.006 C 
ATOM      4  C   UNL     1      -0.944  -0.533  -2.736  1.00  0.00     0.032 C 
ATOM      5  C   UNL     1      -0.917  -0.298  -1.219  1.00  0.00     0.122 C 
ATOM      6  O   UNL     1      -1.059  -1.576  -0.607  1.00  0.00    -0.374 OA
ATOM      7  C   UNL     1      -1.147  -1.496   0.816  1.00  0.00     0.124 C 
ATOM      8  C   UNL     1       0.182  -0.949   1.350  1.00  0.00     0.037 C 
ATOM      9  C   UNL     1       0.518   0.458   0.779  1.00  0.00     0.003 C 
ATOM     10  C   UNL     1       0.379   0.409  -0.781  1.00  0.00     0.022 C 
ATOM     11  C   UNL     1       0.462   1.792  -1.463  1.00  0.00     0.010 C 
ENDROOT
BRANCH   9  12
ATOM     12  C   UNL     1       1.896   1.012   1.354  1.00  0.00    -0.035 C 
ATOM     13  C   UNL     1       2.016   0.734   2.874  1.00  0.00     0.011 C 
ATOM     14  C   UNL     1       3.116   0.369   0.667  1.00  0.00     0.011 C 
ATOM     15  C   UNL     1       2.004   2.546   1.205  1.00  0.00     0.011 C 
ENDBRANCH   9  12
BRANCH   7  16
ATOM     16  C   UNL     1      -1.548  -2.901   1.369  1.00  0.00    -0.012 C 
ATOM     17  C   UNL     1      -0.517  -3.984   0.999  1.00  0.00     0.013 C 
ATOM     18  C   UNL     1      -1.708  -2.867   2.900  1.00  0.00     0.013 C 
ATOM     19  C   UNL     1      -2.906  -3.311   0.756  1.00  0.00     0.013 C 
ENDBRANCH   7  16
TORSDOF 2
