MODEL 1
REMARK VINA RESULT:    -7.550      0.000      0.000
REMARK INTER + INTRA:         -11.440
REMARK INTER:                 -10.198
REMARK INTRA:                  -1.242
REMARK UNBOUND:                -1.242
REMARK SMILES C[C@@H](/[NH+]=C(\N)SCc1cc([N+](=O)[O-])cc2c1OCOC2)c1ccccc1
REMARK SMILES IDX 6 1 4 2 3 3 5 4 2 8 1 9 21 10 22 11 26 12 23 13 25 14 24 15
REMARK SMILES IDX 7 16 8 17 9 18 16 19 10 20 15 21 17 22 14 23 20 24 18 25
REMARK SMILES IDX 19 26 11 27 12 28 13 29
REMARK H PARENT 3 5 5 6 5 7
ROOT
ATOM      1  S   UNL     1      16.525 -21.961 -44.956  1.00  0.00    -0.034 SA
ENDROOT
BRANCH   1   2
ATOM      2  C   UNL     1      17.069 -23.156 -43.845  1.00  0.00     0.302 C 
ATOM      3  N   UNL     1      16.162 -23.839 -43.188  1.00  0.00    -0.262 N 
ATOM      4  N   UNL     1      18.364 -23.293 -43.706  1.00  0.00    -0.282 N 
ATOM      5  H   UNL     1      15.202 -23.565 -43.377  1.00  0.00     0.306 HD
ATOM      6  H   UNL     1      18.961 -22.685 -44.253  1.00  0.00     0.302 HD
ATOM      7  H   UNL     1      18.792 -23.955 -43.078  1.00  0.00     0.302 HD
BRANCH   3   8
ATOM      8  C   UNL     1      16.379 -24.865 -42.157  1.00  0.00     0.201 C 
ATOM      9  C   UNL     1      16.298 -26.242 -42.806  1.00  0.00     0.063 C 
BRANCH   8  10
ATOM     10  C   UNL     1      15.363 -24.596 -41.067  1.00  0.00    -0.004 A 
ATOM     11  C   UNL     1      15.692 -24.611 -39.702  1.00  0.00     0.008 A 
ATOM     12  C   UNL     1      14.019 -24.384 -41.427  1.00  0.00     0.008 A 
ATOM     13  C   UNL     1      14.711 -24.400 -38.730  1.00  0.00     0.000 A 
ATOM     14  C   UNL     1      13.042 -24.174 -40.452  1.00  0.00     0.000 A 
ATOM     15  C   UNL     1      13.389 -24.180 -39.106  1.00  0.00     0.000 A 
ENDBRANCH   8  10
ENDBRANCH   3   8
ENDBRANCH   1   2
BRANCH   1  16
ATOM     16  C   UNL     1      16.249 -22.971 -46.445  1.00  0.00     0.122 C 
BRANCH  16  17
ATOM     17  C   UNL     1      14.828 -22.887 -46.947  1.00  0.00     0.012 A 
ATOM     18  C   UNL     1      14.494 -21.964 -47.950  1.00  0.00     0.094 A 
ATOM     19  C   UNL     1      13.815 -23.714 -46.428  1.00  0.00     0.132 A 
ATOM     20  C   UNL     1      13.170 -21.864 -48.403  1.00  0.00     0.270 A 
ATOM     21  C   UNL     1      12.502 -23.647 -46.919  1.00  0.00     0.027 A 
ATOM     22  O   UNL     1      14.172 -24.597 -45.445  1.00  0.00    -0.467 OA
ATOM     23  C   UNL     1      12.172 -22.702 -47.899  1.00  0.00     0.095 A 
ATOM     24  C   UNL     1      11.461 -24.577 -46.369  1.00  0.00     0.204 C 
ATOM     25  C   UNL     1      13.076 -25.318 -44.870  1.00  0.00     0.395 C 
ATOM     26  O   UNL     1      12.095 -25.720 -45.812  1.00  0.00    -0.340 OA
BRANCH  20  27
ATOM     27  N   UNL     1      12.833 -20.831 -49.386  1.00  0.00     0.062 N 
ATOM     28  O   UNL     1      12.331 -21.192 -50.455  1.00  0.00    -0.258 OA
ATOM     29  O   UNL     1      13.049 -19.655 -49.054  1.00  0.00    -0.258 OA
ENDBRANCH  20  27
ENDBRANCH  16  17
ENDBRANCH   1  16
TORSDOF 6
ENDMDL
MODEL 2
REMARK VINA RESULT:    -7.301      1.958      2.811
REMARK INTER + INTRA:         -11.104
REMARK INTER:                 -10.465
REMARK INTRA:                  -0.639
REMARK UNBOUND:                -1.242
REMARK SMILES C[C@@H](/[NH+]=C(\N)SCc1cc([N+](=O)[O-])cc2c1OCOC2)c1ccccc1
REMARK SMILES IDX 6 1 4 2 3 3 5 4 2 8 1 9 21 10 22 11 26 12 23 13 25 14 24 15
REMARK SMILES IDX 7 16 8 17 9 18 16 19 10 20 15 21 17 22 14 23 20 24 18 25
REMARK SMILES IDX 19 26 11 27 12 28 13 29
REMARK H PARENT 3 5 5 6 5 7
ROOT
ATOM      1  S   UNL     1      14.097 -23.788 -46.168  1.00  0.00    -0.034 SA
ENDROOT
BRANCH   1   2
ATOM      2  C   UNL     1      15.109 -23.171 -44.920  1.00  0.00     0.302 C 
ATOM      3  N   UNL     1      15.393 -23.964 -43.914  1.00  0.00    -0.262 N 
ATOM      4  N   UNL     1      15.514 -21.932 -45.041  1.00  0.00    -0.282 N 
ATOM      5  H   UNL     1      14.948 -24.876 -43.953  1.00  0.00     0.306 HD
ATOM      6  H   UNL     1      15.202 -21.415 -45.855  1.00  0.00     0.302 HD
ATOM      7  H   UNL     1      16.102 -21.466 -44.368  1.00  0.00     0.302 HD
BRANCH   3   8
ATOM      8  C   UNL     1      16.184 -23.649 -42.715  1.00  0.00     0.201 C 
ATOM      9  C   UNL     1      17.526 -24.366 -42.808  1.00  0.00     0.063 C 
BRANCH   8  10
ATOM     10  C   UNL     1      15.325 -24.023 -41.527  1.00  0.00    -0.004 A 
ATOM     11  C   UNL     1      13.938 -24.225 -41.625  1.00  0.00     0.008 A 
ATOM     12  C   UNL     1      15.922 -24.111 -40.256  1.00  0.00     0.008 A 
ATOM     13  C   UNL     1      13.179 -24.527 -40.492  1.00  0.00     0.000 A 
ATOM     14  C   UNL     1      15.160 -24.412 -39.125  1.00  0.00     0.000 A 
ATOM     15  C   UNL     1      13.791 -24.621 -39.245  1.00  0.00     0.000 A 
ENDBRANCH   8  10
ENDBRANCH   3   8
ENDBRANCH   1   2
BRANCH   1  16
ATOM     16  C   UNL     1      12.875 -22.448 -46.318  1.00  0.00     0.122 C 
BRANCH  16  17
ATOM     17  C   UNL     1      12.369 -22.281 -47.731  1.00  0.00     0.012 A 
ATOM     18  C   UNL     1      13.013 -21.392 -48.604  1.00  0.00     0.094 A 
ATOM     19  C   UNL     1      11.251 -22.995 -48.201  1.00  0.00     0.132 A 
ATOM     20  C   UNL     1      12.533 -21.213 -49.910  1.00  0.00     0.270 A 
ATOM     21  C   UNL     1      10.804 -22.853 -49.522  1.00  0.00     0.027 A 
ATOM     22  O   UNL     1      10.640 -23.848 -47.320  1.00  0.00    -0.467 OA
ATOM     23  C   UNL     1      11.435 -21.941 -50.377  1.00  0.00     0.095 A 
ATOM     24  C   UNL     1       9.635 -23.667 -49.996  1.00  0.00     0.204 C 
ATOM     25  C   UNL     1       9.437 -24.447 -47.816  1.00  0.00     0.395 C 
ATOM     26  O   UNL     1       9.502 -24.823 -49.182  1.00  0.00    -0.340 OA
BRANCH  20  27
ATOM     27  N   UNL     1      13.171 -20.214 -50.771  1.00  0.00     0.062 N 
ATOM     28  O   UNL     1      13.617 -19.193 -50.240  1.00  0.00    -0.258 OA
ATOM     29  O   UNL     1      13.244 -20.487 -51.980  1.00  0.00    -0.258 OA
ENDBRANCH  20  27
ENDBRANCH  16  17
ENDBRANCH   1  16
TORSDOF 6
ENDMDL
MODEL 3
REMARK VINA RESULT:    -7.206      3.018      7.198
REMARK INTER + INTRA:         -10.975
REMARK INTER:                 -10.008
REMARK INTRA:                  -0.967
REMARK UNBOUND:                -1.242
REMARK SMILES C[C@@H](/[NH+]=C(\N)SCc1cc([N+](=O)[O-])cc2c1OCOC2)c1ccccc1
REMARK SMILES IDX 6 1 4 2 3 3 5 4 2 8 1 9 21 10 22 11 26 12 23 13 25 14 24 15
REMARK SMILES IDX 7 16 8 17 9 18 16 19 10 20 15 21 17 22 14 23 20 24 18 25
REMARK SMILES IDX 19 26 11 27 12 28 13 29
REMARK H PARENT 3 5 5 6 5 7
ROOT
ATOM      1  S   UNL     1      12.548 -25.820 -44.689  1.00  0.00    -0.034 SA
ENDROOT
BRANCH   1   2
ATOM      2  C   UNL     1      11.644 -25.417 -46.096  1.00  0.00     0.302 C 
ATOM      3  N   UNL     1      12.288 -24.878 -47.103  1.00  0.00    -0.262 N 
ATOM      4  N   UNL     1      10.356 -25.654 -46.064  1.00  0.00    -0.282 N 
ATOM      5  H   UNL     1      13.276 -24.713 -46.938  1.00  0.00     0.306 HD
ATOM      6  H   UNL     1       9.974 -26.051 -45.213  1.00  0.00     0.302 HD
ATOM      7  H   UNL     1       9.730 -25.451 -46.827  1.00  0.00     0.302 HD
BRANCH   3   8
ATOM      8  C   UNL     1      11.730 -24.404 -48.378  1.00  0.00     0.201 C 
ATOM      9  C   UNL     1      11.782 -25.540 -49.393  1.00  0.00     0.063 C 
BRANCH   8  10
ATOM     10  C   UNL     1      12.509 -23.161 -48.750  1.00  0.00    -0.004 A 
ATOM     11  C   UNL     1      13.764 -22.858 -48.197  1.00  0.00     0.008 A 
ATOM     12  C   UNL     1      11.931 -22.234 -49.637  1.00  0.00     0.008 A 
ATOM     13  C   UNL     1      14.428 -21.677 -48.538  1.00  0.00     0.000 A 
ATOM     14  C   UNL     1      12.597 -21.054 -49.975  1.00  0.00     0.000 A 
ATOM     15  C   UNL     1      13.845 -20.778 -49.427  1.00  0.00     0.000 A 
ENDBRANCH   8  10
ENDBRANCH   3   8
ENDBRANCH   1   2
BRANCH   1  16
ATOM     16  C   UNL     1      12.546 -24.227 -43.808  1.00  0.00     0.122 C 
BRANCH  16  17
ATOM     17  C   UNL     1      13.911 -23.853 -43.283  1.00  0.00     0.012 A 
ATOM     18  C   UNL     1      14.816 -23.172 -44.111  1.00  0.00     0.094 A 
ATOM     19  C   UNL     1      14.310 -24.178 -41.973  1.00  0.00     0.132 A 
ATOM     20  C   UNL     1      16.095 -22.844 -43.638  1.00  0.00     0.270 A 
ATOM     21  C   UNL     1      15.571 -23.804 -41.486  1.00  0.00     0.027 A 
ATOM     22  O   UNL     1      13.407 -24.851 -41.194  1.00  0.00    -0.467 OA
ATOM     23  C   UNL     1      16.478 -23.151 -42.329  1.00  0.00     0.095 A 
ATOM     24  C   UNL     1      15.940 -24.131 -40.068  1.00  0.00     0.204 C 
ATOM     25  C   UNL     1      13.915 -25.263 -39.921  1.00  0.00     0.395 C 
ATOM     26  O   UNL     1      14.758 -24.306 -39.300  1.00  0.00    -0.340 OA
BRANCH  20  27
ATOM     27  N   UNL     1      17.050 -22.212 -44.552  1.00  0.00     0.062 N 
ATOM     28  O   UNL     1      18.183 -21.968 -44.128  1.00  0.00    -0.258 OA
ATOM     29  O   UNL     1      16.653 -21.997 -45.709  1.00  0.00    -0.258 OA
ENDBRANCH  20  27
ENDBRANCH  16  17
ENDBRANCH   1  16
TORSDOF 6
ENDMDL
MODEL 4
REMARK VINA RESULT:    -7.147      1.180      1.447
REMARK INTER + INTRA:         -10.895
REMARK INTER:                  -9.852
REMARK INTRA:                  -1.043
REMARK UNBOUND:                -1.242
REMARK SMILES C[C@@H](/[NH+]=C(\N)SCc1cc([N+](=O)[O-])cc2c1OCOC2)c1ccccc1
REMARK SMILES IDX 6 1 4 2 3 3 5 4 2 8 1 9 21 10 22 11 26 12 23 13 25 14 24 15
REMARK SMILES IDX 7 16 8 17 9 18 16 19 10 20 15 21 17 22 14 23 20 24 18 25
REMARK SMILES IDX 19 26 11 27 12 28 13 29
REMARK H PARENT 3 5 5 6 5 7
ROOT
ATOM      1  S   UNL     1      15.656 -22.295 -45.081  1.00  0.00    -0.034 SA
ENDROOT
BRANCH   1   2
ATOM      2  C   UNL     1      15.889 -23.720 -44.144  1.00  0.00     0.302 C 
ATOM      3  N   UNL     1      14.824 -24.337 -43.694  1.00  0.00    -0.262 N 
ATOM      4  N   UNL     1      17.126 -24.086 -43.918  1.00  0.00    -0.282 N 
ATOM      5  H   UNL     1      13.943 -23.884 -43.917  1.00  0.00     0.306 HD
ATOM      6  H   UNL     1      17.864 -23.507 -44.301  1.00  0.00     0.302 HD
ATOM      7  H   UNL     1      17.379 -24.898 -43.376  1.00  0.00     0.302 HD
BRANCH   3   8
ATOM      8  C   UNL     1      14.770 -25.530 -42.836  1.00  0.00     0.201 C 
ATOM      9  C   UNL     1      13.649 -26.440 -43.326  1.00  0.00     0.063 C 
BRANCH   8  10
ATOM     10  C   UNL     1      14.628 -25.028 -41.415  1.00  0.00    -0.004 A 
ATOM     11  C   UNL     1      15.700 -25.002 -40.508  1.00  0.00     0.008 A 
ATOM     12  C   UNL     1      13.359 -24.629 -40.957  1.00  0.00     0.008 A 
ATOM     13  C   UNL     1      15.512 -24.570 -39.193  1.00  0.00     0.000 A 
ATOM     14  C   UNL     1      13.174 -24.199 -39.642  1.00  0.00     0.000 A 
ATOM     15  C   UNL     1      14.251 -24.168 -38.763  1.00  0.00     0.000 A 
ENDBRANCH   8  10
ENDBRANCH   3   8
ENDBRANCH   1   2
BRANCH   1  16
ATOM     16  C   UNL     1      15.835 -22.956 -46.767  1.00  0.00     0.122 C 
BRANCH  16  17
ATOM     17  C   UNL     1      14.586 -22.774 -47.597  1.00  0.00     0.012 A 
ATOM     18  C   UNL     1      14.473 -21.670 -48.456  1.00  0.00     0.094 A 
ATOM     19  C   UNL     1      13.518 -23.686 -47.527  1.00  0.00     0.132 A 
ATOM     20  C   UNL     1      13.305 -21.482 -49.210  1.00  0.00     0.270 A 
ATOM     21  C   UNL     1      12.373 -23.523 -48.320  1.00  0.00     0.027 A 
ATOM     22  O   UNL     1      13.657 -24.747 -46.672  1.00  0.00    -0.467 OA
ATOM     23  C   UNL     1      12.256 -22.403 -49.153  1.00  0.00     0.095 A 
ATOM     24  C   UNL     1      11.275 -24.544 -48.248  1.00  0.00     0.204 C 
ATOM     25  C   UNL     1      12.490 -25.566 -46.551  1.00  0.00     0.395 C 
ATOM     26  O   UNL     1      11.803 -25.774 -47.775  1.00  0.00    -0.340 OA
BRANCH  20  27
ATOM     27  N   UNL     1      13.177 -20.275 -50.031  1.00  0.00     0.062 N 
ATOM     28  O   UNL     1      13.319 -19.181 -49.478  1.00  0.00    -0.258 OA
ATOM     29  O   UNL     1      12.965 -20.447 -51.243  1.00  0.00    -0.258 OA
ENDBRANCH  20  27
ENDBRANCH  16  17
ENDBRANCH   1  16
TORSDOF 6
ENDMDL
MODEL 5
REMARK VINA RESULT:    -7.060      2.555      3.858
REMARK INTER + INTRA:         -10.778
REMARK INTER:                  -9.792
REMARK INTRA:                  -0.986
REMARK UNBOUND:                -1.242
REMARK SMILES C[C@@H](/[NH+]=C(\N)SCc1cc([N+](=O)[O-])cc2c1OCOC2)c1ccccc1
REMARK SMILES IDX 6 1 4 2 3 3 5 4 2 8 1 9 21 10 22 11 26 12 23 13 25 14 24 15
REMARK SMILES IDX 7 16 8 17 9 18 16 19 10 20 15 21 17 22 14 23 20 24 18 25
REMARK SMILES IDX 19 26 11 27 12 28 13 29
REMARK H PARENT 3 5 5 6 5 7
ROOT
ATOM      1  S   UNL     1      11.880 -24.155 -45.257  1.00  0.00    -0.034 SA
ENDROOT
BRANCH   1   2
ATOM      2  C   UNL     1      13.361 -23.584 -44.595  1.00  0.00     0.302 C 
ATOM      3  N   UNL     1      13.899 -24.270 -43.616  1.00  0.00    -0.262 N 
ATOM      4  N   UNL     1      13.850 -22.478 -45.098  1.00  0.00    -0.282 N 
ATOM      5  H   UNL     1      13.357 -25.073 -43.311  1.00  0.00     0.306 HD
ATOM      6  H   UNL     1      13.323 -22.027 -45.837  1.00  0.00     0.302 HD
ATOM      7  H   UNL     1      14.705 -22.049 -44.782  1.00  0.00     0.302 HD
BRANCH   3   8
ATOM      8  C   UNL     1      15.120 -23.956 -42.860  1.00  0.00     0.201 C 
ATOM      9  C   UNL     1      16.274 -24.776 -43.424  1.00  0.00     0.063 C 
BRANCH   8  10
ATOM     10  C   UNL     1      14.796 -24.201 -41.403  1.00  0.00    -0.004 A 
ATOM     11  C   UNL     1      13.482 -24.203 -40.906  1.00  0.00     0.008 A 
ATOM     12  C   UNL     1      15.853 -24.373 -40.489  1.00  0.00     0.008 A 
ATOM     13  C   UNL     1      13.233 -24.391 -39.545  1.00  0.00     0.000 A 
ATOM     14  C   UNL     1      15.601 -24.561 -39.129  1.00  0.00     0.000 A 
ATOM     15  C   UNL     1      14.292 -24.572 -38.659  1.00  0.00     0.000 A 
ENDBRANCH   8  10
ENDBRANCH   3   8
ENDBRANCH   1   2
BRANCH   1  16
ATOM     16  C   UNL     1      12.436 -24.761 -46.881  1.00  0.00     0.122 C 
BRANCH  16  17
ATOM     17  C   UNL     1      11.907 -23.926 -48.023  1.00  0.00     0.012 A 
ATOM     18  C   UNL     1      10.637 -24.194 -48.556  1.00  0.00     0.094 A 
ATOM     19  C   UNL     1      12.664 -22.879 -48.580  1.00  0.00     0.132 A 
ATOM     20  C   UNL     1      10.151 -23.438 -49.633  1.00  0.00     0.270 A 
ATOM     21  C   UNL     1      12.155 -22.092 -49.624  1.00  0.00     0.027 A 
ATOM     22  O   UNL     1      13.903 -22.649 -48.043  1.00  0.00    -0.467 OA
ATOM     23  C   UNL     1      10.898 -22.386 -50.168  1.00  0.00     0.095 A 
ATOM     24  C   UNL     1      12.977 -20.956 -50.159  1.00  0.00     0.204 C 
ATOM     25  C   UNL     1      14.673 -21.659 -48.733  1.00  0.00     0.395 C 
ATOM     26  O   UNL     1      13.913 -20.544 -49.174  1.00  0.00    -0.340 OA
BRANCH  20  27
ATOM     27  N   UNL     1       8.860 -23.797 -50.226  1.00  0.00     0.062 N 
ATOM     28  O   UNL     1       8.865 -24.491 -51.247  1.00  0.00    -0.258 OA
ATOM     29  O   UNL     1       7.845 -23.397 -49.633  1.00  0.00    -0.258 OA
ENDBRANCH  20  27
ENDBRANCH  16  17
ENDBRANCH   1  16
TORSDOF 6
ENDMDL
MODEL 6
REMARK VINA RESULT:    -6.953      3.052      7.900
REMARK INTER + INTRA:         -10.634
REMARK INTER:                  -9.727
REMARK INTRA:                  -0.906
REMARK UNBOUND:                -1.242
REMARK SMILES C[C@@H](/[NH+]=C(\N)SCc1cc([N+](=O)[O-])cc2c1OCOC2)c1ccccc1
REMARK SMILES IDX 6 1 4 2 3 3 5 4 2 8 1 9 21 10 22 11 26 12 23 13 25 14 24 15
REMARK SMILES IDX 7 16 8 17 9 18 16 19 10 20 15 21 17 22 14 23 20 24 18 25
REMARK SMILES IDX 19 26 11 27 12 28 13 29
REMARK H PARENT 3 5 5 6 5 7
ROOT
ATOM      1  S   UNL     1      12.694 -25.608 -44.795  1.00  0.00    -0.034 SA
ENDROOT
BRANCH   1   2
ATOM      2  C   UNL     1      11.699 -25.231 -46.147  1.00  0.00     0.302 C 
ATOM      3  N   UNL     1      12.274 -24.701 -47.200  1.00  0.00    -0.262 N 
ATOM      4  N   UNL     1      10.418 -25.476 -46.030  1.00  0.00    -0.282 N 
ATOM      5  H   UNL     1      13.269 -24.527 -47.100  1.00  0.00     0.306 HD
ATOM      6  H   UNL     1      10.094 -25.864 -45.152  1.00  0.00     0.302 HD
ATOM      7  H   UNL     1       9.744 -25.287 -46.754  1.00  0.00     0.302 HD
BRANCH   3   8
ATOM      8  C   UNL     1      11.632 -24.248 -48.443  1.00  0.00     0.201 C 
ATOM      9  C   UNL     1      11.649 -25.391 -49.452  1.00  0.00     0.063 C 
BRANCH   8  10
ATOM     10  C   UNL     1      12.363 -22.992 -48.868  1.00  0.00    -0.004 A 
ATOM     11  C   UNL     1      11.847 -22.097 -49.818  1.00  0.00     0.008 A 
ATOM     12  C   UNL     1      13.643 -22.738 -48.340  1.00  0.00     0.008 A 
ATOM     13  C   UNL     1      12.577 -20.973 -50.211  1.00  0.00     0.000 A 
ATOM     14  C   UNL     1      14.370 -21.613 -48.735  1.00  0.00     0.000 A 
ATOM     15  C   UNL     1      13.836 -20.732 -49.668  1.00  0.00     0.000 A 
ENDBRANCH   8  10
ENDBRANCH   3   8
ENDBRANCH   1   2
BRANCH   1  16
ATOM     16  C   UNL     1      12.893 -23.964 -44.041  1.00  0.00     0.122 C 
BRANCH  16  17
ATOM     17  C   UNL     1      14.198 -23.822 -43.294  1.00  0.00     0.012 A 
ATOM     18  C   UNL     1      14.266 -24.165 -41.935  1.00  0.00     0.094 A 
ATOM     19  C   UNL     1      15.359 -23.344 -43.927  1.00  0.00     0.132 A 
ATOM     20  C   UNL     1      15.469 -24.012 -41.229  1.00  0.00     0.270 A 
ATOM     21  C   UNL     1      16.573 -23.240 -43.232  1.00  0.00     0.027 A 
ATOM     22  O   UNL     1      15.256 -23.010 -45.252  1.00  0.00    -0.467 OA
ATOM     23  C   UNL     1      16.625 -23.557 -41.869  1.00  0.00     0.095 A 
ATOM     24  C   UNL     1      17.799 -22.768 -43.957  1.00  0.00     0.204 C 
ATOM     25  C   UNL     1      16.434 -22.412 -45.804  1.00  0.00     0.395 C 
ATOM     26  O   UNL     1      17.644 -22.998 -45.350  1.00  0.00    -0.340 OA
BRANCH  20  27
ATOM     27  N   UNL     1      15.489 -24.294 -39.792  1.00  0.00     0.062 N 
ATOM     28  O   UNL     1      14.409 -24.333 -39.195  1.00  0.00    -0.258 OA
ATOM     29  O   UNL     1      16.601 -24.507 -39.282  1.00  0.00    -0.258 OA
ENDBRANCH  20  27
ENDBRANCH  16  17
ENDBRANCH   1  16
TORSDOF 6
ENDMDL
MODEL 7
REMARK VINA RESULT:    -6.693      2.322      4.306
REMARK INTER + INTRA:         -10.282
REMARK INTER:                  -9.630
REMARK INTRA:                  -0.652
REMARK UNBOUND:                -1.242
REMARK SMILES C[C@@H](/[NH+]=C(\N)SCc1cc([N+](=O)[O-])cc2c1OCOC2)c1ccccc1
REMARK SMILES IDX 6 1 4 2 3 3 5 4 2 8 1 9 21 10 22 11 26 12 23 13 25 14 24 15
REMARK SMILES IDX 7 16 8 17 9 18 16 19 10 20 15 21 17 22 14 23 20 24 18 25
REMARK SMILES IDX 19 26 11 27 12 28 13 29
REMARK H PARENT 3 5 5 6 5 7
ROOT
ATOM      1  S   UNL     1      12.589 -26.349 -45.003  1.00  0.00    -0.034 SA
ENDROOT
BRANCH   1   2
ATOM      2  C   UNL     1      12.738 -24.885 -44.112  1.00  0.00     0.302 C 
ATOM      3  N   UNL     1      13.810 -24.725 -43.374  1.00  0.00    -0.262 N 
ATOM      4  N   UNL     1      11.754 -24.027 -44.209  1.00  0.00    -0.282 N 
ATOM      5  H   UNL     1      14.447 -25.516 -43.371  1.00  0.00     0.306 HD
ATOM      6  H   UNL     1      10.966 -24.281 -44.794  1.00  0.00     0.302 HD
ATOM      7  H   UNL     1      11.732 -23.143 -43.726  1.00  0.00     0.302 HD
BRANCH   3   8
ATOM      8  C   UNL     1      14.134 -23.595 -42.491  1.00  0.00     0.201 C 
ATOM      9  C   UNL     1      15.295 -22.814 -43.095  1.00  0.00     0.063 C 
BRANCH   8  10
ATOM     10  C   UNL     1      14.387 -24.183 -41.120  1.00  0.00    -0.004 A 
ATOM     11  C   UNL     1      13.371 -24.350 -40.165  1.00  0.00     0.008 A 
ATOM     12  C   UNL     1      15.704 -24.521 -40.757  1.00  0.00     0.008 A 
ATOM     13  C   UNL     1      13.660 -24.858 -38.896  1.00  0.00     0.000 A 
ATOM     14  C   UNL     1      15.990 -25.028 -39.487  1.00  0.00     0.000 A 
ATOM     15  C   UNL     1      14.967 -25.198 -38.560  1.00  0.00     0.000 A 
ENDBRANCH   8  10
ENDBRANCH   3   8
ENDBRANCH   1   2
BRANCH   1  16
ATOM     16  C   UNL     1      12.676 -25.727 -46.711  1.00  0.00     0.122 C 
BRANCH  16  17
ATOM     17  C   UNL     1      13.725 -24.655 -46.885  1.00  0.00     0.012 A 
ATOM     18  C   UNL     1      15.007 -24.837 -46.344  1.00  0.00     0.094 A 
ATOM     19  C   UNL     1      13.448 -23.460 -47.574  1.00  0.00     0.132 A 
ATOM     20  C   UNL     1      15.978 -23.834 -46.480  1.00  0.00     0.270 A 
ATOM     21  C   UNL     1      14.436 -22.481 -47.753  1.00  0.00     0.027 A 
ATOM     22  O   UNL     1      12.185 -23.310 -48.081  1.00  0.00    -0.467 OA
ATOM     23  C   UNL     1      15.704 -22.659 -47.185  1.00  0.00     0.095 A 
ATOM     24  C   UNL     1      14.113 -21.241 -48.534  1.00  0.00     0.204 C 
ATOM     25  C   UNL     1      11.928 -22.025 -48.659  1.00  0.00     0.395 C 
ATOM     26  O   UNL     1      13.018 -21.500 -49.400  1.00  0.00    -0.340 OA
BRANCH  20  27
ATOM     27  N   UNL     1      17.279 -24.014 -45.831  1.00  0.00     0.062 N 
ATOM     28  O   UNL     1      18.007 -23.024 -45.710  1.00  0.00    -0.258 OA
ATOM     29  O   UNL     1      17.542 -25.155 -45.418  1.00  0.00    -0.258 OA
ENDBRANCH  20  27
ENDBRANCH  16  17
ENDBRANCH   1  16
TORSDOF 6
ENDMDL
MODEL 8
REMARK VINA RESULT:    -6.590      3.041      7.442
REMARK INTER + INTRA:         -10.143
REMARK INTER:                  -9.582
REMARK INTRA:                  -0.561
REMARK UNBOUND:                -1.242
REMARK SMILES C[C@@H](/[NH+]=C(\N)SCc1cc([N+](=O)[O-])cc2c1OCOC2)c1ccccc1
REMARK SMILES IDX 6 1 4 2 3 3 5 4 2 8 1 9 21 10 22 11 26 12 23 13 25 14 24 15
REMARK SMILES IDX 7 16 8 17 9 18 16 19 10 20 15 21 17 22 14 23 20 24 18 25
REMARK SMILES IDX 19 26 11 27 12 28 13 29
REMARK H PARENT 3 5 5 6 5 7
ROOT
ATOM      1  S   UNL     1      12.042 -23.898 -44.066  1.00  0.00    -0.034 SA
ENDROOT
BRANCH   1   2
ATOM      2  C   UNL     1      12.930 -24.251 -45.497  1.00  0.00     0.302 C 
ATOM      3  N   UNL     1      13.660 -23.293 -46.016  1.00  0.00    -0.262 N 
ATOM      4  N   UNL     1      12.802 -25.455 -45.995  1.00  0.00    -0.282 N 
ATOM      5  H   UNL     1      13.601 -22.402 -45.531  1.00  0.00     0.306 HD
ATOM      6  H   UNL     1      12.184 -26.098 -45.513  1.00  0.00     0.302 HD
ATOM      7  H   UNL     1      13.268 -25.767 -46.832  1.00  0.00     0.302 HD
BRANCH   3   8
ATOM      8  C   UNL     1      14.457 -23.336 -47.251  1.00  0.00     0.201 C 
ATOM      9  C   UNL     1      15.878 -22.882 -46.938  1.00  0.00     0.063 C 
BRANCH   8  10
ATOM     10  C   UNL     1      13.713 -22.499 -48.268  1.00  0.00    -0.004 A 
ATOM     11  C   UNL     1      12.494 -22.900 -48.838  1.00  0.00     0.008 A 
ATOM     12  C   UNL     1      14.292 -21.296 -48.714  1.00  0.00     0.008 A 
ATOM     13  C   UNL     1      11.865 -22.114 -49.806  1.00  0.00     0.000 A 
ATOM     14  C   UNL     1      13.661 -20.512 -49.682  1.00  0.00     0.000 A 
ATOM     15  C   UNL     1      12.448 -20.921 -50.225  1.00  0.00     0.000 A 
ENDBRANCH   8  10
ENDBRANCH   3   8
ENDBRANCH   1   2
BRANCH   1  16
ATOM     16  C   UNL     1      12.700 -25.157 -42.929  1.00  0.00     0.122 C 
BRANCH  16  17
ATOM     17  C   UNL     1      13.968 -24.711 -42.240  1.00  0.00     0.012 A 
ATOM     18  C   UNL     1      14.880 -23.889 -42.919  1.00  0.00     0.094 A 
ATOM     19  C   UNL     1      14.267 -25.105 -40.924  1.00  0.00     0.132 A 
ATOM     20  C   UNL     1      16.071 -23.491 -42.294  1.00  0.00     0.270 A 
ATOM     21  C   UNL     1      15.434 -24.665 -40.283  1.00  0.00     0.027 A 
ATOM     22  O   UNL     1      13.360 -25.915 -40.293  1.00  0.00    -0.467 OA
ATOM     23  C   UNL     1      16.353 -23.869 -40.978  1.00  0.00     0.095 A 
ATOM     24  C   UNL     1      15.693 -25.073 -38.862  1.00  0.00     0.204 C 
ATOM     25  C   UNL     1      13.780 -26.384 -39.007  1.00  0.00     0.395 C 
ATOM     26  O   UNL     1      14.465 -25.411 -38.235  1.00  0.00    -0.340 OA
BRANCH  20  27
ATOM     27  N   UNL     1      17.046 -22.707 -43.056  1.00  0.00     0.062 N 
ATOM     28  O   UNL     1      16.621 -21.799 -43.777  1.00  0.00    -0.258 OA
ATOM     29  O   UNL     1      18.242 -22.997 -42.894  1.00  0.00    -0.258 OA
ENDBRANCH  20  27
ENDBRANCH  16  17
ENDBRANCH   1  16
TORSDOF 6
ENDMDL
MODEL 9
REMARK VINA RESULT:    -6.496     24.366     26.198
REMARK INTER + INTRA:         -10.016
REMARK INTER:                  -8.593
REMARK INTRA:                  -1.423
REMARK UNBOUND:                -1.242
REMARK SMILES C[C@@H](/[NH+]=C(\N)SCc1cc([N+](=O)[O-])cc2c1OCOC2)c1ccccc1
REMARK SMILES IDX 6 1 4 2 3 3 5 4 2 8 1 9 21 10 22 11 26 12 23 13 25 14 24 15
REMARK SMILES IDX 7 16 8 17 9 18 16 19 10 20 15 21 17 22 14 23 20 24 18 25
REMARK SMILES IDX 19 26 11 27 12 28 13 29
REMARK H PARENT 3 5 5 6 5 7
ROOT
ATOM      1  S   UNL     1       2.587  -7.462 -32.938  1.00  0.00    -0.034 SA
ENDROOT
BRANCH   1   2
ATOM      2  C   UNL     1       3.169  -5.885 -33.301  1.00  0.00     0.302 C 
ATOM      3  N   UNL     1       2.285  -4.941 -33.517  1.00  0.00    -0.262 N 
ATOM      4  N   UNL     1       4.468  -5.730 -33.364  1.00  0.00    -0.282 N 
ATOM      5  H   UNL     1       1.317  -5.248 -33.483  1.00  0.00     0.306 HD
ATOM      6  H   UNL     1       5.046  -6.547 -33.203  1.00  0.00     0.302 HD
ATOM      7  H   UNL     1       4.918  -4.853 -33.577  1.00  0.00     0.302 HD
BRANCH   3   8
ATOM      8  C   UNL     1       2.535  -3.541 -33.894  1.00  0.00     0.201 C 
ATOM      9  C   UNL     1       2.663  -2.705 -32.626  1.00  0.00     0.063 C 
BRANCH   8  10
ATOM     10  C   UNL     1       1.413  -3.144 -34.828  1.00  0.00    -0.004 A 
ATOM     11  C   UNL     1       1.027  -3.926 -35.929  1.00  0.00     0.008 A 
ATOM     12  C   UNL     1       0.766  -1.909 -34.629  1.00  0.00     0.008 A 
ATOM     13  C   UNL     1       0.014  -3.497 -36.789  1.00  0.00     0.000 A 
ATOM     14  C   UNL     1      -0.247  -1.484 -35.491  1.00  0.00     0.000 A 
ATOM     15  C   UNL     1      -0.623  -2.278 -36.568  1.00  0.00     0.000 A 
ENDBRANCH   8  10
ENDBRANCH   3   8
ENDBRANCH   1   2
BRANCH   1  16
ATOM     16  C   UNL     1       1.428  -7.101 -31.582  1.00  0.00     0.122 C 
BRANCH  16  17
ATOM     17  C   UNL     1       0.013  -7.518 -31.902  1.00  0.00     0.012 A 
ATOM     18  C   UNL     1      -0.366  -8.863 -31.771  1.00  0.00     0.094 A 
ATOM     19  C   UNL     1      -0.946  -6.588 -32.342  1.00  0.00     0.132 A 
ATOM     20  C   UNL     1      -1.673  -9.261 -32.091  1.00  0.00     0.270 A 
ATOM     21  C   UNL     1      -2.266  -6.980 -32.613  1.00  0.00     0.027 A 
ATOM     22  O   UNL     1      -0.541  -5.286 -32.469  1.00  0.00    -0.467 OA
ATOM     23  C   UNL     1      -2.627  -8.329 -32.506  1.00  0.00     0.095 A 
ATOM     24  C   UNL     1      -3.269  -5.948 -33.036  1.00  0.00     0.204 C 
ATOM     25  C   UNL     1      -1.523  -4.414 -33.039  1.00  0.00     0.395 C 
ATOM     26  O   UNL     1      -2.846  -4.667 -32.593  1.00  0.00    -0.340 OA
BRANCH  20  27
ATOM     27  N   UNL     1      -2.016 -10.684 -32.028  1.00  0.00     0.062 N 
ATOM     28  O   UNL     1      -1.232 -11.444 -31.453  1.00  0.00    -0.258 OA
ATOM     29  O   UNL     1      -3.099 -11.017 -32.536  1.00  0.00    -0.258 OA
ENDBRANCH  20  27
ENDBRANCH  16  17
ENDBRANCH   1  16
TORSDOF 6
ENDMDL
