MODEL 1
REMARK VINA RESULT:    -7.884      0.000      0.000
REMARK INTER + INTRA:         -10.469
REMARK INTER:                  -9.727
REMARK INTRA:                  -0.742
REMARK UNBOUND:                -0.742
REMARK SMILES CCNC(=O)N[C@@H]1CO[C@@H]2[C@H]1OC[C@@H]2n1nnnc1-c1ccccc1
REMARK SMILES IDX 7 1 8 2 9 3 10 4 11 5 12 6 13 7 14 8 6 9 3 10 4 11 5 12 2 15
REMARK SMILES IDX 1 16 15 17 16 18 19 19 17 20 18 21 20 22 21 23 25 24 22 25
REMARK SMILES IDX 24 26 23 27
REMARK H PARENT 3 13 6 14
ROOT
ATOM      1  C   UNL     1      15.952 -22.343 -46.101  1.00  0.00     0.141 C 
ATOM      2  C   UNL     1      16.462 -23.772 -46.254  1.00  0.00     0.188 C 
ATOM      3  O   UNL     1      16.330 -24.415 -44.971  1.00  0.00    -0.371 OA
ATOM      4  C   UNL     1      16.150 -23.392 -43.969  1.00  0.00     0.176 C 
ATOM      5  C   UNL     1      16.355 -22.054 -44.663  1.00  0.00     0.174 C 
ATOM      6  O   UNL     1      17.768 -21.743 -44.568  1.00  0.00    -0.371 OA
ATOM      7  C   UNL     1      18.391 -22.725 -43.712  1.00  0.00     0.191 C 
ATOM      8  C   UNL     1      17.261 -23.380 -42.941  1.00  0.00     0.169 C 
ENDROOT
BRANCH   1   9
ATOM      9  N   UNL     1      14.502 -22.271 -46.306  1.00  0.00    -0.330 N 
ATOM     10  N   UNL     1      12.636 -22.052 -47.558  1.00  0.00    -0.338 N 
ATOM     11  C   UNL     1      14.003 -21.941 -47.541  1.00  0.00     0.315 C 
ATOM     12  O   UNL     1      14.689 -21.592 -48.490  1.00  0.00    -0.249 OA
ATOM     13  H   UNL     1      12.205 -21.822 -46.674  1.00  0.00     0.165 HD
ATOM     14  H   UNL     1      13.950 -22.987 -45.853  1.00  0.00     0.165 HD
BRANCH  10  15
ATOM     15  C   UNL     1      11.906 -21.653 -48.744  1.00  0.00     0.114 C 
ATOM     16  C   UNL     1      11.520 -22.853 -49.585  1.00  0.00     0.027 C 
ENDBRANCH  10  15
ENDBRANCH   1   9
BRANCH   8  17
ATOM     17  N   UNL     1      17.472 -24.622 -42.258  1.00  0.00    -0.217 N 
ATOM     18  N   UNL     1      18.562 -25.342 -42.605  1.00  0.00    -0.044 NA
ATOM     19  C   UNL     1      16.754 -25.318 -41.316  1.00  0.00     0.182 A 
ATOM     20  N   UNL     1      18.493 -26.457 -41.898  1.00  0.00    -0.023 NA
ATOM     21  N   UNL     1      17.379 -26.462 -41.106  1.00  0.00    -0.108 NA
BRANCH  19  22
ATOM     22  C   UNL     1      15.517 -24.918 -40.668  1.00  0.00     0.021 A 
ATOM     23  C   UNL     1      15.503 -24.560 -39.316  1.00  0.00     0.012 A 
ATOM     24  C   UNL     1      14.317 -24.924 -41.391  1.00  0.00     0.012 A 
ATOM     25  C   UNL     1      14.309 -24.176 -38.702  1.00  0.00     0.001 A 
ATOM     26  C   UNL     1      13.124 -24.539 -40.775  1.00  0.00     0.001 A 
ATOM     27  C   UNL     1      13.123 -24.161 -39.433  1.00  0.00     0.000 A 
ENDBRANCH  19  22
ENDBRANCH   8  17
TORSDOF 4
ENDMDL
MODEL 2
REMARK VINA RESULT:    -7.335      4.083      6.313
REMARK INTER + INTRA:          -9.792
REMARK INTER:                  -9.145
REMARK INTRA:                  -0.648
REMARK UNBOUND:                -0.742
REMARK SMILES CCNC(=O)N[C@@H]1CO[C@@H]2[C@H]1OC[C@@H]2n1nnnc1-c1ccccc1
REMARK SMILES IDX 7 1 8 2 9 3 10 4 11 5 12 6 13 7 14 8 6 9 3 10 4 11 5 12 2 15
REMARK SMILES IDX 1 16 15 17 16 18 19 19 17 20 18 21 20 22 21 23 25 24 22 25
REMARK SMILES IDX 24 26 23 27
REMARK H PARENT 3 13 6 14
ROOT
ATOM      1  C   UNL     1      12.659 -20.941 -50.052  1.00  0.00     0.141 C 
ATOM      2  C   UNL     1      11.806 -20.516 -48.861  1.00  0.00     0.188 C 
ATOM      3  O   UNL     1      12.457 -21.003 -47.671  1.00  0.00    -0.371 OA
ATOM      4  C   UNL     1      13.413 -22.011 -48.059  1.00  0.00     0.176 C 
ATOM      5  C   UNL     1      13.208 -22.266 -49.545  1.00  0.00     0.174 C 
ATOM      6  O   UNL     1      12.218 -23.320 -49.658  1.00  0.00    -0.371 OA
ATOM      7  C   UNL     1      11.947 -23.830 -48.334  1.00  0.00     0.191 C 
ATOM      8  C   UNL     1      13.103 -23.370 -47.466  1.00  0.00     0.169 C 
ENDROOT
BRANCH   1   9
ATOM      9  N   UNL     1      13.715 -19.962 -50.326  1.00  0.00    -0.330 N 
ATOM     10  N   UNL     1      14.733 -18.360 -51.551  1.00  0.00    -0.338 N 
ATOM     11  C   UNL     1      13.755 -19.323 -51.540  1.00  0.00     0.315 C 
ATOM     12  O   UNL     1      13.019 -19.584 -52.480  1.00  0.00    -0.249 OA
ATOM     13  H   UNL     1      15.538 -18.603 -50.993  1.00  0.00     0.165 HD
ATOM     14  H   UNL     1      13.962 -19.344 -49.565  1.00  0.00     0.165 HD
BRANCH  10  15
ATOM     15  C   UNL     1      15.003 -17.637 -52.777  1.00  0.00     0.114 C 
ATOM     16  C   UNL     1      16.377 -16.998 -52.748  1.00  0.00     0.027 C 
ENDBRANCH  10  15
ENDBRANCH   1   9
BRANCH   8  17
ATOM     17  N   UNL     1      12.996 -23.401 -46.039  1.00  0.00    -0.217 N 
ATOM     18  N   UNL     1      11.755 -23.495 -45.512  1.00  0.00    -0.044 NA
ATOM     19  C   UNL     1      13.911 -23.298 -45.018  1.00  0.00     0.182 A 
ATOM     20  N   UNL     1      11.918 -23.433 -44.202  1.00  0.00    -0.023 NA
ATOM     21  N   UNL     1      13.240 -23.302 -43.881  1.00  0.00    -0.108 NA
BRANCH  19  22
ATOM     22  C   UNL     1      15.354 -23.178 -45.129  1.00  0.00     0.021 A 
ATOM     23  C   UNL     1      16.089 -24.081 -45.905  1.00  0.00     0.012 A 
ATOM     24  C   UNL     1      16.027 -22.171 -44.425  1.00  0.00     0.012 A 
ATOM     25  C   UNL     1      17.476 -23.956 -46.006  1.00  0.00     0.001 A 
ATOM     26  C   UNL     1      17.414 -22.048 -44.528  1.00  0.00     0.001 A 
ATOM     27  C   UNL     1      18.136 -22.937 -45.322  1.00  0.00     0.000 A 
ENDBRANCH  19  22
ENDBRANCH   8  17
TORSDOF 4
ENDMDL
MODEL 3
REMARK VINA RESULT:    -7.280      3.890      6.100
REMARK INTER + INTRA:          -9.725
REMARK INTER:                  -9.638
REMARK INTRA:                  -0.087
REMARK UNBOUND:                -0.742
REMARK SMILES CCNC(=O)N[C@@H]1CO[C@@H]2[C@H]1OC[C@@H]2n1nnnc1-c1ccccc1
REMARK SMILES IDX 7 1 8 2 9 3 10 4 11 5 12 6 13 7 14 8 6 9 3 10 4 11 5 12 2 15
REMARK SMILES IDX 1 16 15 17 16 18 19 19 17 20 18 21 20 22 21 23 25 24 22 25
REMARK SMILES IDX 24 26 23 27
REMARK H PARENT 3 13 6 14
ROOT
ATOM      1  C   UNL     1      11.511 -22.592 -50.043  1.00  0.00     0.141 C 
ATOM      2  C   UNL     1      11.617 -23.962 -49.380  1.00  0.00     0.188 C 
ATOM      3  O   UNL     1      11.538 -23.757 -47.955  1.00  0.00    -0.371 OA
ATOM      4  C   UNL     1      11.783 -22.361 -47.685  1.00  0.00     0.176 C 
ATOM      5  C   UNL     1      12.199 -21.723 -49.002  1.00  0.00     0.174 C 
ATOM      6  O   UNL     1      13.642 -21.844 -49.090  1.00  0.00    -0.371 OA
ATOM      7  C   UNL     1      14.130 -22.359 -47.833  1.00  0.00     0.191 C 
ATOM      8  C   UNL     1      13.013 -22.139 -46.831  1.00  0.00     0.169 C 
ENDROOT
BRANCH   1   9
ATOM      9  N   UNL     1      10.111 -22.213 -50.257  1.00  0.00    -0.330 N 
ATOM     10  N   UNL     1       8.031 -22.505 -51.086  1.00  0.00    -0.338 N 
ATOM     11  C   UNL     1       9.332 -22.939 -51.123  1.00  0.00     0.315 C 
ATOM     12  O   UNL     1       9.749 -23.843 -51.831  1.00  0.00    -0.249 OA
ATOM     13  H   UNL     1       7.944 -21.513 -50.915  1.00  0.00     0.165 HD
ATOM     14  H   UNL     1       9.595 -21.922 -49.437  1.00  0.00     0.165 HD
BRANCH  10  15
ATOM     15  C   UNL     1       7.065 -23.078 -52.002  1.00  0.00     0.114 C 
ATOM     16  C   UNL     1       5.701 -22.440 -51.835  1.00  0.00     0.027 C 
ENDBRANCH  10  15
ENDBRANCH   1   9
BRANCH   8  17
ATOM     17  N   UNL     1      13.016 -22.829 -45.577  1.00  0.00    -0.217 N 
ATOM     18  N   UNL     1      11.817 -23.101 -45.016  1.00  0.00    -0.044 NA
ATOM     19  C   UNL     1      14.014 -23.259 -44.734  1.00  0.00     0.182 A 
ATOM     20  N   UNL     1      12.087 -23.667 -43.852  1.00  0.00    -0.023 NA
ATOM     21  N   UNL     1      13.437 -23.762 -43.659  1.00  0.00    -0.108 NA
BRANCH  19  22
ATOM     22  C   UNL     1      15.449 -23.167 -44.939  1.00  0.00     0.021 A 
ATOM     23  C   UNL     1      16.148 -22.009 -44.582  1.00  0.00     0.012 A 
ATOM     24  C   UNL     1      16.139 -24.232 -45.532  1.00  0.00     0.012 A 
ATOM     25  C   UNL     1      17.528 -21.931 -44.782  1.00  0.00     0.001 A 
ATOM     26  C   UNL     1      17.519 -24.152 -45.730  1.00  0.00     0.001 A 
ATOM     27  C   UNL     1      18.212 -23.003 -45.350  1.00  0.00     0.000 A 
ENDBRANCH  19  22
ENDBRANCH   8  17
TORSDOF 4
ENDMDL
MODEL 4
REMARK VINA RESULT:    -7.208      1.245      1.620
REMARK INTER + INTRA:          -9.636
REMARK INTER:                  -9.106
REMARK INTRA:                  -0.530
REMARK UNBOUND:                -0.742
REMARK SMILES CCNC(=O)N[C@@H]1CO[C@@H]2[C@H]1OC[C@@H]2n1nnnc1-c1ccccc1
REMARK SMILES IDX 7 1 8 2 9 3 10 4 11 5 12 6 13 7 14 8 6 9 3 10 4 11 5 12 2 15
REMARK SMILES IDX 1 16 15 17 16 18 19 19 17 20 18 21 20 22 21 23 25 24 22 25
REMARK SMILES IDX 24 26 23 27
REMARK H PARENT 3 13 6 14
ROOT
ATOM      1  C   UNL     1      14.955 -23.393 -46.506  1.00  0.00     0.141 C 
ATOM      2  C   UNL     1      15.865 -24.613 -46.408  1.00  0.00     0.188 C 
ATOM      3  O   UNL     1      15.958 -24.969 -45.014  1.00  0.00    -0.371 OA
ATOM      4  C   UNL     1      15.502 -23.847 -44.230  1.00  0.00     0.176 C 
ATOM      5  C   UNL     1      15.282 -22.692 -45.196  1.00  0.00     0.174 C 
ATOM      6  O   UNL     1      16.540 -21.976 -45.287  1.00  0.00    -0.371 OA
ATOM      7  C   UNL     1      17.445 -22.524 -44.305  1.00  0.00     0.191 C 
ATOM      8  C   UNL     1      16.580 -23.291 -43.323  1.00  0.00     0.169 C 
ENDROOT
BRANCH   1   9
ATOM      9  N   UNL     1      13.546 -23.788 -46.597  1.00  0.00    -0.330 N 
ATOM     10  N   UNL     1      11.547 -23.961 -47.635  1.00  0.00    -0.338 N 
ATOM     11  C   UNL     1      12.793 -23.386 -47.672  1.00  0.00     0.315 C 
ATOM     12  O   UNL     1      13.184 -22.618 -48.538  1.00  0.00    -0.249 OA
ATOM     13  H   UNL     1      11.199 -24.099 -46.697  1.00  0.00     0.165 HD
ATOM     14  H   UNL     1      13.326 -24.733 -46.312  1.00  0.00     0.165 HD
BRANCH  10  15
ATOM     15  C   UNL     1      10.563 -23.588 -48.630  1.00  0.00     0.114 C 
ATOM     16  C   UNL     1       9.157 -23.899 -48.159  1.00  0.00     0.027 C 
ENDBRANCH  10  15
ENDBRANCH   1   9
BRANCH   8  17
ATOM     17  N   UNL     1      17.166 -24.238 -42.424  1.00  0.00    -0.217 N 
ATOM     18  N   UNL     1      18.385 -24.725 -42.744  1.00  0.00    -0.044 NA
ATOM     19  C   UNL     1      16.730 -24.843 -41.269  1.00  0.00     0.182 A 
ATOM     20  N   UNL     1      18.670 -25.617 -41.812  1.00  0.00    -0.023 NA
ATOM     21  N   UNL     1      17.656 -25.709 -40.900  1.00  0.00    -0.108 NA
BRANCH  19  22
ATOM     22  C   UNL     1      15.478 -24.620 -40.569  1.00  0.00     0.021 A 
ATOM     23  C   UNL     1      14.253 -24.805 -41.220  1.00  0.00     0.012 A 
ATOM     24  C   UNL     1      15.489 -24.181 -39.238  1.00  0.00     0.012 A 
ATOM     25  C   UNL     1      13.054 -24.589 -40.538  1.00  0.00     0.001 A 
ATOM     26  C   UNL     1      14.289 -23.967 -38.559  1.00  0.00     0.001 A 
ATOM     27  C   UNL     1      13.073 -24.176 -39.208  1.00  0.00     0.000 A 
ENDBRANCH  19  22
ENDBRANCH   8  17
TORSDOF 4
ENDMDL
MODEL 5
REMARK VINA RESULT:    -7.064      3.155      4.911
REMARK INTER + INTRA:          -9.458
REMARK INTER:                  -8.835
REMARK INTRA:                  -0.622
REMARK UNBOUND:                -0.742
REMARK SMILES CCNC(=O)N[C@@H]1CO[C@@H]2[C@H]1OC[C@@H]2n1nnnc1-c1ccccc1
REMARK SMILES IDX 7 1 8 2 9 3 10 4 11 5 12 6 13 7 14 8 6 9 3 10 4 11 5 12 2 15
REMARK SMILES IDX 1 16 15 17 16 18 19 19 17 20 18 21 20 22 21 23 25 24 22 25
REMARK SMILES IDX 24 26 23 27
REMARK H PARENT 3 13 6 14
ROOT
ATOM      1  C   UNL     1      12.706 -22.731 -48.507  1.00  0.00     0.141 C 
ATOM      2  C   UNL     1      11.903 -22.232 -47.310  1.00  0.00     0.188 C 
ATOM      3  O   UNL     1      12.725 -22.407 -46.139  1.00  0.00    -0.371 OA
ATOM      4  C   UNL     1      13.793 -23.319 -46.469  1.00  0.00     0.176 C 
ATOM      5  C   UNL     1      13.502 -23.855 -47.862  1.00  0.00     0.174 C 
ATOM      6  O   UNL     1      12.689 -25.043 -47.694  1.00  0.00    -0.371 OA
ATOM      7  C   UNL     1      12.620 -25.349 -46.285  1.00  0.00     0.191 C 
ATOM      8  C   UNL     1      13.758 -24.584 -45.637  1.00  0.00     0.169 C 
ENDROOT
BRANCH   1   9
ATOM      9  N   UNL     1      13.562 -21.673 -49.051  1.00  0.00    -0.330 N 
ATOM     10  N   UNL     1      13.980 -19.839 -50.301  1.00  0.00    -0.338 N 
ATOM     11  C   UNL     1      13.075 -20.831 -50.019  1.00  0.00     0.315 C 
ATOM     12  O   UNL     1      11.985 -20.957 -50.557  1.00  0.00    -0.249 OA
ATOM     13  H   UNL     1      14.941 -20.139 -50.217  1.00  0.00     0.165 HD
ATOM     14  H   UNL     1      14.149 -21.187 -48.387  1.00  0.00     0.165 HD
BRANCH  10  15
ATOM     15  C   UNL     1      13.697 -18.902 -51.369  1.00  0.00     0.114 C 
ATOM     16  C   UNL     1      14.156 -19.440 -52.710  1.00  0.00     0.027 C 
ENDBRANCH  10  15
ENDBRANCH   1   9
BRANCH   8  17
ATOM     17  N   UNL     1      13.784 -24.382 -44.220  1.00  0.00    -0.217 N 
ATOM     18  N   UNL     1      12.655 -24.664 -43.533  1.00  0.00    -0.044 NA
ATOM     19  C   UNL     1      14.727 -23.887 -43.351  1.00  0.00     0.182 A 
ATOM     20  N   UNL     1      12.907 -24.332 -42.279  1.00  0.00    -0.023 NA
ATOM     21  N   UNL     1      14.177 -23.842 -42.151  1.00  0.00    -0.108 NA
BRANCH  19  22
ATOM     22  C   UNL     1      16.079 -23.457 -43.659  1.00  0.00     0.021 A 
ATOM     23  C   UNL     1      17.183 -24.174 -43.183  1.00  0.00     0.012 A 
ATOM     24  C   UNL     1      16.287 -22.293 -44.410  1.00  0.00     0.012 A 
ATOM     25  C   UNL     1      18.479 -23.752 -43.486  1.00  0.00     0.001 A 
ATOM     26  C   UNL     1      17.585 -21.874 -44.712  1.00  0.00     0.001 A 
ATOM     27  C   UNL     1      18.678 -22.607 -44.254  1.00  0.00     0.000 A 
ENDBRANCH  19  22
ENDBRANCH   8  17
TORSDOF 4
ENDMDL
MODEL 6
REMARK VINA RESULT:    -7.005      3.096      8.274
REMARK INTER + INTRA:          -9.385
REMARK INTER:                  -8.983
REMARK INTRA:                  -0.402
REMARK UNBOUND:                -0.742
REMARK SMILES CCNC(=O)N[C@@H]1CO[C@@H]2[C@H]1OC[C@@H]2n1nnnc1-c1ccccc1
REMARK SMILES IDX 7 1 8 2 9 3 10 4 11 5 12 6 13 7 14 8 6 9 3 10 4 11 5 12 2 15
REMARK SMILES IDX 1 16 15 17 16 18 19 19 17 20 18 21 20 22 21 23 25 24 22 25
REMARK SMILES IDX 24 26 23 27
REMARK H PARENT 3 13 6 14
ROOT
ATOM      1  C   UNL     1      14.092 -24.367 -43.965  1.00  0.00     0.141 C 
ATOM      2  C   UNL     1      13.441 -23.050 -44.376  1.00  0.00     0.188 C 
ATOM      3  O   UNL     1      12.166 -23.368 -44.969  1.00  0.00    -0.371 OA
ATOM      4  C   UNL     1      12.161 -24.772 -45.303  1.00  0.00     0.176 C 
ATOM      5  C   UNL     1      13.569 -25.291 -45.054  1.00  0.00     0.174 C 
ATOM      6  O   UNL     1      14.307 -25.112 -46.290  1.00  0.00    -0.371 OA
ATOM      7  C   UNL     1      13.382 -24.681 -47.311  1.00  0.00     0.191 C 
ATOM      8  C   UNL     1      11.999 -25.018 -46.789  1.00  0.00     0.169 C 
ENDROOT
BRANCH   1   9
ATOM      9  N   UNL     1      13.663 -24.777 -42.625  1.00  0.00    -0.330 N 
ATOM     10  N   UNL     1      13.782 -24.792 -40.369  1.00  0.00    -0.338 N 
ATOM     11  C   UNL     1      14.415 -24.427 -41.531  1.00  0.00     0.315 C 
ATOM     12  O   UNL     1      15.501 -23.871 -41.592  1.00  0.00    -0.249 OA
ATOM     13  H   UNL     1      13.240 -25.640 -40.459  1.00  0.00     0.165 HD
ATOM     14  H   UNL     1      12.671 -24.722 -42.436  1.00  0.00     0.165 HD
BRANCH  10  15
ATOM     15  C   UNL     1      14.457 -24.600 -39.102  1.00  0.00     0.114 C 
ATOM     16  C   UNL     1      13.503 -24.092 -38.040  1.00  0.00     0.027 C 
ENDBRANCH  10  15
ENDBRANCH   1   9
BRANCH   8  17
ATOM     17  N   UNL     1      10.836 -24.428 -47.380  1.00  0.00    -0.217 N 
ATOM     18  N   UNL     1       9.670 -25.101 -47.259  1.00  0.00    -0.044 NA
ATOM     19  C   UNL     1      10.625 -23.296 -48.131  1.00  0.00     0.182 A 
ATOM     20  N   UNL     1       8.779 -24.398 -47.938  1.00  0.00    -0.023 NA
ATOM     21  N   UNL     1       9.354 -23.288 -48.490  1.00  0.00    -0.108 NA
BRANCH  19  22
ATOM     22  C   UNL     1      11.599 -22.287 -48.508  1.00  0.00     0.021 A 
ATOM     23  C   UNL     1      12.152 -21.435 -47.546  1.00  0.00     0.012 A 
ATOM     24  C   UNL     1      11.966 -22.137 -49.852  1.00  0.00     0.012 A 
ATOM     25  C   UNL     1      13.089 -20.468 -47.918  1.00  0.00     0.001 A 
ATOM     26  C   UNL     1      12.904 -21.170 -50.221  1.00  0.00     0.001 A 
ATOM     27  C   UNL     1      13.467 -20.341 -49.252  1.00  0.00     0.000 A 
ENDBRANCH  19  22
ENDBRANCH   8  17
TORSDOF 4
ENDMDL
MODEL 7
REMARK VINA RESULT:    -6.942      2.430      7.153
REMARK INTER + INTRA:          -9.308
REMARK INTER:                  -8.500
REMARK INTRA:                  -0.808
REMARK UNBOUND:                -0.742
REMARK SMILES CCNC(=O)N[C@@H]1CO[C@@H]2[C@H]1OC[C@@H]2n1nnnc1-c1ccccc1
REMARK SMILES IDX 7 1 8 2 9 3 10 4 11 5 12 6 13 7 14 8 6 9 3 10 4 11 5 12 2 15
REMARK SMILES IDX 1 16 15 17 16 18 19 19 17 20 18 21 20 22 21 23 25 24 22 25
REMARK SMILES IDX 24 26 23 27
REMARK H PARENT 3 13 6 14
ROOT
ATOM      1  C   UNL     1      16.110 -23.833 -43.026  1.00  0.00     0.141 C 
ATOM      2  C   UNL     1      15.763 -22.412 -43.460  1.00  0.00     0.188 C 
ATOM      3  O   UNL     1      14.855 -22.514 -44.576  1.00  0.00    -0.371 OA
ATOM      4  C   UNL     1      14.928 -23.857 -45.097  1.00  0.00     0.176 C 
ATOM      5  C   UNL     1      16.065 -24.555 -44.364  1.00  0.00     0.174 C 
ATOM      6  O   UNL     1      17.271 -24.310 -45.132  1.00  0.00    -0.371 OA
ATOM      7  C   UNL     1      16.899 -23.659 -46.365  1.00  0.00     0.191 C 
ATOM      8  C   UNL     1      15.411 -23.902 -46.531  1.00  0.00     0.169 C 
ENDROOT
BRANCH   1   9
ATOM      9  N   UNL     1      15.126 -24.353 -42.072  1.00  0.00    -0.330 N 
ATOM     10  N   UNL     1      14.314 -24.746 -40.002  1.00  0.00    -0.338 N 
ATOM     11  C   UNL     1      15.405 -24.340 -40.729  1.00  0.00     0.315 C 
ATOM     12  O   UNL     1      16.482 -24.014 -40.253  1.00  0.00    -0.249 OA
ATOM     13  H   UNL     1      13.755 -25.441 -40.475  1.00  0.00     0.165 HD
ATOM     14  H   UNL     1      14.158 -24.127 -42.260  1.00  0.00     0.165 HD
BRANCH  10  15
ATOM     15  C   UNL     1      14.434 -24.897 -38.566  1.00  0.00     0.114 C 
ATOM     16  C   UNL     1      13.533 -23.924 -37.832  1.00  0.00     0.027 C 
ENDBRANCH  10  15
ENDBRANCH   1   9
BRANCH   8  17
ATOM     17  N   UNL     1      14.646 -23.120 -47.455  1.00  0.00    -0.217 N 
ATOM     18  N   UNL     1      15.218 -21.993 -47.936  1.00  0.00    -0.044 NA
ATOM     19  C   UNL     1      13.370 -23.226 -47.957  1.00  0.00     0.182 A 
ATOM     20  N   UNL     1      14.300 -21.423 -48.697  1.00  0.00    -0.023 NA
ATOM     21  N   UNL     1      13.152 -22.165 -48.713  1.00  0.00    -0.108 NA
BRANCH  19  22
ATOM     22  C   UNL     1      12.402 -24.277 -47.703  1.00  0.00     0.021 A 
ATOM     23  C   UNL     1      11.619 -24.262 -46.544  1.00  0.00     0.012 A 
ATOM     24  C   UNL     1      12.271 -25.339 -48.607  1.00  0.00     0.012 A 
ATOM     25  C   UNL     1      10.689 -25.277 -46.309  1.00  0.00     0.001 A 
ATOM     26  C   UNL     1      11.340 -26.353 -48.371  1.00  0.00     0.001 A 
ATOM     27  C   UNL     1      10.547 -26.318 -47.225  1.00  0.00     0.000 A 
ENDBRANCH  19  22
ENDBRANCH   8  17
TORSDOF 4
ENDMDL
MODEL 8
REMARK VINA RESULT:    -6.838      6.216      8.992
REMARK INTER + INTRA:          -9.179
REMARK INTER:                  -8.404
REMARK INTRA:                  -0.776
REMARK UNBOUND:                -0.742
REMARK SMILES CCNC(=O)N[C@@H]1CO[C@@H]2[C@H]1OC[C@@H]2n1nnnc1-c1ccccc1
REMARK SMILES IDX 7 1 8 2 9 3 10 4 11 5 12 6 13 7 14 8 6 9 3 10 4 11 5 12 2 15
REMARK SMILES IDX 1 16 15 17 16 18 19 19 17 20 18 21 20 22 21 23 25 24 22 25
REMARK SMILES IDX 24 26 23 27
REMARK H PARENT 3 13 6 14
ROOT
ATOM      1  C   UNL     1       7.778 -24.867 -49.947  1.00  0.00     0.141 C 
ATOM      2  C   UNL     1       7.476 -24.449 -48.511  1.00  0.00     0.188 C 
ATOM      3  O   UNL     1       8.627 -23.733 -48.021  1.00  0.00    -0.371 OA
ATOM      4  C   UNL     1       9.741 -24.016 -48.893  1.00  0.00     0.176 C 
ATOM      5  C   UNL     1       9.280 -25.095 -49.863  1.00  0.00     0.174 C 
ATOM      6  O   UNL     1       9.582 -26.371 -49.245  1.00  0.00    -0.371 OA
ATOM      7  C   UNL     1      10.350 -26.124 -48.047  1.00  0.00     0.191 C 
ATOM      8  C   UNL     1      10.881 -24.710 -48.178  1.00  0.00     0.169 C 
ENDROOT
BRANCH   1   9
ATOM      9  N   UNL     1       7.421 -23.808 -50.895  1.00  0.00    -0.330 N 
ATOM     10  N   UNL     1       6.040 -22.754 -52.338  1.00  0.00    -0.338 N 
ATOM     11  C   UNL     1       6.251 -23.896 -51.607  1.00  0.00     0.315 C 
ATOM     12  O   UNL     1       5.507 -24.865 -51.591  1.00  0.00    -0.249 OA
ATOM     13  H   UNL     1       6.894 -22.328 -52.669  1.00  0.00     0.165 HD
ATOM     14  H   UNL     1       7.616 -22.860 -50.602  1.00  0.00     0.165 HD
BRANCH  10  15
ATOM     15  C   UNL     1       4.906 -22.686 -53.238  1.00  0.00     0.114 C 
ATOM     16  C   UNL     1       3.803 -21.815 -52.670  1.00  0.00     0.027 C 
ENDBRANCH  10  15
ENDBRANCH   1   9
BRANCH   8  17
ATOM     17  N   UNL     1      11.392 -24.018 -47.034  1.00  0.00    -0.217 N 
ATOM     18  N   UNL     1      10.988 -24.447 -45.818  1.00  0.00    -0.044 NA
ATOM     19  C   UNL     1      12.205 -22.920 -46.876  1.00  0.00     0.182 A 
ATOM     20  N   UNL     1      11.532 -23.615 -44.946  1.00  0.00    -0.023 NA
ATOM     21  N   UNL     1      12.277 -22.662 -45.583  1.00  0.00    -0.108 NA
BRANCH  19  22
ATOM     22  C   UNL     1      12.858 -22.143 -47.914  1.00  0.00     0.021 A 
ATOM     23  C   UNL     1      12.122 -21.269 -48.722  1.00  0.00     0.012 A 
ATOM     24  C   UNL     1      14.233 -22.292 -48.138  1.00  0.00     0.012 A 
ATOM     25  C   UNL     1      12.759 -20.525 -49.718  1.00  0.00     0.001 A 
ATOM     26  C   UNL     1      14.868 -21.546 -49.134  1.00  0.00     0.001 A 
ATOM     27  C   UNL     1      14.131 -20.661 -49.918  1.00  0.00     0.000 A 
ENDBRANCH  19  22
ENDBRANCH   8  17
TORSDOF 4
ENDMDL
MODEL 9
REMARK VINA RESULT:    -6.618      2.669      3.519
REMARK INTER + INTRA:          -8.908
REMARK INTER:                  -8.462
REMARK INTRA:                  -0.445
REMARK UNBOUND:                -0.742
REMARK SMILES CCNC(=O)N[C@@H]1CO[C@@H]2[C@H]1OC[C@@H]2n1nnnc1-c1ccccc1
REMARK SMILES IDX 7 1 8 2 9 3 10 4 11 5 12 6 13 7 14 8 6 9 3 10 4 11 5 12 2 15
REMARK SMILES IDX 1 16 15 17 16 18 19 19 17 20 18 21 20 22 21 23 25 24 22 25
REMARK SMILES IDX 24 26 23 27
REMARK H PARENT 3 13 6 14
ROOT
ATOM      1  C   UNL     1      11.897 -24.658 -45.842  1.00  0.00     0.141 C 
ATOM      2  C   UNL     1      11.918 -23.844 -44.552  1.00  0.00     0.188 C 
ATOM      3  O   UNL     1      13.242 -23.289 -44.417  1.00  0.00    -0.371 OA
ATOM      4  C   UNL     1      14.126 -24.008 -45.302  1.00  0.00     0.176 C 
ATOM      5  C   UNL     1      13.329 -25.170 -45.875  1.00  0.00     0.174 C 
ATOM      6  O   UNL     1      13.506 -26.288 -44.969  1.00  0.00    -0.371 OA
ATOM      7  C   UNL     1      14.496 -25.921 -43.985  1.00  0.00     0.191 C 
ATOM      8  C   UNL     1      15.233 -24.728 -44.562  1.00  0.00     0.169 C 
ENDROOT
BRANCH   1   9
ATOM      9  N   UNL     1      11.572 -23.815 -46.997  1.00  0.00    -0.330 N 
ATOM     10  N   UNL     1      10.299 -23.169 -48.746  1.00  0.00    -0.338 N 
ATOM     11  C   UNL     1      10.513 -24.144 -47.806  1.00  0.00     0.315 C 
ATOM     12  O   UNL     1       9.859 -25.170 -47.699  1.00  0.00    -0.249 OA
ATOM     13  H   UNL     1      11.148 -22.715 -49.052  1.00  0.00     0.165 HD
ATOM     14  H   UNL     1      11.646 -22.817 -46.857  1.00  0.00     0.165 HD
BRANCH  10  15
ATOM     15  C   UNL     1       9.286 -23.372 -49.762  1.00  0.00     0.114 C 
ATOM     16  C   UNL     1       9.891 -23.366 -51.152  1.00  0.00     0.027 C 
ENDBRANCH  10  15
ENDBRANCH   1   9
BRANCH   8  17
ATOM     17  N   UNL     1      16.043 -23.899 -43.721  1.00  0.00    -0.217 N 
ATOM     18  N   UNL     1      16.957 -23.108 -44.325  1.00  0.00    -0.044 NA
ATOM     19  C   UNL     1      16.150 -23.749 -42.358  1.00  0.00     0.182 A 
ATOM     20  N   UNL     1      17.613 -22.507 -43.347  1.00  0.00    -0.023 NA
ATOM     21  N   UNL     1      17.134 -22.899 -42.128  1.00  0.00    -0.108 NA
BRANCH  19  22
ATOM     22  C   UNL     1      15.365 -24.407 -41.329  1.00  0.00     0.021 A 
ATOM     23  C   UNL     1      15.921 -25.430 -40.553  1.00  0.00     0.012 A 
ATOM     24  C   UNL     1      14.027 -24.043 -41.131  1.00  0.00     0.012 A 
ATOM     25  C   UNL     1      15.158 -26.057 -39.564  1.00  0.00     0.001 A 
ATOM     26  C   UNL     1      13.267 -24.671 -40.142  1.00  0.00     0.001 A 
ATOM     27  C   UNL     1      13.835 -25.673 -39.357  1.00  0.00     0.000 A 
ENDBRANCH  19  22
ENDBRANCH   8  17
TORSDOF 4
ENDMDL
