REMARK SMILES NC1=[NH+]c2nc3ccccc3n2[C@H](/C(Cl)=C/c2ccccc2)N1
REMARK SMILES IDX 1 1 2 2 3 3 4 4 5 5 6 6 7 7 8 8 9 9 10 10 11 11 12 12 13 13
REMARK SMILES IDX 23 14 14 19 16 20 15 21 17 22 18 23 22 24 19 25 21 26 20 27
REMARK H PARENT 1 15 1 16 3 17 23 18
ROOT
ATOM      1  N   UNL     1       3.940   1.222   1.411  1.00  0.00    -0.322 N 
ATOM      2  C   UNL     1       2.898   1.474   0.599  1.00  0.00     0.283 C 
ATOM      3  N   UNL     1       2.379   2.707   0.568  1.00  0.00    -0.231 N 
ATOM      4  C   UNL     1       1.351   2.962  -0.244  1.00  0.00     0.329 A 
ATOM      5  N   UNL     1       0.745   4.246  -0.421  1.00  0.00    -0.126 NA
ATOM      6  C   UNL     1      -0.224   3.962  -1.410  1.00  0.00     0.145 A 
ATOM      7  C   UNL     1      -1.131   4.861  -1.994  1.00  0.00     0.042 A 
ATOM      8  C   UNL     1      -2.019   4.399  -2.971  1.00  0.00     0.003 A 
ATOM      9  C   UNL     1      -2.015   3.062  -3.372  1.00  0.00     0.003 A 
ATOM     10  C   UNL     1      -1.128   2.133  -2.816  1.00  0.00     0.040 A 
ATOM     11  C   UNL     1      -0.245   2.599  -1.838  1.00  0.00     0.118 A 
ATOM     12  N   UNL     1       0.730   1.995  -1.087  1.00  0.00    -0.225 N 
ATOM     13  C   UNL     1       1.220   0.640  -1.033  1.00  0.00     0.306 C 
ATOM     14  N   UNL     1       2.411   0.477  -0.168  1.00  0.00    -0.276 N 
ATOM     15  H   UNL     1       4.365   0.306   1.481  1.00  0.00     0.217 HD
ATOM     16  H   UNL     1       4.327   1.946   2.006  1.00  0.00     0.217 HD
ATOM     17  H   UNL     1       2.731   3.473   1.125  1.00  0.00     0.233 HD
ATOM     18  H   UNL     1       2.817  -0.444  -0.084  1.00  0.00     0.224 HD
ENDROOT
BRANCH  13  19
ATOM     19  C   UNL     1       0.167  -0.328  -0.547  1.00  0.00     0.080 C 
ATOM     20  C   UNL     1      -0.339  -1.310  -1.316  1.00  0.00     0.030 C 
ATOM     21  Cl  UNL     1      -0.304  -0.123   1.119  1.00  0.00    -0.083 Cl
BRANCH  20  22
ATOM     22  C   UNL     1      -1.361  -2.283  -0.916  1.00  0.00    -0.024 A 
ATOM     23  C   UNL     1      -2.664  -1.878  -0.603  1.00  0.00     0.008 A 
ATOM     24  C   UNL     1      -1.040  -3.645  -0.887  1.00  0.00     0.008 A 
ATOM     25  C   UNL     1      -3.628  -2.822  -0.246  1.00  0.00     0.001 A 
ATOM     26  C   UNL     1      -2.007  -4.588  -0.529  1.00  0.00     0.001 A 
ATOM     27  C   UNL     1      -3.299  -4.176  -0.207  1.00  0.00     0.000 A 
ENDBRANCH  20  22
ENDBRANCH  13  19
TORSDOF 2
