REMARK SMILES C=CCn1c(C)nnc1SCC(=O)C(C#N)=C1Nc2ccccc2N1
REMARK SMILES IDX 10 1 9 2 4 3 5 4 7 5 8 6 6 7 3 8 2 9 1 10 11 11 12 12 13 13
REMARK SMILES IDX 14 14 15 15 17 16 16 17 18 18 25 19 19 20 24 21 20 22 23 23
REMARK SMILES IDX 21 24 22 25
REMARK H PARENT 18 26 25 27
ROOT
ATOM      1  S   UNL     1      -0.345   2.678   1.120  1.00  0.00    -0.078 SA
ENDROOT
BRANCH   1   2
ATOM      2  C   UNL     1      -1.219   1.317   0.513  1.00  0.00     0.191 A 
ATOM      3  N   UNL     1      -2.068   1.345  -0.556  1.00  0.00    -0.302 N 
ATOM      4  C   UNL     1      -2.481   0.041  -0.723  1.00  0.00     0.130 A 
ATOM      5  N   UNL     1      -1.897  -0.714   0.189  1.00  0.00    -0.135 NA
ATOM      6  N   UNL     1      -1.113   0.092   0.969  1.00  0.00    -0.123 NA
ATOM      7  C   UNL     1      -3.423  -0.421  -1.767  1.00  0.00     0.090 C 
BRANCH   3   8
ATOM      8  C   UNL     1      -2.414   2.477  -1.395  1.00  0.00     0.153 C 
BRANCH   8   9
ATOM      9  C   UNL     1      -3.641   3.185  -0.897  1.00  0.00    -0.013 C 
ATOM     10  C   UNL     1      -4.769   3.341  -1.603  1.00  0.00     0.006 C 
ENDBRANCH   8   9
ENDBRANCH   3   8
ENDBRANCH   1   2
BRANCH   1  11
ATOM     11  C   UNL     1       1.218   1.851   1.572  1.00  0.00     0.160 C 
BRANCH  11  12
ATOM     12  C   UNL     1       1.851   1.155   0.372  1.00  0.00     0.187 C 
ATOM     13  O   UNL     1       1.698   1.546  -0.788  1.00  0.00    -0.292 OA
BRANCH  12  14
ATOM     14  C   UNL     1       2.793   0.037   0.634  1.00  0.00     0.136 C 
ATOM     15  C   UNL     1       4.109   0.188   0.124  1.00  0.00     0.107 C 
ATOM     16  C   UNL     1       2.416  -1.072   1.304  1.00  0.00     0.130 C 
ATOM     17  N   UNL     1       5.199   0.286  -0.264  1.00  0.00    -0.192 NA
ATOM     18  N   UNL     1       3.271  -2.158   1.590  1.00  0.00    -0.339 N 
ATOM     19  N   UNL     1       1.128  -1.359   1.783  1.00  0.00    -0.339 N 
ATOM     20  C   UNL     1       2.444  -3.216   2.016  1.00  0.00     0.063 A 
ATOM     21  C   UNL     1       1.126  -2.725   2.133  1.00  0.00     0.063 A 
ATOM     22  C   UNL     1       2.767  -4.504   2.370  1.00  0.00     0.028 A 
ATOM     23  C   UNL     1       0.098  -3.510   2.599  1.00  0.00     0.028 A 
ATOM     24  C   UNL     1       1.727  -5.322   2.826  1.00  0.00     0.002 A 
ATOM     25  C   UNL     1       0.408  -4.831   2.938  1.00  0.00     0.002 A 
ATOM     26  H   UNL     1       4.034  -2.372   0.961  1.00  0.00     0.168 HD
ATOM     27  H   UNL     1       0.299  -1.022   1.286  1.00  0.00     0.168 HD
ENDBRANCH  12  14
ENDBRANCH  11  12
ENDBRANCH   1  11
TORSDOF 6
