MODEL 1
REMARK VINA RESULT:    -7.363      0.000      0.000
REMARK INTER + INTRA:         -12.329
REMARK INTER:                 -10.806
REMARK INTRA:                  -1.523
REMARK UNBOUND:                -1.523
REMARK SMILES CNS(=O)(=O)c1cc(C(=O)O[C@@H](C)C(=O)NC(=O)Nc2ccc([N+](=O)[O-])cc2)n(C)c1
REMARK SMILES IDX 11 1 9 2 10 3 8 4 6 5 7 6 31 7 29 8 30 9 3 10 4 11 5 12 2 13
REMARK SMILES IDX 1 14 12 16 13 17 14 18 15 19 16 20 17 21 18 22 19 23 20 26
REMARK SMILES IDX 21 27 28 28 22 29 27 30 23 31 24 32 25 33 26 34
REMARK H PARENT 2 15 16 24 19 25
ROOT
ATOM      1  O   UNL     1      11.619 -21.410 -50.497  1.00  0.00    -0.448 OA
ENDROOT
BRANCH   1   2
ATOM      2  C   UNL     1      11.157 -22.645 -50.837  1.00  0.00     0.355 C 
ATOM      3  O   UNL     1      11.164 -23.087 -51.976  1.00  0.00    -0.244 OA
BRANCH   2   4
ATOM      4  C   UNL     1      10.763 -23.385 -49.656  1.00  0.00     0.128 A 
ATOM      5  C   UNL     1      10.873 -24.490 -47.670  1.00  0.00     0.100 A 
ATOM      6  C   UNL     1      11.634 -23.860 -48.679  1.00  0.00     0.057 A 
ATOM      7  C   UNL     1       9.551 -24.425 -48.053  1.00  0.00     0.107 A 
ATOM      8  N   UNL     1       9.492 -23.774 -49.261  1.00  0.00    -0.344 N 
ATOM      9  C   UNL     1       8.257 -23.586 -49.997  1.00  0.00     0.150 C 
BRANCH   5  10
ATOM     10  S   UNL     1      11.485 -25.200 -46.221  1.00  0.00     0.241 S 
ATOM     11  O   UNL     1      12.874 -25.464 -46.514  1.00  0.00    -0.207 OA
ATOM     12  O   UNL     1      10.548 -26.247 -45.884  1.00  0.00    -0.207 OA
BRANCH  10  13
ATOM     13  N   UNL     1      11.445 -24.036 -44.999  1.00  0.00    -0.214 NA
ATOM     14  C   UNL     1      12.530 -24.097 -44.015  1.00  0.00     0.120 C 
ATOM     15  H   UNL     1      11.315 -23.115 -45.419  1.00  0.00     0.141 HD
ENDBRANCH  10  13
ENDBRANCH   5  10
ENDBRANCH   2   4
ENDBRANCH   1   2
BRANCH   1  16
ATOM     16  C   UNL     1      13.049 -21.269 -50.495  1.00  0.00     0.263 C 
ATOM     17  C   UNL     1      13.409 -20.423 -51.709  1.00  0.00     0.064 C 
BRANCH  16  18
ATOM     18  C   UNL     1      13.589 -20.582 -49.231  1.00  0.00     0.268 C 
ATOM     19  O   UNL     1      13.096 -19.546 -48.792  1.00  0.00    -0.270 OA
ATOM     20  N   UNL     1      14.664 -21.216 -48.648  1.00  0.00    -0.275 N 
ATOM     21  C   UNL     1      14.483 -21.795 -47.410  1.00  0.00     0.325 C 
ATOM     22  O   UNL     1      13.383 -21.974 -46.906  1.00  0.00    -0.248 OA
ATOM     23  N   UNL     1      15.698 -22.211 -46.896  1.00  0.00    -0.308 N 
ATOM     24  H   UNL     1      15.141 -21.865 -49.256  1.00  0.00     0.174 HD
ATOM     25  H   UNL     1      16.508 -21.769 -47.311  1.00  0.00     0.171 HD
BRANCH  23  26
ATOM     26  C   UNL     1      15.922 -22.957 -45.722  1.00  0.00     0.043 A 
ATOM     27  C   UNL     1      15.968 -22.249 -44.512  1.00  0.00     0.033 A 
ATOM     28  C   UNL     1      16.120 -24.341 -45.705  1.00  0.00     0.033 A 
ATOM     29  C   UNL     1      16.197 -22.912 -43.301  1.00  0.00     0.088 A 
ATOM     30  C   UNL     1      16.350 -25.017 -44.500  1.00  0.00     0.088 A 
ATOM     31  C   UNL     1      16.386 -24.298 -43.300  1.00  0.00     0.269 A 
BRANCH  31  32
ATOM     32  N   UNL     1      16.630 -25.001 -42.034  1.00  0.00     0.062 N 
ATOM     33  O   UNL     1      15.643 -25.329 -41.359  1.00  0.00    -0.258 OA
ATOM     34  O   UNL     1      17.806 -25.220 -41.713  1.00  0.00    -0.258 OA
ENDBRANCH  31  32
ENDBRANCH  23  26
ENDBRANCH  16  18
ENDBRANCH   1  16
TORSDOF 8
ENDMDL
MODEL 2
REMARK VINA RESULT:    -7.363      2.885      4.500
REMARK INTER + INTRA:         -12.329
REMARK INTER:                 -11.482
REMARK INTRA:                  -0.847
REMARK UNBOUND:                -1.523
REMARK SMILES CNS(=O)(=O)c1cc(C(=O)O[C@@H](C)C(=O)NC(=O)Nc2ccc([N+](=O)[O-])cc2)n(C)c1
REMARK SMILES IDX 11 1 9 2 10 3 8 4 6 5 7 6 31 7 29 8 30 9 3 10 4 11 5 12 2 13
REMARK SMILES IDX 1 14 12 16 13 17 14 18 15 19 16 20 17 21 18 22 19 23 20 26
REMARK SMILES IDX 21 27 28 28 22 29 27 30 23 31 24 32 25 33 26 34
REMARK H PARENT 2 15 16 24 19 25
ROOT
ATOM      1  O   UNL     1      11.591 -21.530 -50.297  1.00  0.00    -0.448 OA
ENDROOT
BRANCH   1   2
ATOM      2  C   UNL     1      11.307 -22.853 -50.152  1.00  0.00     0.355 C 
ATOM      3  O   UNL     1      11.924 -23.607 -49.414  1.00  0.00    -0.244 OA
BRANCH   2   4
ATOM      4  C   UNL     1      10.119 -23.206 -50.902  1.00  0.00     0.128 A 
ATOM      5  C   UNL     1       7.935 -23.439 -51.494  1.00  0.00     0.100 A 
ATOM      6  C   UNL     1       8.811 -23.010 -50.472  1.00  0.00     0.057 A 
ATOM      7  C   UNL     1       8.713 -23.922 -52.523  1.00  0.00     0.107 A 
ATOM      8  N   UNL     1      10.030 -23.796 -52.154  1.00  0.00    -0.344 N 
ATOM      9  C   UNL     1      11.129 -24.270 -52.973  1.00  0.00     0.150 C 
BRANCH   5  10
ATOM     10  S   UNL     1       6.211 -23.362 -51.463  1.00  0.00     0.241 S 
ATOM     11  O   UNL     1       5.894 -23.065 -50.085  1.00  0.00    -0.207 OA
ATOM     12  O   UNL     1       5.763 -24.567 -52.122  1.00  0.00    -0.207 OA
BRANCH  10  13
ATOM     13  N   UNL     1       5.720 -22.036 -52.385  1.00  0.00    -0.214 NA
ATOM     14  C   UNL     1       4.299 -21.989 -52.742  1.00  0.00     0.120 C 
ATOM     15  H   UNL     1       6.070 -21.180 -51.952  1.00  0.00     0.141 HD
ENDBRANCH  10  13
ENDBRANCH   5  10
ENDBRANCH   2   4
ENDBRANCH   1   2
BRANCH   1  16
ATOM     16  C   UNL     1      12.981 -21.184 -50.183  1.00  0.00     0.263 C 
ATOM     17  C   UNL     1      13.281 -20.195 -51.301  1.00  0.00     0.064 C 
BRANCH  16  18
ATOM     18  C   UNL     1      13.336 -20.536 -48.836  1.00  0.00     0.268 C 
ATOM     19  O   UNL     1      13.044 -19.371 -48.577  1.00  0.00    -0.270 OA
ATOM     20  N   UNL     1      14.008 -21.362 -47.962  1.00  0.00    -0.275 N 
ATOM     21  C   UNL     1      13.360 -21.752 -46.810  1.00  0.00     0.325 C 
ATOM     22  O   UNL     1      12.160 -21.597 -46.627  1.00  0.00    -0.248 OA
ATOM     23  N   UNL     1      14.238 -22.410 -45.968  1.00  0.00    -0.308 N 
ATOM     24  H   UNL     1      14.434 -22.166 -48.397  1.00  0.00     0.174 HD
ATOM     25  H   UNL     1      15.217 -22.231 -46.152  1.00  0.00     0.171 HD
BRANCH  23  26
ATOM     26  C   UNL     1      13.937 -23.071 -44.760  1.00  0.00     0.043 A 
ATOM     27  C   UNL     1      14.916 -23.045 -43.756  1.00  0.00     0.033 A 
ATOM     28  C   UNL     1      12.742 -23.758 -44.525  1.00  0.00     0.033 A 
ATOM     29  C   UNL     1      14.702 -23.685 -42.530  1.00  0.00     0.088 A 
ATOM     30  C   UNL     1      12.516 -24.403 -43.303  1.00  0.00     0.088 A 
ATOM     31  C   UNL     1      13.498 -24.363 -42.307  1.00  0.00     0.269 A 
BRANCH  31  32
ATOM     32  N   UNL     1      13.267 -25.040 -41.025  1.00  0.00     0.062 N 
ATOM     33  O   UNL     1      13.741 -24.517 -40.005  1.00  0.00    -0.258 OA
ATOM     34  O   UNL     1      12.618 -26.094 -41.038  1.00  0.00    -0.258 OA
ENDBRANCH  31  32
ENDBRANCH  23  26
ENDBRANCH  16  18
ENDBRANCH   1  16
TORSDOF 8
ENDMDL
MODEL 3
REMARK VINA RESULT:    -7.233      2.743      5.701
REMARK INTER + INTRA:         -12.139
REMARK INTER:                 -11.248
REMARK INTRA:                  -0.890
REMARK UNBOUND:                -1.523
REMARK SMILES CNS(=O)(=O)c1cc(C(=O)O[C@@H](C)C(=O)NC(=O)Nc2ccc([N+](=O)[O-])cc2)n(C)c1
REMARK SMILES IDX 11 1 9 2 10 3 8 4 6 5 7 6 31 7 29 8 30 9 3 10 4 11 5 12 2 13
REMARK SMILES IDX 1 14 12 16 13 17 14 18 15 19 16 20 17 21 18 22 19 23 20 26
REMARK SMILES IDX 21 27 28 28 22 29 27 30 23 31 24 32 25 33 26 34
REMARK H PARENT 2 15 16 24 19 25
ROOT
ATOM      1  O   UNL     1      11.972 -23.815 -48.798  1.00  0.00    -0.448 OA
ENDROOT
BRANCH   1   2
ATOM      2  C   UNL     1      11.295 -22.890 -49.531  1.00  0.00     0.355 C 
ATOM      3  O   UNL     1      10.108 -22.975 -49.810  1.00  0.00    -0.244 OA
BRANCH   2   4
ATOM      4  C   UNL     1      12.144 -21.757 -49.834  1.00  0.00     0.128 A 
ATOM      5  C   UNL     1      13.326 -20.202 -51.000  1.00  0.00     0.100 A 
ATOM      6  C   UNL     1      12.543 -21.372 -51.110  1.00  0.00     0.057 A 
ATOM      7  C   UNL     1      13.427 -19.901 -49.659  1.00  0.00     0.107 A 
ATOM      8  N   UNL     1      12.727 -20.854 -48.959  1.00  0.00    -0.344 N 
ATOM      9  C   UNL     1      12.675 -20.889 -47.510  1.00  0.00     0.150 C 
BRANCH   5  10
ATOM     10  S   UNL     1      14.019 -19.308 -52.304  1.00  0.00     0.241 S 
ATOM     11  O   UNL     1      14.498 -18.093 -51.687  1.00  0.00    -0.207 OA
ATOM     12  O   UNL     1      13.015 -19.308 -53.343  1.00  0.00    -0.207 OA
BRANCH  10  13
ATOM     13  N   UNL     1      15.370 -20.148 -52.868  1.00  0.00    -0.214 NA
ATOM     14  C   UNL     1      16.156 -19.480 -53.909  1.00  0.00     0.120 C 
ATOM     15  H   UNL     1      15.920 -20.469 -52.071  1.00  0.00     0.141 HD
ENDBRANCH  10  13
ENDBRANCH   5  10
ENDBRANCH   2   4
ENDBRANCH   1   2
BRANCH   1  16
ATOM     16  C   UNL     1      11.279 -25.055 -48.580  1.00  0.00     0.263 C 
ATOM     17  C   UNL     1      12.311 -26.166 -48.717  1.00  0.00     0.064 C 
BRANCH  16  18
ATOM     18  C   UNL     1      10.627 -25.148 -47.191  1.00  0.00     0.268 C 
ATOM     19  O   UNL     1       9.674 -25.890 -46.968  1.00  0.00    -0.270 OA
ATOM     20  N   UNL     1      11.193 -24.332 -46.236  1.00  0.00    -0.275 N 
ATOM     21  C   UNL     1      11.866 -24.927 -45.191  1.00  0.00     0.325 C 
ATOM     22  O   UNL     1      12.182 -26.109 -45.179  1.00  0.00    -0.248 OA
ATOM     23  N   UNL     1      12.197 -23.981 -44.237  1.00  0.00    -0.308 N 
ATOM     24  H   UNL     1      11.752 -23.581 -46.612  1.00  0.00     0.174 HD
ATOM     25  H   UNL     1      11.654 -23.128 -44.279  1.00  0.00     0.171 HD
BRANCH  23  26
ATOM     26  C   UNL     1      12.994 -24.162 -43.089  1.00  0.00     0.043 A 
ATOM     27  C   UNL     1      14.329 -23.738 -43.163  1.00  0.00     0.033 A 
ATOM     28  C   UNL     1      12.535 -24.753 -41.908  1.00  0.00     0.033 A 
ATOM     29  C   UNL     1      15.191 -23.890 -42.071  1.00  0.00     0.088 A 
ATOM     30  C   UNL     1      13.387 -24.911 -40.809  1.00  0.00     0.088 A 
ATOM     31  C   UNL     1      14.715 -24.477 -40.894  1.00  0.00     0.269 A 
BRANCH  31  32
ATOM     32  N   UNL     1      15.614 -24.644 -39.745  1.00  0.00     0.062 N 
ATOM     33  O   UNL     1      15.240 -25.385 -38.825  1.00  0.00    -0.258 OA
ATOM     34  O   UNL     1      16.690 -24.031 -39.762  1.00  0.00    -0.258 OA
ENDBRANCH  31  32
ENDBRANCH  23  26
ENDBRANCH  16  18
ENDBRANCH   1  16
TORSDOF 8
ENDMDL
MODEL 4
REMARK VINA RESULT:    -7.225      2.981      7.870
REMARK INTER + INTRA:         -12.127
REMARK INTER:                 -11.713
REMARK INTRA:                  -0.414
REMARK UNBOUND:                -1.523
REMARK SMILES CNS(=O)(=O)c1cc(C(=O)O[C@@H](C)C(=O)NC(=O)Nc2ccc([N+](=O)[O-])cc2)n(C)c1
REMARK SMILES IDX 11 1 9 2 10 3 8 4 6 5 7 6 31 7 29 8 30 9 3 10 4 11 5 12 2 13
REMARK SMILES IDX 1 14 12 16 13 17 14 18 15 19 16 20 17 21 18 22 19 23 20 26
REMARK SMILES IDX 21 27 28 28 22 29 27 30 23 31 24 32 25 33 26 34
REMARK H PARENT 2 15 16 24 19 25
ROOT
ATOM      1  O   UNL     1      12.648 -23.968 -46.979  1.00  0.00    -0.448 OA
ENDROOT
BRANCH   1   2
ATOM      2  C   UNL     1      13.552 -24.855 -46.479  1.00  0.00     0.355 C 
ATOM      3  O   UNL     1      13.772 -25.954 -46.966  1.00  0.00    -0.244 OA
BRANCH   2   4
ATOM      4  C   UNL     1      14.278 -24.273 -45.369  1.00  0.00     0.128 A 
ATOM      5  C   UNL     1      15.979 -23.446 -44.105  1.00  0.00     0.100 A 
ATOM      6  C   UNL     1      15.655 -24.073 -45.328  1.00  0.00     0.057 A 
ATOM      7  C   UNL     1      14.806 -23.297 -43.398  1.00  0.00     0.107 A 
ATOM      8  N   UNL     1      13.786 -23.815 -44.157  1.00  0.00    -0.344 N 
ATOM      9  C   UNL     1      12.414 -23.888 -43.692  1.00  0.00     0.150 C 
BRANCH   5  10
ATOM     10  S   UNL     1      17.552 -22.947 -43.597  1.00  0.00     0.241 S 
ATOM     11  O   UNL     1      17.431 -22.799 -42.165  1.00  0.00    -0.207 OA
ATOM     12  O   UNL     1      17.903 -21.848 -44.466  1.00  0.00    -0.207 OA
BRANCH  10  13
ATOM     13  N   UNL     1      18.629 -24.215 -43.879  1.00  0.00    -0.214 NA
ATOM     14  C   UNL     1      18.400 -25.440 -43.107  1.00  0.00     0.120 C 
ATOM     15  H   UNL     1      18.713 -24.366 -44.885  1.00  0.00     0.141 HD
ENDBRANCH  10  13
ENDBRANCH   5  10
ENDBRANCH   2   4
ENDBRANCH   1   2
BRANCH   1  16
ATOM     16  C   UNL     1      11.551 -24.550 -47.702  1.00  0.00     0.263 C 
ATOM     17  C   UNL     1      10.565 -25.067 -46.663  1.00  0.00     0.064 C 
BRANCH  16  18
ATOM     18  C   UNL     1      10.830 -23.549 -48.618  1.00  0.00     0.268 C 
ATOM     19  O   UNL     1       9.703 -23.131 -48.367  1.00  0.00    -0.270 OA
ATOM     20  N   UNL     1      11.547 -23.174 -49.734  1.00  0.00    -0.275 N 
ATOM     21  C   UNL     1      11.982 -21.869 -49.817  1.00  0.00     0.325 C 
ATOM     22  O   UNL     1      11.967 -21.093 -48.872  1.00  0.00    -0.248 OA
ATOM     23  N   UNL     1      12.508 -21.621 -51.072  1.00  0.00    -0.308 N 
ATOM     24  H   UNL     1      12.305 -23.797 -49.967  1.00  0.00     0.174 HD
ATOM     25  H   UNL     1      12.217 -22.272 -51.791  1.00  0.00     0.171 HD
BRANCH  23  26
ATOM     26  C   UNL     1      13.168 -20.456 -51.511  1.00  0.00     0.043 A 
ATOM     27  C   UNL     1      13.618 -20.438 -52.840  1.00  0.00     0.033 A 
ATOM     28  C   UNL     1      13.412 -19.346 -50.697  1.00  0.00     0.033 A 
ATOM     29  C   UNL     1      14.293 -19.324 -53.353  1.00  0.00     0.088 A 
ATOM     30  C   UNL     1      14.086 -18.225 -51.199  1.00  0.00     0.088 A 
ATOM     31  C   UNL     1      14.524 -18.217 -52.528  1.00  0.00     0.269 A 
BRANCH  31  32
ATOM     32  N   UNL     1      15.233 -17.047 -53.058  1.00  0.00     0.062 N 
ATOM     33  O   UNL     1      14.755 -16.487 -54.055  1.00  0.00    -0.258 OA
ATOM     34  O   UNL     1      16.270 -16.691 -52.481  1.00  0.00    -0.258 OA
ENDBRANCH  31  32
ENDBRANCH  23  26
ENDBRANCH  16  18
ENDBRANCH   1  16
TORSDOF 8
ENDMDL
MODEL 5
REMARK VINA RESULT:    -7.139      2.615      4.172
REMARK INTER + INTRA:         -12.001
REMARK INTER:                 -11.196
REMARK INTRA:                  -0.805
REMARK UNBOUND:                -1.523
REMARK SMILES CNS(=O)(=O)c1cc(C(=O)O[C@@H](C)C(=O)NC(=O)Nc2ccc([N+](=O)[O-])cc2)n(C)c1
REMARK SMILES IDX 11 1 9 2 10 3 8 4 6 5 7 6 31 7 29 8 30 9 3 10 4 11 5 12 2 13
REMARK SMILES IDX 1 14 12 16 13 17 14 18 15 19 16 20 17 21 18 22 19 23 20 26
REMARK SMILES IDX 21 27 28 28 22 29 27 30 23 31 24 32 25 33 26 34
REMARK H PARENT 2 15 16 24 19 25
ROOT
ATOM      1  O   UNL     1      11.619 -21.846 -50.073  1.00  0.00    -0.448 OA
ENDROOT
BRANCH   1   2
ATOM      2  C   UNL     1      11.380 -23.119 -49.655  1.00  0.00     0.355 C 
ATOM      3  O   UNL     1      12.249 -23.881 -49.257  1.00  0.00    -0.244 OA
BRANCH   2   4
ATOM      4  C   UNL     1       9.959 -23.396 -49.648  1.00  0.00     0.128 A 
ATOM      5  C   UNL     1       7.771 -23.448 -50.271  1.00  0.00     0.100 A 
ATOM      6  C   UNL     1       9.046 -22.932 -50.591  1.00  0.00     0.057 A 
ATOM      7  C   UNL     1       7.909 -24.194 -49.121  1.00  0.00     0.107 A 
ATOM      8  N   UNL     1       9.227 -24.144 -48.739  1.00  0.00    -0.344 N 
ATOM      9  C   UNL     1       9.721 -24.765 -47.525  1.00  0.00     0.150 C 
BRANCH   5  10
ATOM     10  S   UNL     1       6.314 -23.199 -51.162  1.00  0.00     0.241 S 
ATOM     11  O   UNL     1       5.808 -24.532 -51.395  1.00  0.00    -0.207 OA
ATOM     12  O   UNL     1       6.673 -22.304 -52.238  1.00  0.00    -0.207 OA
BRANCH  10  13
ATOM     13  N   UNL     1       5.206 -22.412 -50.161  1.00  0.00    -0.214 NA
ATOM     14  C   UNL     1       3.819 -22.379 -50.636  1.00  0.00     0.120 C 
ATOM     15  H   UNL     1       5.311 -22.759 -49.207  1.00  0.00     0.141 HD
ENDBRANCH  10  13
ENDBRANCH   5  10
ENDBRANCH   2   4
ENDBRANCH   1   2
BRANCH   1  16
ATOM     16  C   UNL     1      12.988 -21.418 -49.992  1.00  0.00     0.263 C 
ATOM     17  C   UNL     1      13.212 -20.437 -51.135  1.00  0.00     0.064 C 
BRANCH  16  18
ATOM     18  C   UNL     1      13.328 -20.723 -48.665  1.00  0.00     0.268 C 
ATOM     19  O   UNL     1      12.984 -19.567 -48.428  1.00  0.00    -0.270 OA
ATOM     20  N   UNL     1      14.050 -21.495 -47.782  1.00  0.00    -0.275 N 
ATOM     21  C   UNL     1      13.436 -21.889 -46.612  1.00  0.00     0.325 C 
ATOM     22  O   UNL     1      12.233 -21.787 -46.417  1.00  0.00    -0.248 OA
ATOM     23  N   UNL     1      14.356 -22.484 -45.767  1.00  0.00    -0.308 N 
ATOM     24  H   UNL     1      14.509 -22.288 -48.204  1.00  0.00     0.174 HD
ATOM     25  H   UNL     1      15.323 -22.262 -45.968  1.00  0.00     0.171 HD
BRANCH  23  26
ATOM     26  C   UNL     1      14.102 -23.130 -44.541  1.00  0.00     0.043 A 
ATOM     27  C   UNL     1      15.105 -23.061 -43.562  1.00  0.00     0.033 A 
ATOM     28  C   UNL     1      12.932 -23.842 -44.263  1.00  0.00     0.033 A 
ATOM     29  C   UNL     1      14.938 -23.683 -42.320  1.00  0.00     0.088 A 
ATOM     30  C   UNL     1      12.753 -24.470 -43.025  1.00  0.00     0.088 A 
ATOM     31  C   UNL     1      13.758 -24.387 -42.054  1.00  0.00     0.269 A 
BRANCH  31  32
ATOM     32  N   UNL     1      13.577 -25.046 -40.755  1.00  0.00     0.062 N 
ATOM     33  O   UNL     1      13.079 -24.379 -39.836  1.00  0.00    -0.258 OA
ATOM     34  O   UNL     1      13.936 -26.227 -40.652  1.00  0.00    -0.258 OA
ENDBRANCH  31  32
ENDBRANCH  23  26
ENDBRANCH  16  18
ENDBRANCH   1  16
TORSDOF 8
ENDMDL
MODEL 6
REMARK VINA RESULT:    -7.127      3.247      5.766
REMARK INTER + INTRA:         -11.983
REMARK INTER:                 -11.064
REMARK INTRA:                  -0.919
REMARK UNBOUND:                -1.523
REMARK SMILES CNS(=O)(=O)c1cc(C(=O)O[C@@H](C)C(=O)NC(=O)Nc2ccc([N+](=O)[O-])cc2)n(C)c1
REMARK SMILES IDX 11 1 9 2 10 3 8 4 6 5 7 6 31 7 29 8 30 9 3 10 4 11 5 12 2 13
REMARK SMILES IDX 1 14 12 16 13 17 14 18 15 19 16 20 17 21 18 22 19 23 20 26
REMARK SMILES IDX 21 27 28 28 22 29 27 30 23 31 24 32 25 33 26 34
REMARK H PARENT 2 15 16 24 19 25
ROOT
ATOM      1  O   UNL     1      12.310 -23.795 -49.335  1.00  0.00    -0.448 OA
ENDROOT
BRANCH   1   2
ATOM      2  C   UNL     1      11.539 -22.673 -49.352  1.00  0.00     0.355 C 
ATOM      3  O   UNL     1      10.378 -22.635 -48.973  1.00  0.00    -0.244 OA
BRANCH   2   4
ATOM      4  C   UNL     1      12.316 -21.526 -49.776  1.00  0.00     0.128 A 
ATOM      5  C   UNL     1      13.418 -20.041 -51.101  1.00  0.00     0.100 A 
ATOM      6  C   UNL     1      12.720 -21.269 -51.082  1.00  0.00     0.057 A 
ATOM      7  C   UNL     1      13.463 -19.576 -49.806  1.00  0.00     0.107 A 
ATOM      8  N   UNL     1      12.813 -20.485 -49.007  1.00  0.00    -0.344 N 
ATOM      9  C   UNL     1      12.726 -20.349 -47.566  1.00  0.00     0.150 C 
BRANCH   5  10
ATOM     10  S   UNL     1      14.081 -19.263 -52.492  1.00  0.00     0.241 S 
ATOM     11  O   UNL     1      14.634 -18.031 -51.979  1.00  0.00    -0.207 OA
ATOM     12  O   UNL     1      13.029 -19.290 -53.482  1.00  0.00    -0.207 OA
BRANCH  10  13
ATOM     13  N   UNL     1      15.370 -20.192 -53.059  1.00  0.00    -0.214 NA
ATOM     14  C   UNL     1      16.323 -19.507 -53.937  1.00  0.00     0.120 C 
ATOM     15  H   UNL     1      15.804 -20.678 -52.273  1.00  0.00     0.141 HD
ENDBRANCH  10  13
ENDBRANCH   5  10
ENDBRANCH   2   4
ENDBRANCH   1   2
BRANCH   1  16
ATOM     16  C   UNL     1      12.386 -24.468 -48.068  1.00  0.00     0.263 C 
ATOM     17  C   UNL     1      12.345 -25.962 -48.362  1.00  0.00     0.064 C 
BRANCH  16  18
ATOM     18  C   UNL     1      13.671 -24.149 -47.288  1.00  0.00     0.268 C 
ATOM     19  O   UNL     1      14.384 -23.191 -47.572  1.00  0.00    -0.270 OA
ATOM     20  N   UNL     1      13.951 -25.026 -46.263  1.00  0.00    -0.275 N 
ATOM     21  C   UNL     1      13.881 -24.556 -44.969  1.00  0.00     0.325 C 
ATOM     22  O   UNL     1      13.371 -23.486 -44.669  1.00  0.00    -0.248 OA
ATOM     23  N   UNL     1      14.375 -25.503 -44.090  1.00  0.00    -0.308 N 
ATOM     24  H   UNL     1      13.465 -25.908 -46.328  1.00  0.00     0.174 HD
ATOM     25  H   UNL     1      14.974 -26.202 -44.512  1.00  0.00     0.171 HD
BRANCH  23  26
ATOM     26  C   UNL     1      14.359 -25.459 -42.682  1.00  0.00     0.043 A 
ATOM     27  C   UNL     1      13.189 -25.893 -42.042  1.00  0.00     0.033 A 
ATOM     28  C   UNL     1      15.423 -24.990 -41.905  1.00  0.00     0.033 A 
ATOM     29  C   UNL     1      13.085 -25.872 -40.646  1.00  0.00     0.088 A 
ATOM     30  C   UNL     1      15.332 -24.964 -40.508  1.00  0.00     0.088 A 
ATOM     31  C   UNL     1      14.161 -25.407 -39.882  1.00  0.00     0.269 A 
BRANCH  31  32
ATOM     32  N   UNL     1      14.059 -25.378 -38.418  1.00  0.00     0.062 N 
ATOM     33  O   UNL     1      14.090 -26.462 -37.818  1.00  0.00    -0.258 OA
ATOM     34  O   UNL     1      13.942 -24.274 -37.870  1.00  0.00    -0.258 OA
ENDBRANCH  31  32
ENDBRANCH  23  26
ENDBRANCH  16  18
ENDBRANCH   1  16
TORSDOF 8
ENDMDL
MODEL 7
REMARK VINA RESULT:    -7.078      2.880      8.608
REMARK INTER + INTRA:         -11.911
REMARK INTER:                 -11.050
REMARK INTRA:                  -0.861
REMARK UNBOUND:                -1.523
REMARK SMILES CNS(=O)(=O)c1cc(C(=O)O[C@@H](C)C(=O)NC(=O)Nc2ccc([N+](=O)[O-])cc2)n(C)c1
REMARK SMILES IDX 11 1 9 2 10 3 8 4 6 5 7 6 31 7 29 8 30 9 3 10 4 11 5 12 2 13
REMARK SMILES IDX 1 14 12 16 13 17 14 18 15 19 16 20 17 21 18 22 19 23 20 26
REMARK SMILES IDX 21 27 28 28 22 29 27 30 23 31 24 32 25 33 26 34
REMARK H PARENT 2 15 16 24 19 25
ROOT
ATOM      1  O   UNL     1      16.617 -23.617 -44.910  1.00  0.00    -0.448 OA
ENDROOT
BRANCH   1   2
ATOM      2  C   UNL     1      17.239 -23.217 -43.767  1.00  0.00     0.355 C 
ATOM      3  O   UNL     1      17.876 -22.178 -43.664  1.00  0.00    -0.244 OA
BRANCH   2   4
ATOM      4  C   UNL     1      16.951 -24.131 -42.682  1.00  0.00     0.128 A 
ATOM      5  C   UNL     1      15.940 -25.087 -40.882  1.00  0.00     0.100 A 
ATOM      6  C   UNL     1      15.929 -23.974 -41.751  1.00  0.00     0.057 A 
ATOM      7  C   UNL     1      16.987 -25.896 -41.267  1.00  0.00     0.107 A 
ATOM      8  N   UNL     1      17.605 -25.305 -42.342  1.00  0.00    -0.344 N 
ATOM      9  C   UNL     1      18.794 -25.851 -42.967  1.00  0.00     0.150 C 
BRANCH   5  10
ATOM     10  S   UNL     1      14.841 -25.384 -39.585  1.00  0.00     0.241 S 
ATOM     11  O   UNL     1      15.540 -26.318 -38.733  1.00  0.00    -0.207 OA
ATOM     12  O   UNL     1      13.581 -25.701 -40.217  1.00  0.00    -0.207 OA
BRANCH  10  13
ATOM     13  N   UNL     1      14.652 -23.954 -38.708  1.00  0.00    -0.214 NA
ATOM     14  C   UNL     1      13.470 -23.878 -37.845  1.00  0.00     0.120 C 
ATOM     15  H   UNL     1      15.529 -23.734 -38.235  1.00  0.00     0.141 HD
ENDBRANCH  10  13
ENDBRANCH   5  10
ENDBRANCH   2   4
ENDBRANCH   1   2
BRANCH   1  16
ATOM     16  C   UNL     1      15.559 -22.759 -45.367  1.00  0.00     0.263 C 
ATOM     17  C   UNL     1      15.757 -22.576 -46.866  1.00  0.00     0.064 C 
BRANCH  16  18
ATOM     18  C   UNL     1      14.158 -23.339 -45.117  1.00  0.00     0.268 C 
ATOM     19  O   UNL     1      13.612 -23.273 -44.019  1.00  0.00    -0.270 OA
ATOM     20  N   UNL     1      13.582 -23.938 -46.216  1.00  0.00    -0.275 N 
ATOM     21  C   UNL     1      12.472 -23.340 -46.773  1.00  0.00     0.325 C 
ATOM     22  O   UNL     1      12.108 -22.205 -46.496  1.00  0.00    -0.248 OA
ATOM     23  N   UNL     1      11.916 -24.167 -47.733  1.00  0.00    -0.308 N 
ATOM     24  H   UNL     1      14.235 -24.181 -46.945  1.00  0.00     0.174 HD
ATOM     25  H   UNL     1      12.178 -25.141 -47.657  1.00  0.00     0.171 HD
BRANCH  23  26
ATOM     26  C   UNL     1      10.856 -23.869 -48.613  1.00  0.00     0.043 A 
ATOM     27  C   UNL     1      11.191 -23.278 -49.840  1.00  0.00     0.033 A 
ATOM     28  C   UNL     1       9.510 -24.109 -48.320  1.00  0.00     0.033 A 
ATOM     29  C   UNL     1      10.199 -22.940 -50.767  1.00  0.00     0.088 A 
ATOM     30  C   UNL     1       8.508 -23.776 -49.239  1.00  0.00     0.088 A 
ATOM     31  C   UNL     1       8.856 -23.193 -50.463  1.00  0.00     0.269 A 
BRANCH  31  32
ATOM     32  N   UNL     1       7.809 -22.839 -51.429  1.00  0.00     0.062 N 
ATOM     33  O   UNL     1       7.024 -21.931 -51.120  1.00  0.00    -0.258 OA
ATOM     34  O   UNL     1       7.769 -23.471 -52.494  1.00  0.00    -0.258 OA
ENDBRANCH  31  32
ENDBRANCH  23  26
ENDBRANCH  16  18
ENDBRANCH   1  16
TORSDOF 8
ENDMDL
MODEL 8
REMARK VINA RESULT:    -7.060      3.024      4.543
REMARK INTER + INTRA:         -11.885
REMARK INTER:                 -11.287
REMARK INTRA:                  -0.598
REMARK UNBOUND:                -1.523
REMARK SMILES CNS(=O)(=O)c1cc(C(=O)O[C@@H](C)C(=O)NC(=O)Nc2ccc([N+](=O)[O-])cc2)n(C)c1
REMARK SMILES IDX 11 1 9 2 10 3 8 4 6 5 7 6 31 7 29 8 30 9 3 10 4 11 5 12 2 13
REMARK SMILES IDX 1 14 12 16 13 17 14 18 15 19 16 20 17 21 18 22 19 23 20 26
REMARK SMILES IDX 21 27 28 28 22 29 27 30 23 31 24 32 25 33 26 34
REMARK H PARENT 2 15 16 24 19 25
ROOT
ATOM      1  O   UNL     1      12.162 -23.080 -49.373  1.00  0.00    -0.448 OA
ENDROOT
BRANCH   1   2
ATOM      2  C   UNL     1      11.120 -22.374 -49.892  1.00  0.00     0.355 C 
ATOM      3  O   UNL     1      11.160 -21.178 -50.139  1.00  0.00    -0.244 OA
BRANCH   2   4
ATOM      4  C   UNL     1      10.013 -23.255 -50.204  1.00  0.00     0.128 A 
ATOM      5  C   UNL     1       8.015 -24.335 -50.069  1.00  0.00     0.100 A 
ATOM      6  C   UNL     1       8.884 -23.437 -49.411  1.00  0.00     0.057 A 
ATOM      7  C   UNL     1       8.632 -24.717 -51.240  1.00  0.00     0.107 A 
ATOM      8  N   UNL     1       9.845 -24.077 -51.308  1.00  0.00    -0.344 N 
ATOM      9  C   UNL     1      10.797 -24.299 -52.379  1.00  0.00     0.150 C 
BRANCH   5  10
ATOM     10  S   UNL     1       6.463 -24.848 -49.515  1.00  0.00     0.241 S 
ATOM     11  O   UNL     1       6.030 -23.785 -48.637  1.00  0.00    -0.207 OA
ATOM     12  O   UNL     1       6.651 -26.206 -49.057  1.00  0.00    -0.207 OA
BRANCH  10  13
ATOM     13  N   UNL     1       5.408 -24.870 -50.831  1.00  0.00    -0.214 NA
ATOM     14  C   UNL     1       4.904 -23.567 -51.276  1.00  0.00     0.120 C 
ATOM     15  H   UNL     1       5.814 -25.437 -51.577  1.00  0.00     0.141 HD
ENDBRANCH  10  13
ENDBRANCH   5  10
ENDBRANCH   2   4
ENDBRANCH   1   2
BRANCH   1  16
ATOM     16  C   UNL     1      11.978 -23.547 -48.027  1.00  0.00     0.263 C 
ATOM     17  C   UNL     1      12.636 -24.918 -47.944  1.00  0.00     0.064 C 
BRANCH  16  18
ATOM     18  C   UNL     1      12.613 -22.626 -46.973  1.00  0.00     0.268 C 
ATOM     19  O   UNL     1      12.385 -21.419 -46.941  1.00  0.00    -0.270 OA
ATOM     20  N   UNL     1      13.453 -23.263 -46.087  1.00  0.00    -0.275 N 
ATOM     21  C   UNL     1      13.063 -23.344 -44.767  1.00  0.00     0.325 C 
ATOM     22  O   UNL     1      11.930 -23.088 -44.383  1.00  0.00    -0.248 OA
ATOM     23  N   UNL     1      14.099 -23.836 -43.993  1.00  0.00    -0.308 N 
ATOM     24  H   UNL     1      13.775 -24.167 -46.398  1.00  0.00     0.174 HD
ATOM     25  H   UNL     1      15.017 -23.754 -44.411  1.00  0.00     0.171 HD
BRANCH  23  26
ATOM     26  C   UNL     1      14.060 -24.184 -42.628  1.00  0.00     0.043 A 
ATOM     27  C   UNL     1      15.196 -23.891 -41.860  1.00  0.00     0.033 A 
ATOM     28  C   UNL     1      12.973 -24.817 -42.017  1.00  0.00     0.033 A 
ATOM     29  C   UNL     1      15.245 -24.213 -40.499  1.00  0.00     0.088 A 
ATOM     30  C   UNL     1      13.009 -25.145 -40.656  1.00  0.00     0.088 A 
ATOM     31  C   UNL     1      14.146 -24.840 -39.900  1.00  0.00     0.269 A 
BRANCH  31  32
ATOM     32  N   UNL     1      14.190 -25.184 -38.474  1.00  0.00     0.062 N 
ATOM     33  O   UNL     1      14.649 -26.293 -38.164  1.00  0.00    -0.258 OA
ATOM     34  O   UNL     1      13.762 -24.350 -37.665  1.00  0.00    -0.258 OA
ENDBRANCH  31  32
ENDBRANCH  23  26
ENDBRANCH  16  18
ENDBRANCH   1  16
TORSDOF 8
ENDMDL
MODEL 9
REMARK VINA RESULT:    -6.837      3.909      5.422
REMARK INTER + INTRA:         -11.557
REMARK INTER:                 -10.539
REMARK INTRA:                  -1.018
REMARK UNBOUND:                -1.523
REMARK SMILES CNS(=O)(=O)c1cc(C(=O)O[C@@H](C)C(=O)NC(=O)Nc2ccc([N+](=O)[O-])cc2)n(C)c1
REMARK SMILES IDX 11 1 9 2 10 3 8 4 6 5 7 6 31 7 29 8 30 9 3 10 4 11 5 12 2 13
REMARK SMILES IDX 1 14 12 16 13 17 14 18 15 19 16 20 17 21 18 22 19 23 20 26
REMARK SMILES IDX 21 27 28 28 22 29 27 30 23 31 24 32 25 33 26 34
REMARK H PARENT 2 15 16 24 19 25
ROOT
ATOM      1  O   UNL     1       8.766 -22.684 -51.039  1.00  0.00    -0.448 OA
ENDROOT
BRANCH   1   2
ATOM      2  C   UNL     1       7.814 -23.350 -51.749  1.00  0.00     0.355 C 
ATOM      3  O   UNL     1       7.961 -23.729 -52.902  1.00  0.00    -0.244 OA
BRANCH   2   4
ATOM      4  C   UNL     1       6.663 -23.634 -50.917  1.00  0.00     0.128 A 
ATOM      5  C   UNL     1       4.704 -23.376 -49.789  1.00  0.00     0.100 A 
ATOM      6  C   UNL     1       5.678 -22.714 -50.569  1.00  0.00     0.057 A 
ATOM      7  C   UNL     1       5.117 -24.681 -49.639  1.00  0.00     0.107 A 
ATOM      8  N   UNL     1       6.309 -24.827 -50.307  1.00  0.00    -0.344 N 
ATOM      9  C   UNL     1       7.069 -26.062 -50.304  1.00  0.00     0.150 C 
BRANCH   5  10
ATOM     10  S   UNL     1       3.260 -22.679 -49.150  1.00  0.00     0.241 S 
ATOM     11  O   UNL     1       3.641 -22.214 -47.837  1.00  0.00    -0.207 OA
ATOM     12  O   UNL     1       2.233 -23.675 -49.354  1.00  0.00    -0.207 OA
BRANCH  10  13
ATOM     13  N   UNL     1       2.873 -21.318 -50.070  1.00  0.00    -0.214 NA
ATOM     14  C   UNL     1       2.206 -21.574 -51.350  1.00  0.00     0.120 C 
ATOM     15  H   UNL     1       2.391 -20.640 -49.478  1.00  0.00     0.141 HD
ENDBRANCH  10  13
ENDBRANCH   5  10
ENDBRANCH   2   4
ENDBRANCH   1   2
BRANCH   1  16
ATOM     16  C   UNL     1       9.741 -23.515 -50.389  1.00  0.00     0.263 C 
ATOM     17  C   UNL     1      11.097 -23.140 -50.970  1.00  0.00     0.064 C 
BRANCH  16  18
ATOM     18  C   UNL     1       9.782 -23.323 -48.865  1.00  0.00     0.268 C 
ATOM     19  O   UNL     1       8.917 -23.787 -48.126  1.00  0.00    -0.270 OA
ATOM     20  N   UNL     1      10.853 -22.586 -48.409  1.00  0.00    -0.275 N 
ATOM     21  C   UNL     1      11.808 -23.230 -47.652  1.00  0.00     0.325 C 
ATOM     22  O   UNL     1      11.879 -24.447 -47.552  1.00  0.00    -0.248 OA
ATOM     23  N   UNL     1      12.697 -22.312 -47.123  1.00  0.00    -0.308 N 
ATOM     24  H   UNL     1      11.306 -22.030 -49.119  1.00  0.00     0.174 HD
ATOM     25  H   UNL     1      12.355 -21.359 -47.093  1.00  0.00     0.171 HD
BRANCH  23  26
ATOM     26  C   UNL     1      13.880 -22.577 -46.405  1.00  0.00     0.043 A 
ATOM     27  C   UNL     1      13.742 -22.956 -45.062  1.00  0.00     0.033 A 
ATOM     28  C   UNL     1      15.163 -22.463 -46.949  1.00  0.00     0.033 A 
ATOM     29  C   UNL     1      14.866 -23.227 -44.274  1.00  0.00     0.088 A 
ATOM     30  C   UNL     1      16.296 -22.732 -46.171  1.00  0.00     0.088 A 
ATOM     31  C   UNL     1      16.143 -23.116 -44.834  1.00  0.00     0.269 A 
BRANCH  31  32
ATOM     32  N   UNL     1      17.328 -23.395 -44.013  1.00  0.00     0.062 N 
ATOM     33  O   UNL     1      17.695 -24.576 -43.917  1.00  0.00    -0.258 OA
ATOM     34  O   UNL     1      17.887 -22.438 -43.462  1.00  0.00    -0.258 OA
ENDBRANCH  31  32
ENDBRANCH  23  26
ENDBRANCH  16  18
ENDBRANCH   1  16
TORSDOF 8
ENDMDL
