REMARK SMILES Cc1nc2nc(N)nn2c(C)c1CCC(=O)NCc1ccccc1F
REMARK SMILES IDX 14 1 13 2 12 3 2 4 3 5 4 6 10 7 5 8 9 9 6 10 8 11 1 12 11 13
REMARK SMILES IDX 7 14 15 17 16 18 17 19 18 21 19 22 20 23 24 24 21 25 23 26
REMARK SMILES IDX 22 27 25 28
REMARK H PARENT 7 15 7 16 17 20
ROOT
ATOM      1  C   UNL     1       3.101  -0.993  -1.023  1.00  0.00     0.105 C 
ENDROOT
BRANCH   1   2
ATOM      2  C   UNL     1       2.362  -2.130  -0.313  1.00  0.00     0.049 C 
BRANCH   2   3
ATOM      3  C   UNL     1       1.127  -1.703   0.450  1.00  0.00    -0.005 C 
ATOM      4  C   UNL     1       1.271  -0.974   1.781  1.00  0.00     0.046 C 
ATOM      5  N   UNL     1       0.289  -0.537   2.513  1.00  0.00    -0.216 NA
ATOM      6  C   UNL     1      -0.971  -0.785   2.068  1.00  0.00     0.254 A 
ATOM      7  C   UNL     1      -0.155  -1.944   0.073  1.00  0.00     0.048 C 
ATOM      8  N   UNL     1      -2.122  -0.466   2.618  1.00  0.00    -0.174 NA
ATOM      9  N   UNL     1      -1.206  -1.487   0.885  1.00  0.00    -0.199 N 
ATOM     10  C   UNL     1      -3.029  -0.981   1.760  1.00  0.00     0.241 A 
ATOM     11  N   UNL     1      -2.544  -1.637   0.717  1.00  0.00    -0.126 NA
ATOM     12  C   UNL     1       2.657  -0.697   2.330  1.00  0.00     0.067 C 
ATOM     13  C   UNL     1      -0.586  -2.663  -1.178  1.00  0.00     0.067 C 
BRANCH  10  14
ATOM     14  N   UNL     1      -4.322  -0.825   2.040  1.00  0.00    -0.366 N 
ATOM     15  H   UNL     1      -4.533  -0.614   3.007  1.00  0.00     0.159 HD
ATOM     16  H   UNL     1      -4.949  -1.502   1.624  1.00  0.00     0.159 HD
ENDBRANCH  10  14
ENDBRANCH   2   3
ENDBRANCH   1   2
BRANCH   1  17
ATOM     17  C   UNL     1       2.216  -0.289  -2.029  1.00  0.00     0.220 C 
ATOM     18  O   UNL     1       1.607  -0.897  -2.903  1.00  0.00    -0.275 OA
ATOM     19  N   UNL     1       2.167   1.075  -1.867  1.00  0.00    -0.352 N 
ATOM     20  H   UNL     1       2.562   1.490  -1.033  1.00  0.00     0.163 HD
BRANCH  19  21
ATOM     21  C   UNL     1       1.189   1.880  -2.565  1.00  0.00     0.154 C 
BRANCH  21  22
ATOM     22  C   UNL     1      -0.081   1.969  -1.767  1.00  0.00     0.007 A 
ATOM     23  C   UNL     1      -1.206   1.210  -2.113  1.00  0.00     0.008 A 
ATOM     24  C   UNL     1      -0.140   2.770  -0.623  1.00  0.00     0.128 A 
ATOM     25  C   UNL     1      -2.363   1.270  -1.333  1.00  0.00     0.001 A 
ATOM     26  C   UNL     1      -1.287   2.830   0.161  1.00  0.00     0.039 A 
ATOM     27  C   UNL     1      -2.403   2.079  -0.197  1.00  0.00     0.003 A 
ATOM     28  F   UNL     1       0.938   3.477  -0.253  1.00  0.00    -0.207 F 
ENDBRANCH  21  22
ENDBRANCH  19  21
ENDBRANCH   1  17
TORSDOF 6
