REMARK SMILES C=CCn1c(S[C@@H](C)C(=O)Nc2cccc(NC(C)=O)c2)nnc1[C@H]1CCS(=O)(=O)C1
REMARK SMILES IDX 7 1 8 2 6 3 5 4 4 5 24 6 22 7 23 8 3 9 2 10 1 11 25 12 26 13
REMARK SMILES IDX 31 14 27 15 28 16 29 17 30 18 9 19 10 20 11 21 12 23 13 24
REMARK SMILES IDX 21 25 14 26 16 27 15 28 17 29 18 30 20 31 19 33
REMARK H PARENT 11 22 17 32
ROOT
ATOM      1  C   UNL     1       2.835  -0.362  -2.985  1.00  0.00     0.141 C 
ATOM      2  C   UNL     1       3.931   0.696  -3.015  1.00  0.00     0.030 C 
ENDROOT
BRANCH   1   3
ATOM      3  S   UNL     1       1.229   0.277  -3.596  1.00  0.00    -0.073 SA
BRANCH   3   4
ATOM      4  C   UNL     1       0.661   1.139  -2.211  1.00  0.00     0.192 A 
ATOM      5  N   UNL     1      -0.395   0.754  -1.420  1.00  0.00    -0.302 N 
ATOM      6  C   UNL     1      -0.463   1.709  -0.421  1.00  0.00     0.138 A 
ATOM      7  N   UNL     1       1.210   2.227  -1.732  1.00  0.00    -0.123 NA
ATOM      8  N   UNL     1       0.506   2.587  -0.617  1.00  0.00    -0.134 NA
BRANCH   5   9
ATOM      9  C   UNL     1      -1.189  -0.454  -1.580  1.00  0.00     0.153 C 
BRANCH   9  10
ATOM     10  C   UNL     1      -2.260  -0.287  -2.623  1.00  0.00    -0.013 C 
ATOM     11  C   UNL     1      -2.423  -1.110  -3.667  1.00  0.00     0.006 C 
ENDBRANCH   9  10
ENDBRANCH   5   9
BRANCH   6  12
ATOM     12  C   UNL     1      -1.385   1.793   0.752  1.00  0.00     0.074 C 
ATOM     13  C   UNL     1      -2.883   1.677   0.468  1.00  0.00     0.029 C 
ATOM     14  C   UNL     1      -1.059   0.780   1.839  1.00  0.00     0.148 C 
ATOM     15  C   UNL     1      -3.561   1.709   1.836  1.00  0.00     0.138 C 
ATOM     16  S   UNL     1      -2.466   0.808   2.928  1.00  0.00     0.151 S 
ATOM     17  O   UNL     1      -2.157   1.645   4.068  1.00  0.00    -0.229 OA
ATOM     18  O   UNL     1      -2.958  -0.546   3.084  1.00  0.00    -0.229 OA
ENDBRANCH   6  12
ENDBRANCH   3   4
ENDBRANCH   1   3
BRANCH   1  19
ATOM     19  C   UNL     1       2.621  -1.100  -1.655  1.00  0.00     0.237 C 
ATOM     20  O   UNL     1       2.166  -2.244  -1.666  1.00  0.00    -0.273 OA
ATOM     21  N   UNL     1       2.904  -0.377  -0.510  1.00  0.00    -0.325 N 
ATOM     22  H   UNL     1       3.400   0.500  -0.612  1.00  0.00     0.169 HD
BRANCH  21  23
ATOM     23  C   UNL     1       2.538  -0.707   0.813  1.00  0.00     0.043 A 
ATOM     24  C   UNL     1       3.129   0.030   1.845  1.00  0.00     0.026 A 
ATOM     25  C   UNL     1       1.575  -1.670   1.132  1.00  0.00     0.052 A 
ATOM     26  C   UNL     1       2.799  -0.227   3.176  1.00  0.00     0.004 A 
ATOM     27  C   UNL     1       1.185  -1.882   2.460  1.00  0.00     0.043 A 
ATOM     28  C   UNL     1       1.834  -1.186   3.484  1.00  0.00     0.026 A 
BRANCH  27  29
ATOM     29  N   UNL     1       0.130  -2.744   2.828  1.00  0.00    -0.326 N 
ATOM     30  C   UNL     1      -0.883  -3.198   1.999  1.00  0.00     0.221 C 
ATOM     31  O   UNL     1      -1.072  -2.864   0.832  1.00  0.00    -0.275 OA
ATOM     32  H   UNL     1      -0.008  -2.890   3.821  1.00  0.00     0.169 HD
ATOM     33  C   UNL     1      -1.833  -4.135   2.701  1.00  0.00     0.114 C 
ENDBRANCH  27  29
ENDBRANCH  21  23
ENDBRANCH   1  19
TORSDOF 8
