MODEL 1
REMARK VINA RESULT:    -9.121      0.000      0.000
REMARK INTER + INTRA:         -12.574
REMARK INTER:                 -11.787
REMARK INTRA:                  -0.787
REMARK UNBOUND:                -0.787
REMARK SMILES Cc1[nH]nc(O)c1CC(=O)N/N=C/c1c(O)ccc2ccccc12
REMARK SMILES IDX 9 1 10 2 11 3 8 5 7 6 2 7 3 8 4 9 5 10 1 11 6 13 12 15 13 16
REMARK SMILES IDX 14 17 15 18 24 19 17 20 23 21 19 22 18 23 22 24 20 25 21 26
REMARK SMILES IDX 16 27
REMARK H PARENT 11 4 3 12 6 14 16 28
ROOT
ATOM      1  C   UNL     1      13.868 -18.637 -52.203  1.00  0.00     0.244 C 
ATOM      2  O   UNL     1      13.038 -19.364 -52.754  1.00  0.00    -0.273 OA
ATOM      3  N   UNL     1      14.098 -18.574 -50.839  1.00  0.00    -0.247 N 
ATOM      4  H   UNL     1      14.723 -17.880 -50.444  1.00  0.00     0.193 HD
ENDROOT
BRANCH   1   5
ATOM      5  C   UNL     1      14.725 -17.683 -53.014  1.00  0.00     0.145 C 
BRANCH   5   6
ATOM      6  C   UNL     1      16.062 -18.257 -53.338  1.00  0.00     0.046 A 
ATOM      7  C   UNL     1      17.300 -17.645 -53.201  1.00  0.00     0.040 A 
ATOM      8  N   UNL     1      18.229 -18.578 -53.587  1.00  0.00    -0.279 N 
ATOM      9  N   UNL     1      17.693 -19.746 -53.958  1.00  0.00    -0.137 NA
ATOM     10  C   UNL     1      16.390 -19.548 -53.808  1.00  0.00     0.234 A 
ATOM     11  C   UNL     1      17.694 -16.293 -52.739  1.00  0.00     0.066 C 
ATOM     12  H   UNL     1      19.239 -18.489 -53.616  1.00  0.00     0.190 HD
BRANCH  10  13
ATOM     13  O   UNL     1      15.602 -20.580 -54.121  1.00  0.00    -0.492 OA
ATOM     14  H   UNL     1      15.016 -20.349 -54.871  1.00  0.00     0.295 HD
ENDBRANCH  10  13
ENDBRANCH   5   6
ENDBRANCH   1   5
BRANCH   3  15
ATOM     15  N   UNL     1      13.392 -19.382 -50.002  1.00  0.00    -0.181 NA
ATOM     16  C   UNL     1      13.868 -20.574 -49.826  1.00  0.00     0.146 C 
BRANCH  16  17
ATOM     17  C   UNL     1      13.233 -21.604 -48.960  1.00  0.00     0.044 A 
ATOM     18  C   UNL     1      11.857 -21.815 -49.170  1.00  0.00     0.125 A 
ATOM     19  C   UNL     1      13.933 -22.359 -47.967  1.00  0.00    -0.006 A 
ATOM     20  C   UNL     1      11.151 -22.741 -48.412  1.00  0.00     0.047 A 
ATOM     21  C   UNL     1      15.321 -22.272 -47.677  1.00  0.00     0.009 A 
ATOM     22  C   UNL     1      13.187 -23.298 -47.203  1.00  0.00    -0.017 A 
ATOM     23  C   UNL     1      11.816 -23.473 -47.433  1.00  0.00     0.012 A 
ATOM     24  C   UNL     1      15.929 -23.048 -46.686  1.00  0.00     0.001 A 
ATOM     25  C   UNL     1      13.813 -24.071 -46.209  1.00  0.00     0.009 A 
ATOM     26  C   UNL     1      15.175 -23.946 -45.950  1.00  0.00     0.001 A 
BRANCH  18  27
ATOM     27  O   UNL     1      11.183 -21.095 -50.124  1.00  0.00    -0.507 OA
ATOM     28  H   UNL     1      11.384 -21.464 -51.001  1.00  0.00     0.293 HD
ENDBRANCH  18  27
ENDBRANCH  16  17
ENDBRANCH   3  15
TORSDOF 6
ENDMDL
MODEL 2
REMARK VINA RESULT:    -7.698      4.451      7.198
REMARK INTER + INTRA:         -10.736
REMARK INTER:                  -9.992
REMARK INTRA:                  -0.744
REMARK UNBOUND:                -0.787
REMARK SMILES Cc1[nH]nc(O)c1CC(=O)N/N=C/c1c(O)ccc2ccccc12
REMARK SMILES IDX 9 1 10 2 11 3 8 5 7 6 2 7 3 8 4 9 5 10 1 11 6 13 12 15 13 16
REMARK SMILES IDX 14 17 15 18 24 19 17 20 23 21 19 22 18 23 22 24 20 25 21 26
REMARK SMILES IDX 16 27
REMARK H PARENT 11 4 3 12 6 14 16 28
ROOT
ATOM      1  C   UNL     1      13.898 -21.945 -46.869  1.00  0.00     0.244 C 
ATOM      2  O   UNL     1      14.871 -22.379 -47.490  1.00  0.00    -0.273 OA
ATOM      3  N   UNL     1      13.500 -22.362 -45.610  1.00  0.00    -0.247 N 
ATOM      4  H   UNL     1      12.631 -22.037 -45.200  1.00  0.00     0.193 HD
ENDROOT
BRANCH   1   5
ATOM      5  C   UNL     1      12.997 -20.887 -47.478  1.00  0.00     0.145 C 
BRANCH   5   6
ATOM      6  C   UNL     1      12.648 -21.186 -48.897  1.00  0.00     0.046 A 
ATOM      7  C   UNL     1      11.707 -22.093 -49.363  1.00  0.00     0.040 A 
ATOM      8  N   UNL     1      11.721 -21.984 -50.730  1.00  0.00    -0.279 N 
ATOM      9  N   UNL     1      12.592 -21.077 -51.187  1.00  0.00    -0.137 NA
ATOM     10  C   UNL     1      13.148 -20.601 -50.082  1.00  0.00     0.234 A 
ATOM     11  C   UNL     1      10.799 -23.030 -48.661  1.00  0.00     0.066 C 
ATOM     12  H   UNL     1      11.162 -22.490 -51.409  1.00  0.00     0.190 HD
BRANCH  10  13
ATOM     13  O   UNL     1      14.079 -19.660 -50.254  1.00  0.00    -0.492 OA
ATOM     14  H   UNL     1      14.205 -19.471 -51.207  1.00  0.00     0.295 HD
ENDBRANCH  10  13
ENDBRANCH   5   6
ENDBRANCH   1   5
BRANCH   3  15
ATOM     15  N   UNL     1      14.227 -23.309 -44.956  1.00  0.00    -0.181 NA
ATOM     16  C   UNL     1      14.524 -23.044 -43.723  1.00  0.00     0.146 C 
BRANCH  16  17
ATOM     17  C   UNL     1      15.322 -23.947 -42.848  1.00  0.00     0.044 A 
ATOM     18  C   UNL     1      16.571 -24.346 -43.359  1.00  0.00     0.125 A 
ATOM     19  C   UNL     1      14.890 -24.404 -41.563  1.00  0.00    -0.006 A 
ATOM     20  C   UNL     1      17.399 -25.199 -42.639  1.00  0.00     0.047 A 
ATOM     21  C   UNL     1      13.675 -24.053 -40.917  1.00  0.00     0.009 A 
ATOM     22  C   UNL     1      15.754 -25.279 -40.849  1.00  0.00    -0.017 A 
ATOM     23  C   UNL     1      16.987 -25.663 -41.395  1.00  0.00     0.012 A 
ATOM     24  C   UNL     1      13.328 -24.547 -39.655  1.00  0.00     0.001 A 
ATOM     25  C   UNL     1      15.390 -25.768 -39.582  1.00  0.00     0.009 A 
ATOM     26  C   UNL     1      14.184 -25.407 -38.989  1.00  0.00     0.001 A 
BRANCH  18  27
ATOM     27  O   UNL     1      16.989 -23.906 -44.590  1.00  0.00    -0.507 OA
ATOM     28  H   UNL     1      17.196 -24.675 -45.148  1.00  0.00     0.293 HD
ENDBRANCH  18  27
ENDBRANCH  16  17
ENDBRANCH   3  15
TORSDOF 6
ENDMDL
MODEL 3
REMARK VINA RESULT:    -7.691      4.757      7.576
REMARK INTER + INTRA:         -10.727
REMARK INTER:                  -9.983
REMARK INTRA:                  -0.744
REMARK UNBOUND:                -0.787
REMARK SMILES Cc1[nH]nc(O)c1CC(=O)N/N=C/c1c(O)ccc2ccccc12
REMARK SMILES IDX 9 1 10 2 11 3 8 5 7 6 2 7 3 8 4 9 5 10 1 11 6 13 12 15 13 16
REMARK SMILES IDX 14 17 15 18 24 19 17 20 23 21 19 22 18 23 22 24 20 25 21 26
REMARK SMILES IDX 16 27
REMARK H PARENT 11 4 3 12 6 14 16 28
ROOT
ATOM      1  C   UNL     1      13.696 -22.239 -46.650  1.00  0.00     0.244 C 
ATOM      2  O   UNL     1      14.523 -22.854 -47.327  1.00  0.00    -0.273 OA
ATOM      3  N   UNL     1      13.445 -22.451 -45.305  1.00  0.00    -0.247 N 
ATOM      4  H   UNL     1      12.679 -21.982 -44.834  1.00  0.00     0.193 HD
ENDROOT
BRANCH   1   5
ATOM      5  C   UNL     1      12.823 -21.167 -47.275  1.00  0.00     0.145 C 
BRANCH   5   6
ATOM      6  C   UNL     1      12.134 -21.644 -48.508  1.00  0.00     0.046 A 
ATOM      7  C   UNL     1      12.356 -21.231 -49.815  1.00  0.00     0.040 A 
ATOM      8  N   UNL     1      11.513 -21.979 -50.597  1.00  0.00    -0.279 N 
ATOM      9  N   UNL     1      10.766 -22.846 -49.904  1.00  0.00    -0.137 NA
ATOM     10  C   UNL     1      11.142 -22.640 -48.649  1.00  0.00     0.234 A 
ATOM     11  C   UNL     1      13.277 -20.226 -50.395  1.00  0.00     0.066 C 
ATOM     12  H   UNL     1      11.400 -21.955 -51.605  1.00  0.00     0.190 HD
BRANCH  10  13
ATOM     13  O   UNL     1      10.535 -23.390 -47.726  1.00  0.00    -0.492 OA
ATOM     14  H   UNL     1      10.602 -22.971 -46.844  1.00  0.00     0.295 HD
ENDBRANCH  10  13
ENDBRANCH   5   6
ENDBRANCH   1   5
BRANCH   3  15
ATOM     15  N   UNL     1      14.163 -23.388 -44.628  1.00  0.00    -0.181 NA
ATOM     16  C   UNL     1      14.488 -23.085 -43.411  1.00  0.00     0.146 C 
BRANCH  16  17
ATOM     17  C   UNL     1      15.282 -23.971 -42.516  1.00  0.00     0.044 A 
ATOM     18  C   UNL     1      16.506 -24.428 -43.039  1.00  0.00     0.125 A 
ATOM     19  C   UNL     1      14.870 -24.359 -41.203  1.00  0.00    -0.006 A 
ATOM     20  C   UNL     1      17.328 -25.272 -42.302  1.00  0.00     0.047 A 
ATOM     21  C   UNL     1      13.682 -23.945 -40.544  1.00  0.00     0.009 A 
ATOM     22  C   UNL     1      15.727 -25.227 -40.471  1.00  0.00    -0.017 A 
ATOM     23  C   UNL     1      16.934 -25.670 -41.029  1.00  0.00     0.012 A 
ATOM     24  C   UNL     1      13.353 -24.373 -39.253  1.00  0.00     0.001 A 
ATOM     25  C   UNL     1      15.382 -25.649 -39.175  1.00  0.00     0.009 A 
ATOM     26  C   UNL     1      14.202 -25.228 -38.570  1.00  0.00     0.001 A 
BRANCH  18  27
ATOM     27  O   UNL     1      16.905 -24.054 -44.297  1.00  0.00    -0.507 OA
ATOM     28  H   UNL     1      16.708 -23.110 -44.426  1.00  0.00     0.293 HD
ENDBRANCH  18  27
ENDBRANCH  16  17
ENDBRANCH   3  15
TORSDOF 6
ENDMDL
MODEL 4
REMARK VINA RESULT:    -7.425      5.847      9.953
REMARK INTER + INTRA:         -10.382
REMARK INTER:                  -9.769
REMARK INTRA:                  -0.613
REMARK UNBOUND:                -0.787
REMARK SMILES Cc1[nH]nc(O)c1CC(=O)N/N=C/c1c(O)ccc2ccccc12
REMARK SMILES IDX 9 1 10 2 11 3 8 5 7 6 2 7 3 8 4 9 5 10 1 11 6 13 12 15 13 16
REMARK SMILES IDX 14 17 15 18 24 19 17 20 23 21 19 22 18 23 22 24 20 25 21 26
REMARK SMILES IDX 16 27
REMARK H PARENT 11 4 3 12 6 14 16 28
ROOT
ATOM      1  C   UNL     1      13.227 -24.109 -42.843  1.00  0.00     0.244 C 
ATOM      2  O   UNL     1      14.218 -23.429 -43.117  1.00  0.00    -0.273 OA
ATOM      3  N   UNL     1      12.019 -24.076 -43.521  1.00  0.00    -0.247 N 
ATOM      4  H   UNL     1      11.211 -24.586 -43.179  1.00  0.00     0.193 HD
ENDROOT
BRANCH   1   5
ATOM      5  C   UNL     1      13.242 -25.064 -41.664  1.00  0.00     0.145 C 
BRANCH   5   6
ATOM      6  C   UNL     1      14.383 -24.807 -40.740  1.00  0.00     0.046 A 
ATOM      7  C   UNL     1      14.324 -24.355 -39.429  1.00  0.00     0.040 A 
ATOM      8  N   UNL     1      15.621 -24.312 -38.985  1.00  0.00    -0.279 N 
ATOM      9  N   UNL     1      16.515 -24.705 -39.899  1.00  0.00    -0.137 NA
ATOM     10  C   UNL     1      15.766 -25.001 -40.953  1.00  0.00     0.234 A 
ATOM     11  C   UNL     1      13.186 -23.975 -38.560  1.00  0.00     0.066 C 
ATOM     12  H   UNL     1      15.967 -24.034 -38.072  1.00  0.00     0.190 HD
BRANCH  10  13
ATOM     13  O   UNL     1      16.422 -25.425 -42.036  1.00  0.00    -0.492 OA
ATOM     14  H   UNL     1      16.923 -24.690 -42.444  1.00  0.00     0.295 HD
ENDBRANCH  10  13
ENDBRANCH   5   6
ENDBRANCH   1   5
BRANCH   3  15
ATOM     15  N   UNL     1      11.878 -23.258 -44.599  1.00  0.00    -0.181 NA
ATOM     16  C   UNL     1      12.291 -23.734 -45.731  1.00  0.00     0.146 C 
BRANCH  16  17
ATOM     17  C   UNL     1      12.234 -22.988 -47.018  1.00  0.00     0.044 A 
ATOM     18  C   UNL     1      13.203 -21.981 -47.184  1.00  0.00     0.125 A 
ATOM     19  C   UNL     1      11.277 -23.244 -48.050  1.00  0.00    -0.006 A 
ATOM     20  C   UNL     1      13.241 -21.208 -48.338  1.00  0.00     0.047 A 
ATOM     21  C   UNL     1      10.272 -24.247 -48.027  1.00  0.00     0.009 A 
ATOM     22  C   UNL     1      11.335 -22.436 -49.219  1.00  0.00    -0.017 A 
ATOM     23  C   UNL     1      12.308 -21.435 -49.344  1.00  0.00     0.012 A 
ATOM     24  C   UNL     1       9.372 -24.430 -49.082  1.00  0.00     0.001 A 
ATOM     25  C   UNL     1      10.423 -22.632 -50.271  1.00  0.00     0.009 A 
ATOM     26  C   UNL     1       9.446 -23.621 -50.203  1.00  0.00     0.001 A 
BRANCH  18  27
ATOM     27  O   UNL     1      14.125 -21.736 -46.197  1.00  0.00    -0.507 OA
ATOM     28  H   UNL     1      13.701 -21.227 -45.485  1.00  0.00     0.293 HD
ENDBRANCH  18  27
ENDBRANCH  16  17
ENDBRANCH   3  15
TORSDOF 6
ENDMDL
MODEL 5
REMARK VINA RESULT:    -7.399      5.807      9.701
REMARK INTER + INTRA:         -10.349
REMARK INTER:                  -9.829
REMARK INTRA:                  -0.520
REMARK UNBOUND:                -0.787
REMARK SMILES Cc1[nH]nc(O)c1CC(=O)N/N=C/c1c(O)ccc2ccccc12
REMARK SMILES IDX 9 1 10 2 11 3 8 5 7 6 2 7 3 8 4 9 5 10 1 11 6 13 12 15 13 16
REMARK SMILES IDX 14 17 15 18 24 19 17 20 23 21 19 22 18 23 22 24 20 25 21 26
REMARK SMILES IDX 16 27
REMARK H PARENT 11 4 3 12 6 14 16 28
ROOT
ATOM      1  C   UNL     1      13.119 -24.290 -42.815  1.00  0.00     0.244 C 
ATOM      2  O   UNL     1      14.090 -23.624 -43.181  1.00  0.00    -0.273 OA
ATOM      3  N   UNL     1      11.893 -24.339 -43.457  1.00  0.00    -0.247 N 
ATOM      4  H   UNL     1      11.104 -24.826 -43.046  1.00  0.00     0.193 HD
ENDROOT
BRANCH   1   5
ATOM      5  C   UNL     1      13.183 -25.130 -41.553  1.00  0.00     0.145 C 
BRANCH   5   6
ATOM      6  C   UNL     1      14.339 -24.763 -40.686  1.00  0.00     0.046 A 
ATOM      7  C   UNL     1      14.300 -24.270 -39.389  1.00  0.00     0.040 A 
ATOM      8  N   UNL     1      15.608 -24.123 -39.000  1.00  0.00    -0.279 N 
ATOM      9  N   UNL     1      16.490 -24.486 -39.938  1.00  0.00    -0.137 NA
ATOM     10  C   UNL     1      15.723 -24.868 -40.950  1.00  0.00     0.234 A 
ATOM     11  C   UNL     1      13.173 -23.939 -38.486  1.00  0.00     0.066 C 
ATOM     12  H   UNL     1      15.968 -23.790 -38.113  1.00  0.00     0.190 HD
BRANCH  10  13
ATOM     13  O   UNL     1      16.364 -25.284 -42.045  1.00  0.00    -0.492 OA
ATOM     14  H   UNL     1      17.257 -25.614 -41.816  1.00  0.00     0.295 HD
ENDBRANCH  10  13
ENDBRANCH   5   6
ENDBRANCH   1   5
BRANCH   3  15
ATOM     15  N   UNL     1      11.707 -23.628 -44.603  1.00  0.00    -0.181 NA
ATOM     16  C   UNL     1      11.914 -24.270 -45.709  1.00  0.00     0.146 C 
BRANCH  16  17
ATOM     17  C   UNL     1      11.776 -23.664 -47.061  1.00  0.00     0.044 A 
ATOM     18  C   UNL     1      10.542 -23.877 -47.704  1.00  0.00     0.125 A 
ATOM     19  C   UNL     1      12.802 -22.903 -47.707  1.00  0.00    -0.006 A 
ATOM     20  C   UNL     1      10.300 -23.372 -48.975  1.00  0.00     0.047 A 
ATOM     21  C   UNL     1      14.074 -22.585 -47.162  1.00  0.00     0.009 A 
ATOM     22  C   UNL     1      12.531 -22.401 -49.009  1.00  0.00    -0.017 A 
ATOM     23  C   UNL     1      11.293 -22.643 -49.622  1.00  0.00     0.012 A 
ATOM     24  C   UNL     1      15.023 -21.834 -47.862  1.00  0.00     0.001 A 
ATOM     25  C   UNL     1      13.495 -21.648 -49.702  1.00  0.00     0.009 A 
ATOM     26  C   UNL     1      14.735 -21.367 -49.134  1.00  0.00     0.001 A 
BRANCH  18  27
ATOM     27  O   UNL     1       9.555 -24.603 -47.085  1.00  0.00    -0.507 OA
ATOM     28  H   UNL     1       8.981 -25.000 -47.763  1.00  0.00     0.293 HD
ENDBRANCH  18  27
ENDBRANCH  16  17
ENDBRANCH   3  15
TORSDOF 6
ENDMDL
MODEL 6
REMARK VINA RESULT:    -7.320      5.545      6.968
REMARK INTER + INTRA:         -10.247
REMARK INTER:                  -9.462
REMARK INTRA:                  -0.785
REMARK UNBOUND:                -0.787
REMARK SMILES Cc1[nH]nc(O)c1CC(=O)N/N=C/c1c(O)ccc2ccccc12
REMARK SMILES IDX 9 1 10 2 11 3 8 5 7 6 2 7 3 8 4 9 5 10 1 11 6 13 12 15 13 16
REMARK SMILES IDX 14 17 15 18 24 19 17 20 23 21 19 22 18 23 22 24 20 25 21 26
REMARK SMILES IDX 16 27
REMARK H PARENT 11 4 3 12 6 14 16 28
ROOT
ATOM      1  C   UNL     1      10.909 -23.052 -48.741  1.00  0.00     0.244 C 
ATOM      2  O   UNL     1       9.987 -23.418 -48.008  1.00  0.00    -0.273 OA
ATOM      3  N   UNL     1      12.257 -23.130 -48.433  1.00  0.00    -0.247 N 
ATOM      4  H   UNL     1      12.958 -22.716 -49.039  1.00  0.00     0.193 HD
ENDROOT
BRANCH   1   5
ATOM      5  C   UNL     1      10.623 -22.429 -50.095  1.00  0.00     0.145 C 
BRANCH   5   6
ATOM      6  C   UNL     1       9.636 -23.218 -50.886  1.00  0.00     0.046 A 
ATOM      7  C   UNL     1       9.825 -24.458 -51.480  1.00  0.00     0.040 A 
ATOM      8  N   UNL     1       8.625 -24.788 -52.057  1.00  0.00    -0.279 N 
ATOM      9  N   UNL     1       7.673 -23.864 -51.882  1.00  0.00    -0.137 NA
ATOM     10  C   UNL     1       8.286 -22.922 -51.178  1.00  0.00     0.234 A 
ATOM     11  C   UNL     1      11.000 -25.357 -51.547  1.00  0.00     0.066 C 
ATOM     12  H   UNL     1       8.384 -25.625 -52.578  1.00  0.00     0.190 HD
BRANCH  10  13
ATOM     13  O   UNL     1       7.547 -21.856 -50.862  1.00  0.00    -0.492 OA
ATOM     14  H   UNL     1       6.599 -22.096 -50.813  1.00  0.00     0.295 HD
ENDBRANCH  10  13
ENDBRANCH   5   6
ENDBRANCH   1   5
BRANCH   3  15
ATOM     15  N   UNL     1      12.644 -23.670 -47.246  1.00  0.00    -0.181 NA
ATOM     16  C   UNL     1      13.020 -22.829 -46.335  1.00  0.00     0.146 C 
BRANCH  16  17
ATOM     17  C   UNL     1      13.489 -23.225 -44.979  1.00  0.00     0.044 A 
ATOM     18  C   UNL     1      12.524 -23.828 -44.151  1.00  0.00     0.125 A 
ATOM     19  C   UNL     1      14.824 -23.029 -44.505  1.00  0.00    -0.006 A 
ATOM     20  C   UNL     1      12.840 -24.228 -42.858  1.00  0.00     0.047 A 
ATOM     21  C   UNL     1      15.899 -22.468 -45.244  1.00  0.00     0.009 A 
ATOM     22  C   UNL     1      15.121 -23.444 -43.177  1.00  0.00    -0.017 A 
ATOM     23  C   UNL     1      14.130 -24.031 -42.377  1.00  0.00     0.012 A 
ATOM     24  C   UNL     1      17.179 -22.311 -44.703  1.00  0.00     0.001 A 
ATOM     25  C   UNL     1      16.412 -23.279 -42.647  1.00  0.00     0.009 A 
ATOM     26  C   UNL     1      17.435 -22.714 -43.403  1.00  0.00     0.001 A 
BRANCH  18  27
ATOM     27  O   UNL     1      11.243 -24.020 -44.604  1.00  0.00    -0.507 OA
ATOM     28  H   UNL     1      11.091 -23.450 -45.378  1.00  0.00     0.293 HD
ENDBRANCH  18  27
ENDBRANCH  16  17
ENDBRANCH   3  15
TORSDOF 6
ENDMDL
MODEL 7
REMARK VINA RESULT:    -7.287      5.228      8.975
REMARK INTER + INTRA:         -10.205
REMARK INTER:                  -9.481
REMARK INTRA:                  -0.723
REMARK UNBOUND:                -0.787
REMARK SMILES Cc1[nH]nc(O)c1CC(=O)N/N=C/c1c(O)ccc2ccccc12
REMARK SMILES IDX 9 1 10 2 11 3 8 5 7 6 2 7 3 8 4 9 5 10 1 11 6 13 12 15 13 16
REMARK SMILES IDX 14 17 15 18 24 19 17 20 23 21 19 22 18 23 22 24 20 25 21 26
REMARK SMILES IDX 16 27
REMARK H PARENT 11 4 3 12 6 14 16 28
ROOT
ATOM      1  C   UNL     1       7.591 -24.041 -49.278  1.00  0.00     0.244 C 
ATOM      2  O   UNL     1       7.593 -23.107 -50.083  1.00  0.00    -0.273 OA
ATOM      3  N   UNL     1       8.534 -24.245 -48.285  1.00  0.00    -0.247 N 
ATOM      4  H   UNL     1       8.530 -25.090 -47.723  1.00  0.00     0.193 HD
ENDROOT
BRANCH   1   5
ATOM      5  C   UNL     1       6.516 -25.111 -49.332  1.00  0.00     0.145 C 
BRANCH   5   6
ATOM      6  C   UNL     1       5.207 -24.577 -49.804  1.00  0.00     0.046 A 
ATOM      7  C   UNL     1       4.564 -24.851 -51.003  1.00  0.00     0.040 A 
ATOM      8  N   UNL     1       3.379 -24.161 -50.964  1.00  0.00    -0.279 N 
ATOM      9  N   UNL     1       3.200 -23.465 -49.835  1.00  0.00    -0.137 NA
ATOM     10  C   UNL     1       4.302 -23.717 -49.142  1.00  0.00     0.234 A 
ATOM     11  C   UNL     1       4.941 -25.696 -52.161  1.00  0.00     0.066 C 
ATOM     12  H   UNL     1       2.647 -24.125 -51.665  1.00  0.00     0.190 HD
BRANCH  10  13
ATOM     13  O   UNL     1       4.387 -23.129 -47.946  1.00  0.00    -0.492 OA
ATOM     14  H   UNL     1       3.633 -22.520 -47.808  1.00  0.00     0.295 HD
ENDBRANCH  10  13
ENDBRANCH   5   6
ENDBRANCH   1   5
BRANCH   3  15
ATOM     15  N   UNL     1       9.551 -23.354 -48.132  1.00  0.00    -0.181 NA
ATOM     16  C   UNL     1      10.634 -23.609 -48.795  1.00  0.00     0.146 C 
BRANCH  16  17
ATOM     17  C   UNL     1      11.857 -22.762 -48.749  1.00  0.00     0.044 A 
ATOM     18  C   UNL     1      11.809 -21.578 -49.510  1.00  0.00     0.125 A 
ATOM     19  C   UNL     1      13.028 -23.085 -47.994  1.00  0.00    -0.006 A 
ATOM     20  C   UNL     1      12.896 -20.713 -49.556  1.00  0.00     0.047 A 
ATOM     21  C   UNL     1      13.196 -24.223 -47.161  1.00  0.00     0.009 A 
ATOM     22  C   UNL     1      14.127 -22.186 -48.061  1.00  0.00    -0.017 A 
ATOM     23  C   UNL     1      14.047 -21.022 -48.838  1.00  0.00     0.012 A 
ATOM     24  C   UNL     1      14.378 -24.467 -46.454  1.00  0.00     0.001 A 
ATOM     25  C   UNL     1      15.310 -22.445 -47.345  1.00  0.00     0.009 A 
ATOM     26  C   UNL     1      15.436 -23.578 -46.549  1.00  0.00     0.001 A 
BRANCH  18  27
ATOM     27  O   UNL     1      10.687 -21.263 -50.232  1.00  0.00    -0.507 OA
ATOM     28  H   UNL     1       9.960 -21.850 -49.961  1.00  0.00     0.293 HD
ENDBRANCH  18  27
ENDBRANCH  16  17
ENDBRANCH   3  15
TORSDOF 6
ENDMDL
MODEL 8
REMARK VINA RESULT:    -7.129      4.703      7.274
REMARK INTER + INTRA:         -10.000
REMARK INTER:                  -9.123
REMARK INTRA:                  -0.877
REMARK UNBOUND:                -0.787
REMARK SMILES Cc1[nH]nc(O)c1CC(=O)N/N=C/c1c(O)ccc2ccccc12
REMARK SMILES IDX 9 1 10 2 11 3 8 5 7 6 2 7 3 8 4 9 5 10 1 11 6 13 12 15 13 16
REMARK SMILES IDX 14 17 15 18 24 19 17 20 23 21 19 22 18 23 22 24 20 25 21 26
REMARK SMILES IDX 16 27
REMARK H PARENT 11 4 3 12 6 14 16 28
ROOT
ATOM      1  C   UNL     1      11.966 -24.319 -47.363  1.00  0.00     0.244 C 
ATOM      2  O   UNL     1      12.402 -25.459 -47.540  1.00  0.00    -0.273 OA
ATOM      3  N   UNL     1      12.420 -23.427 -46.406  1.00  0.00    -0.247 N 
ATOM      4  H   UNL     1      11.948 -22.543 -46.246  1.00  0.00     0.193 HD
ENDROOT
BRANCH   1   5
ATOM      5  C   UNL     1      10.820 -23.786 -48.203  1.00  0.00     0.145 C 
BRANCH   5   6
ATOM      6  C   UNL     1      11.286 -22.874 -49.286  1.00  0.00     0.046 A 
ATOM      7  C   UNL     1      11.260 -23.103 -50.655  1.00  0.00     0.040 A 
ATOM      8  N   UNL     1      11.756 -21.966 -51.239  1.00  0.00    -0.279 N 
ATOM      9  N   UNL     1      12.097 -21.016 -50.360  1.00  0.00    -0.137 NA
ATOM     10  C   UNL     1      11.814 -21.567 -49.188  1.00  0.00     0.234 A 
ATOM     11  C   UNL     1      10.811 -24.264 -51.458  1.00  0.00     0.066 C 
ATOM     12  H   UNL     1      11.882 -21.767 -52.226  1.00  0.00     0.190 HD
BRANCH  10  13
ATOM     13  O   UNL     1      12.069 -20.817 -48.113  1.00  0.00    -0.492 OA
ATOM     14  H   UNL     1      11.438 -21.024 -47.393  1.00  0.00     0.295 HD
ENDBRANCH  10  13
ENDBRANCH   5   6
ENDBRANCH   1   5
BRANCH   3  15
ATOM     15  N   UNL     1      13.446 -23.786 -45.587  1.00  0.00    -0.181 NA
ATOM     16  C   UNL     1      13.606 -23.061 -44.526  1.00  0.00     0.146 C 
BRANCH  16  17
ATOM     17  C   UNL     1      14.679 -23.287 -43.518  1.00  0.00     0.044 A 
ATOM     18  C   UNL     1      15.973 -22.890 -43.904  1.00  0.00     0.125 A 
ATOM     19  C   UNL     1      14.457 -23.864 -42.228  1.00  0.00    -0.006 A 
ATOM     20  C   UNL     1      17.058 -23.063 -43.054  1.00  0.00     0.047 A 
ATOM     21  C   UNL     1      13.204 -24.274 -41.701  1.00  0.00     0.009 A 
ATOM     22  C   UNL     1      15.585 -24.034 -41.378  1.00  0.00    -0.017 A 
ATOM     23  C   UNL     1      16.860 -23.636 -41.801  1.00  0.00     0.012 A 
ATOM     24  C   UNL     1      13.074 -24.832 -40.425  1.00  0.00     0.001 A 
ATOM     25  C   UNL     1      15.438 -24.597 -40.098  1.00  0.00     0.009 A 
ATOM     26  C   UNL     1      14.192 -24.996 -39.625  1.00  0.00     0.001 A 
BRANCH  18  27
ATOM     27  O   UNL     1      16.188 -22.333 -45.140  1.00  0.00    -0.507 OA
ATOM     28  H   UNL     1      17.139 -22.359 -45.339  1.00  0.00     0.293 HD
ENDBRANCH  18  27
ENDBRANCH  16  17
ENDBRANCH   3  15
TORSDOF 6
ENDMDL
MODEL 9
REMARK VINA RESULT:    -6.769      5.311      9.372
REMARK INTER + INTRA:          -9.535
REMARK INTER:                  -8.651
REMARK INTRA:                  -0.884
REMARK UNBOUND:                -0.787
REMARK SMILES Cc1[nH]nc(O)c1CC(=O)N/N=C/c1c(O)ccc2ccccc12
REMARK SMILES IDX 9 1 10 2 11 3 8 5 7 6 2 7 3 8 4 9 5 10 1 11 6 13 12 15 13 16
REMARK SMILES IDX 14 17 15 18 24 19 17 20 23 21 19 22 18 23 22 24 20 25 21 26
REMARK SMILES IDX 16 27
REMARK H PARENT 11 4 3 12 6 14 16 28
ROOT
ATOM      1  C   UNL     1      15.340 -23.591 -43.706  1.00  0.00     0.244 C 
ATOM      2  O   UNL     1      16.019 -24.383 -44.363  1.00  0.00    -0.273 OA
ATOM      3  N   UNL     1      14.409 -22.709 -44.228  1.00  0.00    -0.247 N 
ATOM      4  H   UNL     1      13.960 -22.012 -43.643  1.00  0.00     0.193 HD
ENDROOT
BRANCH   1   5
ATOM      5  C   UNL     1      15.500 -23.493 -42.200  1.00  0.00     0.145 C 
BRANCH   5   6
ATOM      6  C   UNL     1      14.687 -24.510 -41.475  1.00  0.00     0.046 A 
ATOM      7  C   UNL     1      15.091 -25.329 -40.430  1.00  0.00     0.040 A 
ATOM      8  N   UNL     1      13.988 -26.062 -40.074  1.00  0.00    -0.279 N 
ATOM      9  N   UNL     1      12.900 -25.780 -40.799  1.00  0.00    -0.137 NA
ATOM     10  C   UNL     1      13.325 -24.848 -41.641  1.00  0.00     0.234 A 
ATOM     11  C   UNL     1      16.391 -25.482 -39.735  1.00  0.00     0.066 C 
ATOM     12  H   UNL     1      13.904 -26.762 -39.345  1.00  0.00     0.190 HD
BRANCH  10  13
ATOM     13  O   UNL     1      12.418 -24.382 -42.503  1.00  0.00    -0.492 OA
ATOM     14  H   UNL     1      11.760 -23.824 -42.041  1.00  0.00     0.295 HD
ENDBRANCH  10  13
ENDBRANCH   5   6
ENDBRANCH   1   5
BRANCH   3  15
ATOM     15  N   UNL     1      14.172 -22.698 -45.568  1.00  0.00    -0.181 NA
ATOM     16  C   UNL     1      12.927 -22.716 -45.925  1.00  0.00     0.146 C 
BRANCH  16  17
ATOM     17  C   UNL     1      12.468 -22.721 -47.341  1.00  0.00     0.044 A 
ATOM     18  C   UNL     1      12.322 -21.456 -47.941  1.00  0.00     0.125 A 
ATOM     19  C   UNL     1      12.183 -23.909 -48.086  1.00  0.00    -0.006 A 
ATOM     20  C   UNL     1      11.886 -21.333 -49.254  1.00  0.00     0.047 A 
ATOM     21  C   UNL     1      12.320 -25.242 -47.617  1.00  0.00     0.009 A 
ATOM     22  C   UNL     1      11.734 -23.755 -49.427  1.00  0.00    -0.017 A 
ATOM     23  C   UNL     1      11.591 -22.479 -49.987  1.00  0.00     0.012 A 
ATOM     24  C   UNL     1      12.018 -26.352 -48.413  1.00  0.00     0.001 A 
ATOM     25  C   UNL     1      11.434 -24.881 -50.215  1.00  0.00     0.009 A 
ATOM     26  C   UNL     1      11.572 -26.171 -49.711  1.00  0.00     0.001 A 
BRANCH  18  27
ATOM     27  O   UNL     1      12.598 -20.316 -47.230  1.00  0.00    -0.507 OA
ATOM     28  H   UNL     1      12.841 -20.560 -46.320  1.00  0.00     0.293 HD
ENDBRANCH  18  27
ENDBRANCH  16  17
ENDBRANCH   3  15
TORSDOF 6
ENDMDL
