MODEL 1
REMARK VINA RESULT:    -7.183      0.000      0.000
REMARK INTER + INTRA:          -8.475
REMARK INTER:                  -8.232
REMARK INTRA:                  -0.243
REMARK UNBOUND:                -0.243
REMARK SMILES Oc1ccc2cc(-c3ccc(O)c(O)c3)sc2c1
REMARK SMILES IDX 2 1 3 2 4 3 5 4 6 5 7 6 16 7 17 8 18 9 1 10 8 12 9 13 15 14
REMARK SMILES IDX 10 15 13 16 11 17 14 18 12 20
REMARK H PARENT 1 11 14 19 12 21
ROOT
ATOM      1  C   UNL     1      14.540 -22.064 -48.024  1.00  0.00     0.117 A 
ATOM      2  C   UNL     1      13.174 -22.273 -47.922  1.00  0.00     0.047 A 
ATOM      3  C   UNL     1      12.631 -22.723 -46.714  1.00  0.00     0.013 A 
ATOM      4  C   UNL     1      13.467 -22.966 -45.596  1.00  0.00    -0.007 A 
ATOM      5  C   UNL     1      13.148 -23.423 -44.275  1.00  0.00     0.029 A 
ATOM      6  C   UNL     1      14.249 -23.530 -43.450  1.00  0.00     0.036 A 
ATOM      7  S   UNL     1      15.680 -23.093 -44.276  1.00  0.00    -0.135 S 
ATOM      8  C   UNL     1      14.839 -22.744 -45.735  1.00  0.00     0.039 A 
ATOM      9  C   UNL     1      15.393 -22.293 -46.948  1.00  0.00     0.065 A 
ENDROOT
BRANCH   1  10
ATOM     10  O   UNL     1      15.102 -21.626 -49.188  1.00  0.00    -0.508 OA
ATOM     11  H   UNL     1      15.044 -20.658 -49.220  1.00  0.00     0.293 HD
ENDBRANCH   1  10
BRANCH   6  12
ATOM     12  C   UNL     1      14.305 -23.977 -42.053  1.00  0.00    -0.004 A 
ATOM     13  C   UNL     1      13.182 -24.549 -41.427  1.00  0.00     0.013 A 
ATOM     14  C   UNL     1      15.503 -23.854 -41.329  1.00  0.00     0.059 A 
ATOM     15  C   UNL     1      13.247 -24.987 -40.102  1.00  0.00     0.051 A 
ATOM     16  C   UNL     1      15.558 -24.290 -40.008  1.00  0.00     0.158 A 
ATOM     17  C   UNL     1      14.437 -24.853 -39.404  1.00  0.00     0.157 A 
BRANCH  16  18
ATOM     18  O   UNL     1      16.696 -24.185 -39.259  1.00  0.00    -0.504 OA
ATOM     19  H   UNL     1      16.445 -24.194 -38.319  1.00  0.00     0.293 HD
ENDBRANCH  16  18
BRANCH  17  20
ATOM     20  O   UNL     1      14.502 -25.280 -38.109  1.00  0.00    -0.504 OA
ATOM     21  H   UNL     1      15.456 -25.421 -37.945  1.00  0.00     0.293 HD
ENDBRANCH  17  20
ENDBRANCH   6  12
TORSDOF 4
ENDMDL
MODEL 2
REMARK VINA RESULT:    -7.179      1.316      7.350
REMARK INTER + INTRA:          -8.472
REMARK INTER:                  -8.246
REMARK INTRA:                  -0.226
REMARK UNBOUND:                -0.243
REMARK SMILES Oc1ccc2cc(-c3ccc(O)c(O)c3)sc2c1
REMARK SMILES IDX 2 1 3 2 4 3 5 4 6 5 7 6 16 7 17 8 18 9 1 10 8 12 9 13 15 14
REMARK SMILES IDX 10 15 13 16 11 17 14 18 12 20
REMARK H PARENT 1 11 14 19 12 21
ROOT
ATOM      1  C   UNL     1      15.627 -24.199 -40.617  1.00  0.00     0.117 A 
ATOM      2  C   UNL     1      14.309 -24.625 -40.637  1.00  0.00     0.047 A 
ATOM      3  C   UNL     1      13.533 -24.424 -41.784  1.00  0.00     0.013 A 
ATOM      4  C   UNL     1      14.087 -23.789 -42.923  1.00  0.00    -0.007 A 
ATOM      5  C   UNL     1      13.499 -23.476 -44.193  1.00  0.00     0.029 A 
ATOM      6  C   UNL     1      14.371 -22.854 -45.064  1.00  0.00     0.036 A 
ATOM      7  S   UNL     1      15.904 -22.629 -44.341  1.00  0.00    -0.135 S 
ATOM      8  C   UNL     1      15.419 -23.373 -42.868  1.00  0.00     0.039 A 
ATOM      9  C   UNL     1      16.205 -23.571 -41.717  1.00  0.00     0.065 A 
ENDROOT
BRANCH   1  10
ATOM     10  O   UNL     1      16.411 -24.379 -39.514  1.00  0.00    -0.508 OA
ATOM     11  H   UNL     1      15.863 -24.724 -38.792  1.00  0.00     0.293 HD
ENDBRANCH   1  10
BRANCH   6  12
ATOM     12  C   UNL     1      14.117 -22.378 -46.428  1.00  0.00    -0.004 A 
ATOM     13  C   UNL     1      15.157 -22.284 -47.372  1.00  0.00     0.013 A 
ATOM     14  C   UNL     1      12.811 -22.029 -46.813  1.00  0.00     0.059 A 
ATOM     15  C   UNL     1      14.903 -21.845 -48.673  1.00  0.00     0.051 A 
ATOM     16  C   UNL     1      12.569 -21.589 -48.111  1.00  0.00     0.158 A 
ATOM     17  C   UNL     1      13.609 -21.501 -49.031  1.00  0.00     0.157 A 
BRANCH  16  18
ATOM     18  O   UNL     1      11.318 -21.230 -48.532  1.00  0.00    -0.504 OA
ATOM     19  H   UNL     1      10.993 -20.521 -47.950  1.00  0.00     0.293 HD
ENDBRANCH  16  18
BRANCH  17  20
ATOM     20  O   UNL     1      13.361 -21.072 -50.303  1.00  0.00    -0.504 OA
ATOM     21  H   UNL     1      12.869 -20.235 -50.188  1.00  0.00     0.293 HD
ENDBRANCH  17  20
ENDBRANCH   6  12
TORSDOF 4
ENDMDL
MODEL 3
REMARK VINA RESULT:    -7.054      2.998      3.843
REMARK INTER + INTRA:          -8.328
REMARK INTER:                  -8.108
REMARK INTRA:                  -0.220
REMARK UNBOUND:                -0.243
REMARK SMILES Oc1ccc2cc(-c3ccc(O)c(O)c3)sc2c1
REMARK SMILES IDX 2 1 3 2 4 3 5 4 6 5 7 6 16 7 17 8 18 9 1 10 8 12 9 13 15 14
REMARK SMILES IDX 10 15 13 16 11 17 14 18 12 20
REMARK H PARENT 1 11 14 19 12 21
ROOT
ATOM      1  C   UNL     1      11.968 -21.432 -49.470  1.00  0.00     0.117 A 
ATOM      2  C   UNL     1      13.148 -20.966 -50.025  1.00  0.00     0.047 A 
ATOM      3  C   UNL     1      14.362 -21.209 -49.373  1.00  0.00     0.013 A 
ATOM      4  C   UNL     1      14.392 -21.927 -48.153  1.00  0.00    -0.007 A 
ATOM      5  C   UNL     1      15.495 -22.293 -47.313  1.00  0.00     0.029 A 
ATOM      6  C   UNL     1      15.120 -23.009 -46.194  1.00  0.00     0.036 A 
ATOM      7  S   UNL     1      13.425 -23.228 -46.145  1.00  0.00    -0.135 S 
ATOM      8  C   UNL     1      13.182 -22.382 -47.623  1.00  0.00     0.039 A 
ATOM      9  C   UNL     1      11.957 -22.141 -48.272  1.00  0.00     0.065 A 
ENDROOT
BRANCH   1  10
ATOM     10  O   UNL     1      10.766 -21.212 -50.079  1.00  0.00    -0.508 OA
ATOM     11  H   UNL     1      10.190 -20.722 -49.471  1.00  0.00     0.293 HD
ENDBRANCH   1  10
BRANCH   6  12
ATOM     12  C   UNL     1      15.968 -23.530 -45.115  1.00  0.00    -0.004 A 
ATOM     13  C   UNL     1      16.731 -24.699 -45.291  1.00  0.00     0.013 A 
ATOM     14  C   UNL     1      16.039 -22.844 -43.891  1.00  0.00     0.059 A 
ATOM     15  C   UNL     1      17.548 -25.180 -44.264  1.00  0.00     0.051 A 
ATOM     16  C   UNL     1      16.852 -23.333 -42.873  1.00  0.00     0.158 A 
ATOM     17  C   UNL     1      17.601 -24.491 -43.063  1.00  0.00     0.157 A 
BRANCH  16  18
ATOM     18  O   UNL     1      16.950 -22.706 -41.662  1.00  0.00    -0.504 OA
ATOM     19  H   UNL     1      17.304 -23.343 -41.017  1.00  0.00     0.293 HD
ENDBRANCH  16  18
BRANCH  17  20
ATOM     20  O   UNL     1      18.398 -24.960 -42.059  1.00  0.00    -0.504 OA
ATOM     21  H   UNL     1      18.898 -25.695 -42.466  1.00  0.00     0.293 HD
ENDBRANCH  17  20
ENDBRANCH   6  12
TORSDOF 4
ENDMDL
MODEL 4
REMARK VINA RESULT:    -6.940      1.535      7.517
REMARK INTER + INTRA:          -8.197
REMARK INTER:                  -7.959
REMARK INTRA:                  -0.239
REMARK UNBOUND:                -0.243
REMARK SMILES Oc1ccc2cc(-c3ccc(O)c(O)c3)sc2c1
REMARK SMILES IDX 2 1 3 2 4 3 5 4 6 5 7 6 16 7 17 8 18 9 1 10 8 12 9 13 15 14
REMARK SMILES IDX 10 15 13 16 11 17 14 18 12 20
REMARK H PARENT 1 11 14 19 12 21
ROOT
ATOM      1  C   UNL     1      13.946 -24.997 -40.628  1.00  0.00     0.117 A 
ATOM      2  C   UNL     1      15.241 -24.509 -40.656  1.00  0.00     0.047 A 
ATOM      3  C   UNL     1      15.702 -23.831 -41.790  1.00  0.00     0.013 A 
ATOM      4  C   UNL     1      14.852 -23.641 -42.907  1.00  0.00    -0.007 A 
ATOM      5  C   UNL     1      15.093 -22.990 -44.162  1.00  0.00     0.029 A 
ATOM      6  C   UNL     1      14.001 -23.001 -45.006  1.00  0.00     0.036 A 
ATOM      7  S   UNL     1      12.680 -23.816 -44.290  1.00  0.00    -0.135 S 
ATOM      8  C   UNL     1      13.552 -24.146 -42.844  1.00  0.00     0.039 A 
ATOM      9  C   UNL     1      13.082 -24.830 -41.707  1.00  0.00     0.065 A 
ENDROOT
BRANCH   1  10
ATOM     10  O   UNL     1      13.465 -25.663 -39.537  1.00  0.00    -0.508 OA
ATOM     11  H   UNL     1      13.494 -26.617 -39.714  1.00  0.00     0.293 HD
ENDBRANCH   1  10
BRANCH   6  12
ATOM     12  C   UNL     1      13.888 -22.451 -46.362  1.00  0.00    -0.004 A 
ATOM     13  C   UNL     1      15.017 -22.321 -47.191  1.00  0.00     0.013 A 
ATOM     14  C   UNL     1      12.630 -22.065 -46.855  1.00  0.00     0.059 A 
ATOM     15  C   UNL     1      14.899 -21.811 -48.486  1.00  0.00     0.051 A 
ATOM     16  C   UNL     1      12.522 -21.555 -48.145  1.00  0.00     0.158 A 
ATOM     17  C   UNL     1      13.650 -21.432 -48.952  1.00  0.00     0.157 A 
BRANCH  16  18
ATOM     18  O   UNL     1      11.323 -21.157 -48.668  1.00  0.00    -0.504 OA
ATOM     19  H   UNL     1      11.107 -21.741 -49.416  1.00  0.00     0.293 HD
ENDBRANCH  16  18
BRANCH  17  20
ATOM     20  O   UNL     1      13.533 -20.934 -50.217  1.00  0.00    -0.504 OA
ATOM     21  H   UNL     1      12.952 -20.153 -50.120  1.00  0.00     0.293 HD
ENDBRANCH  17  20
ENDBRANCH   6  12
TORSDOF 4
ENDMDL
MODEL 5
REMARK VINA RESULT:    -6.829      3.053      7.473
REMARK INTER + INTRA:          -8.071
REMARK INTER:                  -7.827
REMARK INTRA:                  -0.243
REMARK UNBOUND:                -0.243
REMARK SMILES Oc1ccc2cc(-c3ccc(O)c(O)c3)sc2c1
REMARK SMILES IDX 2 1 3 2 4 3 5 4 6 5 7 6 16 7 17 8 18 9 1 10 8 12 9 13 15 14
REMARK SMILES IDX 10 15 13 16 11 17 14 18 12 20
REMARK H PARENT 1 11 14 19 12 21
ROOT
ATOM      1  C   UNL     1      17.815 -24.252 -43.107  1.00  0.00     0.117 A 
ATOM      2  C   UNL     1      18.624 -23.320 -43.735  1.00  0.00     0.047 A 
ATOM      3  C   UNL     1      18.124 -22.584 -44.815  1.00  0.00     0.013 A 
ATOM      4  C   UNL     1      16.798 -22.786 -45.269  1.00  0.00    -0.007 A 
ATOM      5  C   UNL     1      16.073 -22.164 -46.339  1.00  0.00     0.029 A 
ATOM      6  C   UNL     1      14.780 -22.628 -46.470  1.00  0.00     0.036 A 
ATOM      7  S   UNL     1      14.439 -23.834 -45.307  1.00  0.00    -0.135 S 
ATOM      8  C   UNL     1      16.010 -23.735 -44.612  1.00  0.00     0.039 A 
ATOM      9  C   UNL     1      16.507 -24.479 -43.525  1.00  0.00     0.065 A 
ENDROOT
BRANCH   1  10
ATOM     10  O   UNL     1      18.272 -24.986 -42.050  1.00  0.00    -0.508 OA
ATOM     11  H   UNL     1      18.150 -25.929 -42.247  1.00  0.00     0.293 HD
ENDBRANCH   1  10
BRANCH   6  12
ATOM     12  C   UNL     1      13.764 -22.237 -47.453  1.00  0.00    -0.004 A 
ATOM     13  C   UNL     1      14.074 -21.364 -48.512  1.00  0.00     0.013 A 
ATOM     14  C   UNL     1      12.461 -22.755 -47.354  1.00  0.00     0.059 A 
ATOM     15  C   UNL     1      13.105 -21.008 -49.453  1.00  0.00     0.051 A 
ATOM     16  C   UNL     1      11.502 -22.393 -48.295  1.00  0.00     0.158 A 
ATOM     17  C   UNL     1      11.826 -21.527 -49.336  1.00  0.00     0.157 A 
BRANCH  16  18
ATOM     18  O   UNL     1      10.219 -22.864 -48.238  1.00  0.00    -0.504 OA
ATOM     19  H   UNL     1       9.788 -22.677 -49.090  1.00  0.00     0.293 HD
ENDBRANCH  16  18
BRANCH  17  20
ATOM     20  O   UNL     1      10.878 -21.181 -50.255  1.00  0.00    -0.504 OA
ATOM     21  H   UNL     1      10.929 -20.206 -50.305  1.00  0.00     0.293 HD
ENDBRANCH  17  20
ENDBRANCH   6  12
TORSDOF 4
ENDMDL
MODEL 6
REMARK VINA RESULT:    -6.572      1.446      7.380
REMARK INTER + INTRA:          -7.776
REMARK INTER:                  -7.533
REMARK INTRA:                  -0.243
REMARK UNBOUND:                -0.243
REMARK SMILES Oc1ccc2cc(-c3ccc(O)c(O)c3)sc2c1
REMARK SMILES IDX 2 1 3 2 4 3 5 4 6 5 7 6 16 7 17 8 18 9 1 10 8 12 9 13 15 14
REMARK SMILES IDX 10 15 13 16 11 17 14 18 12 20
REMARK H PARENT 1 11 14 19 12 21
ROOT
ATOM      1  C   UNL     1      14.314 -25.064 -39.170  1.00  0.00     0.117 A 
ATOM      2  C   UNL     1      15.609 -24.593 -39.307  1.00  0.00     0.047 A 
ATOM      3  C   UNL     1      16.016 -24.027 -40.520  1.00  0.00     0.013 A 
ATOM      4  C   UNL     1      15.113 -23.933 -41.607  1.00  0.00    -0.007 A 
ATOM      5  C   UNL     1      15.295 -23.403 -42.928  1.00  0.00     0.029 A 
ATOM      6  C   UNL     1      14.162 -23.482 -43.712  1.00  0.00     0.036 A 
ATOM      7  S   UNL     1      12.874 -24.215 -42.860  1.00  0.00    -0.135 S 
ATOM      8  C   UNL     1      13.815 -24.418 -41.433  1.00  0.00     0.039 A 
ATOM      9  C   UNL     1      13.399 -24.989 -40.216  1.00  0.00     0.065 A 
ENDROOT
BRANCH   1  10
ATOM     10  O   UNL     1      13.885 -25.622 -38.000  1.00  0.00    -0.508 OA
ATOM     11  H   UNL     1      14.503 -26.325 -37.743  1.00  0.00     0.293 HD
ENDBRANCH   1  10
BRANCH   6  12
ATOM     12  C   UNL     1      13.984 -23.059 -45.106  1.00  0.00    -0.004 A 
ATOM     13  C   UNL     1      15.082 -22.662 -45.891  1.00  0.00     0.013 A 
ATOM     14  C   UNL     1      12.701 -23.067 -45.679  1.00  0.00     0.059 A 
ATOM     15  C   UNL     1      14.907 -22.276 -47.222  1.00  0.00     0.051 A 
ATOM     16  C   UNL     1      12.536 -22.677 -47.005  1.00  0.00     0.158 A 
ATOM     17  C   UNL     1      13.633 -22.287 -47.767  1.00  0.00     0.157 A 
BRANCH  16  18
ATOM     18  O   UNL     1      11.307 -22.660 -47.606  1.00  0.00    -0.504 OA
ATOM     19  H   UNL     1      10.671 -23.095 -47.012  1.00  0.00     0.293 HD
ENDBRANCH  16  18
BRANCH  17  20
ATOM     20  O   UNL     1      13.460 -21.909 -49.068  1.00  0.00    -0.504 OA
ATOM     21  H   UNL     1      14.286 -22.181 -49.514  1.00  0.00     0.293 HD
ENDBRANCH  17  20
ENDBRANCH   6  12
TORSDOF 4
ENDMDL
MODEL 7
REMARK VINA RESULT:    -6.565      4.020      9.467
REMARK INTER + INTRA:          -7.768
REMARK INTER:                  -7.547
REMARK INTRA:                  -0.221
REMARK UNBOUND:                -0.243
REMARK SMILES Oc1ccc2cc(-c3ccc(O)c(O)c3)sc2c1
REMARK SMILES IDX 2 1 3 2 4 3 5 4 6 5 7 6 16 7 17 8 18 9 1 10 8 12 9 13 15 14
REMARK SMILES IDX 10 15 13 16 11 17 14 18 12 20
REMARK H PARENT 1 11 14 19 12 21
ROOT
ATOM      1  C   UNL     1      12.628 -23.669 -45.182  1.00  0.00     0.117 A 
ATOM      2  C   UNL     1      13.990 -23.468 -45.028  1.00  0.00     0.047 A 
ATOM      3  C   UNL     1      14.694 -22.731 -45.986  1.00  0.00     0.013 A 
ATOM      4  C   UNL     1      14.023 -22.188 -47.110  1.00  0.00    -0.007 A 
ATOM      5  C   UNL     1      14.521 -21.411 -48.208  1.00  0.00     0.029 A 
ATOM      6  C   UNL     1      13.545 -21.055 -49.117  1.00  0.00     0.036 A 
ATOM      7  S   UNL     1      12.021 -21.675 -48.655  1.00  0.00    -0.135 S 
ATOM      8  C   UNL     1      12.650 -22.410 -47.232  1.00  0.00     0.039 A 
ATOM      9  C   UNL     1      11.935 -23.152 -46.273  1.00  0.00     0.065 A 
ENDROOT
BRANCH   1  10
ATOM     10  O   UNL     1      11.912 -24.384 -44.265  1.00  0.00    -0.508 OA
ATOM     11  H   UNL     1      11.499 -25.141 -44.711  1.00  0.00     0.293 HD
ENDBRANCH   1  10
BRANCH   6  12
ATOM     12  C   UNL     1      13.689 -20.284 -50.357  1.00  0.00    -0.004 A 
ATOM     13  C   UNL     1      13.892 -18.892 -50.328  1.00  0.00     0.013 A 
ATOM     14  C   UNL     1      13.645 -20.943 -51.597  1.00  0.00     0.059 A 
ATOM     15  C   UNL     1      14.043 -18.167 -51.513  1.00  0.00     0.051 A 
ATOM     16  C   UNL     1      13.793 -20.212 -52.772  1.00  0.00     0.158 A 
ATOM     17  C   UNL     1      13.992 -18.836 -52.726  1.00  0.00     0.157 A 
BRANCH  16  18
ATOM     18  O   UNL     1      13.749 -20.806 -54.003  1.00  0.00    -0.504 OA
ATOM     19  H   UNL     1      14.646 -21.109 -54.228  1.00  0.00     0.293 HD
ENDBRANCH  16  18
BRANCH  17  20
ATOM     20  O   UNL     1      14.140 -18.129 -53.884  1.00  0.00    -0.504 OA
ATOM     21  H   UNL     1      13.256 -17.746 -54.052  1.00  0.00     0.293 HD
ENDBRANCH  17  20
ENDBRANCH   6  12
TORSDOF 4
ENDMDL
MODEL 8
REMARK VINA RESULT:    -6.506      1.360      1.904
REMARK INTER + INTRA:          -7.700
REMARK INTER:                  -7.459
REMARK INTRA:                  -0.241
REMARK UNBOUND:                -0.243
REMARK SMILES Oc1ccc2cc(-c3ccc(O)c(O)c3)sc2c1
REMARK SMILES IDX 2 1 3 2 4 3 5 4 6 5 7 6 16 7 17 8 18 9 1 10 8 12 9 13 15 14
REMARK SMILES IDX 10 15 13 16 11 17 14 18 12 20
REMARK H PARENT 1 11 14 19 12 21
ROOT
ATOM      1  C   UNL     1      13.702 -21.221 -49.639  1.00  0.00     0.117 A 
ATOM      2  C   UNL     1      12.350 -21.332 -49.362  1.00  0.00     0.047 A 
ATOM      3  C   UNL     1      11.935 -21.819 -48.118  1.00  0.00     0.013 A 
ATOM      4  C   UNL     1      12.888 -22.199 -47.141  1.00  0.00    -0.007 A 
ATOM      5  C   UNL     1      12.710 -22.718 -45.816  1.00  0.00     0.029 A 
ATOM      6  C   UNL     1      13.898 -22.963 -45.157  1.00  0.00     0.036 A 
ATOM      7  S   UNL     1      15.239 -22.582 -46.146  1.00  0.00    -0.135 S 
ATOM      8  C   UNL     1      14.243 -22.073 -47.455  1.00  0.00     0.039 A 
ATOM      9  C   UNL     1      14.668 -21.585 -48.704  1.00  0.00     0.065 A 
ENDROOT
BRANCH   1  10
ATOM     10  O   UNL     1      14.141 -20.750 -50.843  1.00  0.00    -0.508 OA
ATOM     11  H   UNL     1      14.052 -19.783 -50.853  1.00  0.00     0.293 HD
ENDBRANCH   1  10
BRANCH   6  12
ATOM     12  C   UNL     1      14.100 -23.506 -43.809  1.00  0.00    -0.004 A 
ATOM     13  C   UNL     1      13.080 -24.217 -43.150  1.00  0.00     0.013 A 
ATOM     14  C   UNL     1      15.338 -23.334 -43.167  1.00  0.00     0.059 A 
ATOM     15  C   UNL     1      13.285 -24.744 -41.873  1.00  0.00     0.051 A 
ATOM     16  C   UNL     1      15.532 -23.860 -41.893  1.00  0.00     0.158 A 
ATOM     17  C   UNL     1      14.512 -24.560 -41.255  1.00  0.00     0.157 A 
BRANCH  16  18
ATOM     18  O   UNL     1      16.715 -23.713 -41.222  1.00  0.00    -0.504 OA
ATOM     19  H   UNL     1      16.959 -24.574 -40.841  1.00  0.00     0.293 HD
ENDBRANCH  16  18
BRANCH  17  20
ATOM     20  O   UNL     1      14.714 -25.074 -40.007  1.00  0.00    -0.504 OA
ATOM     21  H   UNL     1      15.569 -25.545 -40.071  1.00  0.00     0.293 HD
ENDBRANCH  17  20
ENDBRANCH   6  12
TORSDOF 4
ENDMDL
MODEL 9
REMARK VINA RESULT:    -6.479      2.949      4.305
REMARK INTER + INTRA:          -7.669
REMARK INTER:                  -7.447
REMARK INTRA:                  -0.221
REMARK UNBOUND:                -0.243
REMARK SMILES Oc1ccc2cc(-c3ccc(O)c(O)c3)sc2c1
REMARK SMILES IDX 2 1 3 2 4 3 5 4 6 5 7 6 16 7 17 8 18 9 1 10 8 12 9 13 15 14
REMARK SMILES IDX 10 15 13 16 11 17 14 18 12 20
REMARK H PARENT 1 11 14 19 12 21
ROOT
ATOM      1  C   UNL     1      10.593 -22.930 -50.079  1.00  0.00     0.117 A 
ATOM      2  C   UNL     1      10.956 -24.266 -50.123  1.00  0.00     0.047 A 
ATOM      3  C   UNL     1      11.890 -24.760 -49.206  1.00  0.00     0.013 A 
ATOM      4  C   UNL     1      12.466 -23.904 -48.235  1.00  0.00    -0.007 A 
ATOM      5  C   UNL     1      13.430 -24.174 -47.208  1.00  0.00     0.029 A 
ATOM      6  C   UNL     1      13.743 -23.068 -46.443  1.00  0.00     0.036 A 
ATOM      7  S   UNL     1      12.883 -21.690 -46.976  1.00  0.00    -0.135 S 
ATOM      8  C   UNL     1      12.077 -22.563 -48.221  1.00  0.00     0.039 A 
ATOM      9  C   UNL     1      11.139 -22.058 -49.141  1.00  0.00     0.065 A 
ENDROOT
BRANCH   1  10
ATOM     10  O   UNL     1       9.685 -22.415 -50.959  1.00  0.00    -0.508 OA
ATOM     11  H   UNL     1       9.746 -21.446 -50.943  1.00  0.00     0.293 HD
ENDBRANCH   1  10
BRANCH   6  12
ATOM     12  C   UNL     1      14.690 -22.967 -45.328  1.00  0.00    -0.004 A 
ATOM     13  C   UNL     1      14.389 -23.513 -44.066  1.00  0.00     0.013 A 
ATOM     14  C   UNL     1      15.930 -22.334 -45.520  1.00  0.00     0.059 A 
ATOM     15  C   UNL     1      15.302 -23.425 -43.013  1.00  0.00     0.051 A 
ATOM     16  C   UNL     1      16.832 -22.250 -44.464  1.00  0.00     0.158 A 
ATOM     17  C   UNL     1      16.518 -22.794 -43.222  1.00  0.00     0.157 A 
BRANCH  16  18
ATOM     18  O   UNL     1      18.048 -21.637 -44.599  1.00  0.00    -0.504 OA
ATOM     19  H   UNL     1      18.166 -21.395 -45.534  1.00  0.00     0.293 HD
ENDBRANCH  16  18
BRANCH  17  20
ATOM     20  O   UNL     1      17.411 -22.708 -42.194  1.00  0.00    -0.504 OA
ATOM     21  H   UNL     1      17.837 -21.836 -42.311  1.00  0.00     0.293 HD
ENDBRANCH  17  20
ENDBRANCH   6  12
TORSDOF 4
ENDMDL
