MODEL 1
REMARK VINA RESULT:    -7.796      0.000      0.000
REMARK INTER + INTRA:         -12.319
REMARK INTER:                 -10.986
REMARK INTRA:                  -1.333
REMARK UNBOUND:                -1.333
REMARK SMILES O=C1O[C@H]([C@H](O)CO)C(=N/Nc2cccc(F)c2)/C1=N/Nc1cccc(F)c1
REMARK SMILES IDX 1 1 2 2 3 3 4 4 9 5 10 6 19 7 20 8 5 9 6 10 7 12 8 13 21 15
REMARK SMILES IDX 22 17 23 18 28 19 24 20 26 21 25 22 27 23 11 24 12 26 13 27
REMARK SMILES IDX 18 28 14 29 16 30 15 31 17 32
REMARK H PARENT 6 11 8 14 21 16 11 25
ROOT
ATOM      1  O   UNL     1      11.730 -24.975 -46.443  1.00  0.00    -0.244 OA
ATOM      2  C   UNL     1      11.320 -24.212 -47.293  1.00  0.00     0.361 C 
ATOM      3  O   UNL     1      10.035 -24.026 -47.700  1.00  0.00    -0.448 OA
ATOM      4  C   UNL     1       9.908 -23.096 -48.824  1.00  0.00     0.261 C 
ATOM      5  C   UNL     1      11.235 -22.400 -48.862  1.00  0.00     0.139 C 
ATOM      6  N   UNL     1      11.462 -21.290 -49.492  1.00  0.00    -0.173 NA
ATOM      7  C   UNL     1      12.146 -23.208 -48.039  1.00  0.00     0.195 C 
ATOM      8  N   UNL     1      13.436 -23.039 -48.012  1.00  0.00    -0.166 NA
ENDROOT
BRANCH   4   9
ATOM      9  C   UNL     1       9.647 -23.903 -50.101  1.00  0.00     0.187 C 
BRANCH   9  10
ATOM     10  O   UNL     1      10.855 -23.982 -50.871  1.00  0.00    -0.386 OA
ATOM     11  H   UNL     1      10.646 -23.686 -51.777  1.00  0.00     0.211 HD
ENDBRANCH   9  10
BRANCH   9  12
ATOM     12  C   UNL     1       8.508 -23.332 -50.950  1.00  0.00     0.192 C 
BRANCH  12  13
ATOM     13  O   UNL     1       8.572 -21.915 -50.967  1.00  0.00    -0.394 OA
ATOM     14  H   UNL     1       9.487 -21.667 -50.738  1.00  0.00     0.210 HD
ENDBRANCH  12  13
ENDBRANCH   9  12
ENDBRANCH   4   9
BRANCH   8  15
ATOM     15  N   UNL     1      14.144 -23.884 -47.217  1.00  0.00    -0.278 N 
ATOM     16  H   UNL     1      13.952 -24.893 -47.210  1.00  0.00     0.190 HD
BRANCH  15  17
ATOM     17  C   UNL     1      14.790 -23.386 -46.071  1.00  0.00     0.059 A 
ATOM     18  C   UNL     1      14.231 -23.487 -44.787  1.00  0.00     0.028 A 
ATOM     19  C   UNL     1      16.003 -22.702 -46.209  1.00  0.00     0.066 A 
ATOM     20  C   UNL     1      14.878 -22.953 -43.669  1.00  0.00     0.005 A 
ATOM     21  C   UNL     1      16.644 -22.173 -45.092  1.00  0.00     0.125 A 
ATOM     22  C   UNL     1      16.095 -22.294 -43.823  1.00  0.00     0.039 A 
ATOM     23  F   UNL     1      17.809 -21.529 -45.246  1.00  0.00    -0.207 F 
ENDBRANCH  15  17
ENDBRANCH   8  15
BRANCH   6  24
ATOM     24  N   UNL     1      12.711 -20.770 -49.390  1.00  0.00    -0.278 N 
ATOM     25  H   UNL     1      13.379 -21.175 -48.723  1.00  0.00     0.190 HD
BRANCH  24  26
ATOM     26  C   UNL     1      13.296 -20.181 -50.527  1.00  0.00     0.059 A 
ATOM     27  C   UNL     1      13.733 -18.848 -50.463  1.00  0.00     0.028 A 
ATOM     28  C   UNL     1      13.370 -20.842 -51.759  1.00  0.00     0.066 A 
ATOM     29  C   UNL     1      14.276 -18.209 -51.583  1.00  0.00     0.005 A 
ATOM     30  C   UNL     1      13.911 -20.202 -52.870  1.00  0.00     0.125 A 
ATOM     31  C   UNL     1      14.370 -18.893 -52.791  1.00  0.00     0.039 A 
ATOM     32  F   UNL     1      13.989 -20.858 -54.035  1.00  0.00    -0.207 F 
ENDBRANCH  24  26
ENDBRANCH   6  24
TORSDOF 8
ENDMDL
MODEL 2
REMARK VINA RESULT:    -7.445      2.992      6.537
REMARK INTER + INTRA:         -11.825
REMARK INTER:                 -10.405
REMARK INTRA:                  -1.420
REMARK UNBOUND:                -1.333
REMARK SMILES O=C1O[C@H]([C@H](O)CO)C(=N/Nc2cccc(F)c2)/C1=N/Nc1cccc(F)c1
REMARK SMILES IDX 1 1 2 2 3 3 4 4 9 5 10 6 19 7 20 8 5 9 6 10 7 12 8 13 21 15
REMARK SMILES IDX 22 17 23 18 28 19 24 20 26 21 25 22 27 23 11 24 12 26 13 27
REMARK SMILES IDX 18 28 14 29 16 30 15 31 17 32
REMARK H PARENT 6 11 8 14 21 16 11 25
ROOT
ATOM      1  O   UNL     1      12.793 -19.620 -47.700  1.00  0.00    -0.244 OA
ATOM      2  C   UNL     1      12.519 -20.796 -47.818  1.00  0.00     0.361 C 
ATOM      3  O   UNL     1      12.272 -21.700 -46.831  1.00  0.00    -0.448 OA
ATOM      4  C   UNL     1      12.074 -23.063 -47.326  1.00  0.00     0.261 C 
ATOM      5  C   UNL     1      11.845 -22.880 -48.795  1.00  0.00     0.139 C 
ATOM      6  N   UNL     1      11.324 -23.776 -49.574  1.00  0.00    -0.173 NA
ATOM      7  C   UNL     1      12.291 -21.515 -49.113  1.00  0.00     0.195 C 
ATOM      8  N   UNL     1      12.449 -21.072 -50.326  1.00  0.00    -0.166 NA
ENDROOT
BRANCH   4   9
ATOM      9  C   UNL     1      13.340 -23.878 -47.040  1.00  0.00     0.187 C 
BRANCH   9  10
ATOM     10  O   UNL     1      13.177 -25.209 -47.551  1.00  0.00    -0.386 OA
ATOM     11  H   UNL     1      13.869 -25.765 -47.148  1.00  0.00     0.211 HD
ENDBRANCH   9  10
BRANCH   9  12
ATOM     12  C   UNL     1      13.707 -23.917 -45.554  1.00  0.00     0.192 C 
BRANCH  12  13
ATOM     13  O   UNL     1      14.159 -22.641 -45.128  1.00  0.00    -0.394 OA
ATOM     14  H   UNL     1      14.811 -22.791 -44.419  1.00  0.00     0.210 HD
ENDBRANCH  12  13
ENDBRANCH   9  12
ENDBRANCH   4   9
BRANCH   8  15
ATOM     15  N   UNL     1      12.890 -19.793 -50.453  1.00  0.00    -0.278 N 
ATOM     16  H   UNL     1      12.384 -19.011 -50.019  1.00  0.00     0.190 HD
BRANCH  15  17
ATOM     17  C   UNL     1      13.726 -19.446 -51.530  1.00  0.00     0.059 A 
ATOM     18  C   UNL     1      14.133 -20.377 -52.498  1.00  0.00     0.028 A 
ATOM     19  C   UNL     1      14.233 -18.144 -51.614  1.00  0.00     0.066 A 
ATOM     20  C   UNL     1      14.992 -20.014 -53.540  1.00  0.00     0.005 A 
ATOM     21  C   UNL     1      15.087 -17.787 -52.654  1.00  0.00     0.125 A 
ATOM     22  C   UNL     1      15.469 -18.709 -53.619  1.00  0.00     0.039 A 
ATOM     23  F   UNL     1      15.554 -16.533 -52.721  1.00  0.00    -0.207 F 
ENDBRANCH  15  17
ENDBRANCH   8  15
BRANCH   6  24
ATOM     24  N   UNL     1      11.147 -23.433 -50.875  1.00  0.00    -0.278 N 
ATOM     25  H   UNL     1      11.902 -23.597 -51.552  1.00  0.00     0.190 HD
BRANCH  24  26
ATOM     26  C   UNL     1       9.849 -23.472 -51.417  1.00  0.00     0.059 A 
ATOM     27  C   UNL     1       9.625 -24.169 -52.615  1.00  0.00     0.028 A 
ATOM     28  C   UNL     1       8.783 -22.756 -50.859  1.00  0.00     0.066 A 
ATOM     29  C   UNL     1       8.360 -24.192 -53.213  1.00  0.00     0.005 A 
ATOM     30  C   UNL     1       7.527 -22.784 -51.457  1.00  0.00     0.125 A 
ATOM     31  C   UNL     1       7.305 -23.500 -52.627  1.00  0.00     0.039 A 
ATOM     32  F   UNL     1       6.516 -22.106 -50.898  1.00  0.00    -0.207 F 
ENDBRANCH  24  26
ENDBRANCH   6  24
TORSDOF 8
ENDMDL
MODEL 3
REMARK VINA RESULT:    -7.390      4.608      7.198
REMARK INTER + INTRA:         -11.747
REMARK INTER:                 -10.584
REMARK INTRA:                  -1.163
REMARK UNBOUND:                -1.333
REMARK SMILES O=C1O[C@H]([C@H](O)CO)C(=N/Nc2cccc(F)c2)/C1=N/Nc1cccc(F)c1
REMARK SMILES IDX 1 1 2 2 3 3 4 4 9 5 10 6 19 7 20 8 5 9 6 10 7 12 8 13 21 15
REMARK SMILES IDX 22 17 23 18 28 19 24 20 26 21 25 22 27 23 11 24 12 26 13 27
REMARK SMILES IDX 18 28 14 29 16 30 15 31 17 32
REMARK H PARENT 6 11 8 14 21 16 11 25
ROOT
ATOM      1  O   UNL     1      16.670 -26.437 -43.083  1.00  0.00    -0.244 OA
ATOM      2  C   UNL     1      16.722 -25.403 -43.715  1.00  0.00     0.361 C 
ATOM      3  O   UNL     1      17.780 -24.897 -44.406  1.00  0.00    -0.448 OA
ATOM      4  C   UNL     1      17.526 -23.571 -44.971  1.00  0.00     0.261 C 
ATOM      5  C   UNL     1      16.038 -23.426 -44.888  1.00  0.00     0.139 C 
ATOM      6  N   UNL     1      15.348 -22.549 -45.549  1.00  0.00    -0.173 NA
ATOM      7  C   UNL     1      15.574 -24.471 -43.963  1.00  0.00     0.195 C 
ATOM      8  N   UNL     1      14.369 -24.519 -43.474  1.00  0.00    -0.166 NA
ENDROOT
BRANCH   4   9
ATOM      9  C   UNL     1      18.253 -22.527 -44.116  1.00  0.00     0.187 C 
BRANCH   9  10
ATOM     10  O   UNL     1      17.925 -21.212 -44.587  1.00  0.00    -0.386 OA
ATOM     11  H   UNL     1      17.019 -21.010 -44.289  1.00  0.00     0.211 HD
ENDBRANCH   9  10
BRANCH   9  12
ATOM     12  C   UNL     1      19.772 -22.722 -44.090  1.00  0.00     0.192 C 
BRANCH  12  13
ATOM     13  O   UNL     1      20.423 -21.562 -44.585  1.00  0.00    -0.394 OA
ATOM     14  H   UNL     1      21.323 -21.830 -44.848  1.00  0.00     0.210 HD
ENDBRANCH  12  13
ENDBRANCH   9  12
ENDBRANCH   4   9
BRANCH   8  15
ATOM     15  N   UNL     1      14.103 -25.536 -42.613  1.00  0.00    -0.278 N 
ATOM     16  H   UNL     1      13.639 -26.395 -42.933  1.00  0.00     0.190 HD
BRANCH  15  17
ATOM     17  C   UNL     1      14.005 -25.276 -41.234  1.00  0.00     0.059 A 
ATOM     18  C   UNL     1      13.191 -24.258 -40.715  1.00  0.00     0.028 A 
ATOM     19  C   UNL     1      14.797 -26.007 -40.340  1.00  0.00     0.066 A 
ATOM     20  C   UNL     1      13.138 -23.998 -39.342  1.00  0.00     0.005 A 
ATOM     21  C   UNL     1      14.740 -25.745 -38.974  1.00  0.00     0.125 A 
ATOM     22  C   UNL     1      13.916 -24.750 -38.466  1.00  0.00     0.039 A 
ATOM     23  F   UNL     1      15.499 -26.462 -38.135  1.00  0.00    -0.207 F 
ENDBRANCH  15  17
ENDBRANCH   8  15
BRANCH   6  24
ATOM     24  N   UNL     1      14.001 -22.579 -45.390  1.00  0.00    -0.278 N 
ATOM     25  H   UNL     1      13.587 -22.288 -44.497  1.00  0.00     0.190 HD
BRANCH  24  26
ATOM     26  C   UNL     1      13.180 -22.376 -46.516  1.00  0.00     0.059 A 
ATOM     27  C   UNL     1      12.166 -23.303 -46.804  1.00  0.00     0.028 A 
ATOM     28  C   UNL     1      13.398 -21.332 -47.422  1.00  0.00     0.066 A 
ATOM     29  C   UNL     1      11.360 -23.166 -47.938  1.00  0.00     0.005 A 
ATOM     30  C   UNL     1      12.591 -21.199 -48.549  1.00  0.00     0.125 A 
ATOM     31  C   UNL     1      11.571 -22.103 -48.812  1.00  0.00     0.039 A 
ATOM     32  F   UNL     1      12.805 -20.183 -49.396  1.00  0.00    -0.207 F 
ENDBRANCH  24  26
ENDBRANCH   6  24
TORSDOF 8
ENDMDL
MODEL 4
REMARK VINA RESULT:    -7.377      1.073      6.302
REMARK INTER + INTRA:         -11.729
REMARK INTER:                 -10.534
REMARK INTRA:                  -1.195
REMARK UNBOUND:                -1.333
REMARK SMILES O=C1O[C@H]([C@H](O)CO)C(=N/Nc2cccc(F)c2)/C1=N/Nc1cccc(F)c1
REMARK SMILES IDX 1 1 2 2 3 3 4 4 9 5 10 6 19 7 20 8 5 9 6 10 7 12 8 13 21 15
REMARK SMILES IDX 22 17 23 18 28 19 24 20 26 21 25 22 27 23 11 24 12 26 13 27
REMARK SMILES IDX 18 28 14 29 16 30 15 31 17 32
REMARK H PARENT 6 11 8 14 21 16 11 25
ROOT
ATOM      1  O   UNL     1      10.546 -22.357 -50.998  1.00  0.00    -0.244 OA
ATOM      2  C   UNL     1      11.004 -23.066 -50.126  1.00  0.00     0.361 C 
ATOM      3  O   UNL     1      10.684 -24.360 -49.847  1.00  0.00    -0.448 OA
ATOM      4  C   UNL     1      11.358 -24.882 -48.658  1.00  0.00     0.261 C 
ATOM      5  C   UNL     1      12.454 -23.892 -48.405  1.00  0.00     0.139 C 
ATOM      6  N   UNL     1      13.482 -24.115 -47.646  1.00  0.00    -0.173 NA
ATOM      7  C   UNL     1      12.122 -22.700 -49.198  1.00  0.00     0.195 C 
ATOM      8  N   UNL     1      12.724 -21.554 -49.065  1.00  0.00    -0.166 NA
ENDROOT
BRANCH   4   9
ATOM      9  C   UNL     1      10.351 -24.930 -47.504  1.00  0.00     0.187 C 
BRANCH   9  10
ATOM     10  O   UNL     1      10.584 -26.105 -46.714  1.00  0.00    -0.386 OA
ATOM     11  H   UNL     1      10.904 -25.813 -45.840  1.00  0.00     0.211 HD
ENDBRANCH   9  10
BRANCH   9  12
ATOM     12  C   UNL     1       8.895 -24.883 -47.975  1.00  0.00     0.192 C 
BRANCH  12  13
ATOM     13  O   UNL     1       8.443 -23.539 -48.039  1.00  0.00    -0.394 OA
ATOM     14  H   UNL     1       8.984 -23.088 -48.713  1.00  0.00     0.210 HD
ENDBRANCH  12  13
ENDBRANCH   9  12
ENDBRANCH   4   9
BRANCH   8  15
ATOM     15  N   UNL     1      12.284 -20.541 -49.858  1.00  0.00    -0.278 N 
ATOM     16  H   UNL     1      11.282 -20.400 -50.031  1.00  0.00     0.190 HD
BRANCH  15  17
ATOM     17  C   UNL     1      13.147 -19.981 -50.817  1.00  0.00     0.059 A 
ATOM     18  C   UNL     1      13.718 -18.709 -50.665  1.00  0.00     0.028 A 
ATOM     19  C   UNL     1      13.398 -20.679 -52.005  1.00  0.00     0.066 A 
ATOM     20  C   UNL     1      14.545 -18.161 -51.651  1.00  0.00     0.005 A 
ATOM     21  C   UNL     1      14.222 -20.129 -52.983  1.00  0.00     0.125 A 
ATOM     22  C   UNL     1      14.801 -18.879 -52.816  1.00  0.00     0.039 A 
ATOM     23  F   UNL     1      14.457 -20.818 -54.108  1.00  0.00    -0.207 F 
ENDBRANCH  15  17
ENDBRANCH   8  15
BRANCH   6  24
ATOM     24  N   UNL     1      14.406 -23.125 -47.557  1.00  0.00    -0.278 N 
ATOM     25  H   UNL     1      14.328 -22.299 -48.163  1.00  0.00     0.190 HD
BRANCH  24  26
ATOM     26  C   UNL     1      15.034 -22.892 -46.319  1.00  0.00     0.059 A 
ATOM     27  C   UNL     1      14.324 -23.135 -45.132  1.00  0.00     0.028 A 
ATOM     28  C   UNL     1      16.312 -22.329 -46.222  1.00  0.00     0.066 A 
ATOM     29  C   UNL     1      14.893 -22.871 -43.882  1.00  0.00     0.005 A 
ATOM     30  C   UNL     1      16.874 -22.070 -44.975  1.00  0.00     0.125 A 
ATOM     31  C   UNL     1      16.178 -22.341 -43.804  1.00  0.00     0.039 A 
ATOM     32  F   UNL     1      18.105 -21.548 -44.903  1.00  0.00    -0.207 F 
ENDBRANCH  24  26
ENDBRANCH   6  24
TORSDOF 8
ENDMDL
MODEL 5
REMARK VINA RESULT:    -7.308      1.722      6.009
REMARK INTER + INTRA:         -11.632
REMARK INTER:                 -10.743
REMARK INTRA:                  -0.889
REMARK UNBOUND:                -1.333
REMARK SMILES O=C1O[C@H]([C@H](O)CO)C(=N/Nc2cccc(F)c2)/C1=N/Nc1cccc(F)c1
REMARK SMILES IDX 1 1 2 2 3 3 4 4 9 5 10 6 19 7 20 8 5 9 6 10 7 12 8 13 21 15
REMARK SMILES IDX 22 17 23 18 28 19 24 20 26 21 25 22 27 23 11 24 12 26 13 27
REMARK SMILES IDX 18 28 14 29 16 30 15 31 17 32
REMARK H PARENT 6 11 8 14 21 16 11 25
ROOT
ATOM      1  O   UNL     1      11.220 -23.598 -52.654  1.00  0.00    -0.244 OA
ATOM      2  C   UNL     1      10.819 -23.623 -51.509  1.00  0.00     0.361 C 
ATOM      3  O   UNL     1       9.912 -24.474 -50.958  1.00  0.00    -0.448 OA
ATOM      4  C   UNL     1       9.583 -24.155 -49.568  1.00  0.00     0.261 C 
ATOM      5  C   UNL     1      10.670 -23.213 -49.151  1.00  0.00     0.139 C 
ATOM      6  N   UNL     1      10.953 -22.919 -47.920  1.00  0.00    -0.173 NA
ATOM      7  C   UNL     1      11.318 -22.759 -50.390  1.00  0.00     0.195 C 
ATOM      8  N   UNL     1      12.161 -21.769 -50.443  1.00  0.00    -0.166 NA
ENDROOT
BRANCH   4   9
ATOM      9  C   UNL     1       8.202 -23.490 -49.532  1.00  0.00     0.187 C 
BRANCH   9  10
ATOM     10  O   UNL     1       7.324 -24.257 -48.696  1.00  0.00    -0.386 OA
ATOM     11  H   UNL     1       7.878 -24.841 -48.145  1.00  0.00     0.211 HD
ENDBRANCH   9  10
BRANCH   9  12
ATOM     12  C   UNL     1       7.588 -23.303 -50.922  1.00  0.00     0.192 C 
BRANCH  12  13
ATOM     13  O   UNL     1       7.436 -21.921 -51.208  1.00  0.00    -0.394 OA
ATOM     14  H   UNL     1       6.762 -21.846 -51.909  1.00  0.00     0.210 HD
ENDBRANCH  12  13
ENDBRANCH   9  12
ENDBRANCH   4   9
BRANCH   8  15
ATOM     15  N   UNL     1      12.656 -21.457 -51.669  1.00  0.00    -0.278 N 
ATOM     16  H   UNL     1      12.776 -22.177 -52.392  1.00  0.00     0.190 HD
BRANCH  15  17
ATOM     17  C   UNL     1      13.445 -20.304 -51.831  1.00  0.00     0.059 A 
ATOM     18  C   UNL     1      13.454 -19.259 -50.893  1.00  0.00     0.028 A 
ATOM     19  C   UNL     1      14.200 -20.147 -52.999  1.00  0.00     0.066 A 
ATOM     20  C   UNL     1      14.220 -18.108 -51.096  1.00  0.00     0.005 A 
ATOM     21  C   UNL     1      14.962 -18.999 -53.195  1.00  0.00     0.125 A 
ATOM     22  C   UNL     1      14.982 -17.979 -52.254  1.00  0.00     0.039 A 
ATOM     23  F   UNL     1      15.685 -18.873 -54.316  1.00  0.00    -0.207 F 
ENDBRANCH  15  17
ENDBRANCH   8  15
BRANCH   6  24
ATOM     24  N   UNL     1      11.998 -22.078 -47.713  1.00  0.00    -0.278 N 
ATOM     25  H   UNL     1      11.861 -21.064 -47.804  1.00  0.00     0.190 HD
BRANCH  24  26
ATOM     26  C   UNL     1      13.008 -22.459 -46.810  1.00  0.00     0.059 A 
ATOM     27  C   UNL     1      12.649 -23.022 -45.575  1.00  0.00     0.028 A 
ATOM     28  C   UNL     1      14.364 -22.208 -47.054  1.00  0.00     0.066 A 
ATOM     29  C   UNL     1      13.619 -23.370 -44.629  1.00  0.00     0.005 A 
ATOM     30  C   UNL     1      15.324 -22.558 -46.109  1.00  0.00     0.125 A 
ATOM     31  C   UNL     1      14.965 -23.142 -44.901  1.00  0.00     0.039 A 
ATOM     32  F   UNL     1      16.618 -22.325 -46.368  1.00  0.00    -0.207 F 
ENDBRANCH  24  26
ENDBRANCH   6  24
TORSDOF 8
ENDMDL
MODEL 6
REMARK VINA RESULT:    -7.074     25.100     25.974
REMARK INTER + INTRA:         -11.301
REMARK INTER:                  -9.670
REMARK INTRA:                  -1.632
REMARK UNBOUND:                -1.333
REMARK SMILES O=C1O[C@H]([C@H](O)CO)C(=N/Nc2cccc(F)c2)/C1=N/Nc1cccc(F)c1
REMARK SMILES IDX 1 1 2 2 3 3 4 4 9 5 10 6 19 7 20 8 5 9 6 10 7 12 8 13 21 15
REMARK SMILES IDX 22 17 23 18 28 19 24 20 26 21 25 22 27 23 11 24 12 26 13 27
REMARK SMILES IDX 18 28 14 29 16 30 15 31 17 32
REMARK H PARENT 6 11 8 14 21 16 11 25
ROOT
ATOM      1  O   UNL     1       1.064  -6.871 -29.865  1.00  0.00    -0.244 OA
ATOM      2  C   UNL     1       0.744  -7.036 -31.024  1.00  0.00     0.361 C 
ATOM      3  O   UNL     1      -0.296  -7.767 -31.509  1.00  0.00    -0.448 OA
ATOM      4  C   UNL     1      -0.330  -7.834 -32.971  1.00  0.00     0.261 C 
ATOM      5  C   UNL     1       0.600  -6.740 -33.399  1.00  0.00     0.139 C 
ATOM      6  N   UNL     1       0.638  -6.237 -34.594  1.00  0.00    -0.173 NA
ATOM      7  C   UNL     1       1.382  -6.376 -32.209  1.00  0.00     0.195 C 
ATOM      8  N   UNL     1       2.438  -5.617 -32.244  1.00  0.00    -0.166 NA
ENDROOT
BRANCH   4   9
ATOM      9  C   UNL     1       0.167  -9.215 -33.410  1.00  0.00     0.187 C 
BRANCH   9  10
ATOM     10  O   UNL     1       0.405  -9.209 -34.825  1.00  0.00    -0.386 OA
ATOM     11  H   UNL     1       1.097  -8.546 -35.005  1.00  0.00     0.211 HD
ENDBRANCH   9  10
BRANCH   9  12
ATOM     12  C   UNL     1      -0.792 -10.348 -33.034  1.00  0.00     0.192 C 
BRANCH  12  13
ATOM     13  O   UNL     1      -0.540 -10.782 -31.707  1.00  0.00    -0.394 OA
ATOM     14  H   UNL     1      -1.364 -10.651 -31.202  1.00  0.00     0.210 HD
ENDBRANCH  12  13
ENDBRANCH   9  12
ENDBRANCH   4   9
BRANCH   8  15
ATOM     15  N   UNL     1       3.065  -5.392 -31.059  1.00  0.00    -0.278 N 
ATOM     16  H   UNL     1       2.711  -5.800 -30.185  1.00  0.00     0.190 HD
BRANCH  15  17
ATOM     17  C   UNL     1       3.883  -4.258 -30.906  1.00  0.00     0.059 A 
ATOM     18  C   UNL     1       4.549  -3.966 -29.705  1.00  0.00     0.028 A 
ATOM     19  C   UNL     1       3.991  -3.342 -31.959  1.00  0.00     0.066 A 
ATOM     20  C   UNL     1       5.328  -2.813 -29.569  1.00  0.00     0.005 A 
ATOM     21  C   UNL     1       4.769  -2.196 -31.818  1.00  0.00     0.125 A 
ATOM     22  C   UNL     1       5.441  -1.925 -30.634  1.00  0.00     0.039 A 
ATOM     23  F   UNL     1       4.866  -1.338 -32.841  1.00  0.00    -0.207 F 
ENDBRANCH  15  17
ENDBRANCH   8  15
BRANCH   6  24
ATOM     24  N   UNL     1       1.513  -5.221 -34.805  1.00  0.00    -0.278 N 
ATOM     25  H   UNL     1       2.456  -5.426 -35.156  1.00  0.00     0.190 HD
BRANCH  24  26
ATOM     26  C   UNL     1       1.010  -3.956 -35.165  1.00  0.00     0.059 A 
ATOM     27  C   UNL     1       1.050  -2.909 -34.230  1.00  0.00     0.028 A 
ATOM     28  C   UNL     1       0.377  -3.724 -36.392  1.00  0.00     0.066 A 
ATOM     29  C   UNL     1       0.518  -1.651 -34.530  1.00  0.00     0.005 A 
ATOM     30  C   UNL     1      -0.149  -2.469 -36.685  1.00  0.00     0.125 A 
ATOM     31  C   UNL     1      -0.079  -1.429 -35.767  1.00  0.00     0.039 A 
ATOM     32  F   UNL     1      -0.736  -2.261 -37.872  1.00  0.00    -0.207 F 
ENDBRANCH  24  26
ENDBRANCH   6  24
TORSDOF 8
ENDMDL
MODEL 7
REMARK VINA RESULT:    -6.773      4.658      9.533
REMARK INTER + INTRA:         -10.877
REMARK INTER:                  -9.713
REMARK INTRA:                  -1.164
REMARK UNBOUND:                -1.333
REMARK SMILES O=C1O[C@H]([C@H](O)CO)C(=N/Nc2cccc(F)c2)/C1=N/Nc1cccc(F)c1
REMARK SMILES IDX 1 1 2 2 3 3 4 4 9 5 10 6 19 7 20 8 5 9 6 10 7 12 8 13 21 15
REMARK SMILES IDX 22 17 23 18 28 19 24 20 26 21 25 22 27 23 11 24 12 26 13 27
REMARK SMILES IDX 18 28 14 29 16 30 15 31 17 32
REMARK H PARENT 6 11 8 14 21 16 11 25
ROOT
ATOM      1  O   UNL     1      15.384 -22.907 -47.509  1.00  0.00    -0.244 OA
ATOM      2  C   UNL     1      15.769 -22.816 -46.362  1.00  0.00     0.361 C 
ATOM      3  O   UNL     1      16.662 -21.926 -45.848  1.00  0.00    -0.448 OA
ATOM      4  C   UNL     1      16.977 -22.165 -44.439  1.00  0.00     0.261 C 
ATOM      5  C   UNL     1      15.892 -23.092 -43.983  1.00  0.00     0.139 C 
ATOM      6  N   UNL     1      15.595 -23.319 -42.741  1.00  0.00    -0.173 NA
ATOM      7  C   UNL     1      15.263 -23.620 -45.203  1.00  0.00     0.195 C 
ATOM      8  N   UNL     1      14.429 -24.618 -45.211  1.00  0.00    -0.166 NA
ENDROOT
BRANCH   4   9
ATOM      9  C   UNL     1      18.362 -22.815 -44.349  1.00  0.00     0.187 C 
BRANCH   9  10
ATOM     10  O   UNL     1      18.486 -23.502 -43.095  1.00  0.00    -0.386 OA
ATOM     11  H   UNL     1      18.209 -24.426 -43.238  1.00  0.00     0.211 HD
ENDBRANCH   9  10
BRANCH   9  12
ATOM     12  C   UNL     1      19.508 -21.815 -44.526  1.00  0.00     0.192 C 
BRANCH  12  13
ATOM     13  O   UNL     1      20.743 -22.419 -44.175  1.00  0.00    -0.394 OA
ATOM     14  H   UNL     1      21.034 -22.010 -43.338  1.00  0.00     0.210 HD
ENDBRANCH  12  13
ENDBRANCH   9  12
ENDBRANCH   4   9
BRANCH   8  15
ATOM     15  N   UNL     1      13.953 -25.003 -46.424  1.00  0.00    -0.278 N 
ATOM     16  H   UNL     1      14.549 -24.979 -47.261  1.00  0.00     0.190 HD
BRANCH  15  17
ATOM     17  C   UNL     1      12.568 -24.977 -46.671  1.00  0.00     0.059 A 
ATOM     18  C   UNL     1      11.681 -25.895 -46.086  1.00  0.00     0.028 A 
ATOM     19  C   UNL     1      12.050 -24.052 -47.584  1.00  0.00     0.066 A 
ATOM     20  C   UNL     1      10.314 -25.869 -46.375  1.00  0.00     0.005 A 
ATOM     21  C   UNL     1      10.688 -24.030 -47.868  1.00  0.00     0.125 A 
ATOM     22  C   UNL     1       9.814 -24.927 -47.270  1.00  0.00     0.039 A 
ATOM     23  F   UNL     1      10.212 -23.130 -48.739  1.00  0.00    -0.207 F 
ENDBRANCH  15  17
ENDBRANCH   8  15
BRANCH   6  24
ATOM     24  N   UNL     1      14.555 -24.157 -42.501  1.00  0.00    -0.278 N 
ATOM     25  H   UNL     1      14.206 -24.764 -43.252  1.00  0.00     0.190 HD
BRANCH  24  26
ATOM     26  C   UNL     1      14.379 -24.665 -41.200  1.00  0.00     0.059 A 
ATOM     27  C   UNL     1      14.961 -25.897 -40.859  1.00  0.00     0.028 A 
ATOM     28  C   UNL     1      13.560 -24.037 -40.255  1.00  0.00     0.066 A 
ATOM     29  C   UNL     1      14.771 -26.462 -39.594  1.00  0.00     0.005 A 
ATOM     30  C   UNL     1      13.376 -24.603 -38.997  1.00  0.00     0.125 A 
ATOM     31  C   UNL     1      13.979 -25.807 -38.656  1.00  0.00     0.039 A 
ATOM     32  F   UNL     1      12.602 -23.977 -38.100  1.00  0.00    -0.207 F 
ENDBRANCH  24  26
ENDBRANCH   6  24
TORSDOF 8
ENDMDL
MODEL 8
REMARK VINA RESULT:    -6.653      5.598      9.653
REMARK INTER + INTRA:         -10.708
REMARK INTER:                  -9.098
REMARK INTRA:                  -1.610
REMARK UNBOUND:                -1.333
REMARK SMILES O=C1O[C@H]([C@H](O)CO)C(=N/Nc2cccc(F)c2)/C1=N/Nc1cccc(F)c1
REMARK SMILES IDX 1 1 2 2 3 3 4 4 9 5 10 6 19 7 20 8 5 9 6 10 7 12 8 13 21 15
REMARK SMILES IDX 22 17 23 18 28 19 24 20 26 21 25 22 27 23 11 24 12 26 13 27
REMARK SMILES IDX 18 28 14 29 16 30 15 31 17 32
REMARK H PARENT 6 11 8 14 21 16 11 25
ROOT
ATOM      1  O   UNL     1      16.453 -22.778 -46.755  1.00  0.00    -0.244 OA
ATOM      2  C   UNL     1      16.995 -22.899 -45.675  1.00  0.00     0.361 C 
ATOM      3  O   UNL     1      17.880 -22.051 -45.084  1.00  0.00    -0.448 OA
ATOM      4  C   UNL     1      18.417 -22.557 -43.820  1.00  0.00     0.261 C 
ATOM      5  C   UNL     1      17.489 -23.677 -43.461  1.00  0.00     0.139 C 
ATOM      6  N   UNL     1      17.398 -24.204 -42.280  1.00  0.00    -0.173 NA
ATOM      7  C   UNL     1      16.732 -23.991 -44.682  1.00  0.00     0.195 C 
ATOM      8  N   UNL     1      15.988 -25.049 -44.819  1.00  0.00    -0.166 NA
ENDROOT
BRANCH   4   9
ATOM      9  C   UNL     1      19.848 -23.051 -44.058  1.00  0.00     0.187 C 
BRANCH   9  10
ATOM     10  O   UNL     1      20.116 -24.170 -43.200  1.00  0.00    -0.386 OA
ATOM     11  H   UNL     1      20.824 -24.696 -43.616  1.00  0.00     0.211 HD
ENDBRANCH   9  10
BRANCH   9  12
ATOM     12  C   UNL     1      20.902 -21.960 -43.858  1.00  0.00     0.192 C 
BRANCH  12  13
ATOM     13  O   UNL     1      20.351 -20.686 -44.152  1.00  0.00    -0.394 OA
ATOM     14  H   UNL     1      21.076 -20.131 -44.493  1.00  0.00     0.210 HD
ENDBRANCH  12  13
ENDBRANCH   9  12
ENDBRANCH   4   9
BRANCH   8  15
ATOM     15  N   UNL     1      15.371 -25.208 -46.019  1.00  0.00    -0.278 N 
ATOM     16  H   UNL     1      15.884 -25.085 -46.900  1.00  0.00     0.190 HD
BRANCH  15  17
ATOM     17  C   UNL     1      13.974 -25.065 -46.110  1.00  0.00     0.059 A 
ATOM     18  C   UNL     1      13.242 -25.515 -47.219  1.00  0.00     0.028 A 
ATOM     19  C   UNL     1      13.286 -24.390 -45.095  1.00  0.00     0.066 A 
ATOM     20  C   UNL     1      11.858 -25.329 -47.300  1.00  0.00     0.005 A 
ATOM     21  C   UNL     1      11.908 -24.208 -45.180  1.00  0.00     0.125 A 
ATOM     22  C   UNL     1      11.187 -24.674 -46.271  1.00  0.00     0.039 A 
ATOM     23  F   UNL     1      11.267 -23.567 -44.193  1.00  0.00    -0.207 F 
ENDBRANCH  15  17
ENDBRANCH   8  15
BRANCH   6  24
ATOM     24  N   UNL     1      16.475 -25.185 -42.114  1.00  0.00    -0.278 N 
ATOM     25  H   UNL     1      16.761 -26.169 -42.178  1.00  0.00     0.190 HD
BRANCH  24  26
ATOM     26  C   UNL     1      15.371 -24.943 -41.273  1.00  0.00     0.059 A 
ATOM     27  C   UNL     1      14.092 -24.817 -41.838  1.00  0.00     0.028 A 
ATOM     28  C   UNL     1      15.512 -24.724 -39.898  1.00  0.00     0.066 A 
ATOM     29  C   UNL     1      12.976 -24.529 -41.045  1.00  0.00     0.005 A 
ATOM     30  C   UNL     1      14.398 -24.440 -39.114  1.00  0.00     0.125 A 
ATOM     31  C   UNL     1      13.130 -24.346 -39.674  1.00  0.00     0.039 A 
ATOM     32  F   UNL     1      14.551 -24.250 -37.796  1.00  0.00    -0.207 F 
ENDBRANCH  24  26
ENDBRANCH   6  24
TORSDOF 8
ENDMDL
MODEL 9
REMARK VINA RESULT:    -6.407     24.892     25.956
REMARK INTER + INTRA:         -10.362
REMARK INTER:                  -8.859
REMARK INTRA:                  -1.504
REMARK UNBOUND:                -1.333
REMARK SMILES O=C1O[C@H]([C@H](O)CO)C(=N/Nc2cccc(F)c2)/C1=N/Nc1cccc(F)c1
REMARK SMILES IDX 1 1 2 2 3 3 4 4 9 5 10 6 19 7 20 8 5 9 6 10 7 12 8 13 21 15
REMARK SMILES IDX 22 17 23 18 28 19 24 20 26 21 25 22 27 23 11 24 12 26 13 27
REMARK SMILES IDX 18 28 14 29 16 30 15 31 17 32
REMARK H PARENT 6 11 8 14 21 16 11 25
ROOT
ATOM      1  O   UNL     1       4.569  -6.500 -32.941  1.00  0.00    -0.244 OA
ATOM      2  C   UNL     1       4.136  -5.375 -33.080  1.00  0.00     0.361 C 
ATOM      3  O   UNL     1       4.838  -4.227 -33.284  1.00  0.00    -0.448 OA
ATOM      4  C   UNL     1       4.000  -3.027 -33.307  1.00  0.00     0.261 C 
ATOM      5  C   UNL     1       2.611  -3.565 -33.471  1.00  0.00     0.139 C 
ATOM      6  N   UNL     1       1.591  -2.859 -33.847  1.00  0.00    -0.173 NA
ATOM      7  C   UNL     1       2.686  -4.999 -33.157  1.00  0.00     0.195 C 
ATOM      8  N   UNL     1       1.642  -5.755 -32.978  1.00  0.00    -0.166 NA
ENDROOT
BRANCH   4   9
ATOM      9  C   UNL     1       4.174  -2.283 -31.979  1.00  0.00     0.187 C 
BRANCH   9  10
ATOM     10  O   UNL     1       3.105  -1.340 -31.816  1.00  0.00    -0.386 OA
ATOM     11  H   UNL     1       3.108  -1.050 -30.885  1.00  0.00     0.211 HD
ENDBRANCH   9  10
BRANCH   9  12
ATOM     12  C   UNL     1       5.529  -1.580 -31.856  1.00  0.00     0.192 C 
BRANCH  12  13
ATOM     13  O   UNL     1       6.577  -2.537 -31.840  1.00  0.00    -0.394 OA
ATOM     14  H   UNL     1       6.167  -3.413 -31.968  1.00  0.00     0.210 HD
ENDBRANCH  12  13
ENDBRANCH   9  12
ENDBRANCH   4   9
BRANCH   8  15
ATOM     15  N   UNL     1       1.880  -7.057 -32.670  1.00  0.00    -0.278 N 
ATOM     16  H   UNL     1       2.832  -7.442 -32.689  1.00  0.00     0.190 HD
BRANCH  15  17
ATOM     17  C   UNL     1       0.845  -8.003 -32.790  1.00  0.00     0.059 A 
ATOM     18  C   UNL     1       0.151  -8.505 -31.679  1.00  0.00     0.028 A 
ATOM     19  C   UNL     1       0.533  -8.522 -34.052  1.00  0.00     0.066 A 
ATOM     20  C   UNL     1      -0.850  -9.470 -31.823  1.00  0.00     0.005 A 
ATOM     21  C   UNL     1      -0.465  -9.483 -34.190  1.00  0.00     0.125 A 
ATOM     22  C   UNL     1      -1.162  -9.960 -33.088  1.00  0.00     0.039 A 
ATOM     23  F   UNL     1      -0.754  -9.961 -35.408  1.00  0.00    -0.207 F 
ENDBRANCH  15  17
ENDBRANCH   8  15
BRANCH   6  24
ATOM     24  N   UNL     1       0.409  -3.511 -33.986  1.00  0.00    -0.278 N 
ATOM     25  H   UNL     1      -0.273  -3.496 -33.218  1.00  0.00     0.190 HD
BRANCH  24  26
ATOM     26  C   UNL     1      -0.150  -3.637 -35.272  1.00  0.00     0.059 A 
ATOM     27  C   UNL     1       0.280  -2.778 -36.295  1.00  0.00     0.028 A 
ATOM     28  C   UNL     1      -1.196  -4.525 -35.549  1.00  0.00     0.066 A 
ATOM     29  C   UNL     1      -0.283  -2.837 -37.574  1.00  0.00     0.005 A 
ATOM     30  C   UNL     1      -1.751  -4.581 -36.824  1.00  0.00     0.125 A 
ATOM     31  C   UNL     1      -1.301  -3.748 -37.841  1.00  0.00     0.039 A 
ATOM     32  F   UNL     1      -2.740  -5.450 -37.074  1.00  0.00    -0.207 F 
ENDBRANCH  24  26
ENDBRANCH   6  24
TORSDOF 8
ENDMDL
