REMARK SMILES CN(Cc1nc(N)nc(Nc2ccc(Cl)cc2)n1)Cc1cc(C#N)ccc1F
REMARK SMILES IDX 3 1 2 2 1 3 19 4 20 5 21 6 27 7 22 8 26 9 23 10 25 11 24 12
REMARK SMILES IDX 28 13 4 14 5 15 18 16 6 17 9 18 8 19 7 20 10 23 11 25 12 26
REMARK SMILES IDX 17 27 13 28 16 29 14 30 15 31
REMARK H PARENT 7 21 7 22 10 24
ROOT
ATOM      1  C   UNL     1      -0.944   1.016  -2.225  1.00  0.00     0.162 C 
ENDROOT
BRANCH   1   2
ATOM      2  N   UNL     1       0.508   0.770  -2.026  1.00  0.00    -0.295 NA
ATOM      3  C   UNL     1       1.254   2.030  -2.053  1.00  0.00     0.106 C 
BRANCH   2   4
ATOM      4  C   UNL     1       0.991  -0.178  -3.042  1.00  0.00     0.123 C 
BRANCH   4   5
ATOM      5  C   UNL     1       2.324  -0.795  -2.690  1.00  0.00     0.003 A 
ATOM      6  C   UNL     1       3.515  -0.338  -3.279  1.00  0.00     0.027 A 
ATOM      7  C   UNL     1       2.397  -1.831  -1.753  1.00  0.00     0.127 A 
ATOM      8  C   UNL     1       4.747  -0.907  -2.929  1.00  0.00     0.053 A 
ATOM      9  C   UNL     1       3.617  -2.404  -1.401  1.00  0.00     0.041 A 
ATOM     10  C   UNL     1       5.956  -0.428  -3.534  1.00  0.00     0.099 C 
ATOM     11  C   UNL     1       4.795  -1.942  -1.988  1.00  0.00     0.022 A 
ATOM     12  N   UNL     1       6.931  -0.037  -4.027  1.00  0.00    -0.192 NA
ATOM     13  F   UNL     1       1.279  -2.306  -1.185  1.00  0.00    -0.207 F 
ENDBRANCH   4   5
ENDBRANCH   2   4
ENDBRANCH   1   2
BRANCH   1  14
ATOM     14  C   UNL     1      -1.627   1.762  -1.088  1.00  0.00     0.150 A 
ATOM     15  N   UNL     1      -1.935   3.046  -1.279  1.00  0.00    -0.197 NA
ATOM     16  N   UNL     1      -1.858   1.093   0.042  1.00  0.00    -0.196 NA
ATOM     17  C   UNL     1      -2.521   3.631  -0.250  1.00  0.00     0.225 A 
ATOM     18  C   UNL     1      -2.423   1.780   1.025  1.00  0.00     0.232 A 
ATOM     19  N   UNL     1      -2.775   3.058   0.916  1.00  0.00    -0.177 NA
BRANCH  17  20
ATOM     20  N   UNL     1      -2.862   4.961  -0.391  1.00  0.00    -0.368 N 
ATOM     21  H   UNL     1      -2.294   5.398  -1.103  1.00  0.00     0.159 HD
ATOM     22  H   UNL     1      -2.906   5.414   0.510  1.00  0.00     0.159 HD
ENDBRANCH  17  20
BRANCH  18  23
ATOM     23  N   UNL     1      -2.706   1.189   2.255  1.00  0.00    -0.324 N 
ATOM     24  H   UNL     1      -3.155   1.867   2.854  1.00  0.00     0.170 HD
BRANCH  23  25
ATOM     25  C   UNL     1      -2.385  -0.046   2.829  1.00  0.00     0.041 A 
ATOM     26  C   UNL     1      -1.575  -1.008   2.212  1.00  0.00     0.027 A 
ATOM     27  C   UNL     1      -2.945  -0.370   4.077  1.00  0.00     0.027 A 
ATOM     28  C   UNL     1      -1.314  -2.240   2.824  1.00  0.00     0.022 A 
ATOM     29  C   UNL     1      -2.689  -1.599   4.695  1.00  0.00     0.022 A 
ATOM     30  C   UNL     1      -1.872  -2.530   4.064  1.00  0.00     0.041 A 
ATOM     31  Cl  UNL     1      -1.553  -4.042   4.818  1.00  0.00    -0.084 Cl
ENDBRANCH  23  25
ENDBRANCH  18  23
ENDBRANCH   1  14
TORSDOF 7
