MODEL 1
REMARK VINA RESULT:    -6.549      0.000      0.000
REMARK INTER + INTRA:          -6.549
REMARK INTER:                  -6.549
REMARK INTRA:                   0.000
REMARK UNBOUND:                 0.000
REMARK  Name = /home/vital/Documents/PhD_2021/Malaria_codes/scripts/../data/pdbqt_ligands/ligand_33_temp.pdb
REMARK                            x       y       z     vdW  Elec       q    Type
REMARK                         _______ _______ _______ _____ _____    ______ ____
ROOT
ATOM      1  C   UNL     1     152.339 155.357 156.277  0.00  0.00    -0.087 C 
ATOM      2  C   UNL     1     152.339 156.259 155.283  0.00  0.00    +0.002 C 
ATOM      3 BR   UNL     1     151.810 155.773 153.551  0.00  0.00    -0.054 Br
ATOM      4  C   UNL     1     152.807 157.685 155.454  0.00  0.00    +0.027 C 
ATOM      5  N   UNL     1     151.805 158.715 155.163  0.00  0.00    -0.308 N 
ATOM      6  C   UNL     1     150.660 158.724 156.073  0.00  0.00    +0.022 C 
ATOM      7  C   UNL     1     151.006 159.129 157.488  0.00  0.00    -0.026 A 
ATOM      8  C   UNL     1     151.407 160.444 157.771  0.00  0.00    -0.011 A 
ATOM      9  C   UNL     1     151.728 160.759 159.074  0.00  0.00    +0.170 A 
ATOM     10  C   UNL     1     151.661 159.828 160.086  0.00  0.00    +0.208 A 
ATOM     11  C   UNL     1     151.263 158.522 159.854  0.00  0.00    +0.166 A 
ATOM     12  O   UNL     1     151.234 157.690 160.935  0.00  0.00    -0.491 OA
ATOM     13  C   UNL     1     150.773 156.362 160.717  0.00  0.00    +0.079 C 
ATOM     14  C   UNL     1     150.933 158.179 158.538  0.00  0.00    -0.012 A 
ATOM     15  O   UNL     1     152.024 160.360 161.289  0.00  0.00    -0.449 OA
ATOM     16  C   UNL     1     152.317 161.719 160.916  0.00  0.00    +0.233 C 
ATOM     17  O   UNL     1     152.137 161.980 159.509  0.00  0.00    -0.452 OA
ATOM     18  H   UNL     1     151.458 158.564 154.217  0.00  0.00    +0.000 HD
ATOM     19  H   UNL     1     152.272 159.615 155.279  0.00  0.00    +0.000 HD
ENDROOT
TORSDOF 0
ENDMDL
MODEL 2
REMARK VINA RESULT:    -6.292      1.462      1.790
REMARK INTER + INTRA:          -6.292
REMARK INTER:                  -6.292
REMARK INTRA:                   0.000
REMARK UNBOUND:                 0.000
REMARK  Name = /home/vital/Documents/PhD_2021/Malaria_codes/scripts/../data/pdbqt_ligands/ligand_33_temp.pdb
REMARK                            x       y       z     vdW  Elec       q    Type
REMARK                         _______ _______ _______ _____ _____    ______ ____
ROOT
ATOM      1  C   UNL     1     152.594 156.031 155.558  0.00  0.00    -0.087 C 
ATOM      2  C   UNL     1     152.414 157.259 155.050  0.00  0.00    +0.002 C 
ATOM      3 BR   UNL     1     152.055 157.497 153.225  0.00  0.00    -0.054 Br
ATOM      4  C   UNL     1     152.538 158.524 155.868  0.00  0.00    +0.027 C 
ATOM      5  N   UNL     1     151.335 159.360 155.921  0.00  0.00    -0.308 N 
ATOM      6  C   UNL     1     150.195 158.743 156.598  0.00  0.00    +0.022 C 
ATOM      7  C   UNL     1     150.402 158.540 158.082  0.00  0.00    -0.026 A 
ATOM      8  C   UNL     1     150.484 159.644 158.945  0.00  0.00    -0.011 A 
ATOM      9  C   UNL     1     150.691 159.406 160.286  0.00  0.00    +0.170 A 
ATOM     10  C   UNL     1     150.812 158.131 160.790  0.00  0.00    +0.208 A 
ATOM     11  C   UNL     1     150.730 157.012 159.978  0.00  0.00    +0.166 A 
ATOM     12  O   UNL     1     150.864 155.800 160.589  0.00  0.00    -0.491 OA
ATOM     13  C   UNL     1     150.725 154.644 159.773  0.00  0.00    +0.079 C 
ATOM     14  C   UNL     1     150.521 157.230 158.611  0.00  0.00    -0.012 A 
ATOM     15  O   UNL     1     151.013 158.135 162.139  0.00  0.00    -0.449 OA
ATOM     16  C   UNL     1     150.996 159.548 162.419  0.00  0.00    +0.233 C 
ATOM     17  O   UNL     1     150.798 160.363 161.247  0.00  0.00    -0.452 OA
ATOM     18  H   UNL     1     151.056 159.578 154.965  0.00  0.00    +0.000 HD
ATOM     19  H   UNL     1     151.581 160.188 156.465  0.00  0.00    +0.000 HD
ENDROOT
TORSDOF 0
ENDMDL
MODEL 3
REMARK VINA RESULT:    -6.165      3.581      5.955
REMARK INTER + INTRA:          -6.165
REMARK INTER:                  -6.165
REMARK INTRA:                   0.000
REMARK UNBOUND:                 0.000
REMARK  Name = /home/vital/Documents/PhD_2021/Malaria_codes/scripts/../data/pdbqt_ligands/ligand_33_temp.pdb
REMARK                            x       y       z     vdW  Elec       q    Type
REMARK                         _______ _______ _______ _____ _____    ______ ____
ROOT
ATOM      1  C   UNL     1     151.112 160.024 160.555  0.00  0.00    -0.087 C 
ATOM      2  C   UNL     1     150.920 159.651 159.281  0.00  0.00    +0.002 C 
ATOM      3 BR   UNL     1     151.836 160.504 157.886  0.00  0.00    -0.054 Br
ATOM      4  C   UNL     1     149.933 158.584 158.866  0.00  0.00    +0.027 C 
ATOM      5  N   UNL     1     150.509 157.435 158.161  0.00  0.00    -0.308 N 
ATOM      6  C   UNL     1     151.423 156.624 158.963  0.00  0.00    +0.022 C 
ATOM      7  C   UNL     1     150.750 155.885 160.098  0.00  0.00    -0.026 A 
ATOM      8  C   UNL     1     149.850 154.841 159.831  0.00  0.00    -0.011 A 
ATOM      9  C   UNL     1     149.250 154.212 160.899  0.00  0.00    +0.170 A 
ATOM     10  C   UNL     1     149.513 154.575 162.200  0.00  0.00    +0.208 A 
ATOM     11  C   UNL     1     150.398 155.593 162.512  0.00  0.00    +0.166 A 
ATOM     12  O   UNL     1     150.580 155.864 163.837  0.00  0.00    -0.491 OA
ATOM     13  C   UNL     1     151.530 156.868 164.168  0.00  0.00    +0.079 C 
ATOM     14  C   UNL     1     151.020 156.248 161.442  0.00  0.00    -0.012 A 
ATOM     15  O   UNL     1     148.807 153.819 163.091  0.00  0.00    -0.449 OA
ATOM     16  C   UNL     1     148.085 152.944 162.203  0.00  0.00    +0.233 C 
ATOM     17  O   UNL     1     148.356 153.190 160.809  0.00  0.00    -0.452 OA
ATOM     18  H   UNL     1     151.021 157.783 157.350  0.00  0.00    +0.000 HD
ATOM     19  H   UNL     1     149.728 156.827 157.910  0.00  0.00    +0.000 HD
ENDROOT
TORSDOF 0
ENDMDL
MODEL 4
REMARK VINA RESULT:    -6.130     11.144     13.370
REMARK INTER + INTRA:          -6.130
REMARK INTER:                  -6.130
REMARK INTRA:                   0.000
REMARK UNBOUND:                 0.000
REMARK  Name = /home/vital/Documents/PhD_2021/Malaria_codes/scripts/../data/pdbqt_ligands/ligand_33_temp.pdb
REMARK                            x       y       z     vdW  Elec       q    Type
REMARK                         _______ _______ _______ _____ _____    ______ ____
ROOT
ATOM      1  C   UNL     1     142.328 148.554 164.086  0.00  0.00    -0.087 C 
ATOM      2  C   UNL     1     142.222 148.538 165.423  0.00  0.00    +0.002 C 
ATOM      3 BR   UNL     1     141.227 147.205 166.288  0.00  0.00    -0.054 Br
ATOM      4  C   UNL     1     142.827 149.594 166.319  0.00  0.00    +0.027 C 
ATOM      5  N   UNL     1     143.801 149.105 167.300  0.00  0.00    -0.308 N 
ATOM      6  C   UNL     1     145.022 148.548 166.719  0.00  0.00    +0.022 C 
ATOM      7  C   UNL     1     145.890 149.571 166.022  0.00  0.00    -0.026 A 
ATOM      8  C   UNL     1     146.541 150.572 166.761  0.00  0.00    -0.011 A 
ATOM      9  C   UNL     1     147.306 151.490 166.077  0.00  0.00    +0.170 A 
ATOM     10  C   UNL     1     147.446 151.447 164.708  0.00  0.00    +0.208 A 
ATOM     11  C   UNL     1     146.829 150.474 163.940  0.00  0.00    +0.166 A 
ATOM     12  O   UNL     1     147.041 150.531 162.593  0.00  0.00    -0.491 OA
ATOM     13  C   UNL     1     146.459 149.503 161.802  0.00  0.00    +0.079 C 
ATOM     14  C   UNL     1     146.046 149.530 164.614  0.00  0.00    -0.012 A 
ATOM     15  O   UNL     1     148.245 152.452 164.248  0.00  0.00    -0.449 OA
ATOM     16  C   UNL     1     148.590 153.119 165.476  0.00  0.00    +0.233 C 
ATOM     17  O   UNL     1     147.993 152.518 166.643  0.00  0.00    -0.452 OA
ATOM     18  H   UNL     1     143.353 148.378 167.857  0.00  0.00    +0.000 HD
ATOM     19  H   UNL     1     144.086 149.914 167.853  0.00  0.00    +0.000 HD
ENDROOT
TORSDOF 0
ENDMDL
MODEL 5
REMARK VINA RESULT:    -6.108      3.958      6.001
REMARK INTER + INTRA:          -6.108
REMARK INTER:                  -6.108
REMARK INTRA:                   0.000
REMARK UNBOUND:                 0.000
REMARK  Name = /home/vital/Documents/PhD_2021/Malaria_codes/scripts/../data/pdbqt_ligands/ligand_33_temp.pdb
REMARK                            x       y       z     vdW  Elec       q    Type
REMARK                         _______ _______ _______ _____ _____    ______ ____
ROOT
ATOM      1  C   UNL     1     151.821 157.542 162.792  0.00  0.00    -0.087 C 
ATOM      2  C   UNL     1     151.437 156.257 162.769  0.00  0.00    +0.002 C 
ATOM      3 BR   UNL     1     150.503 155.511 164.213  0.00  0.00    -0.054 Br
ATOM      4  C   UNL     1     151.766 155.310 161.637  0.00  0.00    +0.027 C 
ATOM      5  N   UNL     1     150.611 154.720 160.954  0.00  0.00    -0.308 N 
ATOM      6  C   UNL     1     149.775 155.680 160.235  0.00  0.00    +0.022 C 
ATOM      7  C   UNL     1     150.455 156.308 159.039  0.00  0.00    -0.026 A 
ATOM      8  C   UNL     1     150.765 155.533 157.910  0.00  0.00    -0.011 A 
ATOM      9  C   UNL     1     151.400 156.149 156.855  0.00  0.00    +0.170 A 
ATOM     10  C   UNL     1     151.728 157.485 156.881  0.00  0.00    +0.208 A 
ATOM     11  C   UNL     1     151.434 158.290 157.969  0.00  0.00    +0.166 A 
ATOM     12  O   UNL     1     151.806 159.600 157.880  0.00  0.00    -0.491 OA
ATOM     13  C   UNL     1     151.459 160.447 158.969  0.00  0.00    +0.079 C 
ATOM     14  C   UNL     1     150.789 157.686 159.054  0.00  0.00    -0.012 A 
ATOM     15  O   UNL     1     152.350 157.878 155.731  0.00  0.00    -0.449 OA
ATOM     16  C   UNL     1     152.367 156.644 154.989  0.00  0.00    +0.233 C 
ATOM     17  O   UNL     1     151.771 155.539 155.697  0.00  0.00    -0.452 OA
ATOM     18  H   UNL     1     150.032 154.255 161.653  0.00  0.00    +0.000 HD
ATOM     19  H   UNL     1     150.985 154.080 160.253  0.00  0.00    +0.000 HD
ENDROOT
TORSDOF 0
ENDMDL
MODEL 6
REMARK VINA RESULT:    -5.955     14.464     16.990
REMARK INTER + INTRA:          -5.955
REMARK INTER:                  -5.955
REMARK INTRA:                   0.000
REMARK UNBOUND:                 0.000
REMARK  Name = /home/vital/Documents/PhD_2021/Malaria_codes/scripts/../data/pdbqt_ligands/ligand_33_temp.pdb
REMARK                            x       y       z     vdW  Elec       q    Type
REMARK                         _______ _______ _______ _____ _____    ______ ____
ROOT
ATOM      1  C   UNL     1     145.780 143.167 162.640  0.00  0.00    -0.087 C 
ATOM      2  C   UNL     1     145.194 142.322 163.501  0.00  0.00    +0.002 C 
ATOM      3 BR   UNL     1     145.718 140.523 163.582  0.00  0.00    -0.054 Br
ATOM      4  C   UNL     1     144.054 142.718 164.411  0.00  0.00    +0.027 C 
ATOM      5  N   UNL     1     144.311 142.562 165.846  0.00  0.00    -0.308 N 
ATOM      6  C   UNL     1     145.360 143.432 166.375  0.00  0.00    +0.022 C 
ATOM      7  C   UNL     1     145.000 144.901 166.363  0.00  0.00    -0.026 A 
ATOM      8  C   UNL     1     143.988 145.391 167.204  0.00  0.00    -0.011 A 
ATOM      9  C   UNL     1     143.686 146.733 167.142  0.00  0.00    +0.170 A 
ATOM     10  C   UNL     1     144.346 147.591 166.292  0.00  0.00    +0.208 A 
ATOM     11  C   UNL     1     145.356 147.154 165.451  0.00  0.00    +0.166 A 
ATOM     12  O   UNL     1     145.939 148.095 164.653  0.00  0.00    -0.491 OA
ATOM     13  C   UNL     1     147.015 147.668 163.827  0.00  0.00    +0.079 C 
ATOM     14  C   UNL     1     145.680 145.793 165.495  0.00  0.00    -0.012 A 
ATOM     15  O   UNL     1     143.882 148.869 166.399  0.00  0.00    -0.449 OA
ATOM     16  C   UNL     1     142.869 148.714 167.410  0.00  0.00    +0.233 C 
ATOM     17  O   UNL     1     142.733 147.359 167.884  0.00  0.00    -0.452 OA
ATOM     18  H   UNL     1     144.585 141.594 166.017  0.00  0.00    +0.000 HD
ATOM     19  H   UNL     1     143.449 142.824 166.325  0.00  0.00    +0.000 HD
ENDROOT
TORSDOF 0
ENDMDL
MODEL 7
REMARK VINA RESULT:    -5.828      7.479      9.451
REMARK INTER + INTRA:          -5.828
REMARK INTER:                  -5.828
REMARK INTRA:                   0.000
REMARK UNBOUND:                 0.000
REMARK  Name = /home/vital/Documents/PhD_2021/Malaria_codes/scripts/../data/pdbqt_ligands/ligand_33_temp.pdb
REMARK                            x       y       z     vdW  Elec       q    Type
REMARK                         _______ _______ _______ _____ _____    ______ ____
ROOT
ATOM      1  C   UNL     1     150.267 154.702 165.119  0.00  0.00    -0.087 C 
ATOM      2  C   UNL     1     150.614 154.273 166.342  0.00  0.00    +0.002 C 
ATOM      3 BR   UNL     1     151.122 152.491 166.623  0.00  0.00    -0.054 Br
ATOM      4  C   UNL     1     150.570 155.148 167.574  0.00  0.00    +0.027 C 
ATOM      5  N   UNL     1     151.850 155.323 168.267  0.00  0.00    -0.308 N 
ATOM      6  C   UNL     1     152.867 156.037 167.497  0.00  0.00    +0.022 C 
ATOM      7  C   UNL     1     152.537 157.492 167.249  0.00  0.00    -0.026 A 
ATOM      8  C   UNL     1     152.515 158.406 168.314  0.00  0.00    -0.011 A 
ATOM      9  C   UNL     1     152.191 159.716 168.038  0.00  0.00    +0.170 A 
ATOM     10  C   UNL     1     151.898 160.142 166.763  0.00  0.00    +0.208 A 
ATOM     11  C   UNL     1     151.916 159.278 165.681  0.00  0.00    +0.166 A 
ATOM     12  O   UNL     1     151.610 159.813 164.463  0.00  0.00    -0.491 OA
ATOM     13  C   UNL     1     151.680 158.947 163.338  0.00  0.00    +0.079 C 
ATOM     14  C   UNL     1     152.241 157.940 165.937  0.00  0.00    -0.012 A 
ATOM     15  O   UNL     1     151.607 161.474 166.726  0.00  0.00    -0.449 OA
ATOM     16  C   UNL     1     151.756 161.830 168.113  0.00  0.00    +0.233 C 
ATOM     17  O   UNL     1     152.122 160.718 168.955  0.00  0.00    -0.452 OA
ATOM     18  H   UNL     1     152.217 154.399 168.497  0.00  0.00    +0.000 HD
ATOM     19  H   UNL     1     151.658 155.894 169.091  0.00  0.00    +0.000 HD
ENDROOT
TORSDOF 0
ENDMDL
MODEL 8
REMARK VINA RESULT:    -5.791     15.304     18.086
REMARK INTER + INTRA:          -5.791
REMARK INTER:                  -5.791
REMARK INTRA:                   0.000
REMARK UNBOUND:                 0.000
REMARK  Name = /home/vital/Documents/PhD_2021/Malaria_codes/scripts/../data/pdbqt_ligands/ligand_33_temp.pdb
REMARK                            x       y       z     vdW  Elec       q    Type
REMARK                         _______ _______ _______ _____ _____    ______ ____
ROOT
ATOM      1  C   UNL     1     143.810 148.345 164.430  0.00  0.00    -0.087 C 
ATOM      2  C   UNL     1     145.106 148.141 164.147  0.00  0.00    +0.002 C 
ATOM      3 BR   UNL     1     146.304 149.580 164.062  0.00  0.00    -0.054 Br
ATOM      4  C   UNL     1     145.684 146.782 163.825  0.00  0.00    +0.027 C 
ATOM      5  N   UNL     1     146.746 146.321 164.723  0.00  0.00    -0.308 N 
ATOM      6  C   UNL     1     146.318 146.083 166.100  0.00  0.00    +0.022 C 
ATOM      7  C   UNL     1     145.365 144.919 166.252  0.00  0.00    -0.026 A 
ATOM      8  C   UNL     1     145.806 143.606 166.024  0.00  0.00    -0.011 A 
ATOM      9  C   UNL     1     144.894 142.582 166.159  0.00  0.00    +0.170 A 
ATOM     10  C   UNL     1     143.584 142.815 166.510  0.00  0.00    +0.208 A 
ATOM     11  C   UNL     1     143.107 144.092 166.752  0.00  0.00    +0.166 A 
ATOM     12  O   UNL     1     141.790 144.200 167.094  0.00  0.00    -0.491 OA
ATOM     13  C   UNL     1     141.305 145.501 167.400  0.00  0.00    +0.079 C 
ATOM     14  C   UNL     1     144.015 145.149 166.621  0.00  0.00    -0.012 A 
ATOM     15  O   UNL     1     142.864 141.658 166.582  0.00  0.00    -0.449 OA
ATOM     16  C   UNL     1     143.870 140.683 166.245  0.00  0.00    +0.233 C 
ATOM     17  O   UNL     1     145.161 141.262 165.969  0.00  0.00    -0.452 OA
ATOM     18  H   UNL     1     147.481 147.028 164.736  0.00  0.00    +0.000 HD
ATOM     19  H   UNL     1     147.063 145.421 164.359  0.00  0.00    +0.000 HD
ENDROOT
TORSDOF 0
ENDMDL
MODEL 9
REMARK VINA RESULT:    -5.767      4.388      6.412
REMARK INTER + INTRA:          -5.767
REMARK INTER:                  -5.767
REMARK INTRA:                   0.000
REMARK UNBOUND:                 0.000
REMARK  Name = /home/vital/Documents/PhD_2021/Malaria_codes/scripts/../data/pdbqt_ligands/ligand_33_temp.pdb
REMARK                            x       y       z     vdW  Elec       q    Type
REMARK                         _______ _______ _______ _____ _____    ______ ____
ROOT
ATOM      1  C   UNL     1     152.467 158.799 164.423  0.00  0.00    -0.087 C 
ATOM      2  C   UNL     1     152.516 157.462 164.516  0.00  0.00    +0.002 C 
ATOM      3 BR   UNL     1     152.192 156.604 166.151  0.00  0.00    -0.054 Br
ATOM      4  C   UNL     1     152.884 156.560 163.360  0.00  0.00    +0.027 C 
ATOM      5  N   UNL     1     151.860 155.586 162.971  0.00  0.00    -0.308 N 
ATOM      6  C   UNL     1     150.631 156.174 162.441  0.00  0.00    +0.022 C 
ATOM      7  C   UNL     1     150.809 156.866 161.109  0.00  0.00    -0.026 A 
ATOM      8  C   UNL     1     151.105 156.121 159.956  0.00  0.00    -0.011 A 
ATOM      9  C   UNL     1     151.275 156.801 158.770  0.00  0.00    +0.170 A 
ATOM     10  C   UNL     1     151.159 158.170 158.692  0.00  0.00    +0.208 A 
ATOM     11  C   UNL     1     150.860 158.944 159.800  0.00  0.00    +0.166 A 
ATOM     12  O   UNL     1     150.769 160.291 159.601  0.00  0.00    -0.491 OA
ATOM     13  C   UNL     1     150.407 161.088 160.722  0.00  0.00    +0.079 C 
ATOM     14  C   UNL     1     150.684 158.275 161.017  0.00  0.00    -0.012 A 
ATOM     15  O   UNL     1     151.369 158.626 157.423  0.00  0.00    -0.449 OA
ATOM     16  C   UNL     1     151.621 157.393 156.722  0.00  0.00    +0.233 C 
ATOM     17  O   UNL     1     151.569 156.229 157.571  0.00  0.00    -0.452 OA
ATOM     18  H   UNL     1     151.619 155.033 163.794  0.00  0.00    +0.000 HD
ATOM     19  H   UNL     1     152.262 155.028 162.218  0.00  0.00    +0.000 HD
ENDROOT
TORSDOF 0
ENDMDL
