MODEL 1
REMARK VINA RESULT:    -6.426      0.000      0.000
REMARK INTER + INTRA:          -6.426
REMARK INTER:                  -6.426
REMARK INTRA:                   0.000
REMARK UNBOUND:                 0.000
REMARK  Name = /home/vital/Documents/PhD_2021/Malaria_codes/scripts/../data/pdbqt_ligands/ligand_391_temp.pdb
REMARK                            x       y       z     vdW  Elec       q    Type
REMARK                         _______ _______ _______ _____ _____    ______ ____
ROOT
ATOM      1  O   UNL     1     146.533 143.445 162.049  0.00  0.00    -0.393 OA
ATOM      2  C   UNL     1     145.641 142.683 162.862  0.00  0.00    +0.060 C 
ATOM      3  C   UNL     1     145.554 143.232 164.291  0.00  0.00    +0.041 C 
ATOM      4  N   UNL     1     144.672 144.416 164.364  0.00  0.00    -0.291 N 
ATOM      5  C   UNL     1     145.089 145.582 163.707  0.00  0.00    +0.090 C 
ATOM      6  N   UNL     1     144.336 146.621 163.726  0.00  0.00    -0.221 NA
ATOM      7  C   UNL     1     144.716 147.847 164.176  0.00  0.00    +0.155 C 
ATOM      8  N   UNL     1     145.793 148.252 164.785  0.00  0.00    -0.228 N 
ATOM      9  C   UNL     1     146.755 147.383 165.226  0.00  0.00    +0.072 C 
ATOM     10  C   UNL     1     146.450 146.450 166.089  0.00  0.00    -0.100 C 
ATOM     11  C   UNL     1     146.001 145.484 166.848  0.00  0.00    -0.016 C 
ATOM     12  C   UNL     1     144.611 145.062 166.737  0.00  0.00    -0.035 C 
ATOM     13  C   UNL     1     143.978 144.644 165.607  0.00  0.00    +0.034 C 
ATOM     14  C   UNL     1     142.427 144.699 165.505  0.00  0.00    +0.090 C 
ATOM     15 CL   UNL     1     141.576 144.269 167.013  0.00  0.00    -0.111 Cl
ATOM     16  C   UNL     1     141.959 146.049 164.984  0.00  0.00    -0.061 C 
ATOM     17  C   UNL     1     142.196 147.242 165.571  0.00  0.00    -0.064 C 
ATOM     18  C   UNL     1     142.384 148.459 164.788  0.00  0.00    -0.058 C 
ATOM     19  C   UNL     1     143.524 148.755 164.117  0.00  0.00    -0.017 C 
ATOM     20  H   UNL     1     146.560 143.067 161.156  0.00  0.00    +0.000 HD
ATOM     21  H   UNL     1     145.920 149.217 164.934  0.00  0.00    +0.000 HD
ENDROOT
TORSDOF 0
ENDMDL
MODEL 2
REMARK VINA RESULT:    -6.425     14.914     16.941
REMARK INTER + INTRA:          -6.425
REMARK INTER:                  -6.425
REMARK INTRA:                   0.000
REMARK UNBOUND:                 0.000
REMARK  Name = /home/vital/Documents/PhD_2021/Malaria_codes/scripts/../data/pdbqt_ligands/ligand_391_temp.pdb
REMARK                            x       y       z     vdW  Elec       q    Type
REMARK                         _______ _______ _______ _____ _____    ______ ____
ROOT
ATOM      1  O   UNL     1     147.492 162.020 167.910  0.00  0.00    -0.393 OA
ATOM      2  C   UNL     1     147.816 162.631 166.662  0.00  0.00    +0.060 C 
ATOM      3  C   UNL     1     149.329 162.806 166.482  0.00  0.00    +0.041 C 
ATOM      4  N   UNL     1     149.977 161.541 166.076  0.00  0.00    -0.291 N 
ATOM      5  C   UNL     1     149.987 160.487 167.000  0.00  0.00    +0.090 C 
ATOM      6  N   UNL     1     150.516 159.365 166.672  0.00  0.00    -0.221 NA
ATOM      7  C   UNL     1     151.517 158.749 167.358  0.00  0.00    +0.155 C 
ATOM      8  N   UNL     1     152.250 159.140 168.359  0.00  0.00    -0.228 N 
ATOM      9  C   UNL     1     152.205 160.419 168.844  0.00  0.00    +0.072 C 
ATOM     10  C   UNL     1     152.491 161.428 168.062  0.00  0.00    -0.100 C 
ATOM     11  C   UNL     1     152.668 162.355 167.158  0.00  0.00    -0.016 C 
ATOM     12  C   UNL     1     152.358 162.077 165.762  0.00  0.00    -0.035 C 
ATOM     13  C   UNL     1     151.167 161.641 165.268  0.00  0.00    +0.034 C 
ATOM     14  C   UNL     1     151.100 160.922 163.890  0.00  0.00    +0.090 C 
ATOM     15 CL   UNL     1     152.192 161.600 162.654  0.00  0.00    -0.111 Cl
ATOM     16  C   UNL     1     151.316 159.424 164.042  0.00  0.00    -0.061 C 
ATOM     17  C   UNL     1     152.418 158.838 164.557  0.00  0.00    -0.064 C 
ATOM     18  C   UNL     1     152.343 157.594 165.316  0.00  0.00    -0.058 C 
ATOM     19  C   UNL     1     151.912 157.517 166.598  0.00  0.00    -0.017 C 
ATOM     20  H   UNL     1     146.530 161.927 167.984  0.00  0.00    +0.000 HD
ATOM     21  H   UNL     1     152.859 158.492 168.784  0.00  0.00    +0.000 HD
ENDROOT
TORSDOF 0
ENDMDL
MODEL 3
REMARK VINA RESULT:    -6.391      2.213      3.273
REMARK INTER + INTRA:          -6.391
REMARK INTER:                  -6.391
REMARK INTRA:                   0.000
REMARK UNBOUND:                 0.000
REMARK  Name = /home/vital/Documents/PhD_2021/Malaria_codes/scripts/../data/pdbqt_ligands/ligand_391_temp.pdb
REMARK                            x       y       z     vdW  Elec       q    Type
REMARK                         _______ _______ _______ _____ _____    ______ ____
ROOT
ATOM      1  O   UNL     1     142.112 143.080 162.892  0.00  0.00    -0.393 OA
ATOM      2  C   UNL     1     141.135 144.033 163.308  0.00  0.00    +0.060 C 
ATOM      3  C   UNL     1     141.537 144.737 164.610  0.00  0.00    +0.041 C 
ATOM      4  N   UNL     1     142.530 145.804 164.364  0.00  0.00    -0.291 N 
ATOM      5  C   UNL     1     143.804 145.420 163.921  0.00  0.00    +0.090 C 
ATOM      6  N   UNL     1     144.683 146.321 163.670  0.00  0.00    -0.221 NA
ATOM      7  C   UNL     1     145.916 146.382 164.242  0.00  0.00    +0.155 C 
ATOM      8  N   UNL     1     146.457 145.702 165.211  0.00  0.00    -0.228 N 
ATOM      9  C   UNL     1     145.744 144.810 165.967  0.00  0.00    +0.072 C 
ATOM     10  C   UNL     1     144.702 145.212 166.646  0.00  0.00    -0.100 C 
ATOM     11  C   UNL     1     143.611 145.702 167.174  0.00  0.00    -0.016 C 
ATOM     12  C   UNL     1     142.954 146.844 166.553  0.00  0.00    -0.035 C 
ATOM     13  C   UNL     1     142.524 146.930 165.264  0.00  0.00    +0.034 C 
ATOM     14  C   UNL     1     142.304 148.317 164.597  0.00  0.00    +0.090 C 
ATOM     15 CL   UNL     1     141.602 149.550 165.678  0.00  0.00    -0.111 Cl
ATOM     16  C   UNL     1     143.585 148.826 163.954  0.00  0.00    -0.061 C 
ATOM     17  C   UNL     1     144.748 149.060 164.600  0.00  0.00    -0.064 C 
ATOM     18  C   UNL     1     146.040 148.849 163.955  0.00  0.00    -0.058 C 
ATOM     19  C   UNL     1     146.594 147.628 163.756  0.00  0.00    -0.017 C 
ATOM     20  H   UNL     1     141.821 142.658 162.068  0.00  0.00    +0.000 HD
ATOM     21  H   UNL     1     147.414 145.832 165.406  0.00  0.00    +0.000 HD
ENDROOT
TORSDOF 0
ENDMDL
MODEL 4
REMARK VINA RESULT:    -6.266      3.059      5.012
REMARK INTER + INTRA:          -6.266
REMARK INTER:                  -6.266
REMARK INTRA:                   0.000
REMARK UNBOUND:                 0.000
REMARK  Name = /home/vital/Documents/PhD_2021/Malaria_codes/scripts/../data/pdbqt_ligands/ligand_391_temp.pdb
REMARK                            x       y       z     vdW  Elec       q    Type
REMARK                         _______ _______ _______ _____ _____    ______ ____
ROOT
ATOM      1  O   UNL     1     140.490 146.722 162.817  0.00  0.00    -0.393 OA
ATOM      2  C   UNL     1     141.373 147.722 162.310  0.00  0.00    +0.060 C 
ATOM      3  C   UNL     1     142.011 148.548 163.434  0.00  0.00    +0.041 C 
ATOM      4  N   UNL     1     143.133 147.825 164.068  0.00  0.00    -0.291 N 
ATOM      5  C   UNL     1     142.833 146.663 164.795  0.00  0.00    +0.090 C 
ATOM      6  N   UNL     1     143.784 145.993 165.336  0.00  0.00    -0.221 NA
ATOM      7  C   UNL     1     143.862 145.687 166.659  0.00  0.00    +0.155 C 
ATOM      8  N   UNL     1     143.146 146.061 167.680  0.00  0.00    -0.228 N 
ATOM      9  C   UNL     1     142.179 147.026 167.581  0.00  0.00    +0.072 C 
ATOM     10  C   UNL     1     142.493 148.231 167.183  0.00  0.00    -0.100 C 
ATOM     11  C   UNL     1     142.902 149.355 166.654  0.00  0.00    -0.016 C 
ATOM     12  C   UNL     1     144.050 149.359 165.759  0.00  0.00    -0.035 C 
ATOM     13  C   UNL     1     144.199 148.620 164.625  0.00  0.00    +0.034 C 
ATOM     14  C   UNL     1     145.614 148.337 164.047  0.00  0.00    +0.090 C 
ATOM     15 CL   UNL     1     146.745 149.711 164.168  0.00  0.00    -0.111 Cl
ATOM     16  C   UNL     1     146.216 147.082 164.660  0.00  0.00    -0.061 C 
ATOM     17  C   UNL     1     146.460 146.890 165.974  0.00  0.00    -0.064 C 
ATOM     18  C   UNL     1     146.346 145.572 166.591  0.00  0.00    -0.058 C 
ATOM     19  C   UNL     1     145.164 144.983 166.898  0.00  0.00    -0.017 C 
ATOM     20  H   UNL     1     140.109 146.223 162.077  0.00  0.00    +0.000 HD
ATOM     21  H   UNL     1     143.305 145.635 168.553  0.00  0.00    +0.000 HD
ENDROOT
TORSDOF 0
ENDMDL
MODEL 5
REMARK VINA RESULT:    -5.989     15.021     16.954
REMARK INTER + INTRA:          -5.989
REMARK INTER:                  -5.989
REMARK INTRA:                   0.000
REMARK UNBOUND:                 0.000
REMARK  Name = /home/vital/Documents/PhD_2021/Malaria_codes/scripts/../data/pdbqt_ligands/ligand_391_temp.pdb
REMARK                            x       y       z     vdW  Elec       q    Type
REMARK                         _______ _______ _______ _____ _____    ______ ____
ROOT
ATOM      1  O   UNL     1     150.884 156.699 166.763  0.00  0.00    -0.393 OA
ATOM      2  C   UNL     1     151.671 157.142 167.868  0.00  0.00    +0.060 C 
ATOM      3  C   UNL     1     152.492 158.392 167.524  0.00  0.00    +0.041 C 
ATOM      4  N   UNL     1     151.663 159.615 167.574  0.00  0.00    -0.291 N 
ATOM      5  C   UNL     1     150.645 159.753 166.619  0.00  0.00    +0.090 C 
ATOM      6  N   UNL     1     149.888 160.788 166.649  0.00  0.00    -0.221 NA
ATOM      7  C   UNL     1     149.708 161.648 165.610  0.00  0.00    +0.155 C 
ATOM      8  N   UNL     1     150.295 161.744 164.452  0.00  0.00    -0.228 N 
ATOM      9  C   UNL     1     151.389 160.990 164.121  0.00  0.00    +0.072 C 
ATOM     10  C   UNL     1     152.480 161.069 164.836  0.00  0.00    -0.100 C 
ATOM     11  C   UNL     1     153.463 161.135 165.696  0.00  0.00    -0.016 C 
ATOM     12  C   UNL     1     153.191 161.480 167.084  0.00  0.00    -0.035 C 
ATOM     13  C   UNL     1     152.327 160.846 167.924  0.00  0.00    +0.034 C 
ATOM     14  C   UNL     1     151.760 161.578 169.174  0.00  0.00    +0.090 C 
ATOM     15 CL   UNL     1     152.937 162.629 170.005  0.00  0.00    -0.111 Cl
ATOM     16  C   UNL     1     150.493 162.346 168.832  0.00  0.00    -0.061 C 
ATOM     17  C   UNL     1     150.397 163.337 167.921  0.00  0.00    -0.064 C 
ATOM     18  C   UNL     1     149.184 163.542 167.134  0.00  0.00    -0.058 C 
ATOM     19  C   UNL     1     148.829 162.768 166.080  0.00  0.00    -0.017 C 
ATOM     20  H   UNL     1     150.382 155.910 167.021  0.00  0.00    +0.000 HD
ATOM     21  H   UNL     1     149.939 162.380 163.791  0.00  0.00    +0.000 HD
ENDROOT
TORSDOF 0
ENDMDL
MODEL 6
REMARK VINA RESULT:    -5.917      2.654      4.365
REMARK INTER + INTRA:          -5.917
REMARK INTER:                  -5.917
REMARK INTRA:                   0.000
REMARK UNBOUND:                 0.000
REMARK  Name = /home/vital/Documents/PhD_2021/Malaria_codes/scripts/../data/pdbqt_ligands/ligand_391_temp.pdb
REMARK                            x       y       z     vdW  Elec       q    Type
REMARK                         _______ _______ _______ _____ _____    ______ ____
ROOT
ATOM      1  O   UNL     1     144.605 149.968 161.676  0.00  0.00    -0.393 OA
ATOM      2  C   UNL     1     145.793 149.427 162.254  0.00  0.00    +0.060 C 
ATOM      3  C   UNL     1     145.710 149.362 163.785  0.00  0.00    +0.041 C 
ATOM      4  N   UNL     1     144.915 148.201 164.235  0.00  0.00    -0.291 N 
ATOM      5  C   UNL     1     143.544 148.194 163.941  0.00  0.00    +0.090 C 
ATOM      6  N   UNL     1     142.828 147.189 164.293  0.00  0.00    -0.221 NA
ATOM      7  C   UNL     1     141.717 147.264 165.074  0.00  0.00    +0.155 C 
ATOM      8  N   UNL     1     141.189 148.250 165.741  0.00  0.00    -0.228 N 
ATOM      9  C   UNL     1     141.813 149.462 165.871  0.00  0.00    +0.072 C 
ATOM     10  C   UNL     1     142.994 149.535 166.427  0.00  0.00    -0.100 C 
ATOM     11  C   UNL     1     144.219 149.467 166.879  0.00  0.00    -0.016 C 
ATOM     12  C   UNL     1     144.994 148.247 166.694  0.00  0.00    -0.035 C 
ATOM     13  C   UNL     1     145.257 147.625 165.512  0.00  0.00    +0.034 C 
ATOM     14  C   UNL     1     145.646 146.120 165.483  0.00  0.00    +0.090 C 
ATOM     15 CL   UNL     1     146.708 145.609 166.821  0.00  0.00    -0.111 Cl
ATOM     16  C   UNL     1     144.411 145.235 165.402  0.00  0.00    -0.061 C 
ATOM     17  C   UNL     1     143.412 145.198 166.309  0.00  0.00    -0.064 C 
ATOM     18  C   UNL     1     142.028 144.945 165.917  0.00  0.00    -0.058 C 
ATOM     19  C   UNL     1     141.231 145.868 165.327  0.00  0.00    -0.017 C 
ATOM     20  H   UNL     1     144.697 149.991 160.711  0.00  0.00    +0.000 HD
ATOM     21  H   UNL     1     140.310 148.121 166.165  0.00  0.00    +0.000 HD
ENDROOT
TORSDOF 0
ENDMDL
MODEL 7
REMARK VINA RESULT:    -5.737     15.584     17.424
REMARK INTER + INTRA:          -5.737
REMARK INTER:                  -5.737
REMARK INTRA:                   0.000
REMARK UNBOUND:                 0.000
REMARK  Name = /home/vital/Documents/PhD_2021/Malaria_codes/scripts/../data/pdbqt_ligands/ligand_391_temp.pdb
REMARK                            x       y       z     vdW  Elec       q    Type
REMARK                         _______ _______ _______ _____ _____    ______ ____
ROOT
ATOM      1  O   UNL     1     152.504 160.300 163.081  0.00  0.00    -0.393 OA
ATOM      2  C   UNL     1     151.272 161.011 163.192  0.00  0.00    +0.060 C 
ATOM      3  C   UNL     1     150.499 160.629 164.461  0.00  0.00    +0.041 C 
ATOM      4  N   UNL     1     151.045 161.311 165.653  0.00  0.00    -0.291 N 
ATOM      5  C   UNL     1     152.337 160.961 166.071  0.00  0.00    +0.090 C 
ATOM      6  N   UNL     1     152.854 161.552 167.086  0.00  0.00    -0.221 NA
ATOM      7  C   UNL     1     153.325 160.920 168.194  0.00  0.00    +0.155 C 
ATOM      8  N   UNL     1     153.270 159.677 168.574  0.00  0.00    -0.228 N 
ATOM      9  C   UNL     1     152.536 158.738 167.899  0.00  0.00    +0.072 C 
ATOM     10  C   UNL     1     151.247 158.895 167.750  0.00  0.00    -0.100 C 
ATOM     11  C   UNL     1     149.996 159.223 167.555  0.00  0.00    -0.016 C 
ATOM     12  C   UNL     1     149.610 160.627 167.531  0.00  0.00    -0.035 C 
ATOM     13  C   UNL     1     150.125 161.596 166.726  0.00  0.00    +0.034 C 
ATOM     14  C   UNL     1     150.004 163.096 167.120  0.00  0.00    +0.090 C 
ATOM     15 CL   UNL     1     148.449 163.534 167.875  0.00  0.00    -0.111 Cl
ATOM     16  C   UNL     1     151.173 163.530 167.991  0.00  0.00    -0.061 C 
ATOM     17  C   UNL     1     151.496 163.001 169.191  0.00  0.00    -0.064 C 
ATOM     18  C   UNL     1     152.883 162.899 169.635  0.00  0.00    -0.058 C 
ATOM     19  C   UNL     1     153.755 161.967 169.179  0.00  0.00    -0.017 C 
ATOM     20  H   UNL     1     152.961 160.569 162.269  0.00  0.00    +0.000 HD
ATOM     21  H   UNL     1     153.773 159.401 169.373  0.00  0.00    +0.000 HD
ENDROOT
TORSDOF 0
ENDMDL
MODEL 8
REMARK VINA RESULT:    -5.692     16.149     17.710
REMARK INTER + INTRA:          -5.692
REMARK INTER:                  -5.692
REMARK INTRA:                   0.000
REMARK UNBOUND:                 0.000
REMARK  Name = /home/vital/Documents/PhD_2021/Malaria_codes/scripts/../data/pdbqt_ligands/ligand_391_temp.pdb
REMARK                            x       y       z     vdW  Elec       q    Type
REMARK                         _______ _______ _______ _____ _____    ______ ____
ROOT
ATOM      1  O   UNL     1     152.555 162.836 170.879  0.00  0.00    -0.393 OA
ATOM      2  C   UNL     1     152.915 161.486 170.591  0.00  0.00    +0.060 C 
ATOM      3  C   UNL     1     151.832 160.763 169.779  0.00  0.00    +0.041 C 
ATOM      4  N   UNL     1     151.895 161.126 168.348  0.00  0.00    -0.291 N 
ATOM      5  C   UNL     1     151.585 162.448 167.996  0.00  0.00    +0.090 C 
ATOM      6  N   UNL     1     151.656 162.807 166.766  0.00  0.00    -0.221 NA
ATOM      7  C   UNL     1     150.632 163.357 166.059  0.00  0.00    +0.155 C 
ATOM      8  N   UNL     1     149.375 163.534 166.347  0.00  0.00    -0.228 N 
ATOM      9  C   UNL     1     148.805 163.020 167.480  0.00  0.00    +0.072 C 
ATOM     10  C   UNL     1     148.815 161.730 167.693  0.00  0.00    -0.100 C 
ATOM     11  C   UNL     1     149.001 160.446 167.858  0.00  0.00    -0.016 C 
ATOM     12  C   UNL     1     150.147 159.794 167.241  0.00  0.00    -0.035 C 
ATOM     13  C   UNL     1     151.456 160.135 167.397  0.00  0.00    +0.034 C 
ATOM     14  C   UNL     1     152.514 159.710 166.339  0.00  0.00    +0.090 C 
ATOM     15 CL   UNL     1     152.267 158.077 165.668  0.00  0.00    -0.111 Cl
ATOM     16  C   UNL     1     152.623 160.743 165.228  0.00  0.00    -0.061 C 
ATOM     17  C   UNL     1     151.619 161.126 164.411  0.00  0.00    -0.064 C 
ATOM     18  C   UNL     1     151.520 162.491 163.903  0.00  0.00    -0.058 C 
ATOM     19  C   UNL     1     151.091 163.542 164.643  0.00  0.00    -0.017 C 
ATOM     20  H   UNL     1     153.263 163.257 171.391  0.00  0.00    +0.000 HD
ATOM     21  H   UNL     1     148.815 164.056 165.728  0.00  0.00    +0.000 HD
ENDROOT
TORSDOF 0
ENDMDL
MODEL 9
REMARK VINA RESULT:    -5.615     14.894     16.212
REMARK INTER + INTRA:          -5.615
REMARK INTER:                  -5.615
REMARK INTRA:                   0.000
REMARK UNBOUND:                 0.000
REMARK  Name = /home/vital/Documents/PhD_2021/Malaria_codes/scripts/../data/pdbqt_ligands/ligand_391_temp.pdb
REMARK                            x       y       z     vdW  Elec       q    Type
REMARK                         _______ _______ _______ _____ _____    ______ ____
ROOT
ATOM      1  O   UNL     1     154.460 162.041 168.708  0.00  0.00    -0.393 OA
ATOM      2  C   UNL     1     154.433 160.681 169.138  0.00  0.00    +0.060 C 
ATOM      3  C   UNL     1     153.041 160.057 168.985  0.00  0.00    +0.041 C 
ATOM      4  N   UNL     1     152.775 159.660 167.587  0.00  0.00    -0.291 N 
ATOM      5  C   UNL     1     152.663 160.679 166.629  0.00  0.00    +0.090 C 
ATOM      6  N   UNL     1     152.461 160.371 165.400  0.00  0.00    -0.221 NA
ATOM      7  C   UNL     1     151.419 160.822 164.650  0.00  0.00    +0.155 C 
ATOM      8  N   UNL     1     150.359 161.510 164.961  0.00  0.00    -0.228 N 
ATOM      9  C   UNL     1     150.034 161.807 166.258  0.00  0.00    +0.072 C 
ATOM     10  C   UNL     1     149.833 160.846 167.121  0.00  0.00    -0.100 C 
ATOM     11  C   UNL     1     149.784 159.810 167.917  0.00  0.00    -0.016 C 
ATOM     12  C   UNL     1     150.549 158.613 167.598  0.00  0.00    -0.035 C 
ATOM     13  C   UNL     1     151.890 158.542 167.376  0.00  0.00    +0.034 C 
ATOM     14  C   UNL     1     152.496 157.352 166.578  0.00  0.00    +0.090 C 
ATOM     15 CL   UNL     1     151.734 155.776 166.918  0.00  0.00    -0.111 Cl
ATOM     16  C   UNL     1     152.504 157.641 165.085  0.00  0.00    -0.061 C 
ATOM     17  C   UNL     1     151.414 157.896 164.329  0.00  0.00    -0.064 C 
ATOM     18  C   UNL     1     151.466 158.808 163.191  0.00  0.00    -0.058 C 
ATOM     19  C   UNL     1     151.492 160.158 163.307  0.00  0.00    -0.017 C 
ATOM     20  H   UNL     1     155.355 162.398 168.819  0.00  0.00    +0.000 HD
ATOM     21  H   UNL     1     149.771 161.829 164.239  0.00  0.00    +0.000 HD
ENDROOT
TORSDOF 0
ENDMDL
