MODEL 1
REMARK VINA RESULT:    -5.437      0.000      0.000
REMARK INTER + INTRA:          -5.437
REMARK INTER:                  -5.437
REMARK INTRA:                   0.000
REMARK UNBOUND:                 0.000
REMARK  Name = /home/vital/Documents/PhD_2021/Malaria_codes/scripts/../data/pdbqt_ligands/ligand_232_temp.pdb
REMARK                            x       y       z     vdW  Elec       q    Type
REMARK                         _______ _______ _______ _____ _____    ______ ____
ROOT
ATOM      1  C1  UNL     1     164.505 152.494 167.234  0.00  0.00    -0.038 C 
ATOM      2  C2  UNL     1     164.453 153.996 167.282  0.00  0.00    -0.030 A 
ATOM      3  C3  UNL     1     165.483 154.733 166.672  0.00  0.00    -0.057 A 
ATOM      4  C4  UNL     1     165.453 156.127 166.661  0.00  0.00    -0.061 A 
ATOM      5  C5  UNL     1     164.387 156.799 167.247  0.00  0.00    -0.060 A 
ATOM      6  C6  UNL     1     163.362 156.075 167.859  0.00  0.00    -0.041 A 
ATOM      7  C7  UNL     1     163.408 154.677 167.933  0.00  0.00    +0.027 A 
ATOM      8  N1  UNL     1     162.302 153.991 168.463  0.00  0.00    -0.358 N 
ATOM      9  H   UNL     1     162.316 153.008 168.523  0.00  0.00    +0.000 HD
ATOM     10  H   UNL     1     161.515 154.493 168.775  0.00  0.00    +0.000 HD
ENDROOT
TORSDOF 0
ENDMDL
MODEL 2
REMARK VINA RESULT:    -4.788     19.138     19.310
REMARK INTER + INTRA:          -4.788
REMARK INTER:                  -4.788
REMARK INTRA:                   0.000
REMARK UNBOUND:                 0.000
REMARK  Name = /home/vital/Documents/PhD_2021/Malaria_codes/scripts/../data/pdbqt_ligands/ligand_232_temp.pdb
REMARK                            x       y       z     vdW  Elec       q    Type
REMARK                         _______ _______ _______ _____ _____    ______ ____
ROOT
ATOM      1  C1  UNL     1     156.151 151.245 148.355  0.00  0.00    -0.038 C 
ATOM      2  C2  UNL     1     156.467 152.247 149.431  0.00  0.00    -0.030 A 
ATOM      3  C3  UNL     1     156.562 151.809 150.763  0.00  0.00    -0.057 A 
ATOM      4  C4  UNL     1     156.891 152.698 151.785  0.00  0.00    -0.061 A 
ATOM      5  C5  UNL     1     157.143 154.032 151.485  0.00  0.00    -0.060 A 
ATOM      6  C6  UNL     1     157.046 154.477 150.165  0.00  0.00    -0.041 A 
ATOM      7  C7  UNL     1     156.657 153.610 149.136  0.00  0.00    +0.027 A 
ATOM      8  N1  UNL     1     156.679 154.079 147.812  0.00  0.00    -0.358 N 
ATOM      9  H   UNL     1     156.409 153.484 147.075  0.00  0.00    +0.000 HD
ATOM     10  H   UNL     1     156.964 155.001 147.622  0.00  0.00    +0.000 HD
ENDROOT
TORSDOF 0
ENDMDL
MODEL 3
REMARK VINA RESULT:    -4.777     17.609     17.944
REMARK INTER + INTRA:          -4.777
REMARK INTER:                  -4.777
REMARK INTRA:                   0.000
REMARK UNBOUND:                 0.000
REMARK  Name = /home/vital/Documents/PhD_2021/Malaria_codes/scripts/../data/pdbqt_ligands/ligand_232_temp.pdb
REMARK                            x       y       z     vdW  Elec       q    Type
REMARK                         _______ _______ _______ _____ _____    ______ ____
ROOT
ATOM      1  C1  UNL     1     153.326 157.191 152.894  0.00  0.00    -0.038 C 
ATOM      2  C2  UNL     1     152.404 157.002 154.066  0.00  0.00    -0.030 A 
ATOM      3  C3  UNL     1     151.762 158.125 154.617  0.00  0.00    -0.057 A 
ATOM      4  C4  UNL     1     150.870 157.988 155.679  0.00  0.00    -0.061 A 
ATOM      5  C5  UNL     1     150.599 156.726 156.194  0.00  0.00    -0.060 A 
ATOM      6  C6  UNL     1     151.236 155.606 155.657  0.00  0.00    -0.041 A 
ATOM      7  C7  UNL     1     152.180 155.732 154.631  0.00  0.00    +0.027 A 
ATOM      8  N1  UNL     1     152.712 154.568 154.053  0.00  0.00    -0.358 N 
ATOM      9  H   UNL     1     153.377 154.637 153.330  0.00  0.00    +0.000 HD
ATOM     10  H   UNL     1     152.419 153.683 154.371  0.00  0.00    +0.000 HD
ENDROOT
TORSDOF 0
ENDMDL
MODEL 4
REMARK VINA RESULT:    -4.759     18.846     19.046
REMARK INTER + INTRA:          -4.759
REMARK INTER:                  -4.759
REMARK INTRA:                   0.000
REMARK UNBOUND:                 0.000
REMARK  Name = /home/vital/Documents/PhD_2021/Malaria_codes/scripts/../data/pdbqt_ligands/ligand_232_temp.pdb
REMARK                            x       y       z     vdW  Elec       q    Type
REMARK                         _______ _______ _______ _____ _____    ______ ____
ROOT
ATOM      1  C1  UNL     1     156.553 154.361 148.029  0.00  0.00    -0.038 C 
ATOM      2  C2  UNL     1     156.701 153.844 149.433  0.00  0.00    -0.030 A 
ATOM      3  C3  UNL     1     156.971 154.755 150.470  0.00  0.00    -0.057 A 
ATOM      4  C4  UNL     1     157.077 154.322 151.791  0.00  0.00    -0.061 A 
ATOM      5  C5  UNL     1     156.900 152.976 152.092  0.00  0.00    -0.060 A 
ATOM      6  C6  UNL     1     156.637 152.064 151.068  0.00  0.00    -0.041 A 
ATOM      7  C7  UNL     1     156.588 152.473 149.729  0.00  0.00    +0.027 A 
ATOM      8  N1  UNL     1     156.214 151.539 148.750  0.00  0.00    -0.358 N 
ATOM      9  H   UNL     1     156.174 151.807 147.803  0.00  0.00    +0.000 HD
ATOM     10  H   UNL     1     155.992 150.616 149.010  0.00  0.00    +0.000 HD
ENDROOT
TORSDOF 0
ENDMDL
MODEL 5
REMARK VINA RESULT:    -4.580     17.690     17.944
REMARK INTER + INTRA:          -4.580
REMARK INTER:                  -4.580
REMARK INTRA:                   0.000
REMARK UNBOUND:                 0.000
REMARK  Name = /home/vital/Documents/PhD_2021/Malaria_codes/scripts/../data/pdbqt_ligands/ligand_232_temp.pdb
REMARK                            x       y       z     vdW  Elec       q    Type
REMARK                         _______ _______ _______ _____ _____    ______ ____
ROOT
ATOM      1  C1  UNL     1     150.970 155.745 155.928  0.00  0.00    -0.038 C 
ATOM      2  C2  UNL     1     151.878 156.299 154.865  0.00  0.00    -0.030 A 
ATOM      3  C3  UNL     1     152.679 155.414 154.123  0.00  0.00    -0.057 A 
ATOM      4  C4  UNL     1     153.505 155.883 153.103  0.00  0.00    -0.061 A 
ATOM      5  C5  UNL     1     153.529 157.240 152.804  0.00  0.00    -0.060 A 
ATOM      6  C6  UNL     1     152.741 158.127 153.538  0.00  0.00    -0.041 A 
ATOM      7  C7  UNL     1     151.952 157.681 154.606  0.00  0.00    +0.027 A 
ATOM      8  N1  UNL     1     151.096 158.594 155.243  0.00  0.00    -0.358 N 
ATOM      9  H   UNL     1     150.534 158.299 155.996  0.00  0.00    +0.000 HD
ATOM     10  H   UNL     1     151.059 159.529 154.938  0.00  0.00    +0.000 HD
ENDROOT
TORSDOF 0
ENDMDL
MODEL 6
REMARK VINA RESULT:    -4.544     19.370     19.551
REMARK INTER + INTRA:          -4.544
REMARK INTER:                  -4.544
REMARK INTRA:                   0.000
REMARK UNBOUND:                 0.000
REMARK  Name = /home/vital/Documents/PhD_2021/Malaria_codes/scripts/../data/pdbqt_ligands/ligand_232_temp.pdb
REMARK                            x       y       z     vdW  Elec       q    Type
REMARK                         _______ _______ _______ _____ _____    ______ ____
ROOT
ATOM      1  C1  UNL     1     157.101 153.741 151.883  0.00  0.00    -0.038 C 
ATOM      2  C2  UNL     1     156.895 153.225 150.487  0.00  0.00    -0.030 A 
ATOM      3  C3  UNL     1     157.922 152.487 149.874  0.00  0.00    -0.057 A 
ATOM      4  C4  UNL     1     157.757 151.958 148.595  0.00  0.00    -0.061 A 
ATOM      5  C5  UNL     1     156.557 152.149 147.920  0.00  0.00    -0.060 A 
ATOM      6  C6  UNL     1     155.533 152.885 148.518  0.00  0.00    -0.041 A 
ATOM      7  C7  UNL     1     155.706 153.475 149.777  0.00  0.00    +0.027 A 
ATOM      8  N1  UNL     1     154.610 154.114 150.381  0.00  0.00    -0.358 N 
ATOM      9  H   UNL     1     154.712 154.534 151.265  0.00  0.00    +0.000 HD
ATOM     10  H   UNL     1     153.741 154.141 149.920  0.00  0.00    +0.000 HD
ENDROOT
TORSDOF 0
ENDMDL
MODEL 7
REMARK VINA RESULT:    -4.480     17.275     17.781
REMARK INTER + INTRA:          -4.480
REMARK INTER:                  -4.480
REMARK INTRA:                   0.000
REMARK UNBOUND:                 0.000
REMARK  Name = /home/vital/Documents/PhD_2021/Malaria_codes/scripts/../data/pdbqt_ligands/ligand_232_temp.pdb
REMARK                            x       y       z     vdW  Elec       q    Type
REMARK                         _______ _______ _______ _____ _____    ______ ____
ROOT
ATOM      1  C1  UNL     1     152.749 157.897 153.479  0.00  0.00    -0.038 C 
ATOM      2  C2  UNL     1     151.994 157.378 154.670  0.00  0.00    -0.030 A 
ATOM      3  C3  UNL     1     151.168 158.260 155.390  0.00  0.00    -0.057 A 
ATOM      4  C4  UNL     1     150.421 157.810 156.478  0.00  0.00    -0.061 A 
ATOM      5  C5  UNL     1     150.479 156.471 156.848  0.00  0.00    -0.060 A 
ATOM      6  C6  UNL     1     151.299 155.590 156.142  0.00  0.00    -0.041 A 
ATOM      7  C7  UNL     1     152.103 156.038 155.086  0.00  0.00    +0.027 A 
ATOM      8  N1  UNL     1     152.827 155.094 154.340  0.00  0.00    -0.358 N 
ATOM      9  H   UNL     1     153.398 155.390 153.594  0.00  0.00    +0.000 HD
ATOM     10  H   UNL     1     152.764 154.138 154.562  0.00  0.00    +0.000 HD
ENDROOT
TORSDOF 0
ENDMDL
MODEL 8
REMARK VINA RESULT:    -4.002     17.198     17.596
REMARK INTER + INTRA:          -4.002
REMARK INTER:                  -4.002
REMARK INTRA:                   0.000
REMARK UNBOUND:                 0.000
REMARK  Name = /home/vital/Documents/PhD_2021/Malaria_codes/scripts/../data/pdbqt_ligands/ligand_232_temp.pdb
REMARK                            x       y       z     vdW  Elec       q    Type
REMARK                         _______ _______ _______ _____ _____    ______ ____
ROOT
ATOM      1  C1  UNL     1     150.274 159.176 158.584  0.00  0.00    -0.038 C 
ATOM      2  C2  UNL     1     150.583 158.141 157.539  0.00  0.00    -0.030 A 
ATOM      3  C3  UNL     1     150.130 156.824 157.729  0.00  0.00    -0.057 A 
ATOM      4  C4  UNL     1     150.362 155.843 156.766  0.00  0.00    -0.061 A 
ATOM      5  C5  UNL     1     151.037 156.171 155.596  0.00  0.00    -0.060 A 
ATOM      6  C6  UNL     1     151.495 157.475 155.401  0.00  0.00    -0.041 A 
ATOM      7  C7  UNL     1     151.324 158.457 156.385  0.00  0.00    +0.027 A 
ATOM      8  N1  UNL     1     151.706 159.778 156.096  0.00  0.00    -0.358 N 
ATOM      9  H   UNL     1     151.594 160.482 156.775  0.00  0.00    +0.000 HD
ATOM     10  H   UNL     1     152.087 159.999 155.216  0.00  0.00    +0.000 HD
ENDROOT
TORSDOF 0
ENDMDL
MODEL 9
REMARK VINA RESULT:    -3.977     16.388     16.883
REMARK INTER + INTRA:          -3.977
REMARK INTER:                  -3.977
REMARK INTRA:                   0.000
REMARK UNBOUND:                 0.000
REMARK  Name = /home/vital/Documents/PhD_2021/Malaria_codes/scripts/../data/pdbqt_ligands/ligand_232_temp.pdb
REMARK                            x       y       z     vdW  Elec       q    Type
REMARK                         _______ _______ _______ _____ _____    ______ ____
ROOT
ATOM      1  C1  UNL     1     152.594 157.338 154.172  0.00  0.00    -0.038 C 
ATOM      2  C2  UNL     1     152.138 157.115 155.587  0.00  0.00    -0.030 A 
ATOM      3  C3  UNL     1     152.197 155.818 156.125  0.00  0.00    -0.057 A 
ATOM      4  C4  UNL     1     151.820 155.575 157.446  0.00  0.00    -0.061 A 
ATOM      5  C5  UNL     1     151.393 156.628 158.246  0.00  0.00    -0.060 A 
ATOM      6  C6  UNL     1     151.325 157.918 157.718  0.00  0.00    -0.041 A 
ATOM      7  C7  UNL     1     151.642 158.169 156.376  0.00  0.00    +0.027 A 
ATOM      8  N1  UNL     1     151.662 159.498 155.923  0.00  0.00    -0.358 N 
ATOM      9  H   UNL     1     151.882 159.694 154.984  0.00  0.00    +0.000 HD
ATOM     10  H   UNL     1     151.455 160.233 156.544  0.00  0.00    +0.000 HD
ENDROOT
TORSDOF 0
ENDMDL
