MODEL 1
REMARK VINA RESULT:    -6.409      0.000      0.000
REMARK INTER + INTRA:          -6.409
REMARK INTER:                  -6.409
REMARK INTRA:                   0.000
REMARK UNBOUND:                 0.000
REMARK  Name = /home/vital/Documents/PhD_2021/Malaria_codes/scripts/../data/pdbqt_ligands/ligand_262_temp.pdb
REMARK                            x       y       z     vdW  Elec       q    Type
REMARK                         _______ _______ _______ _____ _____    ______ ____
ROOT
ATOM      1  C1  UNL     1     153.478 156.499 153.333  0.00  0.00    -0.039 C 
ATOM      2  C2  UNL     1     153.380 156.085 151.902  0.00  0.00    -0.044 C 
ATOM      3  C3  UNL     1     154.292 155.419 151.256  0.00  0.00    -0.116 C 
ATOM      4  C4  UNL     1     155.218 154.749 150.623  0.00  0.00    +0.050 C 
ATOM      5  C5  UNL     1     154.971 154.250 149.240  0.00  0.00    +0.137 C 
ATOM      6 CL1  UNL     1     153.475 154.585 148.421  0.00  0.00    -0.061 Cl
ATOM      7  N1  UNL     1     155.783 153.544 148.538  0.00  0.00    -0.268 NA
ATOM      8  C6  UNL     1     157.088 153.166 149.088  0.00  0.00    +0.056 C 
ATOM      9  C7  UNL     1     157.034 151.713 149.574  0.00  0.00    -0.005 C 
ATOM     10  C8  UNL     1     156.344 151.524 150.915  0.00  0.00    +0.071 C 
ATOM     11  O1  UNL     1     157.108 152.200 151.916  0.00  0.00    -0.299 OA
ATOM     12  N2  UNL     1     156.533 153.476 152.292  0.00  0.00    -0.193 NA
ATOM     13  C9  UNL     1     156.579 154.467 151.202  0.00  0.00    +0.070 C 
ATOM     14  C10 UNL     1     157.601 154.188 150.098  0.00  0.00    -0.008 C 
ATOM     15  H   UNL     1     157.052 153.845 153.089  0.00  0.00    +0.000 HD
ENDROOT
TORSDOF 0
ENDMDL
MODEL 2
REMARK VINA RESULT:    -6.288      7.732      9.597
REMARK INTER + INTRA:          -6.288
REMARK INTER:                  -6.288
REMARK INTRA:                   0.000
REMARK UNBOUND:                 0.000
REMARK  Name = /home/vital/Documents/PhD_2021/Malaria_codes/scripts/../data/pdbqt_ligands/ligand_262_temp.pdb
REMARK                            x       y       z     vdW  Elec       q    Type
REMARK                         _______ _______ _______ _____ _____    ______ ____
ROOT
ATOM      1  C1  UNL     1     151.552 162.473 157.877  0.00  0.00    -0.039 C 
ATOM      2  C2  UNL     1     151.650 161.255 158.734  0.00  0.00    -0.044 C 
ATOM      3  C3  UNL     1     151.391 160.043 158.337  0.00  0.00    -0.116 C 
ATOM      4  C4  UNL     1     151.129 158.833 157.920  0.00  0.00    +0.050 C 
ATOM      5  C5  UNL     1     151.396 157.661 158.802  0.00  0.00    +0.137 C 
ATOM      6 CL1  UNL     1     152.013 157.875 160.413  0.00  0.00    -0.061 Cl
ATOM      7  N1  UNL     1     151.223 156.427 158.488  0.00  0.00    -0.268 NA
ATOM      8  C6  UNL     1     150.715 156.074 157.160  0.00  0.00    +0.056 C 
ATOM      9  C7  UNL     1     151.881 155.617 156.275  0.00  0.00    -0.005 C 
ATOM     10  C8  UNL     1     152.729 156.749 155.718  0.00  0.00    +0.071 C 
ATOM     11  O1  UNL     1     151.916 157.537 154.847  0.00  0.00    -0.299 OA
ATOM     12  N2  UNL     1     151.460 158.767 155.467  0.00  0.00    -0.193 NA
ATOM     13  C9  UNL     1     150.519 158.532 156.576  0.00  0.00    +0.070 C 
ATOM     14  C10 UNL     1     149.826 157.168 156.578  0.00  0.00    -0.008 C 
ATOM     15  H   UNL     1     150.995 159.335 154.760  0.00  0.00    +0.000 HD
ENDROOT
TORSDOF 0
ENDMDL
MODEL 3
REMARK VINA RESULT:    -6.249      4.838      5.980
REMARK INTER + INTRA:          -6.249
REMARK INTER:                  -6.249
REMARK INTRA:                   0.000
REMARK UNBOUND:                 0.000
REMARK  Name = /home/vital/Documents/PhD_2021/Malaria_codes/scripts/../data/pdbqt_ligands/ligand_262_temp.pdb
REMARK                            x       y       z     vdW  Elec       q    Type
REMARK                         _______ _______ _______ _____ _____    ______ ____
ROOT
ATOM      1  C1  UNL     1     150.484 155.538 157.659  0.00  0.00    -0.039 C 
ATOM      2  C2  UNL     1     151.071 156.703 156.935  0.00  0.00    -0.044 C 
ATOM      3  C3  UNL     1     151.673 156.636 155.783  0.00  0.00    -0.116 C 
ATOM      4  C4  UNL     1     152.273 156.551 154.626  0.00  0.00    +0.050 C 
ATOM      5  C5  UNL     1     152.698 157.786 153.907  0.00  0.00    +0.137 C 
ATOM      6 CL1  UNL     1     152.451 159.358 154.606  0.00  0.00    -0.061 Cl
ATOM      7  N1  UNL     1     153.253 157.831 152.749  0.00  0.00    -0.268 NA
ATOM      8  C6  UNL     1     153.523 156.589 152.018  0.00  0.00    +0.056 C 
ATOM      9  C7  UNL     1     152.448 156.387 150.944  0.00  0.00    -0.005 C 
ATOM     10  C8  UNL     1     151.123 155.862 151.471  0.00  0.00    +0.071 C 
ATOM     11  O1  UNL     1     151.335 154.553 152.004  0.00  0.00    -0.299 OA
ATOM     12  N2  UNL     1     151.416 154.545 153.452  0.00  0.00    -0.193 NA
ATOM     13  C9  UNL     1     152.611 155.242 153.961  0.00  0.00    +0.070 C 
ATOM     14  C10 UNL     1     153.754 155.411 152.959  0.00  0.00    -0.008 C 
ATOM     15  H   UNL     1     151.442 153.577 153.772  0.00  0.00    +0.000 HD
ENDROOT
TORSDOF 0
ENDMDL
MODEL 4
REMARK VINA RESULT:    -5.815      9.241     10.746
REMARK INTER + INTRA:          -5.815
REMARK INTER:                  -5.815
REMARK INTRA:                   0.000
REMARK UNBOUND:                 0.000
REMARK  Name = /home/vital/Documents/PhD_2021/Malaria_codes/scripts/../data/pdbqt_ligands/ligand_262_temp.pdb
REMARK                            x       y       z     vdW  Elec       q    Type
REMARK                         _______ _______ _______ _____ _____    ______ ____
ROOT
ATOM      1  C1  UNL     1     151.468 154.534 161.771  0.00  0.00    -0.039 C 
ATOM      2  C2  UNL     1     151.547 154.670 160.287  0.00  0.00    -0.044 C 
ATOM      3  C3  UNL     1     151.259 155.752 159.623  0.00  0.00    -0.116 C 
ATOM      4  C4  UNL     1     150.968 156.846 158.972  0.00  0.00    +0.050 C 
ATOM      5  C5  UNL     1     151.216 156.937 157.505  0.00  0.00    +0.137 C 
ATOM      6 CL1  UNL     1     151.851 155.582 156.620  0.00  0.00    -0.061 Cl
ATOM      7  N1  UNL     1     151.015 157.971 156.769  0.00  0.00    -0.268 NA
ATOM      8  C6  UNL     1     150.488 159.202 157.365  0.00  0.00    +0.056 C 
ATOM      9  C7  UNL     1     151.637 160.195 157.576  0.00  0.00    -0.005 C 
ATOM     10  C8  UNL     1     152.505 159.905 158.790  0.00  0.00    +0.071 C 
ATOM     11  O1  UNL     1     151.702 160.043 159.964  0.00  0.00    -0.299 OA
ATOM     12  N2  UNL     1     151.278 158.767 160.505  0.00  0.00    -0.193 NA
ATOM     13  C9  UNL     1     150.341 158.053 159.620  0.00  0.00    +0.070 C 
ATOM     14  C10 UNL     1     149.619 158.920 158.587  0.00  0.00    -0.008 C 
ATOM     15  H   UNL     1     150.820 158.929 161.402  0.00  0.00    +0.000 HD
ENDROOT
TORSDOF 0
ENDMDL
MODEL 5
REMARK VINA RESULT:    -5.808      8.147     10.028
REMARK INTER + INTRA:          -5.808
REMARK INTER:                  -5.808
REMARK INTRA:                   0.000
REMARK UNBOUND:                 0.000
REMARK  Name = /home/vital/Documents/PhD_2021/Malaria_codes/scripts/../data/pdbqt_ligands/ligand_262_temp.pdb
REMARK                            x       y       z     vdW  Elec       q    Type
REMARK                         _______ _______ _______ _____ _____    ______ ____
ROOT
ATOM      1  C1  UNL     1     151.581 161.492 160.602  0.00  0.00    -0.039 C 
ATOM      2  C2  UNL     1     151.560 160.002 160.674  0.00  0.00    -0.044 C 
ATOM      3  C3  UNL     1     151.254 159.214 159.684  0.00  0.00    -0.116 C 
ATOM      4  C4  UNL     1     150.946 158.438 158.680  0.00  0.00    +0.050 C 
ATOM      5  C5  UNL     1     151.094 156.959 158.800  0.00  0.00    +0.137 C 
ATOM      6 CL1  UNL     1     151.631 156.231 160.284  0.00  0.00    -0.061 Cl
ATOM      7  N1  UNL     1     150.868 156.101 157.870  0.00  0.00    -0.268 NA
ATOM      8  C6  UNL     1     150.416 156.553 156.551  0.00  0.00    +0.056 C 
ATOM      9  C7  UNL     1     151.602 156.549 155.579  0.00  0.00    -0.005 C 
ATOM     10  C8  UNL     1     152.545 157.731 155.730  0.00  0.00    +0.071 C 
ATOM     11  O1  UNL     1     151.829 158.924 155.405  0.00  0.00    -0.299 OA
ATOM     12  N2  UNL     1     151.411 159.665 156.579  0.00  0.00    -0.193 NA
ATOM     13  C9  UNL     1     150.397 158.950 157.374  0.00  0.00    +0.070 C 
ATOM     14  C10 UNL     1     149.627 157.856 156.632  0.00  0.00    -0.008 C 
ATOM     15  H   UNL     1     151.021 160.558 156.280  0.00  0.00    +0.000 HD
ENDROOT
TORSDOF 0
ENDMDL
MODEL 6
REMARK VINA RESULT:    -5.586     17.551     19.169
REMARK INTER + INTRA:          -5.586
REMARK INTER:                  -5.586
REMARK INTRA:                   0.000
REMARK UNBOUND:                 0.000
REMARK  Name = /home/vital/Documents/PhD_2021/Malaria_codes/scripts/../data/pdbqt_ligands/ligand_262_temp.pdb
REMARK                            x       y       z     vdW  Elec       q    Type
REMARK                         _______ _______ _______ _____ _____    ______ ____
ROOT
ATOM      1  C1  UNL     1     141.287 149.809 167.884  0.00  0.00    -0.039 C 
ATOM      2  C2  UNL     1     141.397 149.557 166.418  0.00  0.00    -0.044 C 
ATOM      3  C3  UNL     1     142.514 149.360 165.778  0.00  0.00    -0.116 C 
ATOM      4  C4  UNL     1     143.643 149.163 165.153  0.00  0.00    +0.050 C 
ATOM      5  C5  UNL     1     143.647 148.772 163.714  0.00  0.00    +0.137 C 
ATOM      6 CL1  UNL     1     142.161 148.617 162.825  0.00  0.00    -0.061 Cl
ATOM      7  N1  UNL     1     144.687 148.508 163.007  0.00  0.00    -0.268 NA
ATOM      8  C6  UNL     1     146.021 148.585 163.611  0.00  0.00    +0.056 C 
ATOM      9  C7  UNL     1     146.507 147.171 163.951  0.00  0.00    -0.005 C 
ATOM     10  C8  UNL     1     145.900 146.583 165.214  0.00  0.00    +0.071 C 
ATOM     11  O1  UNL     1     146.320 147.375 166.328  0.00  0.00    -0.299 OA
ATOM     12  N2  UNL     1     145.292 148.291 166.782  0.00  0.00    -0.193 NA
ATOM     13  C9  UNL     1     144.991 149.346 165.799  0.00  0.00    +0.070 C 
ATOM     14  C10 UNL     1     146.076 149.599 164.750  0.00  0.00    -0.008 C 
ATOM     15  H   UNL     1     145.606 148.732 167.647  0.00  0.00    +0.000 HD
ENDROOT
TORSDOF 0
ENDMDL
MODEL 7
REMARK VINA RESULT:    -5.531      9.186     10.898
REMARK INTER + INTRA:          -5.531
REMARK INTER:                  -5.531
REMARK INTRA:                   0.000
REMARK UNBOUND:                 0.000
REMARK  Name = /home/vital/Documents/PhD_2021/Malaria_codes/scripts/../data/pdbqt_ligands/ligand_262_temp.pdb
REMARK                            x       y       z     vdW  Elec       q    Type
REMARK                         _______ _______ _______ _____ _____    ______ ____
ROOT
ATOM      1  C1  UNL     1     151.520 158.260 163.153  0.00  0.00    -0.039 C 
ATOM      2  C2  UNL     1     151.554 157.236 162.068  0.00  0.00    -0.044 C 
ATOM      3  C3  UNL     1     151.206 157.451 160.832  0.00  0.00    -0.116 C 
ATOM      4  C4  UNL     1     150.855 157.684 159.595  0.00  0.00    +0.050 C 
ATOM      5  C5  UNL     1     151.061 156.644 158.547  0.00  0.00    +0.137 C 
ATOM      6 CL1  UNL     1     151.725 155.088 158.948  0.00  0.00    -0.061 Cl
ATOM      7  N1  UNL     1     150.800 156.773 157.296  0.00  0.00    -0.268 NA
ATOM      8  C6  UNL     1     150.241 158.030 156.791  0.00  0.00    +0.056 C 
ATOM      9  C7  UNL     1     151.355 158.853 156.132  0.00  0.00    -0.005 C 
ATOM     10  C8  UNL     1     152.266 159.577 157.110  0.00  0.00    +0.071 C 
ATOM     11  O1  UNL     1     151.489 160.544 157.819  0.00  0.00    -0.299 OA
ATOM     12  N2  UNL     1     151.130 160.105 159.153  0.00  0.00    -0.193 NA
ATOM     13  C9  UNL     1     150.199 158.963 159.147  0.00  0.00    +0.070 C 
ATOM     14  C10 UNL     1     149.416 158.756 157.849  0.00  0.00    -0.008 C 
ATOM     15  H   UNL     1     150.689 160.882 159.645  0.00  0.00    +0.000 HD
ENDROOT
TORSDOF 0
ENDMDL
MODEL 8
REMARK VINA RESULT:    -5.122     17.363     18.696
REMARK INTER + INTRA:          -5.122
REMARK INTER:                  -5.122
REMARK INTRA:                   0.000
REMARK UNBOUND:                 0.000
REMARK  Name = /home/vital/Documents/PhD_2021/Malaria_codes/scripts/../data/pdbqt_ligands/ligand_262_temp.pdb
REMARK                            x       y       z     vdW  Elec       q    Type
REMARK                         _______ _______ _______ _____ _____    ______ ____
ROOT
ATOM      1  C1  UNL     1     153.067 155.445 167.878  0.00  0.00    -0.039 C 
ATOM      2  C2  UNL     1     152.566 156.506 166.957  0.00  0.00    -0.044 C 
ATOM      3  C3  UNL     1     152.494 157.772 167.249  0.00  0.00    -0.116 C 
ATOM      4  C4  UNL     1     152.430 159.040 167.560  0.00  0.00    +0.050 C 
ATOM      5  C5  UNL     1     152.055 160.048 166.527  0.00  0.00    +0.137 C 
ATOM      6 CL1  UNL     1     151.650 159.562 164.907  0.00  0.00    -0.061 Cl
ATOM      7  N1  UNL     1     152.003 161.320 166.700  0.00  0.00    -0.268 NA
ATOM      8  C6  UNL     1     152.325 161.895 168.009  0.00  0.00    +0.056 C 
ATOM      9  C7  UNL     1     153.750 162.459 167.980  0.00  0.00    -0.005 C 
ATOM     10  C8  UNL     1     154.845 161.412 168.101  0.00  0.00    +0.071 C 
ATOM     11  O1  UNL     1     154.739 160.793 169.385  0.00  0.00    -0.299 OA
ATOM     12  N2  UNL     1     154.103 159.492 169.329  0.00  0.00    -0.193 NA
ATOM     13  C9  UNL     1     152.681 159.567 168.948  0.00  0.00    +0.070 C 
ATOM     14  C10 UNL     1     152.014 160.929 169.149  0.00  0.00    -0.008 C 
ATOM     15  H   UNL     1     154.170 159.056 170.248  0.00  0.00    +0.000 HD
ENDROOT
TORSDOF 0
ENDMDL
MODEL 9
REMARK VINA RESULT:    -4.843     17.436     18.959
REMARK INTER + INTRA:          -4.843
REMARK INTER:                  -4.843
REMARK INTRA:                   0.000
REMARK UNBOUND:                 0.000
REMARK  Name = /home/vital/Documents/PhD_2021/Malaria_codes/scripts/../data/pdbqt_ligands/ligand_262_temp.pdb
REMARK                            x       y       z     vdW  Elec       q    Type
REMARK                         _______ _______ _______ _____ _____    ______ ____
ROOT
ATOM      1  C1  UNL     1     152.384 156.560 166.792  0.00  0.00    -0.039 C 
ATOM      2  C2  UNL     1     152.510 157.633 167.822  0.00  0.00    -0.044 C 
ATOM      3  C3  UNL     1     152.271 158.895 167.614  0.00  0.00    -0.116 C 
ATOM      4  C4  UNL     1     152.025 160.159 167.388  0.00  0.00    +0.050 C 
ATOM      5  C5  UNL     1     152.034 161.138 168.512  0.00  0.00    +0.137 C 
ATOM      6 CL1  UNL     1     152.415 160.637 170.133  0.00  0.00    -0.061 Cl
ATOM      7  N1  UNL     1     151.764 162.391 168.422  0.00  0.00    -0.268 NA
ATOM      8  C6  UNL     1     151.414 162.972 167.122  0.00  0.00    +0.056 C 
ATOM      9  C7  UNL     1     149.893 163.149 167.038  0.00  0.00    -0.005 C 
ATOM     10  C8  UNL     1     149.126 161.870 166.743  0.00  0.00    +0.071 C 
ATOM     11  O1  UNL     1     149.498 161.410 165.442  0.00  0.00    -0.299 OA
ATOM     12  N2  UNL     1     150.447 160.315 165.486  0.00  0.00    -0.193 NA
ATOM     13  C9  UNL     1     151.761 160.719 166.015  0.00  0.00    +0.070 C 
ATOM     14  C10 UNL     1     152.061 162.219 165.965  0.00  0.00    -0.008 C 
ATOM     15  H   UNL     1     150.573 159.955 164.540  0.00  0.00    +0.000 HD
ENDROOT
TORSDOF 0
ENDMDL
