MODEL 1
REMARK VINA RESULT:    -5.863      0.000      0.000
REMARK INTER + INTRA:          -5.863
REMARK INTER:                  -5.863
REMARK INTRA:                   0.000
REMARK UNBOUND:                 0.000
REMARK  Name = /home/vital/Documents/PhD_2021/Malaria_codes/scripts/../data/pdbqt_ligands/ligand_298_temp.pdb
REMARK                            x       y       z     vdW  Elec       q    Type
REMARK                         _______ _______ _______ _____ _____    ______ ____
ROOT
ATOM      1  C   UNL     1       3.467   4.952 -12.370  0.00  0.00    -0.040 C 
ATOM      2  C   UNL     1       3.330   3.951 -13.480  0.00  0.00    -0.050 A 
ATOM      3  C   UNL     1       3.926   2.689 -13.376  0.00  0.00    -0.056 A 
ATOM      4  C   UNL     1       3.770   1.754 -14.399  0.00  0.00    -0.026 A 
ATOM      5  C   UNL     1       3.009   2.073 -15.519  0.00  0.00    +0.128 A 
ATOM      6  F   UNL     1       2.883   1.157 -16.491  0.00  0.00    -0.205 F 
ATOM      7  C   UNL     1       2.379   3.314 -15.640  0.00  0.00    +0.002 A 
ATOM      8  C   UNL     1       1.577   3.651 -16.873  0.00  0.00    +0.024 C 
ATOM      9  N   UNL     1       0.266   4.204 -16.526  0.00  0.00    -0.307 N 
ATOM     10  C   UNL     1      -0.559   4.517 -17.708  0.00  0.00    +0.034 C 
ATOM     11  C   UNL     1      -0.028   5.772 -18.429  0.00  0.00    -0.035 C 
ATOM     12  C   UNL     1      -1.073   6.460 -19.315  0.00  0.00    -0.051 C 
ATOM     13  C   UNL     1      -2.169   5.506 -19.765  0.00  0.00    -0.051 C 
ATOM     14  C   UNL     1      -2.923   4.888 -18.582  0.00  0.00    -0.025 C 
ATOM     15  C   UNL     1      -2.053   4.697 -17.330  0.00  0.00    +0.071 C 
ATOM     16  O   UNL     1      -2.218   5.833 -16.474  0.00  0.00    -0.390 OA
ATOM     17  C   UNL     1       2.554   4.252 -14.609  0.00  0.00    -0.052 A 
ATOM     18  H   UNL     1       0.405   5.061 -15.991  0.00  0.00    +0.000 HD
ATOM     19  H   UNL     1      -0.231   3.495 -15.987  0.00  0.00    +0.000 HD
ATOM     20  H   UNL     1      -1.934   6.634 -16.941  0.00  0.00    +0.000 HD
ENDROOT
TORSDOF 0
ENDMDL
MODEL 2
REMARK VINA RESULT:    -5.831     16.950     18.473
REMARK INTER + INTRA:          -5.831
REMARK INTER:                  -5.831
REMARK INTRA:                   0.000
REMARK UNBOUND:                 0.000
REMARK  Name = /home/vital/Documents/PhD_2021/Malaria_codes/scripts/../data/pdbqt_ligands/ligand_298_temp.pdb
REMARK                            x       y       z     vdW  Elec       q    Type
REMARK                         _______ _______ _______ _____ _____    ______ ____
ROOT
ATOM      1  C   UNL     1       1.835  -3.272 -34.357  0.00  0.00    -0.040 C 
ATOM      2  C   UNL     1       3.039  -3.547 -33.504  0.00  0.00    -0.050 A 
ATOM      3  C   UNL     1       3.424  -4.863 -33.223  0.00  0.00    -0.056 A 
ATOM      4  C   UNL     1       4.560  -5.111 -32.452  0.00  0.00    -0.026 A 
ATOM      5  C   UNL     1       5.319  -4.047 -31.975  0.00  0.00    +0.128 A 
ATOM      6  F   UNL     1       6.403  -4.315 -31.231  0.00  0.00    -0.205 F 
ATOM      7  C   UNL     1       4.977  -2.723 -32.262  0.00  0.00    +0.002 A 
ATOM      8  C   UNL     1       5.799  -1.582 -31.716  0.00  0.00    +0.024 C 
ATOM      9  N   UNL     1       6.132  -0.612 -32.762  0.00  0.00    -0.307 N 
ATOM     10  C   UNL     1       6.961   0.503 -32.270  0.00  0.00    +0.034 C 
ATOM     11  C   UNL     1       6.127   1.466 -31.401  0.00  0.00    -0.035 C 
ATOM     12  C   UNL     1       6.731   2.870 -31.286  0.00  0.00    -0.051 C 
ATOM     13  C   UNL     1       8.234   2.876 -31.524  0.00  0.00    -0.051 C 
ATOM     14  C   UNL     1       8.604   2.343 -32.912  0.00  0.00    -0.025 C 
ATOM     15  C   UNL     1       7.637   1.271 -33.437  0.00  0.00    +0.071 C 
ATOM     16  O   UNL     1       6.648   1.902 -34.258  0.00  0.00    -0.390 OA
ATOM     17  C   UNL     1       3.823  -2.485 -33.028  0.00  0.00    -0.052 A 
ATOM     18  H   UNL     1       5.265  -0.229 -33.139  0.00  0.00    +0.000 HD
ATOM     19  H   UNL     1       6.672  -1.103 -33.473  0.00  0.00    +0.000 HD
ATOM     20  H   UNL     1       6.153   2.548 -33.729  0.00  0.00    +0.000 HD
ENDROOT
TORSDOF 0
ENDMDL
MODEL 3
REMARK VINA RESULT:    -5.825     14.630     15.455
REMARK INTER + INTRA:          -5.825
REMARK INTER:                  -5.825
REMARK INTRA:                   0.000
REMARK UNBOUND:                 0.000
REMARK  Name = /home/vital/Documents/PhD_2021/Malaria_codes/scripts/../data/pdbqt_ligands/ligand_298_temp.pdb
REMARK                            x       y       z     vdW  Elec       q    Type
REMARK                         _______ _______ _______ _____ _____    ______ ____
ROOT
ATOM      1  C   UNL     1       9.125  -3.470 -25.022  0.00  0.00    -0.040 C 
ATOM      2  C   UNL     1       7.719  -3.948 -25.238  0.00  0.00    -0.050 A 
ATOM      3  C   UNL     1       6.898  -4.257 -24.147  0.00  0.00    -0.056 A 
ATOM      4  C   UNL     1       5.584  -4.675 -24.355  0.00  0.00    -0.026 A 
ATOM      5  C   UNL     1       5.083  -4.770 -25.650  0.00  0.00    +0.128 A 
ATOM      6  F   UNL     1       3.818  -5.181 -25.821  0.00  0.00    -0.205 F 
ATOM      7  C   UNL     1       5.869  -4.442 -26.758  0.00  0.00    +0.002 A 
ATOM      8  C   UNL     1       5.317  -4.574 -28.156  0.00  0.00    +0.024 C 
ATOM      9  N   UNL     1       5.568  -3.367 -28.948  0.00  0.00    -0.307 N 
ATOM     10  C   UNL     1       5.015  -3.449 -30.313  0.00  0.00    +0.034 C 
ATOM     11  C   UNL     1       5.850  -4.406 -31.187  0.00  0.00    -0.035 C 
ATOM     12  C   UNL     1       5.687  -4.164 -32.692  0.00  0.00    -0.051 C 
ATOM     13  C   UNL     1       4.368  -3.487 -33.030  0.00  0.00    -0.051 C 
ATOM     14  C   UNL     1       4.220  -2.126 -32.341  0.00  0.00    -0.025 C 
ATOM     15  C   UNL     1       4.920  -2.049 -30.975  0.00  0.00    +0.071 C 
ATOM     16  O   UNL     1       6.227  -1.494 -31.157  0.00  0.00    -0.390 OA
ATOM     17  C   UNL     1       7.196  -4.035 -26.537  0.00  0.00    -0.052 A 
ATOM     18  H   UNL     1       6.575  -3.226 -29.015  0.00  0.00    +0.000 HD
ATOM     19  H   UNL     1       5.104  -2.591 -28.477  0.00  0.00    +0.000 HD
ATOM     20  H   UNL     1       6.742  -2.065 -31.749  0.00  0.00    +0.000 HD
ENDROOT
TORSDOF 0
ENDMDL
MODEL 4
REMARK VINA RESULT:    -5.789     13.340     14.873
REMARK INTER + INTRA:          -5.789
REMARK INTER:                  -5.789
REMARK INTRA:                   0.000
REMARK UNBOUND:                 0.000
REMARK  Name = /home/vital/Documents/PhD_2021/Malaria_codes/scripts/../data/pdbqt_ligands/ligand_298_temp.pdb
REMARK                            x       y       z     vdW  Elec       q    Type
REMARK                         _______ _______ _______ _____ _____    ______ ____
ROOT
ATOM      1  C   UNL     1       5.785  -3.954 -29.315  0.00  0.00    -0.040 C 
ATOM      2  C   UNL     1       6.239  -4.119 -27.894  0.00  0.00    -0.050 A 
ATOM      3  C   UNL     1       6.027  -5.325 -27.217  0.00  0.00    -0.056 A 
ATOM      4  C   UNL     1       6.477  -5.481 -25.906  0.00  0.00    -0.026 A 
ATOM      5  C   UNL     1       7.150  -4.439 -25.276  0.00  0.00    +0.128 A 
ATOM      6  F   UNL     1       7.565  -4.613 -24.012  0.00  0.00    -0.205 F 
ATOM      7  C   UNL     1       7.401  -3.233 -25.935  0.00  0.00    +0.002 A 
ATOM      8  C   UNL     1       8.111  -2.105 -25.228  0.00  0.00    +0.024 C 
ATOM      9  N   UNL     1       9.197  -1.558 -26.045  0.00  0.00    -0.307 N 
ATOM     10  C   UNL     1       9.934  -0.472 -25.372  0.00  0.00    +0.034 C 
ATOM     11  C   UNL     1       9.089   0.817 -25.324  0.00  0.00    -0.035 C 
ATOM     12  C   UNL     1       9.921   2.090 -25.134  0.00  0.00    -0.051 C 
ATOM     13  C   UNL     1      11.258   1.814 -24.464  0.00  0.00    -0.051 C 
ATOM     14  C   UNL     1      12.119   0.835 -25.269  0.00  0.00    -0.025 C 
ATOM     15  C   UNL     1      11.301  -0.202 -26.055  0.00  0.00    +0.071 C 
ATOM     16  O   UNL     1      11.106   0.279 -27.389  0.00  0.00    -0.390 OA
ATOM     17  C   UNL     1       6.932  -3.083 -27.251  0.00  0.00    -0.052 A 
ATOM     18  H   UNL     1       8.801  -1.193 -26.910  0.00  0.00    +0.000 HD
ATOM     19  H   UNL     1       9.859  -2.314 -26.218  0.00  0.00    +0.000 HD
ATOM     20  H   UNL     1      10.620   1.117 -27.363  0.00  0.00    +0.000 HD
ENDROOT
TORSDOF 0
ENDMDL
MODEL 5
REMARK VINA RESULT:    -5.571     12.378     13.680
REMARK INTER + INTRA:          -5.571
REMARK INTER:                  -5.571
REMARK INTRA:                   0.000
REMARK UNBOUND:                 0.000
REMARK  Name = /home/vital/Documents/PhD_2021/Malaria_codes/scripts/../data/pdbqt_ligands/ligand_298_temp.pdb
REMARK                            x       y       z     vdW  Elec       q    Type
REMARK                         _______ _______ _______ _____ _____    ______ ____
ROOT
ATOM      1  C   UNL     1       5.679  -2.784 -21.359  0.00  0.00    -0.040 C 
ATOM      2  C   UNL     1       6.225  -3.422 -22.603  0.00  0.00    -0.050 A 
ATOM      3  C   UNL     1       5.707  -4.637 -23.064  0.00  0.00    -0.056 A 
ATOM      4  C   UNL     1       6.200  -5.210 -24.236  0.00  0.00    -0.026 A 
ATOM      5  C   UNL     1       7.201  -4.563 -24.956  0.00  0.00    +0.128 A 
ATOM      6  F   UNL     1       7.662  -5.140 -26.075  0.00  0.00    -0.205 F 
ATOM      7  C   UNL     1       7.720  -3.336 -24.536  0.00  0.00    +0.002 A 
ATOM      8  C   UNL     1       8.821  -2.661 -25.316  0.00  0.00    +0.024 C 
ATOM      9  N   UNL     1       8.517  -1.249 -25.563  0.00  0.00    -0.307 N 
ATOM     10  C   UNL     1       9.559  -0.565 -26.350  0.00  0.00    +0.034 C 
ATOM     11  C   UNL     1      10.820  -0.322 -25.496  0.00  0.00    -0.035 C 
ATOM     12  C   UNL     1      11.717   0.800 -26.031  0.00  0.00    -0.051 C 
ATOM     13  C   UNL     1      11.529   1.032 -27.522  0.00  0.00    -0.051 C 
ATOM     14  C   UNL     1      10.085   1.409 -27.873  0.00  0.00    -0.025 C 
ATOM     15  C   UNL     1       9.040   0.770 -26.946  0.00  0.00    +0.071 C 
ATOM     16  O   UNL     1       8.724   1.695 -25.899  0.00  0.00    -0.390 OA
ATOM     17  C   UNL     1       7.224  -2.775 -23.346  0.00  0.00    -0.052 A 
ATOM     18  H   UNL     1       8.424  -0.775 -24.666  0.00  0.00    +0.000 HD
ATOM     19  H   UNL     1       7.653  -1.214 -26.104  0.00  0.00    +0.000 HD
ATOM     20  H   UNL     1       9.525   1.892 -25.390  0.00  0.00    +0.000 HD
ENDROOT
TORSDOF 0
ENDMDL
MODEL 6
REMARK VINA RESULT:    -5.545     18.523     19.925
REMARK INTER + INTRA:          -5.545
REMARK INTER:                  -5.545
REMARK INTRA:                   0.000
REMARK UNBOUND:                 0.000
REMARK  Name = /home/vital/Documents/PhD_2021/Malaria_codes/scripts/../data/pdbqt_ligands/ligand_298_temp.pdb
REMARK                            x       y       z     vdW  Elec       q    Type
REMARK                         _______ _______ _______ _____ _____    ______ ____
ROOT
ATOM      1  C   UNL     1       5.855  -4.542 -32.529  0.00  0.00    -0.040 C 
ATOM      2  C   UNL     1       4.443  -4.032 -32.527  0.00  0.00    -0.050 A 
ATOM      3  C   UNL     1       4.178  -2.673 -32.734  0.00  0.00    -0.056 A 
ATOM      4  C   UNL     1       2.862  -2.212 -32.759  0.00  0.00    -0.026 A 
ATOM      5  C   UNL     1       1.811  -3.107 -32.592  0.00  0.00    +0.128 A 
ATOM      6  F   UNL     1       0.555  -2.635 -32.613  0.00  0.00    -0.205 F 
ATOM      7  C   UNL     1       2.041  -4.473 -32.412  0.00  0.00    +0.002 A 
ATOM      8  C   UNL     1       0.889  -5.426 -32.208  0.00  0.00    +0.024 C 
ATOM      9  N   UNL     1       1.002  -6.599 -33.079  0.00  0.00    -0.307 N 
ATOM     10  C   UNL     1      -0.124  -7.539 -32.930  0.00  0.00    +0.034 C 
ATOM     11  C   UNL     1      -0.025  -8.305 -31.595  0.00  0.00    -0.035 C 
ATOM     12  C   UNL     1      -0.811  -9.621 -31.583  0.00  0.00    -0.051 C 
ATOM     13  C   UNL     1      -1.950  -9.625 -32.590  0.00  0.00    -0.051 C 
ATOM     14  C   UNL     1      -1.456  -9.414 -34.025  0.00  0.00    -0.025 C 
ATOM     15  C   UNL     1      -0.204  -8.529 -34.121  0.00  0.00    +0.071 C 
ATOM     16  O   UNL     1       0.955  -9.369 -34.150  0.00  0.00    -0.390 OA
ATOM     17  C   UNL     1       3.372  -4.925 -32.375  0.00  0.00    -0.052 A 
ATOM     18  H   UNL     1       1.867  -7.090 -32.853  0.00  0.00    +0.000 HD
ATOM     19  H   UNL     1       0.995  -6.265 -34.043  0.00  0.00    +0.000 HD
ATOM     20  H   UNL     1       0.995  -9.893 -33.335  0.00  0.00    +0.000 HD
ENDROOT
TORSDOF 0
ENDMDL
MODEL 7
REMARK VINA RESULT:    -5.539      9.981     11.703
REMARK INTER + INTRA:          -5.539
REMARK INTER:                  -5.539
REMARK INTRA:                   0.000
REMARK UNBOUND:                 0.000
REMARK  Name = /home/vital/Documents/PhD_2021/Malaria_codes/scripts/../data/pdbqt_ligands/ligand_298_temp.pdb
REMARK                            x       y       z     vdW  Elec       q    Type
REMARK                         _______ _______ _______ _____ _____    ______ ____
ROOT
ATOM      1  C   UNL     1       5.795  -5.316 -26.857  0.00  0.00    -0.040 C 
ATOM      2  C   UNL     1       6.633  -4.569 -25.860  0.00  0.00    -0.050 A 
ATOM      3  C   UNL     1       7.918  -4.130 -26.198  0.00  0.00    -0.056 A 
ATOM      4  C   UNL     1       8.679  -3.414 -25.275  0.00  0.00    -0.026 A 
ATOM      5  C   UNL     1       8.153  -3.122 -24.021  0.00  0.00    +0.128 A 
ATOM      6  F   UNL     1       8.910  -2.437 -23.150  0.00  0.00    -0.205 F 
ATOM      7  C   UNL     1       6.863  -3.522 -23.663  0.00  0.00    +0.002 A 
ATOM      8  C   UNL     1       6.318  -3.218 -22.289  0.00  0.00    +0.024 C 
ATOM      9  N   UNL     1       4.976  -2.633 -22.361  0.00  0.00    -0.307 N 
ATOM     10  C   UNL     1       4.424  -2.294 -21.037  0.00  0.00    +0.034 C 
ATOM     11  C   UNL     1       4.016  -3.569 -20.270  0.00  0.00    -0.035 C 
ATOM     12  C   UNL     1       2.990  -3.315 -19.159  0.00  0.00    -0.051 C 
ATOM     13  C   UNL     1       3.026  -1.881 -18.653  0.00  0.00    -0.051 C 
ATOM     14  C   UNL     1       2.740  -0.866 -19.765  0.00  0.00    -0.025 C 
ATOM     15  C   UNL     1       3.222  -1.320 -21.151  0.00  0.00    +0.071 C 
ATOM     16  O   UNL     1       2.134  -1.948 -21.837  0.00  0.00    -0.390 OA
ATOM     17  C   UNL     1       6.111  -4.255 -24.596  0.00  0.00    -0.052 A 
ATOM     18  H   UNL     1       4.354  -3.303 -22.810  0.00  0.00    +0.000 HD
ATOM     19  H   UNL     1       5.050  -1.766 -22.892  0.00  0.00    +0.000 HD
ATOM     20  H   UNL     1       1.838  -2.722 -21.333  0.00  0.00    +0.000 HD
ENDROOT
TORSDOF 0
ENDMDL
MODEL 8
REMARK VINA RESULT:    -5.522      2.252      6.654
REMARK INTER + INTRA:          -5.522
REMARK INTER:                  -5.522
REMARK INTRA:                   0.000
REMARK UNBOUND:                 0.000
REMARK  Name = /home/vital/Documents/PhD_2021/Malaria_codes/scripts/../data/pdbqt_ligands/ligand_298_temp.pdb
REMARK                            x       y       z     vdW  Elec       q    Type
REMARK                         _______ _______ _______ _____ _____    ______ ____
ROOT
ATOM      1  C   UNL     1      -2.842   3.689 -19.159  0.00  0.00    -0.040 C 
ATOM      2  C   UNL     1      -1.648   4.598 -19.161  0.00  0.00    -0.050 A 
ATOM      3  C   UNL     1      -1.630   5.745 -19.962  0.00  0.00    -0.056 A 
ATOM      4  C   UNL     1      -0.529   6.600 -19.938  0.00  0.00    -0.026 A 
ATOM      5  C   UNL     1       0.548   6.318 -19.103  0.00  0.00    +0.128 A 
ATOM      6  F   UNL     1       1.598   7.153 -19.105  0.00  0.00    -0.205 F 
ATOM      7  C   UNL     1       0.549   5.196 -18.271  0.00  0.00    +0.002 A 
ATOM      8  C   UNL     1       1.736   4.893 -17.391  0.00  0.00    +0.024 C 
ATOM      9  N   UNL     1       1.324   4.602 -16.015  0.00  0.00    -0.307 N 
ATOM     10  C   UNL     1       2.463   4.331 -15.118  0.00  0.00    +0.034 C 
ATOM     11  C   UNL     1       3.074   2.946 -15.412  0.00  0.00    -0.035 C 
ATOM     12  C   UNL     1       3.881   2.371 -14.242  0.00  0.00    -0.051 C 
ATOM     13  C   UNL     1       4.402   3.454 -13.309  0.00  0.00    -0.051 C 
ATOM     14  C   UNL     1       3.271   4.290 -12.702  0.00  0.00    -0.025 C 
ATOM     15  C   UNL     1       2.052   4.440 -13.626  0.00  0.00    +0.071 C 
ATOM     16  O   UNL     1       1.095   3.428 -13.297  0.00  0.00    -0.390 OA
ATOM     17  C   UNL     1      -0.561   4.334 -18.315  0.00  0.00    -0.052 A 
ATOM     18  H   UNL     1       0.716   3.784 -16.024  0.00  0.00    +0.000 HD
ATOM     19  H   UNL     1       0.846   5.429 -15.659  0.00  0.00    +0.000 HD
ATOM     20  H   UNL     1       1.491   2.553 -13.429  0.00  0.00    +0.000 HD
ENDROOT
TORSDOF 0
ENDMDL
MODEL 9
REMARK VINA RESULT:    -5.215     16.405     18.220
REMARK INTER + INTRA:          -5.215
REMARK INTER:                  -5.215
REMARK INTRA:                   0.000
REMARK UNBOUND:                 0.000
REMARK  Name = /home/vital/Documents/PhD_2021/Malaria_codes/scripts/../data/pdbqt_ligands/ligand_298_temp.pdb
REMARK                            x       y       z     vdW  Elec       q    Type
REMARK                         _______ _______ _______ _____ _____    ______ ____
ROOT
ATOM      1  C   UNL     1       1.968  -7.998 -33.332  0.00  0.00    -0.040 C 
ATOM      2  C   UNL     1       2.226  -6.521 -33.385  0.00  0.00    -0.050 A 
ATOM      3  C   UNL     1       1.594  -5.723 -34.346  0.00  0.00    -0.056 A 
ATOM      4  C   UNL     1       1.817  -4.347 -34.370  0.00  0.00    -0.026 A 
ATOM      5  C   UNL     1       2.659  -3.764 -33.428  0.00  0.00    +0.128 A 
ATOM      6  F   UNL     1       2.861  -2.439 -33.480  0.00  0.00    -0.205 F 
ATOM      7  C   UNL     1       3.283  -4.529 -32.440  0.00  0.00    +0.002 A 
ATOM      8  C   UNL     1       4.211  -3.883 -31.441  0.00  0.00    +0.024 C 
ATOM      9  N   UNL     1       3.895  -4.293 -30.071  0.00  0.00    -0.307 N 
ATOM     10  C   UNL     1       4.764  -3.656 -29.064  0.00  0.00    +0.034 C 
ATOM     11  C   UNL     1       6.182  -4.263 -29.102  0.00  0.00    -0.035 C 
ATOM     12  C   UNL     1       6.972  -4.058 -27.804  0.00  0.00    -0.051 C 
ATOM     13  C   UNL     1       6.481  -2.857 -27.009  0.00  0.00    -0.051 C 
ATOM     14  C   UNL     1       5.005  -2.986 -26.617  0.00  0.00    -0.025 C 
ATOM     15  C   UNL     1       4.163  -3.767 -27.638  0.00  0.00    +0.071 C 
ATOM     16  O   UNL     1       4.095  -5.138 -27.230  0.00  0.00    -0.390 OA
ATOM     17  C   UNL     1       3.061  -5.916 -32.433  0.00  0.00    -0.052 A 
ATOM     18  H   UNL     1       4.003  -5.304 -30.000  0.00  0.00    +0.000 HD
ATOM     19  H   UNL     1       2.938  -3.997 -29.878  0.00  0.00    +0.000 HD
ATOM     20  H   UNL     1       4.990  -5.511 -27.201  0.00  0.00    +0.000 HD
ENDROOT
TORSDOF 0
ENDMDL
