MODEL 1
REMARK VINA RESULT:    -4.979      0.000      0.000
REMARK INTER + INTRA:          -4.979
REMARK INTER:                  -4.979
REMARK INTRA:                   0.000
REMARK UNBOUND:                 0.000
REMARK  Name = /home/vital/Documents/PhD_2021/Malaria_codes/scripts/../data/pdbqt_ligands/ligand_58_temp.pdb
REMARK                            x       y       z     vdW  Elec       q    Type
REMARK                         _______ _______ _______ _____ _____    ______ ____
ROOT
ATOM      1  C1  UNL     1      -5.181  -1.229 -21.387  0.00  0.00    -0.063 C 
ATOM      2  C2  UNL     1      -3.741  -0.754 -21.458  0.00  0.00    -0.032 C 
ATOM      3  C3  UNL     1      -2.980  -1.055 -20.174  0.00  0.00    +0.048 C 
ATOM      4  O1  UNL     1      -1.643  -0.578 -20.324  0.00  0.00    -0.376 OA
ATOM      5  C4  UNL     1      -0.861  -0.827 -19.155  0.00  0.00    +0.084 C 
ATOM      6  C5  UNL     1       0.561  -0.277 -19.340  0.00  0.00    +0.121 C 
ATOM      7  C6  UNL     1       0.529   1.248 -19.448  0.00  0.00    -0.026 C 
ATOM      8  O2  UNL     1       1.324  -0.691 -18.189  0.00  0.00    -0.486 OA
ATOM      9  C7  UNL     1       2.674  -0.795 -18.433  0.00  0.00    +0.139 A 
ATOM     10  C8  UNL     1       3.527   0.201 -17.937  0.00  0.00    +0.063 A 
ATOM     11  C9  UNL     1       3.003   1.325 -17.121  0.00  0.00    +0.164 C 
ATOM     12  C10 UNL     1       3.449   2.719 -17.481  0.00  0.00    -0.001 C 
ATOM     13  O3  UNL     1       2.260   1.115 -16.168  0.00  0.00    -0.292 OA
ATOM     14  C11 UNL     1       4.901   0.144 -18.188  0.00  0.00    -0.005 A 
ATOM     15  C12 UNL     1       5.438  -0.918 -18.919  0.00  0.00    +0.129 A 
ATOM     16  O4  UNL     1       6.775  -1.040 -19.218  0.00  0.00    -0.494 OA
ATOM     17  C13 UNL     1       7.663  -0.038 -18.743  0.00  0.00    +0.079 C 
ATOM     18  C14 UNL     1       4.598  -1.965 -19.381  0.00  0.00    +0.027 A 
ATOM     19  C15 UNL     1       5.111  -3.074 -20.092  0.00  0.00    -0.050 A 
ATOM     20  C16 UNL     1       4.293  -4.122 -20.514  0.00  0.00    -0.061 A 
ATOM     21  C17 UNL     1       2.937  -4.092 -20.228  0.00  0.00    -0.061 A 
ATOM     22  C18 UNL     1       2.402  -3.006 -19.534  0.00  0.00    -0.050 A 
ATOM     23  C19 UNL     1       3.203  -1.918 -19.117  0.00  0.00    +0.028 A 
ENDROOT
TORSDOF 0
ENDMDL
MODEL 2
REMARK VINA RESULT:    -4.820      6.947     10.045
REMARK INTER + INTRA:          -4.820
REMARK INTER:                  -4.820
REMARK INTRA:                   0.000
REMARK UNBOUND:                 0.000
REMARK  Name = /home/vital/Documents/PhD_2021/Malaria_codes/scripts/../data/pdbqt_ligands/ligand_58_temp.pdb
REMARK                            x       y       z     vdW  Elec       q    Type
REMARK                         _______ _______ _______ _____ _____    ______ ____
ROOT
ATOM      1  C1  UNL     1       1.464  10.555 -27.332  0.00  0.00    -0.063 C 
ATOM      2  C2  UNL     1       0.892  10.128 -25.992  0.00  0.00    -0.032 C 
ATOM      3  C3  UNL     1       1.807   9.145 -25.274  0.00  0.00    +0.048 C 
ATOM      4  O1  UNL     1       1.199   8.796 -24.030  0.00  0.00    -0.376 OA
ATOM      5  C4  UNL     1       2.002   7.874 -23.292  0.00  0.00    +0.084 C 
ATOM      6  C5  UNL     1       1.306   7.499 -21.975  0.00  0.00    +0.121 C 
ATOM      7  C6  UNL     1       0.017   6.726 -22.257  0.00  0.00    -0.026 C 
ATOM      8  O2  UNL     1       2.234   6.689 -21.226  0.00  0.00    -0.486 OA
ATOM      9  C7  UNL     1       2.038   6.743 -19.866  0.00  0.00    +0.139 A 
ATOM     10  C8  UNL     1       1.438   5.649 -19.227  0.00  0.00    +0.063 A 
ATOM     11  C9  UNL     1       1.061   4.429 -19.984  0.00  0.00    +0.164 C 
ATOM     12  C10 UNL     1      -0.318   3.863 -19.758  0.00  0.00    -0.001 C 
ATOM     13  O3  UNL     1       1.862   3.887 -20.739  0.00  0.00    -0.292 OA
ATOM     14  C11 UNL     1       1.198   5.679 -17.850  0.00  0.00    -0.005 A 
ATOM     15  C12 UNL     1       1.573   6.794 -17.096  0.00  0.00    +0.129 A 
ATOM     16  O4  UNL     1       1.361   6.905 -15.742  0.00  0.00    -0.494 OA
ATOM     17  C13 UNL     1       0.739   5.819 -15.068  0.00  0.00    +0.079 C 
ATOM     18  C14 UNL     1       2.232   7.887 -17.716  0.00  0.00    +0.027 A 
ATOM     19  C15 UNL     1       2.660   9.016 -16.979  0.00  0.00    -0.050 A 
ATOM     20  C16 UNL     1       3.341  10.074 -17.579  0.00  0.00    -0.061 A 
ATOM     21  C17 UNL     1       3.621  10.027 -18.936  0.00  0.00    -0.061 A 
ATOM     22  C18 UNL     1       3.205   8.930 -19.689  0.00  0.00    -0.050 A 
ATOM     23  C19 UNL     1       2.490   7.855 -19.112  0.00  0.00    +0.028 A 
ENDROOT
TORSDOF 0
ENDMDL
MODEL 3
REMARK VINA RESULT:    -4.795      7.547      9.305
REMARK INTER + INTRA:          -4.795
REMARK INTER:                  -4.795
REMARK INTRA:                   0.000
REMARK UNBOUND:                 0.000
REMARK  Name = /home/vital/Documents/PhD_2021/Malaria_codes/scripts/../data/pdbqt_ligands/ligand_58_temp.pdb
REMARK                            x       y       z     vdW  Elec       q    Type
REMARK                         _______ _______ _______ _____ _____    ______ ____
ROOT
ATOM      1  C1  UNL     1       3.031   9.070 -25.445  0.00  0.00    -0.063 C 
ATOM      2  C2  UNL     1       3.152   8.114 -24.273  0.00  0.00    -0.032 C 
ATOM      3  C3  UNL     1       2.838   8.797 -22.948  0.00  0.00    +0.048 C 
ATOM      4  O1  UNL     1       2.975   7.833 -21.904  0.00  0.00    -0.376 OA
ATOM      5  C4  UNL     1       2.693   8.400 -20.624  0.00  0.00    +0.084 C 
ATOM      6  C5  UNL     1       2.877   7.344 -19.523  0.00  0.00    +0.121 C 
ATOM      7  C6  UNL     1       4.345   6.926 -19.430  0.00  0.00    -0.026 C 
ATOM      8  O2  UNL     1       2.438   7.945 -18.289  0.00  0.00    -0.486 OA
ATOM      9  C7  UNL     1       1.999   7.032 -17.358  0.00  0.00    +0.139 A 
ATOM     10  C8  UNL     1       2.825   6.734 -16.265  0.00  0.00    +0.063 A 
ATOM     11  C9  UNL     1       4.128   7.421 -16.076  0.00  0.00    +0.164 C 
ATOM     12  C10 UNL     1       5.330   6.567 -15.761  0.00  0.00    -0.001 C 
ATOM     13  O3  UNL     1       4.208   8.644 -16.143  0.00  0.00    -0.292 OA
ATOM     14  C11 UNL     1       2.426   5.791 -15.313  0.00  0.00    -0.005 A 
ATOM     15  C12 UNL     1       1.190   5.151 -15.435  0.00  0.00    +0.129 A 
ATOM     16  O4  UNL     1       0.730   4.204 -14.549  0.00  0.00    -0.494 OA
ATOM     17  C13 UNL     1       1.552   3.869 -13.439  0.00  0.00    +0.079 C 
ATOM     18  C14 UNL     1       0.316   5.480 -16.504  0.00  0.00    +0.027 A 
ATOM     19  C15 UNL     1      -0.957   4.881 -16.639  0.00  0.00    -0.050 A 
ATOM     20  C16 UNL     1      -1.832   5.230 -17.667  0.00  0.00    -0.061 A 
ATOM     21  C17 UNL     1      -1.458   6.198 -18.586  0.00  0.00    -0.061 A 
ATOM     22  C18 UNL     1      -0.205   6.801 -18.482  0.00  0.00    -0.050 A 
ATOM     23  C19 UNL     1       0.713   6.448 -17.465  0.00  0.00    +0.028 A 
ENDROOT
TORSDOF 0
ENDMDL
MODEL 4
REMARK VINA RESULT:    -4.727      9.927     13.358
REMARK INTER + INTRA:          -4.727
REMARK INTER:                  -4.727
REMARK INTRA:                   0.000
REMARK UNBOUND:                 0.000
REMARK  Name = /home/vital/Documents/PhD_2021/Malaria_codes/scripts/../data/pdbqt_ligands/ligand_58_temp.pdb
REMARK                            x       y       z     vdW  Elec       q    Type
REMARK                         _______ _______ _______ _____ _____    ______ ____
ROOT
ATOM      1  C1  UNL     1       6.889  -5.266 -26.259  0.00  0.00    -0.063 C 
ATOM      2  C2  UNL     1       5.522  -5.927 -26.262  0.00  0.00    -0.032 C 
ATOM      3  C3  UNL     1       4.535  -5.183 -27.152  0.00  0.00    +0.048 C 
ATOM      4  O1  UNL     1       3.283  -5.866 -27.098  0.00  0.00    -0.376 OA
ATOM      5  C4  UNL     1       2.299  -5.227 -27.913  0.00  0.00    +0.084 C 
ATOM      6  C5  UNL     1       0.959  -5.970 -27.810  0.00  0.00    +0.121 C 
ATOM      7  C6  UNL     1       0.397  -5.857 -26.392  0.00  0.00    -0.026 C 
ATOM      8  O2  UNL     1       0.066  -5.359 -28.763  0.00  0.00    -0.486 OA
ATOM      9  C7  UNL     1      -0.923  -6.205 -29.210  0.00  0.00    +0.139 A 
ATOM     10  C8  UNL     1      -2.227  -6.032 -28.725  0.00  0.00    +0.063 A 
ATOM     11  C9  UNL     1      -2.558  -4.931 -27.786  0.00  0.00    +0.164 C 
ATOM     12  C10 UNL     1      -3.369  -5.275 -26.563  0.00  0.00    -0.001 C 
ATOM     13  O3  UNL     1      -2.209  -3.778 -28.022  0.00  0.00    -0.292 OA
ATOM     14  C11 UNL     1      -3.253  -6.889 -29.136  0.00  0.00    -0.005 A 
ATOM     15  C12 UNL     1      -2.989  -7.912 -30.049  0.00  0.00    +0.129 A 
ATOM     16  O4  UNL     1      -3.940  -8.803 -30.492  0.00  0.00    -0.494 OA
ATOM     17  C13 UNL     1      -5.268  -8.664 -30.006  0.00  0.00    +0.079 C 
ATOM     18  C14 UNL     1      -1.688  -8.068 -30.593  0.00  0.00    +0.027 A 
ATOM     19  C15 UNL     1      -1.392  -9.069 -31.546  0.00  0.00    -0.050 A 
ATOM     20  C16 UNL     1      -0.124  -9.200 -32.110  0.00  0.00    -0.061 A 
ATOM     21  C17 UNL     1       0.885  -8.324 -31.740  0.00  0.00    -0.061 A 
ATOM     22  C18 UNL     1       0.624  -7.331 -30.796  0.00  0.00    -0.050 A 
ATOM     23  C19 UNL     1      -0.646  -7.192 -30.188  0.00  0.00    +0.028 A 
ENDROOT
TORSDOF 0
ENDMDL
MODEL 5
REMARK VINA RESULT:    -4.716      7.594     11.442
REMARK INTER + INTRA:          -4.716
REMARK INTER:                  -4.716
REMARK INTRA:                   0.000
REMARK UNBOUND:                 0.000
REMARK  Name = /home/vital/Documents/PhD_2021/Malaria_codes/scripts/../data/pdbqt_ligands/ligand_58_temp.pdb
REMARK                            x       y       z     vdW  Elec       q    Type
REMARK                         _______ _______ _______ _____ _____    ______ ____
ROOT
ATOM      1  C1  UNL     1       9.618   9.435 -13.291  0.00  0.00    -0.063 C 
ATOM      2  C2  UNL     1       8.807   8.628 -14.289  0.00  0.00    -0.032 C 
ATOM      3  C3  UNL     1       7.371   9.126 -14.388  0.00  0.00    +0.048 C 
ATOM      4  O1  UNL     1       6.683   8.317 -15.342  0.00  0.00    -0.376 OA
ATOM      5  C4  UNL     1       5.322   8.726 -15.493  0.00  0.00    +0.084 C 
ATOM      6  C5  UNL     1       4.605   7.818 -16.504  0.00  0.00    +0.121 C 
ATOM      7  C6  UNL     1       4.507   6.392 -15.961  0.00  0.00    -0.026 C 
ATOM      8  O2  UNL     1       3.292   8.377 -16.711  0.00  0.00    -0.486 OA
ATOM      9  C7  UNL     1       2.751   8.070 -17.938  0.00  0.00    +0.139 A 
ATOM     10  C8  UNL     1       1.735   7.105 -18.003  0.00  0.00    +0.063 A 
ATOM     11  C9  UNL     1       1.210   6.458 -16.775  0.00  0.00    +0.164 C 
ATOM     12  C10 UNL     1       1.069   4.957 -16.781  0.00  0.00    -0.001 C 
ATOM     13  O3  UNL     1       0.873   7.131 -15.806  0.00  0.00    -0.292 OA
ATOM     14  C11 UNL     1       1.179   6.746 -19.235  0.00  0.00    -0.005 A 
ATOM     15  C12 UNL     1       1.620   7.361 -20.409  0.00  0.00    +0.129 A 
ATOM     16  O4  UNL     1       1.133   7.055 -21.659  0.00  0.00    -0.494 OA
ATOM     17  C13 UNL     1       0.114   6.070 -21.760  0.00  0.00    +0.079 C 
ATOM     18  C14 UNL     1       2.607   8.379 -20.357  0.00  0.00    +0.027 A 
ATOM     19  C15 UNL     1       3.051   9.049 -21.520  0.00  0.00    -0.050 A 
ATOM     20  C16 UNL     1       3.993  10.075 -21.467  0.00  0.00    -0.061 A 
ATOM     21  C17 UNL     1       4.514  10.465 -20.242  0.00  0.00    -0.061 A 
ATOM     22  C18 UNL     1       4.100   9.817 -19.079  0.00  0.00    -0.050 A 
ATOM     23  C19 UNL     1       3.165   8.756 -19.106  0.00  0.00    +0.028 A 
ENDROOT
TORSDOF 0
ENDMDL
MODEL 6
REMARK VINA RESULT:    -4.664      3.132      8.740
REMARK INTER + INTRA:          -4.664
REMARK INTER:                  -4.664
REMARK INTRA:                   0.000
REMARK UNBOUND:                 0.000
REMARK  Name = /home/vital/Documents/PhD_2021/Malaria_codes/scripts/../data/pdbqt_ligands/ligand_58_temp.pdb
REMARK                            x       y       z     vdW  Elec       q    Type
REMARK                         _______ _______ _______ _____ _____    ______ ____
ROOT
ATOM      1  C1  UNL     1       3.994   0.769 -17.345  0.00  0.00    -0.063 C 
ATOM      2  C2  UNL     1       3.195   0.429 -18.590  0.00  0.00    -0.032 C 
ATOM      3  C3  UNL     1       2.263  -0.754 -18.359  0.00  0.00    +0.048 C 
ATOM      4  O1  UNL     1       1.553  -1.007 -19.571  0.00  0.00    -0.376 OA
ATOM      5  C4  UNL     1       0.651  -2.106 -19.434  0.00  0.00    +0.084 C 
ATOM      6  C5  UNL     1      -0.074  -2.368 -20.763  0.00  0.00    +0.121 C 
ATOM      7  C6  UNL     1       0.921  -2.833 -21.827  0.00  0.00    -0.026 C 
ATOM      8  O2  UNL     1      -1.062  -3.386 -20.508  0.00  0.00    -0.486 OA
ATOM      9  C7  UNL     1      -2.135  -3.338 -21.367  0.00  0.00    +0.139 A 
ATOM     10  C8  UNL     1      -2.226  -4.298 -22.385  0.00  0.00    +0.063 A 
ATOM     11  C9  UNL     1      -1.218  -5.381 -22.513  0.00  0.00    +0.164 C 
ATOM     12  C10 UNL     1      -0.643  -5.642 -23.882  0.00  0.00    -0.001 C 
ATOM     13  O3  UNL     1      -0.896  -6.056 -21.541  0.00  0.00    -0.292 OA
ATOM     14  C11 UNL     1      -3.288  -4.266 -23.294  0.00  0.00    -0.005 A 
ATOM     15  C12 UNL     1      -4.278  -3.286 -23.183  0.00  0.00    +0.129 A 
ATOM     16  O4  UNL     1      -5.345  -3.180 -24.043  0.00  0.00    -0.494 OA
ATOM     17  C13 UNL     1      -5.457  -4.128 -25.095  0.00  0.00    +0.079 C 
ATOM     18  C14 UNL     1      -4.232  -2.340 -22.126  0.00  0.00    +0.027 A 
ATOM     19  C15 UNL     1      -5.235  -1.358 -21.960  0.00  0.00    -0.050 A 
ATOM     20  C16 UNL     1      -5.212  -0.452 -20.900  0.00  0.00    -0.061 A 
ATOM     21  C17 UNL     1      -4.186  -0.510 -19.971  0.00  0.00    -0.061 A 
ATOM     22  C18 UNL     1      -3.179  -1.464 -20.113  0.00  0.00    -0.050 A 
ATOM     23  C19 UNL     1      -3.162  -2.379 -21.192  0.00  0.00    +0.028 A 
ENDROOT
TORSDOF 0
ENDMDL
MODEL 7
REMARK VINA RESULT:    -4.588      5.331      7.720
REMARK INTER + INTRA:          -4.588
REMARK INTER:                  -4.588
REMARK INTRA:                   0.000
REMARK UNBOUND:                 0.000
REMARK  Name = /home/vital/Documents/PhD_2021/Malaria_codes/scripts/../data/pdbqt_ligands/ligand_58_temp.pdb
REMARK                            x       y       z     vdW  Elec       q    Type
REMARK                         _______ _______ _______ _____ _____    ______ ____
ROOT
ATOM      1  C1  UNL     1      -3.205  -1.883 -19.814  0.00  0.00    -0.063 C 
ATOM      2  C2  UNL     1      -2.039  -0.910 -19.834  0.00  0.00    -0.032 C 
ATOM      3  C3  UNL     1      -2.510   0.538 -19.889  0.00  0.00    +0.048 C 
ATOM      4  O1  UNL     1      -1.359   1.382 -19.906  0.00  0.00    -0.376 OA
ATOM      5  C4  UNL     1      -1.719   2.763 -19.954  0.00  0.00    +0.084 C 
ATOM      6  C5  UNL     1      -0.459   3.640 -19.999  0.00  0.00    +0.121 C 
ATOM      7  C6  UNL     1       0.303   3.407 -21.305  0.00  0.00    -0.026 C 
ATOM      8  O2  UNL     1      -0.897   5.009 -19.901  0.00  0.00    -0.486 OA
ATOM      9  C7  UNL     1       0.049   5.852 -19.365  0.00  0.00    +0.139 A 
ATOM     10  C8  UNL     1       0.737   6.724 -20.221  0.00  0.00    +0.063 A 
ATOM     11  C9  UNL     1       0.424   6.782 -21.671  0.00  0.00    +0.164 C 
ATOM     12  C10 UNL     1       1.581   6.746 -22.638  0.00  0.00    -0.001 C 
ATOM     13  O3  UNL     1      -0.735   6.890 -22.060  0.00  0.00    -0.292 OA
ATOM     14  C11 UNL     1       1.725   7.576 -19.718  0.00  0.00    -0.005 A 
ATOM     15  C12 UNL     1       2.020   7.579 -18.353  0.00  0.00    +0.129 A 
ATOM     16  O4  UNL     1       2.985   8.377 -17.782  0.00  0.00    -0.494 OA
ATOM     17  C13 UNL     1       3.710   9.260 -18.627  0.00  0.00    +0.079 C 
ATOM     18  C14 UNL     1       1.296   6.743 -17.462  0.00  0.00    +0.027 A 
ATOM     19  C15 UNL     1       1.542   6.746 -16.070  0.00  0.00    -0.050 A 
ATOM     20  C16 UNL     1       0.807   5.954 -15.190  0.00  0.00    -0.061 A 
ATOM     21  C17 UNL     1      -0.204   5.142 -15.679  0.00  0.00    -0.061 A 
ATOM     22  C18 UNL     1      -0.465   5.113 -17.049  0.00  0.00    -0.050 A 
ATOM     23  C19 UNL     1       0.283   5.886 -17.968  0.00  0.00    +0.028 A 
ENDROOT
TORSDOF 0
ENDMDL
MODEL 8
REMARK VINA RESULT:    -4.372     13.007     14.705
REMARK INTER + INTRA:          -4.372
REMARK INTER:                  -4.372
REMARK INTRA:                   0.000
REMARK UNBOUND:                 0.000
REMARK  Name = /home/vital/Documents/PhD_2021/Malaria_codes/scripts/../data/pdbqt_ligands/ligand_58_temp.pdb
REMARK                            x       y       z     vdW  Elec       q    Type
REMARK                         _______ _______ _______ _____ _____    ______ ____
ROOT
ATOM      1  C1  UNL     1       1.170   6.368 -33.207  0.00  0.00    -0.063 C 
ATOM      2  C2  UNL     1       1.853   5.019 -33.340  0.00  0.00    -0.032 C 
ATOM      3  C3  UNL     1       1.059   3.911 -32.659  0.00  0.00    +0.048 C 
ATOM      4  O1  UNL     1       1.767   2.684 -32.830  0.00  0.00    -0.376 OA
ATOM      5  C4  UNL     1       1.081   1.591 -32.218  0.00  0.00    +0.084 C 
ATOM      6  C5  UNL     1       1.884   0.293 -32.396  0.00  0.00    +0.121 C 
ATOM      7  C6  UNL     1       3.205   0.378 -31.632  0.00  0.00    -0.026 C 
ATOM      8  O2  UNL     1       1.066  -0.779 -31.886  0.00  0.00    -0.486 OA
ATOM      9  C7  UNL     1       1.342  -2.000 -32.456  0.00  0.00    +0.139 A 
ATOM     10  C8  UNL     1       2.059  -2.946 -31.709  0.00  0.00    +0.063 A 
ATOM     11  C9  UNL     1       2.475  -2.666 -30.312  0.00  0.00    +0.164 C 
ATOM     12  C10 UNL     1       3.903  -2.967 -29.934  0.00  0.00    -0.001 C 
ATOM     13  O3  UNL     1       1.670  -2.237 -29.491  0.00  0.00    -0.292 OA
ATOM     14  C11 UNL     1       2.382  -4.187 -32.265  0.00  0.00    -0.005 A 
ATOM     15  C12 UNL     1       1.974  -4.503 -33.563  0.00  0.00    +0.129 A 
ATOM     16  O4  UNL     1       2.261  -5.696 -34.184  0.00  0.00    -0.494 OA
ATOM     17  C13 UNL     1       3.001  -6.669 -33.459  0.00  0.00    +0.079 C 
ATOM     18  C14 UNL     1       1.199  -3.580 -34.313  0.00  0.00    +0.027 A 
ATOM     19  C15 UNL     1       0.738  -3.880 -35.616  0.00  0.00    -0.050 A 
ATOM     20  C16 UNL     1      -0.055  -2.990 -36.340  0.00  0.00    -0.061 A 
ATOM     21  C17 UNL     1      -0.415  -1.776 -35.775  0.00  0.00    -0.061 A 
ATOM     22  C18 UNL     1       0.031  -1.451 -34.495  0.00  0.00    -0.050 A 
ATOM     23  C19 UNL     1       0.858  -2.323 -33.748  0.00  0.00    +0.028 A 
ENDROOT
TORSDOF 0
ENDMDL
MODEL 9
REMARK VINA RESULT:    -4.111     15.546     17.977
REMARK INTER + INTRA:          -4.111
REMARK INTER:                  -4.111
REMARK INTRA:                   0.000
REMARK UNBOUND:                 0.000
REMARK  Name = /home/vital/Documents/PhD_2021/Malaria_codes/scripts/../data/pdbqt_ligands/ligand_58_temp.pdb
REMARK                            x       y       z     vdW  Elec       q    Type
REMARK                         _______ _______ _______ _____ _____    ______ ____
ROOT
ATOM      1  C1  UNL     1       7.213   2.338 -33.930  0.00  0.00    -0.063 C 
ATOM      2  C2  UNL     1       5.798   2.715 -34.329  0.00  0.00    -0.032 C 
ATOM      3  C3  UNL     1       5.202   3.756 -33.391  0.00  0.00    +0.048 C 
ATOM      4  O1  UNL     1       3.878   4.051 -33.835  0.00  0.00    -0.376 OA
ATOM      5  C4  UNL     1       3.249   5.027 -33.003  0.00  0.00    +0.084 C 
ATOM      6  C5  UNL     1       1.818   5.300 -33.492  0.00  0.00    +0.121 C 
ATOM      7  C6  UNL     1       0.952   4.052 -33.321  0.00  0.00    -0.026 C 
ATOM      8  O2  UNL     1       1.305   6.390 -32.701  0.00  0.00    -0.486 OA
ATOM      9  C7  UNL     1       0.329   7.120 -33.338  0.00  0.00    +0.139 A 
ATOM     10  C8  UNL     1      -1.006   6.948 -32.944  0.00  0.00    +0.063 A 
ATOM     11  C9  UNL     1      -1.366   6.036 -31.829  0.00  0.00    +0.164 C 
ATOM     12  C10 UNL     1      -2.500   5.069 -32.055  0.00  0.00    -0.001 C 
ATOM     13  O3  UNL     1      -0.779   6.097 -30.753  0.00  0.00    -0.292 OA
ATOM     14  C11 UNL     1      -2.029   7.652 -33.586  0.00  0.00    -0.005 A 
ATOM     15  C12 UNL     1      -1.726   8.548 -34.613  0.00  0.00    +0.129 A 
ATOM     16  O4  UNL     1      -2.675   9.269 -35.301  0.00  0.00    -0.494 OA
ATOM     17  C13 UNL     1      -4.038   9.103 -34.937  0.00  0.00    +0.079 C 
ATOM     18  C14 UNL     1      -0.377   8.778 -34.988  0.00  0.00    +0.027 A 
ATOM     19  C15 UNL     1      -0.030   9.705 -35.997  0.00  0.00    -0.050 A 
ATOM     20  C16 UNL     1       1.297   9.959 -36.341  0.00  0.00    -0.061 A 
ATOM     21  C17 UNL     1       2.317   9.297 -35.675  0.00  0.00    -0.061 A 
ATOM     22  C18 UNL     1       2.004   8.372 -34.680  0.00  0.00    -0.050 A 
ATOM     23  C19 UNL     1       0.667   8.075 -34.329  0.00  0.00    +0.028 A 
ENDROOT
TORSDOF 0
ENDMDL
