MODEL 1
REMARK VINA RESULT:    -4.183      0.000      0.000
REMARK INTER + INTRA:          -4.183
REMARK INTER:                  -4.183
REMARK INTRA:                   0.000
REMARK UNBOUND:                 0.000
REMARK  Name = /home/vital/Documents/PhD_2021/Malaria_codes/scripts/../data/pdbqt_ligands/ligand_370_temp.pdb
REMARK                            x       y       z     vdW  Elec       q    Type
REMARK                         _______ _______ _______ _____ _____    ______ ____
ROOT
ATOM      1  C   UNL     1       3.181  -3.254 -19.429  0.00  0.00    -0.045 C 
ATOM      2  C   UNL     1       3.778  -4.544 -19.887  0.00  0.00    -0.069 C 
ATOM      3  C   UNL     1       4.861  -4.670 -20.665  0.00  0.00    +0.025 C 
ATOM      4  N   UNL     1       5.590  -3.611 -21.125  0.00  0.00    -0.245 N 
ATOM      5  C   UNL     1       5.857  -3.525 -22.393  0.00  0.00    +0.097 C 
ATOM      6  C   UNL     1       6.677  -2.305 -22.792  0.00  0.00    +0.020 C 
ATOM      7  C   UNL     1       7.407  -2.275 -24.131  0.00  0.00    +0.055 C 
ATOM      8 CL   UNL     1       8.939  -3.211 -24.066  0.00  0.00    -0.120 Cl
ATOM      9  C   UNL     1       6.544  -2.550 -25.390  0.00  0.00    +0.071 C 
ATOM     10  C   UNL     1       5.017  -2.137 -25.401  0.00  0.00    +0.064 C 
ATOM     11  O   UNL     1       5.209  -1.379 -26.633  0.00  0.00    -0.359 OA
ATOM     12  C   UNL     1       6.610  -1.235 -26.275  0.00  0.00    +0.145 C 
ATOM     13 CL   UNL     1       7.695  -0.955 -27.670  0.00  0.00    -0.090 Cl
ATOM     14  C   UNL     1       6.704  -3.928 -26.055  0.00  0.00    -0.062 C 
ATOM     15  C   UNL     1       7.000  -4.022 -27.530  0.00  0.00    -0.043 C 
ATOM     16  C   UNL     1       6.552  -5.081 -25.365  0.00  0.00    -0.067 C 
ATOM     17  C   UNL     1       6.243  -5.361 -23.930  0.00  0.00    +0.029 C 
ATOM     18  N   UNL     1       5.366  -4.346 -23.383  0.00  0.00    -0.329 N 
ATOM     19  H   UNL     1       5.909  -2.920 -20.502  0.00  0.00    +0.000 HD
ATOM     20  H   UNL     1       4.443  -4.246 -23.711  0.00  0.00    +0.000 HD
ENDROOT
TORSDOF 0
ENDMDL
MODEL 2
REMARK VINA RESULT:    -4.106      9.189     11.267
REMARK INTER + INTRA:          -4.106
REMARK INTER:                  -4.106
REMARK INTRA:                   0.000
REMARK UNBOUND:                 0.000
REMARK  Name = /home/vital/Documents/PhD_2021/Malaria_codes/scripts/../data/pdbqt_ligands/ligand_370_temp.pdb
REMARK                            x       y       z     vdW  Elec       q    Type
REMARK                         _______ _______ _______ _____ _____    ______ ____
ROOT
ATOM      1  C   UNL     1       5.497  -3.602 -31.455  0.00  0.00    -0.045 C 
ATOM      2  C   UNL     1       5.520  -4.696 -32.472  0.00  0.00    -0.069 C 
ATOM      3  C   UNL     1       4.445  -5.230 -33.067  0.00  0.00    +0.025 C 
ATOM      4  N   UNL     1       3.166  -4.814 -32.835  0.00  0.00    -0.245 N 
ATOM      5  C   UNL     1       2.257  -5.690 -32.532  0.00  0.00    +0.097 C 
ATOM      6  C   UNL     1       0.867  -5.114 -32.297  0.00  0.00    +0.020 C 
ATOM      7  C   UNL     1      -0.359  -6.021 -32.344  0.00  0.00    +0.055 C 
ATOM      8 CL   UNL     1      -0.854  -6.371 -34.034  0.00  0.00    -0.120 Cl
ATOM      9  C   UNL     1      -0.328  -7.264 -31.416  0.00  0.00    +0.071 C 
ATOM     10  C   UNL     1       0.463  -7.204 -30.048  0.00  0.00    +0.064 C 
ATOM     11  O   UNL     1      -0.724  -7.635 -29.318  0.00  0.00    -0.359 OA
ATOM     12  C   UNL     1      -1.532  -7.092 -30.396  0.00  0.00    +0.145 C 
ATOM     13 CL   UNL     1      -3.152  -7.838 -30.542  0.00  0.00    -0.090 Cl
ATOM     14  C   UNL     1      -0.083  -8.626 -32.087  0.00  0.00    -0.062 C 
ATOM     15  C   UNL     1      -1.030  -9.770 -31.836  0.00  0.00    -0.043 C 
ATOM     16  C   UNL     1       0.988  -8.854 -32.881  0.00  0.00    -0.067 C 
ATOM     17  C   UNL     1       2.116  -7.978 -33.323  0.00  0.00    +0.029 C 
ATOM     18  N   UNL     1       2.469  -7.028 -32.289  0.00  0.00    -0.329 N 
ATOM     19  H   UNL     1       2.935  -3.860 -32.896  0.00  0.00    +0.000 HD
ATOM     20  H   UNL     1       2.850  -7.331 -31.433  0.00  0.00    +0.000 HD
ENDROOT
TORSDOF 0
ENDMDL
MODEL 3
REMARK VINA RESULT:    -3.872     11.459     13.158
REMARK INTER + INTRA:          -3.872
REMARK INTER:                  -3.872
REMARK INTRA:                   0.000
REMARK UNBOUND:                 0.000
REMARK  Name = /home/vital/Documents/PhD_2021/Malaria_codes/scripts/../data/pdbqt_ligands/ligand_370_temp.pdb
REMARK                            x       y       z     vdW  Elec       q    Type
REMARK                         _______ _______ _______ _____ _____    ______ ____
ROOT
ATOM      1  C   UNL     1      -2.898   5.011 -17.812  0.00  0.00    -0.045 C 
ATOM      2  C   UNL     1      -1.848   5.994 -18.216  0.00  0.00    -0.069 C 
ATOM      3  C   UNL     1      -0.526   5.783 -18.179  0.00  0.00    +0.025 C 
ATOM      4  N   UNL     1       0.042   4.606 -17.785  0.00  0.00    -0.245 N 
ATOM      5  C   UNL     1       0.976   4.620 -16.883  0.00  0.00    +0.097 C 
ATOM      6  C   UNL     1       1.538   3.252 -16.522  0.00  0.00    +0.020 C 
ATOM      7  C   UNL     1       2.883   3.136 -15.812  0.00  0.00    +0.055 C 
ATOM      8 CL   UNL     1       4.251   3.332 -16.959  0.00  0.00    -0.120 Cl
ATOM      9  C   UNL     1       3.034   3.940 -14.494  0.00  0.00    +0.071 C 
ATOM     10  C   UNL     1       1.767   4.202 -13.584  0.00  0.00    +0.064 C 
ATOM     11  O   UNL     1       2.455   3.640 -12.427  0.00  0.00    -0.359 OA
ATOM     12  C   UNL     1       3.281   2.875 -13.344  0.00  0.00    +0.145 C 
ATOM     13 CL   UNL     1       4.869   2.398 -12.673  0.00  0.00    -0.090 Cl
ATOM     14  C   UNL     1       3.892   5.216 -14.552  0.00  0.00    -0.062 C 
ATOM     15  C   UNL     1       5.015   5.413 -13.567  0.00  0.00    -0.043 C 
ATOM     16  C   UNL     1       3.653   6.202 -15.446  0.00  0.00    -0.067 C 
ATOM     17  C   UNL     1       2.637   6.352 -16.531  0.00  0.00    +0.029 C 
ATOM     18  N   UNL     1       1.389   5.717 -16.161  0.00  0.00    -0.329 N 
ATOM     19  H   UNL     1      -0.254   3.755 -18.180  0.00  0.00    +0.000 HD
ATOM     20  H   UNL     1       0.850   6.061 -15.412  0.00  0.00    +0.000 HD
ENDROOT
TORSDOF 0
ENDMDL
MODEL 4
REMARK VINA RESULT:    -3.790     11.358     13.303
REMARK INTER + INTRA:          -3.790
REMARK INTER:                  -3.790
REMARK INTRA:                   0.000
REMARK UNBOUND:                 0.000
REMARK  Name = /home/vital/Documents/PhD_2021/Malaria_codes/scripts/../data/pdbqt_ligands/ligand_370_temp.pdb
REMARK                            x       y       z     vdW  Elec       q    Type
REMARK                         _______ _______ _______ _____ _____    ______ ____
ROOT
ATOM      1  C   UNL     1       3.787  10.044 -19.699  0.00  0.00    -0.045 C 
ATOM      2  C   UNL     1       3.109   8.913 -20.403  0.00  0.00    -0.069 C 
ATOM      3  C   UNL     1       2.288   8.021 -19.834  0.00  0.00    +0.025 C 
ATOM      4  N   UNL     1       1.938   8.047 -18.515  0.00  0.00    -0.245 N 
ATOM      5  C   UNL     1       2.063   6.970 -17.801  0.00  0.00    +0.097 C 
ATOM      6  C   UNL     1       1.640   7.115 -16.345  0.00  0.00    +0.020 C 
ATOM      7  C   UNL     1       1.339   5.878 -15.505  0.00  0.00    +0.055 C 
ATOM      8 CL   UNL     1      -0.297   5.227 -15.856  0.00  0.00    -0.120 Cl
ATOM      9  C   UNL     1       2.455   4.803 -15.445  0.00  0.00    +0.071 C 
ATOM     10  C   UNL     1       3.972   5.237 -15.558  0.00  0.00    +0.064 C 
ATOM     11  O   UNL     1       4.287   4.539 -14.316  0.00  0.00    -0.359 OA
ATOM     12  C   UNL     1       2.897   4.699 -13.924  0.00  0.00    +0.145 C 
ATOM     13 CL   UNL     1       2.327   3.485 -12.741  0.00  0.00    -0.090 Cl
ATOM     14  C   UNL     1       2.230   3.520 -16.265  0.00  0.00    -0.062 C 
ATOM     15  C   UNL     1       2.353   2.172 -15.602  0.00  0.00    -0.043 C 
ATOM     16  C   UNL     1       1.956   3.552 -17.588  0.00  0.00    -0.067 C 
ATOM     17  C   UNL     1       1.785   4.681 -18.552  0.00  0.00    +0.029 C 
ATOM     18  N   UNL     1       2.648   5.792 -18.206  0.00  0.00    -0.329 N 
ATOM     19  H   UNL     1       1.593   8.875 -18.110  0.00  0.00    +0.000 HD
ATOM     20  H   UNL     1       3.627   5.706 -18.259  0.00  0.00    +0.000 HD
ENDROOT
TORSDOF 0
ENDMDL
MODEL 5
REMARK VINA RESULT:    -3.692      4.269      6.810
REMARK INTER + INTRA:          -3.692
REMARK INTER:                  -3.692
REMARK INTRA:                   0.000
REMARK UNBOUND:                 0.000
REMARK  Name = /home/vital/Documents/PhD_2021/Malaria_codes/scripts/../data/pdbqt_ligands/ligand_370_temp.pdb
REMARK                            x       y       z     vdW  Elec       q    Type
REMARK                         _______ _______ _______ _____ _____    ______ ____
ROOT
ATOM      1  C   UNL     1       6.445  -4.016 -25.169  0.00  0.00    -0.045 C 
ATOM      2  C   UNL     1       6.469  -4.796 -23.895  0.00  0.00    -0.069 C 
ATOM      3  C   UNL     1       5.424  -4.994 -23.081  0.00  0.00    +0.025 C 
ATOM      4  N   UNL     1       4.169  -4.520 -23.332  0.00  0.00    -0.245 N 
ATOM      5  C   UNL     1       3.547  -3.845 -22.413  0.00  0.00    +0.097 C 
ATOM      6  C   UNL     1       2.154  -3.369 -22.801  0.00  0.00    +0.020 C 
ATOM      7  C   UNL     1       1.161  -2.940 -21.726  0.00  0.00    +0.055 C 
ATOM      8 CL   UNL     1       0.392  -4.359 -20.938  0.00  0.00    -0.120 Cl
ATOM      9  C   UNL     1       1.647  -1.847 -20.739  0.00  0.00    +0.071 C 
ATOM     10  C   UNL     1       2.688  -0.759 -21.223  0.00  0.00    +0.064 C 
ATOM     11  O   UNL     1       1.803   0.314 -20.783  0.00  0.00    -0.359 OA
ATOM     12  C   UNL     1       0.686  -0.600 -20.941  0.00  0.00    +0.145 C 
ATOM     13 CL   UNL     1      -0.738  -0.194 -19.937  0.00  0.00    -0.090 Cl
ATOM     14  C   UNL     1       2.015  -2.307 -19.318  0.00  0.00    -0.062 C 
ATOM     15  C   UNL     1       1.401  -1.625 -18.123  0.00  0.00    -0.043 C 
ATOM     16  C   UNL     1       2.910  -3.295 -19.092  0.00  0.00    -0.067 C 
ATOM     17  C   UNL     1       3.710  -4.157 -20.013  0.00  0.00    +0.029 C 
ATOM     18  N   UNL     1       4.077  -3.432 -21.212  0.00  0.00    -0.329 N 
ATOM     19  H   UNL     1       3.739  -4.687 -24.201  0.00  0.00    +0.000 HD
ATOM     20  H   UNL     1       4.690  -2.662 -21.169  0.00  0.00    +0.000 HD
ENDROOT
TORSDOF 0
ENDMDL
MODEL 6
REMARK VINA RESULT:    -3.621      3.138      4.292
REMARK INTER + INTRA:          -3.621
REMARK INTER:                  -3.621
REMARK INTRA:                   0.000
REMARK UNBOUND:                 0.000
REMARK  Name = /home/vital/Documents/PhD_2021/Malaria_codes/scripts/../data/pdbqt_ligands/ligand_370_temp.pdb
REMARK                            x       y       z     vdW  Elec       q    Type
REMARK                         _______ _______ _______ _____ _____    ______ ____
ROOT
ATOM      1  C   UNL     1      -0.157  -5.282 -26.981  0.00  0.00    -0.045 C 
ATOM      2  C   UNL     1       0.916  -6.250 -27.359  0.00  0.00    -0.069 C 
ATOM      3  C   UNL     1       2.063  -6.441 -26.695  0.00  0.00    +0.025 C 
ATOM      4  N   UNL     1       2.394  -5.779 -25.548  0.00  0.00    -0.245 N 
ATOM      5  C   UNL     1       3.546  -5.185 -25.465  0.00  0.00    +0.097 C 
ATOM      6  C   UNL     1       3.808  -4.481 -24.140  0.00  0.00    +0.020 C 
ATOM      7  C   UNL     1       5.231  -4.107 -23.737  0.00  0.00    +0.055 C 
ATOM      8 CL   UNL     1       6.127  -5.524 -23.095  0.00  0.00    -0.120 Cl
ATOM      9  C   UNL     1       6.030  -3.254 -24.757  0.00  0.00    +0.071 C 
ATOM     10  C   UNL     1       5.268  -2.243 -25.705  0.00  0.00    +0.064 C 
ATOM     11  O   UNL     1       6.130  -1.150 -25.269  0.00  0.00    -0.359 OA
ATOM     12  C   UNL     1       6.358  -1.880 -24.034  0.00  0.00    +0.145 C 
ATOM     13 CL   UNL     1       7.890  -1.462 -23.210  0.00  0.00    -0.090 Cl
ATOM     14  C   UNL     1       7.127  -3.977 -25.559  0.00  0.00    -0.062 C 
ATOM     15  C   UNL     1       8.526  -3.420 -25.591  0.00  0.00    -0.043 C 
ATOM     16  C   UNL     1       6.872  -5.093 -26.280  0.00  0.00    -0.067 C 
ATOM     17  C   UNL     1       5.627  -5.892 -26.489  0.00  0.00    +0.029 C 
ATOM     18  N   UNL     1       4.458  -5.038 -26.485  0.00  0.00    -0.329 N 
ATOM     19  H   UNL     1       1.765  -5.751 -24.792  0.00  0.00    +0.000 HD
ATOM     20  H   UNL     1       4.319  -4.368 -27.194  0.00  0.00    +0.000 HD
ENDROOT
TORSDOF 0
ENDMDL
MODEL 7
REMARK VINA RESULT:    -3.604      9.884     12.142
REMARK INTER + INTRA:          -3.604
REMARK INTER:                  -3.604
REMARK INTRA:                   0.000
REMARK UNBOUND:                 0.000
REMARK  Name = /home/vital/Documents/PhD_2021/Malaria_codes/scripts/../data/pdbqt_ligands/ligand_370_temp.pdb
REMARK                            x       y       z     vdW  Elec       q    Type
REMARK                         _______ _______ _______ _____ _____    ______ ____
ROOT
ATOM      1  C   UNL     1       2.648   7.646 -35.494  0.00  0.00    -0.045 C 
ATOM      2  C   UNL     1       1.792   6.772 -34.637  0.00  0.00    -0.069 C 
ATOM      3  C   UNL     1       2.223   6.010 -33.624  0.00  0.00    +0.025 C 
ATOM      4  N   UNL     1       3.525   5.956 -33.218  0.00  0.00    -0.245 N 
ATOM      5  C   UNL     1       4.103   4.801 -33.084  0.00  0.00    +0.097 C 
ATOM      6  C   UNL     1       5.554   4.861 -32.625  0.00  0.00    +0.020 C 
ATOM      7  C   UNL     1       6.225   3.625 -32.036  0.00  0.00    +0.055 C 
ATOM      8 CL   UNL     1       5.754   3.374 -30.321  0.00  0.00    -0.120 Cl
ATOM      9  C   UNL     1       6.182   2.340 -32.905  0.00  0.00    +0.071 C 
ATOM     10  C   UNL     1       6.163   2.459 -34.482  0.00  0.00    +0.064 C 
ATOM     11  O   UNL     1       7.317   1.572 -34.583  0.00  0.00    -0.359 OA
ATOM     12  C   UNL     1       7.689   1.972 -33.237  0.00  0.00    +0.145 C 
ATOM     13 CL   UNL     1       8.696   0.774 -32.371  0.00  0.00    -0.090 Cl
ATOM     14  C   UNL     1       5.203   1.237 -32.466  0.00  0.00    -0.062 C 
ATOM     15  C   UNL     1       5.696  -0.174 -32.277  0.00  0.00    -0.043 C 
ATOM     16  C   UNL     1       3.887   1.479 -32.273  0.00  0.00    -0.067 C 
ATOM     17  C   UNL     1       3.066   2.723 -32.385  0.00  0.00    +0.029 C 
ATOM     18  N   UNL     1       3.571   3.582 -33.437  0.00  0.00    -0.329 N 
ATOM     19  H   UNL     1       4.021   6.784 -33.029  0.00  0.00    +0.000 HD
ATOM     20  H   UNL     1       3.534   3.300 -34.380  0.00  0.00    +0.000 HD
ENDROOT
TORSDOF 0
ENDMDL
MODEL 8
REMARK VINA RESULT:    -3.558     11.377     12.640
REMARK INTER + INTRA:          -3.558
REMARK INTER:                  -3.558
REMARK INTRA:                   0.000
REMARK UNBOUND:                 0.000
REMARK  Name = /home/vital/Documents/PhD_2021/Malaria_codes/scripts/../data/pdbqt_ligands/ligand_370_temp.pdb
REMARK                            x       y       z     vdW  Elec       q    Type
REMARK                         _______ _______ _______ _____ _____    ______ ____
ROOT
ATOM      1  C   UNL     1       3.058   3.022 -13.647  0.00  0.00    -0.045 C 
ATOM      2  C   UNL     1       2.080   4.151 -13.595  0.00  0.00    -0.069 C 
ATOM      3  C   UNL     1       1.663   4.870 -14.644  0.00  0.00    +0.025 C 
ATOM      4  N   UNL     1       2.066   4.640 -15.928  0.00  0.00    -0.245 N 
ATOM      5  C   UNL     1       2.522   5.627 -16.638  0.00  0.00    +0.097 C 
ATOM      6  C   UNL     1       2.939   5.256 -18.055  0.00  0.00    +0.020 C 
ATOM      7  C   UNL     1       3.097   6.338 -19.118  0.00  0.00    +0.055 C 
ATOM      8 CL   UNL     1       1.507   6.845 -19.781  0.00  0.00    -0.120 Cl
ATOM      9  C   UNL     1       4.047   7.513 -18.765  0.00  0.00    +0.071 C 
ATOM     10  C   UNL     1       5.283   7.265 -17.811  0.00  0.00    +0.064 C 
ATOM     11  O   UNL     1       6.190   7.832 -18.803  0.00  0.00    -0.359 OA
ATOM     12  C   UNL     1       5.225   7.473 -19.827  0.00  0.00    +0.145 C 
ATOM     13 CL   UNL     1       5.337   8.461 -21.315  0.00  0.00    -0.090 Cl
ATOM     14  C   UNL     1       3.386   8.856 -18.405  0.00  0.00    -0.062 C 
ATOM     15  C   UNL     1       3.806  10.115 -19.117  0.00  0.00    -0.043 C 
ATOM     16  C   UNL     1       2.453   8.959 -17.432  0.00  0.00    -0.067 C 
ATOM     17  C   UNL     1       1.827   7.948 -16.527  0.00  0.00    +0.029 C 
ATOM     18  N   UNL     1       2.771   6.903 -16.188  0.00  0.00    -0.329 N 
ATOM     19  H   UNL     1       2.011   3.736 -16.311  0.00  0.00    +0.000 HD
ATOM     20  H   UNL     1       3.571   7.102 -15.648  0.00  0.00    +0.000 HD
ENDROOT
TORSDOF 0
ENDMDL
MODEL 9
REMARK VINA RESULT:    -3.551      7.653      9.646
REMARK INTER + INTRA:          -3.551
REMARK INTER:                  -3.551
REMARK INTRA:                   0.000
REMARK UNBOUND:                 0.000
REMARK  Name = /home/vital/Documents/PhD_2021/Malaria_codes/scripts/../data/pdbqt_ligands/ligand_370_temp.pdb
REMARK                            x       y       z     vdW  Elec       q    Type
REMARK                         _______ _______ _______ _____ _____    ______ ____
ROOT
ATOM      1  C   UNL     1       3.273  -0.583 -19.338  0.00  0.00    -0.045 C 
ATOM      2  C   UNL     1       2.216  -0.585 -18.283  0.00  0.00    -0.069 C 
ATOM      3  C   UNL     1       1.052  -1.245 -18.345  0.00  0.00    +0.025 C 
ATOM      4  N   UNL     1       0.688  -2.040 -19.394  0.00  0.00    -0.245 N 
ATOM      5  C   UNL     1      -0.469  -1.862 -19.956  0.00  0.00    +0.097 C 
ATOM      6  C   UNL     1      -0.770  -2.806 -21.112  0.00  0.00    +0.020 C 
ATOM      7  C   UNL     1      -2.204  -3.002 -21.592  0.00  0.00    +0.055 C 
ATOM      8 CL   UNL     1      -3.110  -4.121 -20.518  0.00  0.00    -0.120 Cl
ATOM      9  C   UNL     1      -2.981  -1.714 -21.974  0.00  0.00    +0.071 C 
ATOM     10  C   UNL     1      -2.199  -0.467 -22.552  0.00  0.00    +0.064 C 
ATOM     11  O   UNL     1      -3.078  -0.429 -23.716  0.00  0.00    -0.359 OA
ATOM     12  C   UNL     1      -3.335  -1.844 -23.515  0.00  0.00    +0.145 C 
ATOM     13 CL   UNL     1      -4.890  -2.408 -24.196  0.00  0.00    -0.090 Cl
ATOM     14  C   UNL     1      -4.052  -1.229 -20.981  0.00  0.00    -0.062 C 
ATOM     15  C   UNL     1      -5.453  -0.953 -21.461  0.00  0.00    -0.043 C 
ATOM     16  C   UNL     1      -3.773  -1.000 -19.678  0.00  0.00    -0.067 C 
ATOM     17  C   UNL     1      -2.519  -1.143 -18.878  0.00  0.00    +0.029 C 
ATOM     18  N   UNL     1      -1.354  -0.844 -19.685  0.00  0.00    -0.329 N 
ATOM     19  H   UNL     1       1.297  -2.740 -19.720  0.00  0.00    +0.000 HD
ATOM     20  H   UNL     1      -1.200   0.065 -20.032  0.00  0.00    +0.000 HD
ENDROOT
TORSDOF 0
ENDMDL
