MODEL 1
REMARK VINA RESULT:    -6.525      0.000      0.000
REMARK INTER + INTRA:          -6.525
REMARK INTER:                  -6.525
REMARK INTRA:                   0.000
REMARK UNBOUND:                 0.000
REMARK  Name = /home/vital/Documents/PhD_2021/Malaria_codes/scripts/../data/pdbqt_ligands/ligand_452_temp.pdb
REMARK                            x       y       z     vdW  Elec       q    Type
REMARK                         _______ _______ _______ _____ _____    ______ ____
ROOT
ATOM      1  C1  UNL     1       1.016   4.779 -14.347  0.00  0.00    +0.079 C 
ATOM      2  O1  UNL     1       1.281   5.366 -15.613  0.00  0.00    -0.491 OA
ATOM      3  C2  UNL     1       0.248   5.433 -16.513  0.00  0.00    +0.164 A 
ATOM      4  C3  UNL     1      -1.043   4.966 -16.269  0.00  0.00    +0.021 A 
ATOM      5  C4  UNL     1      -2.016   5.087 -17.258  0.00  0.00    +0.148 A 
ATOM      6  F1  UNL     1      -3.251   4.629 -16.996  0.00  0.00    -0.203 F 
ATOM      7  C5  UNL     1      -1.755   5.666 -18.508  0.00  0.00    +0.073 A 
ATOM      8  N1  UNL     1      -2.800   5.743 -19.439  0.00  0.00    -0.281 N 
ATOM      9  C6  UNL     1      -2.920   6.232 -20.734  0.00  0.00    +0.220 A 
ATOM     10  N2  UNL     1      -1.883   6.787 -21.377  0.00  0.00    -0.222 NA
ATOM     11  C7  UNL     1      -2.106   7.228 -22.629  0.00  0.00    +0.040 A 
ATOM     12  C8  UNL     1      -3.326   7.139 -23.273  0.00  0.00    +0.019 A 
ATOM     13  C9  UNL     1      -3.558   7.602 -24.584  0.00  0.00    -0.051 A 
ATOM     14  C10 UNL     1      -4.822   7.469 -25.152  0.00  0.00    -0.061 A 
ATOM     15  C11 UNL     1      -5.844   6.880 -24.414  0.00  0.00    -0.060 A 
ATOM     16  C12 UNL     1      -5.595   6.427 -23.113  0.00  0.00    -0.036 A 
ATOM     17  C13 UNL     1      -4.342   6.546 -22.523  0.00  0.00    +0.076 A 
ATOM     18  N3  UNL     1      -4.143   6.100 -21.275  0.00  0.00    -0.214 NA
ATOM     19  C14 UNL     1      -0.457   6.131 -18.741  0.00  0.00    +0.008 A 
ATOM     20  C15 UNL     1       0.544   6.022 -17.761  0.00  0.00    +0.163 A 
ATOM     21  O2  UNL     1       1.837   6.457 -17.923  0.00  0.00    -0.491 OA
ATOM     22  C16 UNL     1       2.180   7.056 -19.166  0.00  0.00    +0.079 C 
ATOM     23  H   UNL     1      -3.642   5.364 -19.097  0.00  0.00    +0.000 HD
ENDROOT
TORSDOF 0
ENDMDL
MODEL 2
REMARK VINA RESULT:    -6.362     15.616     17.518
REMARK INTER + INTRA:          -6.362
REMARK INTER:                  -6.362
REMARK INTRA:                   0.000
REMARK UNBOUND:                 0.000
REMARK  Name = /home/vital/Documents/PhD_2021/Malaria_codes/scripts/../data/pdbqt_ligands/ligand_452_temp.pdb
REMARK                            x       y       z     vdW  Elec       q    Type
REMARK                         _______ _______ _______ _____ _____    ______ ____
ROOT
ATOM      1  C1  UNL     1       0.830  -4.846 -34.972  0.00  0.00    +0.079 C 
ATOM      2  O1  UNL     1       0.861  -5.404 -33.667  0.00  0.00    -0.491 OA
ATOM      3  C2  UNL     1       1.851  -4.980 -32.816  0.00  0.00    +0.164 A 
ATOM      4  C3  UNL     1       2.825  -4.038 -33.146  0.00  0.00    +0.021 A 
ATOM      5  C4  UNL     1       3.783  -3.681 -32.201  0.00  0.00    +0.148 A 
ATOM      6  F1  UNL     1       4.710  -2.772 -32.545  0.00  0.00    -0.203 F 
ATOM      7  C5  UNL     1       3.815  -4.232 -30.911  0.00  0.00    +0.073 A 
ATOM      8  N1  UNL     1       4.820  -3.809 -30.030  0.00  0.00    -0.281 N 
ATOM      9  C6  UNL     1       5.161  -4.117 -28.719  0.00  0.00    +0.220 A 
ATOM     10  N2  UNL     1       4.464  -5.007 -27.999  0.00  0.00    -0.222 NA
ATOM     11  C7  UNL     1       4.879  -5.233 -26.739  0.00  0.00    +0.040 A 
ATOM     12  C8  UNL     1       5.967  -4.606 -26.160  0.00  0.00    +0.019 A 
ATOM     13  C9  UNL     1       6.400  -4.843 -24.840  0.00  0.00    -0.051 A 
ATOM     14  C10 UNL     1       7.509  -4.164 -24.343  0.00  0.00    -0.061 A 
ATOM     15  C11 UNL     1       8.176  -3.256 -25.158  0.00  0.00    -0.060 A 
ATOM     16  C12 UNL     1       7.731  -3.033 -26.466  0.00  0.00    -0.036 A 
ATOM     17  C13 UNL     1       6.628  -3.698 -26.988  0.00  0.00    +0.076 A 
ATOM     18  N3  UNL     1       6.232  -3.457 -28.246  0.00  0.00    -0.214 NA
ATOM     19  C14 UNL     1       2.833  -5.175 -30.592  0.00  0.00    +0.008 A 
ATOM     20  C15 UNL     1       1.854  -5.553 -31.527  0.00  0.00    +0.163 A 
ATOM     21  O2  UNL     1       0.862  -6.471 -31.280  0.00  0.00    -0.491 OA
ATOM     22  C16 UNL     1       0.828  -7.075 -29.993  0.00  0.00    +0.079 C 
ATOM     23  H   UNL     1       5.420  -3.141 -30.432  0.00  0.00    +0.000 HD
ENDROOT
TORSDOF 0
ENDMDL
MODEL 3
REMARK VINA RESULT:    -6.236      4.378      5.414
REMARK INTER + INTRA:          -6.236
REMARK INTER:                  -6.236
REMARK INTRA:                   0.000
REMARK UNBOUND:                 0.000
REMARK  Name = /home/vital/Documents/PhD_2021/Malaria_codes/scripts/../data/pdbqt_ligands/ligand_452_temp.pdb
REMARK                            x       y       z     vdW  Elec       q    Type
REMARK                         _______ _______ _______ _____ _____    ______ ____
ROOT
ATOM      1  C1  UNL     1       1.798   8.130 -17.339  0.00  0.00    +0.079 C 
ATOM      2  O1  UNL     1       1.767   6.720 -17.171  0.00  0.00    -0.491 OA
ATOM      3  C2  UNL     1       0.818   6.016 -17.869  0.00  0.00    +0.164 A 
ATOM      4  C3  UNL     1      -0.114   6.589 -18.732  0.00  0.00    +0.021 A 
ATOM      5  C4  UNL     1      -1.033   5.776 -19.389  0.00  0.00    +0.148 A 
ATOM      6  F1  UNL     1      -1.920   6.355 -20.215  0.00  0.00    -0.203 F 
ATOM      7  C5  UNL     1      -1.064   4.384 -19.224  0.00  0.00    +0.073 A 
ATOM      8  N1  UNL     1      -2.027   3.650 -19.929  0.00  0.00    -0.281 N 
ATOM      9  C6  UNL     1      -2.355   2.302 -20.018  0.00  0.00    +0.220 A 
ATOM     10  N2  UNL     1      -1.689   1.367 -19.328  0.00  0.00    -0.222 NA
ATOM     11  C7  UNL     1      -2.087   0.091 -19.486  0.00  0.00    +0.040 A 
ATOM     12  C8  UNL     1      -3.130  -0.297 -20.307  0.00  0.00    +0.019 A 
ATOM     13  C9  UNL     1      -3.546  -1.633 -20.472  0.00  0.00    -0.051 A 
ATOM     14  C10 UNL     1      -4.608  -1.928 -21.322  0.00  0.00    -0.061 A 
ATOM     15  C11 UNL     1      -5.246  -0.896 -22.001  0.00  0.00    -0.060 A 
ATOM     16  C12 UNL     1      -4.819   0.426 -21.825  0.00  0.00    -0.036 A 
ATOM     17  C13 UNL     1      -3.762   0.748 -20.982  0.00  0.00    +0.076 A 
ATOM     18  N3  UNL     1      -3.381   2.026 -20.841  0.00  0.00    -0.214 NA
ATOM     19  C14 UNL     1      -0.124   3.820 -18.355  0.00  0.00    +0.008 A 
ATOM     20  C15 UNL     1       0.814   4.618 -17.679  0.00  0.00    +0.163 A 
ATOM     21  O2  UNL     1       1.764   4.130 -16.814  0.00  0.00    -0.491 OA
ATOM     22  C16 UNL     1       1.795   2.726 -16.592  0.00  0.00    +0.079 C 
ATOM     23  H   UNL     1      -2.602   4.218 -20.490  0.00  0.00    +0.000 HD
ENDROOT
TORSDOF 0
ENDMDL
MODEL 4
REMARK VINA RESULT:    -6.217     13.796     15.217
REMARK INTER + INTRA:          -6.217
REMARK INTER:                  -6.217
REMARK INTRA:                   0.000
REMARK UNBOUND:                 0.000
REMARK  Name = /home/vital/Documents/PhD_2021/Malaria_codes/scripts/../data/pdbqt_ligands/ligand_452_temp.pdb
REMARK                            x       y       z     vdW  Elec       q    Type
REMARK                         _______ _______ _______ _____ _____    ______ ____
ROOT
ATOM      1  C1  UNL     1      13.328   5.264 -25.310  0.00  0.00    +0.079 C 
ATOM      2  O1  UNL     1      12.535   4.544 -24.378  0.00  0.00    -0.491 OA
ATOM      3  C2  UNL     1      11.954   3.376 -24.804  0.00  0.00    +0.164 A 
ATOM      4  C3  UNL     1      12.092   2.849 -26.087  0.00  0.00    +0.021 A 
ATOM      5  C4  UNL     1      11.456   1.653 -26.410  0.00  0.00    +0.148 A 
ATOM      6  F1  UNL     1      11.605   1.168 -27.654  0.00  0.00    -0.203 F 
ATOM      7  C5  UNL     1      10.672   0.941 -25.491  0.00  0.00    +0.073 A 
ATOM      8  N1  UNL     1      10.072  -0.254 -25.910  0.00  0.00    -0.281 N 
ATOM      9  C6  UNL     1       9.255  -1.201 -25.304  0.00  0.00    +0.220 A 
ATOM     10  N2  UNL     1       8.863  -1.082 -24.029  0.00  0.00    -0.222 NA
ATOM     11  C7  UNL     1       8.072  -2.055 -23.539  0.00  0.00    +0.040 A 
ATOM     12  C8  UNL     1       7.650  -3.149 -24.271  0.00  0.00    +0.019 A 
ATOM     13  C9  UNL     1       6.822  -4.167 -23.758  0.00  0.00    -0.051 A 
ATOM     14  C10 UNL     1       6.447  -5.232 -24.572  0.00  0.00    -0.061 A 
ATOM     15  C11 UNL     1       6.899  -5.278 -25.887  0.00  0.00    -0.060 A 
ATOM     16  C12 UNL     1       7.721  -4.258 -26.379  0.00  0.00    -0.036 A 
ATOM     17  C13 UNL     1       8.109  -3.183 -25.588  0.00  0.00    +0.076 A 
ATOM     18  N3  UNL     1       8.899  -2.226 -26.097  0.00  0.00    -0.214 NA
ATOM     19  C14 UNL     1      10.542   1.480 -24.207  0.00  0.00    +0.008 A 
ATOM     20  C15 UNL     1      11.173   2.685 -23.854  0.00  0.00    +0.163 A 
ATOM     21  O2  UNL     1      11.087   3.269 -22.613  0.00  0.00    -0.491 OA
ATOM     22  C16 UNL     1      10.308   2.607 -21.625  0.00  0.00    +0.079 C 
ATOM     23  H   UNL     1      10.276  -0.473 -26.848  0.00  0.00    +0.000 HD
ENDROOT
TORSDOF 0
ENDMDL
MODEL 5
REMARK VINA RESULT:    -6.214     14.311     15.822
REMARK INTER + INTRA:          -6.214
REMARK INTER:                  -6.214
REMARK INTRA:                   0.000
REMARK UNBOUND:                 0.000
REMARK  Name = /home/vital/Documents/PhD_2021/Malaria_codes/scripts/../data/pdbqt_ligands/ligand_452_temp.pdb
REMARK                            x       y       z     vdW  Elec       q    Type
REMARK                         _______ _______ _______ _____ _____    ______ ____
ROOT
ATOM      1  C1  UNL     1       5.465  -5.212 -26.639  0.00  0.00    +0.079 C 
ATOM      2  O1  UNL     1       5.676  -3.913 -27.174  0.00  0.00    -0.491 OA
ATOM      3  C2  UNL     1       6.737  -3.190 -26.691  0.00  0.00    +0.164 A 
ATOM      4  C3  UNL     1       7.622  -3.643 -25.713  0.00  0.00    +0.021 A 
ATOM      5  C4  UNL     1       8.666  -2.822 -25.297  0.00  0.00    +0.148 A 
ATOM      6  F1  UNL     1       9.503  -3.284 -24.353  0.00  0.00    -0.203 F 
ATOM      7  C5  UNL     1       8.875  -1.540 -25.824  0.00  0.00    +0.073 A 
ATOM      8  N1  UNL     1       9.954  -0.787 -25.342  0.00  0.00    -0.281 N 
ATOM      9  C6  UNL     1      10.462   0.478 -25.613  0.00  0.00    +0.220 A 
ATOM     10  N2  UNL     1       9.896   1.285 -26.520  0.00  0.00    -0.222 NA
ATOM     11  C7  UNL     1      10.466   2.490 -26.706  0.00  0.00    +0.040 A 
ATOM     12  C8  UNL     1      11.584   2.930 -26.021  0.00  0.00    +0.019 A 
ATOM     13  C9  UNL     1      12.180   4.192 -26.217  0.00  0.00    -0.051 A 
ATOM     14  C10 UNL     1      13.306   4.547 -25.480  0.00  0.00    -0.061 A 
ATOM     15  C11 UNL     1      13.830   3.649 -24.557  0.00  0.00    -0.060 A 
ATOM     16  C12 UNL     1      13.224   2.399 -24.376  0.00  0.00    -0.036 A 
ATOM     17  C13 UNL     1      12.100   2.019 -25.099  0.00  0.00    +0.076 A 
ATOM     18  N3  UNL     1      11.549   0.813 -24.897  0.00  0.00    -0.214 NA
ATOM     19  C14 UNL     1       7.982  -1.096 -26.805  0.00  0.00    +0.008 A 
ATOM     20  C15 UNL     1       6.919  -1.904 -27.243  0.00  0.00    +0.163 A 
ATOM     21  O2  UNL     1       6.007  -1.531 -28.200  0.00  0.00    -0.491 OA
ATOM     22  C16 UNL     1       6.151  -0.243 -28.782  0.00  0.00    +0.079 C 
ATOM     23  H   UNL     1      10.472  -1.264 -24.653  0.00  0.00    +0.000 HD
ENDROOT
TORSDOF 0
ENDMDL
MODEL 6
REMARK VINA RESULT:    -6.179     14.103     14.548
REMARK INTER + INTRA:          -6.179
REMARK INTER:                  -6.179
REMARK INTRA:                   0.000
REMARK UNBOUND:                 0.000
REMARK  Name = /home/vital/Documents/PhD_2021/Malaria_codes/scripts/../data/pdbqt_ligands/ligand_452_temp.pdb
REMARK                            x       y       z     vdW  Elec       q    Type
REMARK                         _______ _______ _______ _____ _____    ______ ____
ROOT
ATOM      1  C1  UNL     1       5.221  -4.288 -20.350  0.00  0.00    +0.079 C 
ATOM      2  O1  UNL     1       4.235  -4.243 -21.371  0.00  0.00    -0.491 OA
ATOM      3  C2  UNL     1       4.665  -4.242 -22.674  0.00  0.00    +0.164 A 
ATOM      4  C3  UNL     1       6.003  -4.284 -23.063  0.00  0.00    +0.021 A 
ATOM      5  C4  UNL     1       6.326  -4.280 -24.417  0.00  0.00    +0.148 A 
ATOM      6  F1  UNL     1       7.623  -4.321 -24.764  0.00  0.00    -0.203 F 
ATOM      7  C5  UNL     1       5.353  -4.235 -25.426  0.00  0.00    +0.073 A 
ATOM      8  N1  UNL     1       5.776  -4.234 -26.762  0.00  0.00    -0.281 N 
ATOM      9  C6  UNL     1       5.128  -4.198 -27.991  0.00  0.00    +0.220 A 
ATOM     10  N2  UNL     1       3.792  -4.150 -28.083  0.00  0.00    -0.222 NA
ATOM     11  C7  UNL     1       3.266  -4.118 -29.322  0.00  0.00    +0.040 A 
ATOM     12  C8  UNL     1       4.019  -4.131 -30.481  0.00  0.00    +0.019 A 
ATOM     13  C9  UNL     1       3.467  -4.097 -31.778  0.00  0.00    -0.051 A 
ATOM     14  C10 UNL     1       4.305  -4.113 -32.888  0.00  0.00    -0.061 A 
ATOM     15  C11 UNL     1       5.683  -4.163 -32.703  0.00  0.00    -0.060 A 
ATOM     16  C12 UNL     1       6.214  -4.196 -31.408  0.00  0.00    -0.036 A 
ATOM     17  C13 UNL     1       5.399  -4.180 -30.282  0.00  0.00    +0.076 A 
ATOM     18  N3  UNL     1       5.945  -4.214 -29.058  0.00  0.00    -0.214 NA
ATOM     19  C14 UNL     1       4.014  -4.193 -25.023  0.00  0.00    +0.008 A 
ATOM     20  C15 UNL     1       3.660  -4.197 -23.663  0.00  0.00    +0.163 A 
ATOM     21  O2  UNL     1       2.368  -4.157 -23.200  0.00  0.00    -0.491 OA
ATOM     22  C16 UNL     1       1.323  -4.110 -24.162  0.00  0.00    +0.079 C 
ATOM     23  H   UNL     1       6.756  -4.266 -26.849  0.00  0.00    +0.000 HD
ENDROOT
TORSDOF 0
ENDMDL
MODEL 7
REMARK VINA RESULT:    -6.082     14.111     14.446
REMARK INTER + INTRA:          -6.082
REMARK INTER:                  -6.082
REMARK INTRA:                   0.000
REMARK UNBOUND:                 0.000
REMARK  Name = /home/vital/Documents/PhD_2021/Malaria_codes/scripts/../data/pdbqt_ligands/ligand_452_temp.pdb
REMARK                            x       y       z     vdW  Elec       q    Type
REMARK                         _______ _______ _______ _____ _____    ______ ____
ROOT
ATOM      1  C1  UNL     1       5.067  -3.887 -20.580  0.00  0.00    +0.079 C 
ATOM      2  O1  UNL     1       5.929  -3.729 -21.698  0.00  0.00    -0.491 OA
ATOM      3  C2  UNL     1       5.389  -3.898 -22.948  0.00  0.00    +0.164 A 
ATOM      4  C3  UNL     1       4.053  -4.213 -23.195  0.00  0.00    +0.021 A 
ATOM      5  C4  UNL     1       3.614  -4.361 -24.507  0.00  0.00    +0.148 A 
ATOM      6  F1  UNL     1       2.322  -4.664 -24.717  0.00  0.00    -0.203 F 
ATOM      7  C5  UNL     1       4.464  -4.205 -25.612  0.00  0.00    +0.073 A 
ATOM      8  N1  UNL     1       3.928  -4.375 -26.896  0.00  0.00    -0.281 N 
ATOM      9  C6  UNL     1       4.442  -4.303 -28.185  0.00  0.00    +0.220 A 
ATOM     10  N2  UNL     1       5.730  -4.017 -28.416  0.00  0.00    -0.222 NA
ATOM     11  C7  UNL     1       6.125  -3.973 -29.702  0.00  0.00    +0.040 A 
ATOM     12  C8  UNL     1       5.286  -4.204 -30.776  0.00  0.00    +0.019 A 
ATOM     13  C9  UNL     1       5.701  -4.157 -32.122  0.00  0.00    -0.051 A 
ATOM     14  C10 UNL     1       4.783  -4.405 -33.139  0.00  0.00    -0.061 A 
ATOM     15  C11 UNL     1       3.463  -4.695 -32.811  0.00  0.00    -0.060 A 
ATOM     16  C12 UNL     1       3.069  -4.737 -31.468  0.00  0.00    -0.036 A 
ATOM     17  C13 UNL     1       3.965  -4.494 -30.434  0.00  0.00    +0.076 A 
ATOM     18  N3  UNL     1       3.549  -4.543 -29.160  0.00  0.00    -0.214 NA
ATOM     19  C14 UNL     1       5.802  -3.890 -25.351  0.00  0.00    +0.008 A 
ATOM     20  C15 UNL     1       6.272  -3.735 -24.036  0.00  0.00    +0.163 A 
ATOM     21  O2  UNL     1       7.570  -3.426 -23.710  0.00  0.00    -0.491 OA
ATOM     22  C16 UNL     1       8.495  -3.253 -24.776  0.00  0.00    +0.079 C 
ATOM     23  H   UNL     1       2.969  -4.595 -26.880  0.00  0.00    +0.000 HD
ENDROOT
TORSDOF 0
ENDMDL
MODEL 8
REMARK VINA RESULT:    -6.055     14.808     16.242
REMARK INTER + INTRA:          -6.055
REMARK INTER:                  -6.055
REMARK INTRA:                   0.000
REMARK UNBOUND:                 0.000
REMARK  Name = /home/vital/Documents/PhD_2021/Malaria_codes/scripts/../data/pdbqt_ligands/ligand_452_temp.pdb
REMARK                            x       y       z     vdW  Elec       q    Type
REMARK                         _______ _______ _______ _____ _____    ______ ____
ROOT
ATOM      1  C1  UNL     1      12.881   3.984 -30.452  0.00  0.00    +0.079 C 
ATOM      2  O1  UNL     1      11.739   3.174 -30.695  0.00  0.00    -0.491 OA
ATOM      3  C2  UNL     1      11.304   2.363 -29.677  0.00  0.00    +0.164 A 
ATOM      4  C3  UNL     1      11.907   2.282 -28.422  0.00  0.00    +0.021 A 
ATOM      5  C4  UNL     1      11.380   1.422 -27.462  0.00  0.00    +0.148 A 
ATOM      6  F1  UNL     1      11.979   1.363 -26.261  0.00  0.00    -0.203 F 
ATOM      7  C5  UNL     1      10.252   0.623 -27.700  0.00  0.00    +0.073 A 
ATOM      8  N1  UNL     1       9.796  -0.211 -26.671  0.00  0.00    -0.281 N 
ATOM      9  C6  UNL     1       8.748  -1.114 -26.538  0.00  0.00    +0.220 A 
ATOM     10  N2  UNL     1       7.891  -1.352 -27.540  0.00  0.00    -0.222 NA
ATOM     11  C7  UNL     1       6.912  -2.246 -27.307  0.00  0.00    +0.040 A 
ATOM     12  C8  UNL     1       6.749  -2.919 -26.110  0.00  0.00    +0.019 A 
ATOM     13  C9  UNL     1       5.723  -3.855 -25.867  0.00  0.00    -0.051 A 
ATOM     14  C10 UNL     1       5.638  -4.484 -24.629  0.00  0.00    -0.061 A 
ATOM     15  C11 UNL     1       6.570  -4.179 -23.643  0.00  0.00    -0.060 A 
ATOM     16  C12 UNL     1       7.582  -3.246 -23.902  0.00  0.00    -0.036 A 
ATOM     17  C13 UNL     1       7.690  -2.604 -25.130  0.00  0.00    +0.076 A 
ATOM     18  N3  UNL     1       8.673  -1.717 -25.339  0.00  0.00    -0.214 NA
ATOM     19  C14 UNL     1       9.657   0.714 -28.963  0.00  0.00    +0.008 A 
ATOM     20  C15 UNL     1      10.169   1.573 -29.950  0.00  0.00    +0.163 A 
ATOM     21  O2  UNL     1       9.634   1.711 -31.208  0.00  0.00    -0.491 OA
ATOM     22  C16 UNL     1       8.488   0.932 -31.527  0.00  0.00    +0.079 C 
ATOM     23  H   UNL     1      10.342  -0.141 -25.855  0.00  0.00    +0.000 HD
ENDROOT
TORSDOF 0
ENDMDL
MODEL 9
REMARK VINA RESULT:    -5.792     15.907     17.348
REMARK INTER + INTRA:          -5.792
REMARK INTER:                  -5.792
REMARK INTRA:                   0.000
REMARK UNBOUND:                 0.000
REMARK  Name = /home/vital/Documents/PhD_2021/Malaria_codes/scripts/../data/pdbqt_ligands/ligand_452_temp.pdb
REMARK                            x       y       z     vdW  Elec       q    Type
REMARK                         _______ _______ _______ _____ _____    ______ ____
ROOT
ATOM      1  C1  UNL     1       1.711  -7.073 -32.377  0.00  0.00    +0.079 C 
ATOM      2  O1  UNL     1       1.461  -5.679 -32.471  0.00  0.00    -0.491 OA
ATOM      3  C2  UNL     1       2.543  -4.834 -32.444  0.00  0.00    +0.164 A 
ATOM      4  C3  UNL     1       3.868  -5.253 -32.333  0.00  0.00    +0.021 A 
ATOM      5  C4  UNL     1       4.889  -4.307 -32.317  0.00  0.00    +0.148 A 
ATOM      6  F1  UNL     1       6.156  -4.737 -32.208  0.00  0.00    -0.203 F 
ATOM      7  C5  UNL     1       4.643  -2.929 -32.409  0.00  0.00    +0.073 A 
ATOM      8  N1  UNL     1       5.737  -2.053 -32.383  0.00  0.00    -0.281 N 
ATOM      9  C6  UNL     1       5.884  -0.673 -32.450  0.00  0.00    +0.220 A 
ATOM     10  N2  UNL     1       4.829   0.144 -32.565  0.00  0.00    -0.222 NA
ATOM     11  C7  UNL     1       5.082   1.465 -32.620  0.00  0.00    +0.040 A 
ATOM     12  C8  UNL     1       6.351   2.012 -32.565  0.00  0.00    +0.019 A 
ATOM     13  C9  UNL     1       6.614   3.395 -32.624  0.00  0.00    -0.051 A 
ATOM     14  C10 UNL     1       7.927   3.853 -32.561  0.00  0.00    -0.061 A 
ATOM     15  C11 UNL     1       8.966   2.936 -32.441  0.00  0.00    -0.060 A 
ATOM     16  C12 UNL     1       8.685   1.565 -32.385  0.00  0.00    -0.036 A 
ATOM     17  C13 UNL     1       7.383   1.081 -32.445  0.00  0.00    +0.076 A 
ATOM     18  N3  UNL     1       7.155  -0.239 -32.389  0.00  0.00    -0.214 NA
ATOM     19  C14 UNL     1       3.310  -2.521 -32.520  0.00  0.00    +0.008 A 
ATOM     20  C15 UNL     1       2.261  -3.455 -32.539  0.00  0.00    +0.163 A 
ATOM     21  O2  UNL     1       0.932  -3.124 -32.646  0.00  0.00    -0.491 OA
ATOM     22  C16 UNL     1       0.601  -1.745 -32.743  0.00  0.00    +0.079 C 
ATOM     23  H   UNL     1       6.598  -2.523 -32.300  0.00  0.00    +0.000 HD
ENDROOT
TORSDOF 0
ENDMDL
