MODEL 1
REMARK VINA RESULT:    -7.514      0.000      0.000
REMARK INTER + INTRA:          -7.514
REMARK INTER:                  -7.514
REMARK INTRA:                   0.000
REMARK UNBOUND:                 0.000
REMARK  Name = /home/vital/Documents/PhD_2021/Malaria_codes/scripts/../data/pdbqt_ligands/ligand_150_temp.pdb
REMARK                            x       y       z     vdW  Elec       q    Type
REMARK                         _______ _______ _______ _____ _____    ______ ____
ROOT
ATOM      1  C   UNL     1      -3.913   8.227 -23.583  0.00  0.00    -0.080 C 
ATOM      2  C   UNL     1      -2.940   7.766 -22.791  0.00  0.00    +0.026 C 
ATOM      3  N   UNL     1      -3.227   7.016 -21.686  0.00  0.00    -0.204 N 
ATOM      4  C   UNL     1      -2.261   6.593 -20.934  0.00  0.00    +0.323 C 
ATOM      5  N   UNL     1      -0.941   6.851 -21.194  0.00  0.00    -0.206 NA
ATOM      6  C   UNL     1      -0.016   6.394 -20.418  0.00  0.00    +0.025 C 
ATOM      7  C   UNL     1      -0.201   5.590 -19.165  0.00  0.00    +0.078 C 
ATOM      8  C   UNL     1      -1.664   5.433 -18.888  0.00  0.00    +0.122 C 
ATOM      9  C   UNL     1      -2.067   4.964 -17.697  0.00  0.00    -0.022 C 
ATOM     10  C   UNL     1      -1.074   4.643 -16.692  0.00  0.00    -0.051 C 
ATOM     11  C   UNL     1       0.174   5.162 -16.744  0.00  0.00    -0.014 C 
ATOM     12  C   UNL     1       1.110   4.803 -15.655  0.00  0.00    -0.018 A 
ATOM     13  C   UNL     1       2.267   4.066 -15.943  0.00  0.00    -0.053 A 
ATOM     14  C   UNL     1       3.171   3.743 -14.927  0.00  0.00    -0.043 A 
ATOM     15  C   UNL     1       2.921   4.158 -13.620  0.00  0.00    +0.041 A 
ATOM     16 CL   UNL     1       4.034   3.763 -12.370  0.00  0.00    -0.084 Cl
ATOM     17  C   UNL     1       1.775   4.894 -13.320  0.00  0.00    -0.043 A 
ATOM     18  C   UNL     1       0.872   5.217 -14.336  0.00  0.00    -0.053 A 
ATOM     19  C   UNL     1       0.536   6.038 -17.898  0.00  0.00    -0.024 C 
ATOM     20  C   UNL     1       1.387   7.067 -17.690  0.00  0.00    -0.056 C 
ATOM     21  C   UNL     1       1.790   8.134 -18.583  0.00  0.00    -0.053 C 
ATOM     22  C   UNL     1       2.884   8.899 -18.437  0.00  0.00    -0.010 C 
ATOM     23  C   UNL     1       3.855   8.722 -17.411  0.00  0.00    -0.057 C 
ATOM     24  C   UNL     1       4.671   8.565 -16.545  0.00  0.00    +0.009 C 
ATOM     25 CL   UNL     1       5.859   8.319 -15.269  0.00  0.00    -0.022 Cl
ATOM     26  O   UNL     1      -2.604   5.838 -19.847  0.00  0.00    -0.427 OA
ATOM     27  H   UNL     1      -4.161   6.798 -21.464  0.00  0.00    +0.000 HD
ENDROOT
TORSDOF 0
ENDMDL
MODEL 2
REMARK VINA RESULT:    -7.484     17.267     19.329
REMARK INTER + INTRA:          -7.484
REMARK INTER:                  -7.484
REMARK INTRA:                   0.000
REMARK UNBOUND:                 0.000
REMARK  Name = /home/vital/Documents/PhD_2021/Malaria_codes/scripts/../data/pdbqt_ligands/ligand_150_temp.pdb
REMARK                            x       y       z     vdW  Elec       q    Type
REMARK                         _______ _______ _______ _____ _____    ______ ____
ROOT
ATOM      1  C   UNL     1       6.299   3.107 -32.977  0.00  0.00    -0.080 C 
ATOM      2  C   UNL     1       5.454   2.089 -32.788  0.00  0.00    +0.026 C 
ATOM      3  N   UNL     1       5.915   0.826 -32.548  0.00  0.00    -0.204 N 
ATOM      4  C   UNL     1       5.070  -0.141 -32.379  0.00  0.00    +0.323 C 
ATOM      5  N   UNL     1       3.712   0.037 -32.416  0.00  0.00    -0.206 NA
ATOM      6  C   UNL     1       2.912  -0.959 -32.229  0.00  0.00    +0.025 C 
ATOM      7  C   UNL     1       3.291  -2.390 -31.989  0.00  0.00    +0.078 C 
ATOM      8  C   UNL     1       4.779  -2.528 -32.062  0.00  0.00    +0.122 C 
ATOM      9  C   UNL     1       5.330  -3.751 -32.123  0.00  0.00    -0.022 C 
ATOM     10  C   UNL     1       4.467  -4.914 -32.142  0.00  0.00    -0.051 C 
ATOM     11  C   UNL     1       3.167  -4.820 -32.507  0.00  0.00    -0.014 C 
ATOM     12  C   UNL     1       2.371  -6.067 -32.529  0.00  0.00    -0.018 A 
ATOM     13  C   UNL     1       1.287  -6.221 -31.653  0.00  0.00    -0.053 A 
ATOM     14  C   UNL     1       0.513  -7.384 -31.683  0.00  0.00    -0.043 A 
ATOM     15  C   UNL     1       0.820  -8.397 -32.589  0.00  0.00    +0.041 A 
ATOM     16 CL   UNL     1      -0.134  -9.828 -32.628  0.00  0.00    -0.084 Cl
ATOM     17  C   UNL     1       1.894  -8.257 -33.467  0.00  0.00    -0.043 A 
ATOM     18  C   UNL     1       2.668  -7.094 -33.438  0.00  0.00    -0.053 A 
ATOM     19  C   UNL     1       2.613  -3.473 -32.837  0.00  0.00    -0.024 C 
ATOM     20  C   UNL     1       1.669  -3.378 -33.799  0.00  0.00    -0.056 C 
ATOM     21  C   UNL     1       1.075  -2.204 -34.404  0.00  0.00    -0.053 C 
ATOM     22  C   UNL     1      -0.084  -2.180 -35.082  0.00  0.00    -0.010 C 
ATOM     23  C   UNL     1      -0.941  -3.305 -35.244  0.00  0.00    -0.057 C 
ATOM     24  C   UNL     1      -1.660  -4.258 -35.374  0.00  0.00    +0.009 C 
ATOM     25 CL   UNL     1      -2.703  -5.665 -35.555  0.00  0.00    -0.022 Cl
ATOM     26  O   UNL     1       5.585  -1.382 -32.132  0.00  0.00    -0.427 OA
ATOM     27  H   UNL     1       6.883   0.652 -32.504  0.00  0.00    +0.000 HD
ENDROOT
TORSDOF 0
ENDMDL
MODEL 3
REMARK VINA RESULT:    -7.454     14.924     16.301
REMARK INTER + INTRA:          -7.454
REMARK INTER:                  -7.454
REMARK INTRA:                   0.000
REMARK UNBOUND:                 0.000
REMARK  Name = /home/vital/Documents/PhD_2021/Malaria_codes/scripts/../data/pdbqt_ligands/ligand_150_temp.pdb
REMARK                            x       y       z     vdW  Elec       q    Type
REMARK                         _______ _______ _______ _____ _____    ______ ____
ROOT
ATOM      1  C   UNL     1      -0.057  -4.114 -36.145  0.00  0.00    -0.080 C 
ATOM      2  C   UNL     1       0.524  -3.764 -34.994  0.00  0.00    +0.026 C 
ATOM      3  N   UNL     1       1.857  -3.974 -34.784  0.00  0.00    -0.204 N 
ATOM      4  C   UNL     1       2.388  -3.631 -33.654  0.00  0.00    +0.323 C 
ATOM      5  N   UNL     1       1.676  -3.047 -32.639  0.00  0.00    -0.206 NA
ATOM      6  C   UNL     1       2.257  -2.713 -31.535  0.00  0.00    +0.025 C 
ATOM      7  C   UNL     1       3.698  -2.919 -31.173  0.00  0.00    +0.078 C 
ATOM      8  C   UNL     1       4.389  -3.650 -32.282  0.00  0.00    +0.122 C 
ATOM      9  C   UNL     1       5.614  -4.159 -32.078  0.00  0.00    -0.022 C 
ATOM     10  C   UNL     1       6.234  -4.010 -30.777  0.00  0.00    -0.051 C 
ATOM     11  C   UNL     1       5.496  -3.755 -29.671  0.00  0.00    -0.014 C 
ATOM     12  C   UNL     1       6.213  -3.653 -28.381  0.00  0.00    -0.018 A 
ATOM     13  C   UNL     1       6.223  -2.437 -27.681  0.00  0.00    -0.053 A 
ATOM     14  C   UNL     1       6.875  -2.337 -26.449  0.00  0.00    -0.043 A 
ATOM     15  C   UNL     1       7.517  -3.450 -25.912  0.00  0.00    +0.041 A 
ATOM     16 CL   UNL     1       8.317  -3.327 -24.395  0.00  0.00    -0.084 Cl
ATOM     17  C   UNL     1       7.513  -4.665 -26.596  0.00  0.00    -0.043 A 
ATOM     18  C   UNL     1       6.861  -4.767 -27.828  0.00  0.00    -0.053 A 
ATOM     19  C   UNL     1       4.022  -3.569 -29.823  0.00  0.00    -0.024 C 
ATOM     20  C   UNL     1       3.210  -3.996 -28.831  0.00  0.00    -0.056 C 
ATOM     21  C   UNL     1       1.764  -4.065 -28.781  0.00  0.00    -0.053 C 
ATOM     22  C   UNL     1       1.028  -4.161 -27.662  0.00  0.00    -0.010 C 
ATOM     23  C   UNL     1       1.566  -4.134 -26.345  0.00  0.00    -0.057 C 
ATOM     24  C   UNL     1       2.026  -4.108 -25.236  0.00  0.00    +0.009 C 
ATOM     25 CL   UNL     1       2.719  -4.067 -23.618  0.00  0.00    -0.022 Cl
ATOM     26  O   UNL     1       3.728  -3.856 -33.502  0.00  0.00    -0.427 OA
ATOM     27  H   UNL     1       2.411  -4.384 -35.488  0.00  0.00    +0.000 HD
ENDROOT
TORSDOF 0
ENDMDL
MODEL 4
REMARK VINA RESULT:    -7.073     16.043     18.074
REMARK INTER + INTRA:          -7.073
REMARK INTER:                  -7.073
REMARK INTRA:                   0.000
REMARK UNBOUND:                 0.000
REMARK  Name = /home/vital/Documents/PhD_2021/Malaria_codes/scripts/../data/pdbqt_ligands/ligand_150_temp.pdb
REMARK                            x       y       z     vdW  Elec       q    Type
REMARK                         _______ _______ _______ _____ _____    ______ ____
ROOT
ATOM      1  C   UNL     1       0.067  -8.714 -32.780  0.00  0.00    -0.080 C 
ATOM      2  C   UNL     1       0.632  -7.531 -33.041  0.00  0.00    +0.026 C 
ATOM      3  N   UNL     1       1.857  -7.207 -32.532  0.00  0.00    -0.204 N 
ATOM      4  C   UNL     1       2.373  -6.049 -32.796  0.00  0.00    +0.323 C 
ATOM      5  N   UNL     1       1.753  -5.115 -33.583  0.00  0.00    -0.206 NA
ATOM      6  C   UNL     1       2.318  -3.979 -33.826  0.00  0.00    +0.025 C 
ATOM      7  C   UNL     1       3.637  -3.495 -33.302  0.00  0.00    +0.078 C 
ATOM      8  C   UNL     1       4.209  -4.520 -32.373  0.00  0.00    +0.122 C 
ATOM      9  C   UNL     1       5.258  -4.201 -31.599  0.00  0.00    -0.022 C 
ATOM     10  C   UNL     1       5.801  -2.859 -31.663  0.00  0.00    -0.051 C 
ATOM     11  C   UNL     1       5.070  -1.826 -32.142  0.00  0.00    -0.014 C 
ATOM     12  C   UNL     1       5.697  -0.486 -32.137  0.00  0.00    -0.018 A 
ATOM     13  C   UNL     1       5.950   0.173 -33.349  0.00  0.00    -0.053 A 
ATOM     14  C   UNL     1       6.517   1.450 -33.355  0.00  0.00    -0.043 A 
ATOM     15  C   UNL     1       6.833   2.073 -32.149  0.00  0.00    +0.041 A 
ATOM     16 CL   UNL     1       7.530   3.645 -32.157  0.00  0.00    -0.084 Cl
ATOM     17  C   UNL     1       6.585   1.431 -30.936  0.00  0.00    -0.043 A 
ATOM     18  C   UNL     1       6.017   0.154 -30.930  0.00  0.00    -0.053 A 
ATOM     19  C   UNL     1       3.699  -2.103 -32.664  0.00  0.00    -0.024 C 
ATOM     20  C   UNL     1       2.739  -1.167 -32.493  0.00  0.00    -0.056 C 
ATOM     21  C   UNL     1       1.319  -1.232 -32.771  0.00  0.00    -0.053 C 
ATOM     22  C   UNL     1       0.504  -0.174 -32.910  0.00  0.00    -0.010 C 
ATOM     23  C   UNL     1       0.938   1.182 -32.875  0.00  0.00    -0.057 C 
ATOM     24  C   UNL     1       1.312   2.322 -32.848  0.00  0.00    +0.009 C 
ATOM     25 CL   UNL     1       1.877   3.989 -32.806  0.00  0.00    -0.022 Cl
ATOM     26  O   UNL     1       3.606  -5.782 -32.267  0.00  0.00    -0.427 OA
ATOM     27  H   UNL     1       2.345  -7.850 -31.967  0.00  0.00    +0.000 HD
ENDROOT
TORSDOF 0
ENDMDL
MODEL 5
REMARK VINA RESULT:    -7.037      5.159      7.408
REMARK INTER + INTRA:          -7.037
REMARK INTER:                  -7.037
REMARK INTRA:                   0.000
REMARK UNBOUND:                 0.000
REMARK  Name = /home/vital/Documents/PhD_2021/Malaria_codes/scripts/../data/pdbqt_ligands/ligand_150_temp.pdb
REMARK                            x       y       z     vdW  Elec       q    Type
REMARK                         _______ _______ _______ _____ _____    ______ ____
ROOT
ATOM      1  C   UNL     1       2.359   9.259 -16.739  0.00  0.00    -0.080 C 
ATOM      2  C   UNL     1       2.092   8.123 -17.390  0.00  0.00    +0.026 C 
ATOM      3  N   UNL     1       0.808   7.687 -17.551  0.00  0.00    -0.204 N 
ATOM      4  C   UNL     1       0.583   6.577 -18.178  0.00  0.00    +0.323 C 
ATOM      5  N   UNL     1       1.581   5.804 -18.712  0.00  0.00    -0.206 NA
ATOM      6  C   UNL     1       1.302   4.710 -19.340  0.00  0.00    +0.025 C 
ATOM      7  C   UNL     1      -0.057   4.112 -19.554  0.00  0.00    +0.078 C 
ATOM      8  C   UNL     1      -1.084   4.952 -18.861  0.00  0.00    +0.122 C 
ATOM      9  C   UNL     1      -2.331   4.481 -18.708  0.00  0.00    -0.022 C 
ATOM     10  C   UNL     1      -2.652   3.156 -19.198  0.00  0.00    -0.051 C 
ATOM     11  C   UNL     1      -1.685   2.236 -19.424  0.00  0.00    -0.014 C 
ATOM     12  C   UNL     1      -2.110   0.898 -19.891  0.00  0.00    -0.018 A 
ATOM     13  C   UNL     1      -1.724   0.446 -21.161  0.00  0.00    -0.053 A 
ATOM     14  C   UNL     1      -2.098  -0.826 -21.602  0.00  0.00    -0.043 A 
ATOM     15  C   UNL     1      -2.858  -1.650 -20.775  0.00  0.00    +0.041 A 
ATOM     16 CL   UNL     1      -3.317  -3.217 -21.318  0.00  0.00    -0.084 Cl
ATOM     17  C   UNL     1      -3.248  -1.214 -19.509  0.00  0.00    -0.043 A 
ATOM     18  C   UNL     1      -2.873   0.058 -19.067  0.00  0.00    -0.053 A 
ATOM     19  C   UNL     1      -0.260   2.631 -19.213  0.00  0.00    -0.024 C 
ATOM     20  C   UNL     1       0.608   1.705 -18.750  0.00  0.00    -0.056 C 
ATOM     21  C   UNL     1       1.987   1.852 -18.333  0.00  0.00    -0.053 C 
ATOM     22  C   UNL     1       2.878   0.853 -18.225  0.00  0.00    -0.010 C 
ATOM     23  C   UNL     1       2.612  -0.499 -18.579  0.00  0.00    -0.057 C 
ATOM     24  C   UNL     1       2.382  -1.638 -18.883  0.00  0.00    +0.009 C 
ATOM     25 CL   UNL     1       2.026  -3.302 -19.335  0.00  0.00    -0.022 Cl
ATOM     26  O   UNL     1      -0.721   6.193 -18.318  0.00  0.00    -0.427 OA
ATOM     27  H   UNL     1       0.057   8.214 -17.191  0.00  0.00    +0.000 HD
ENDROOT
TORSDOF 0
ENDMDL
MODEL 6
REMARK VINA RESULT:    -6.954      5.627      8.169
REMARK INTER + INTRA:          -6.954
REMARK INTER:                  -6.954
REMARK INTRA:                   0.000
REMARK UNBOUND:                 0.000
REMARK  Name = /home/vital/Documents/PhD_2021/Malaria_codes/scripts/../data/pdbqt_ligands/ligand_150_temp.pdb
REMARK                            x       y       z     vdW  Elec       q    Type
REMARK                         _______ _______ _______ _____ _____    ______ ____
ROOT
ATOM      1  C   UNL     1       2.772   9.036 -17.343  0.00  0.00    -0.080 C 
ATOM      2  C   UNL     1       1.774   8.208 -17.665  0.00  0.00    +0.026 C 
ATOM      3  N   UNL     1       1.937   6.853 -17.613  0.00  0.00    -0.204 N 
ATOM      4  C   UNL     1       0.953   6.078 -17.941  0.00  0.00    +0.323 C 
ATOM      5  N   UNL     1      -0.271   6.549 -18.335  0.00  0.00    -0.206 NA
ATOM      6  C   UNL     1      -1.224   5.732 -18.640  0.00  0.00    +0.025 C 
ATOM      7  C   UNL     1      -1.161   4.233 -18.653  0.00  0.00    +0.078 C 
ATOM      8  C   UNL     1       0.228   3.792 -18.312  0.00  0.00    +0.122 C 
ATOM      9  C   UNL     1       0.583   2.512 -18.502  0.00  0.00    -0.022 C 
ATOM     10  C   UNL     1      -0.383   1.586 -19.057  0.00  0.00    -0.051 C 
ATOM     11  C   UNL     1      -1.456   2.024 -19.756  0.00  0.00    -0.014 C 
ATOM     12  C   UNL     1      -2.370   1.003 -20.315  0.00  0.00    -0.018 A 
ATOM     13  C   UNL     1      -3.696   0.931 -19.864  0.00  0.00    -0.053 A 
ATOM     14  C   UNL     1      -4.576  -0.012 -20.403  0.00  0.00    -0.043 A 
ATOM     15  C   UNL     1      -4.133  -0.885 -21.394  0.00  0.00    +0.041 A 
ATOM     16 CL   UNL     1      -5.216  -2.044 -22.059  0.00  0.00    -0.084 Cl
ATOM     17  C   UNL     1      -2.818  -0.823 -21.853  0.00  0.00    -0.043 A 
ATOM     18  C   UNL     1      -1.938   0.120 -21.315  0.00  0.00    -0.053 A 
ATOM     19  C   UNL     1      -1.664   3.496 -19.899  0.00  0.00    -0.024 C 
ATOM     20  C   UNL     1      -2.204   3.966 -21.045  0.00  0.00    -0.056 C 
ATOM     21  C   UNL     1      -2.383   5.331 -21.495  0.00  0.00    -0.053 C 
ATOM     22  C   UNL     1      -3.229   5.728 -22.460  0.00  0.00    -0.010 C 
ATOM     23  C   UNL     1      -4.135   4.863 -23.136  0.00  0.00    -0.057 C 
ATOM     24  C   UNL     1      -4.899   4.129 -23.700  0.00  0.00    +0.009 C 
ATOM     25 CL   UNL     1      -6.014   3.037 -24.516  0.00  0.00    -0.022 Cl
ATOM     26  O   UNL     1       1.169   4.730 -17.861  0.00  0.00    -0.427 OA
ATOM     27  H   UNL     1       2.797   6.468 -17.327  0.00  0.00    +0.000 HD
ENDROOT
TORSDOF 0
ENDMDL
MODEL 7
REMARK VINA RESULT:    -6.867     14.983     15.995
REMARK INTER + INTRA:          -6.867
REMARK INTER:                  -6.867
REMARK INTRA:                   0.000
REMARK UNBOUND:                 0.000
REMARK  Name = /home/vital/Documents/PhD_2021/Malaria_codes/scripts/../data/pdbqt_ligands/ligand_150_temp.pdb
REMARK                            x       y       z     vdW  Elec       q    Type
REMARK                         _______ _______ _______ _____ _____    ______ ____
ROOT
ATOM      1  C   UNL     1      -0.200  -3.858 -35.831  0.00  0.00    -0.080 C 
ATOM      2  C   UNL     1       0.860  -3.829 -35.018  0.00  0.00    +0.026 C 
ATOM      3  N   UNL     1       0.813  -4.400 -33.778  0.00  0.00    -0.204 N 
ATOM      4  C   UNL     1       1.854  -4.346 -33.010  0.00  0.00    +0.323 C 
ATOM      5  N   UNL     1       3.028  -3.747 -33.382  0.00  0.00    -0.206 NA
ATOM      6  C   UNL     1       4.043  -3.732 -32.582  0.00  0.00    +0.025 C 
ATOM      7  C   UNL     1       4.106  -4.292 -31.192  0.00  0.00    +0.078 C 
ATOM      8  C   UNL     1       2.764  -4.837 -30.815  0.00  0.00    +0.122 C 
ATOM      9  C   UNL     1       2.517  -5.165 -29.537  0.00  0.00    -0.022 C 
ATOM     10  C   UNL     1       3.550  -4.959 -28.542  0.00  0.00    -0.051 C 
ATOM     11  C   UNL     1       4.571  -4.098 -28.756  0.00  0.00    -0.014 C 
ATOM     12  C   UNL     1       5.561  -3.927 -27.669  0.00  0.00    -0.018 A 
ATOM     13  C   UNL     1       6.895  -4.310 -27.871  0.00  0.00    -0.053 A 
ATOM     14  C   UNL     1       7.843  -4.130 -26.861  0.00  0.00    -0.043 A 
ATOM     15  C   UNL     1       7.461  -3.566 -25.646  0.00  0.00    +0.041 A 
ATOM     16 CL   UNL     1       8.629  -3.343 -24.403  0.00  0.00    -0.084 Cl
ATOM     17  C   UNL     1       6.139  -3.179 -25.432  0.00  0.00    -0.043 A 
ATOM     18  C   UNL     1       5.190  -3.358 -26.442  0.00  0.00    -0.053 A 
ATOM     19  C   UNL     1       4.651  -3.397 -30.073  0.00  0.00    -0.024 C 
ATOM     20  C   UNL     1       5.133  -2.135 -30.108  0.00  0.00    -0.056 C 
ATOM     21  C   UNL     1       5.189  -1.193 -31.206  0.00  0.00    -0.053 C 
ATOM     22  C   UNL     1       5.985  -0.112 -31.265  0.00  0.00    -0.010 C 
ATOM     23  C   UNL     1       6.951   0.226 -30.276  0.00  0.00    -0.057 C 
ATOM     24  C   UNL     1       7.766   0.503 -29.439  0.00  0.00    +0.009 C 
ATOM     25 CL   UNL     1       8.957   0.894 -28.203  0.00  0.00    -0.022 Cl
ATOM     26  O   UNL     1       1.755  -4.941 -31.783  0.00  0.00    -0.427 OA
ATOM     27  H   UNL     1      -0.008  -4.849 -33.470  0.00  0.00    +0.000 HD
ENDROOT
TORSDOF 0
ENDMDL
MODEL 8
REMARK VINA RESULT:    -6.859     15.457     17.978
REMARK INTER + INTRA:          -6.859
REMARK INTER:                  -6.859
REMARK INTRA:                   0.000
REMARK UNBOUND:                 0.000
REMARK  Name = /home/vital/Documents/PhD_2021/Malaria_codes/scripts/../data/pdbqt_ligands/ligand_150_temp.pdb
REMARK                            x       y       z     vdW  Elec       q    Type
REMARK                         _______ _______ _______ _____ _____    ______ ____
ROOT
ATOM      1  C   UNL     1       8.507  -3.167 -24.313  0.00  0.00    -0.080 C 
ATOM      2  C   UNL     1       7.797  -3.454 -25.408  0.00  0.00    +0.026 C 
ATOM      3  N   UNL     1       7.602  -2.522 -26.387  0.00  0.00    -0.204 N 
ATOM      4  C   UNL     1       6.900  -2.830 -27.431  0.00  0.00    +0.323 C 
ATOM      5  N   UNL     1       6.341  -4.066 -27.619  0.00  0.00    -0.206 NA
ATOM      6  C   UNL     1       5.660  -4.325 -28.686  0.00  0.00    +0.025 C 
ATOM      7  C   UNL     1       5.350  -3.383 -29.811  0.00  0.00    +0.078 C 
ATOM      8  C   UNL     1       5.903  -2.030 -29.493  0.00  0.00    +0.122 C 
ATOM      9  C   UNL     1       5.538  -0.973 -30.235  0.00  0.00    -0.022 C 
ATOM     10  C   UNL     1       4.593  -1.162 -31.317  0.00  0.00    -0.051 C 
ATOM     11  C   UNL     1       3.772  -2.237 -31.355  0.00  0.00    -0.014 C 
ATOM     12  C   UNL     1       2.817  -2.328 -32.481  0.00  0.00    -0.018 A 
ATOM     13  C   UNL     1       2.923  -3.378 -33.405  0.00  0.00    -0.053 A 
ATOM     14  C   UNL     1       2.011  -3.488 -34.458  0.00  0.00    -0.043 A 
ATOM     15  C   UNL     1       0.989  -2.550 -34.590  0.00  0.00    +0.041 A 
ATOM     16 CL   UNL     1      -0.135  -2.687 -35.885  0.00  0.00    -0.084 Cl
ATOM     17  C   UNL     1       0.870  -1.502 -33.678  0.00  0.00    -0.043 A 
ATOM     18  C   UNL     1       1.782  -1.392 -32.624  0.00  0.00    -0.053 A 
ATOM     19  C   UNL     1       3.895  -3.268 -30.281  0.00  0.00    -0.024 C 
ATOM     20  C   UNL     1       2.780  -3.906 -29.865  0.00  0.00    -0.056 C 
ATOM     21  C   UNL     1       2.595  -4.831 -28.765  0.00  0.00    -0.053 C 
ATOM     22  C   UNL     1       1.566  -5.683 -28.629  0.00  0.00    -0.010 C 
ATOM     23  C   UNL     1       0.534  -5.853 -29.594  0.00  0.00    -0.057 C 
ATOM     24  C   UNL     1      -0.332  -5.992 -30.413  0.00  0.00    +0.009 C 
ATOM     25 CL   UNL     1      -1.594  -6.185 -31.627  0.00  0.00    -0.022 Cl
ATOM     26  O   UNL     1       6.745  -1.862 -28.384  0.00  0.00    -0.427 OA
ATOM     27  H   UNL     1       7.992  -1.622 -26.299  0.00  0.00    +0.000 HD
ENDROOT
TORSDOF 0
ENDMDL
MODEL 9
REMARK VINA RESULT:    -6.830     12.980     14.121
REMARK INTER + INTRA:          -6.830
REMARK INTER:                  -6.830
REMARK INTRA:                   0.000
REMARK UNBOUND:                 0.000
REMARK  Name = /home/vital/Documents/PhD_2021/Malaria_codes/scripts/../data/pdbqt_ligands/ligand_150_temp.pdb
REMARK                            x       y       z     vdW  Elec       q    Type
REMARK                         _______ _______ _______ _____ _____    ______ ____
ROOT
ATOM      1  C   UNL     1       1.967  -6.049 -26.327  0.00  0.00    -0.080 C 
ATOM      2  C   UNL     1       3.118  -5.391 -26.488  0.00  0.00    +0.026 C 
ATOM      3  N   UNL     1       3.870  -5.012 -25.412  0.00  0.00    -0.204 N 
ATOM      4  C   UNL     1       4.977  -4.367 -25.601  0.00  0.00    +0.323 C 
ATOM      5  N   UNL     1       5.453  -4.046 -26.845  0.00  0.00    -0.206 NA
ATOM      6  C   UNL     1       6.570  -3.411 -26.980  0.00  0.00    +0.025 C 
ATOM      7  C   UNL     1       7.465  -2.916 -25.883  0.00  0.00    +0.078 C 
ATOM      8  C   UNL     1       6.837  -3.210 -24.557  0.00  0.00    +0.122 C 
ATOM      9  C   UNL     1       7.335  -2.644 -23.447  0.00  0.00    -0.022 C 
ATOM     10  C   UNL     1       8.459  -1.737 -23.560  0.00  0.00    -0.051 C 
ATOM     11  C   UNL     1       8.760  -1.131 -24.732  0.00  0.00    -0.014 C 
ATOM     12  C   UNL     1       9.906  -0.195 -24.743  0.00  0.00    -0.018 A 
ATOM     13  C   UNL     1      11.037  -0.483 -25.520  0.00  0.00    -0.053 A 
ATOM     14  C   UNL     1      12.114   0.406 -25.558  0.00  0.00    -0.043 A 
ATOM     15  C   UNL     1      12.063   1.586 -24.820  0.00  0.00    +0.041 A 
ATOM     16 CL   UNL     1      13.389   2.682 -24.868  0.00  0.00    -0.084 Cl
ATOM     17  C   UNL     1      10.944   1.887 -24.044  0.00  0.00    -0.043 A 
ATOM     18  C   UNL     1       9.866   0.999 -24.007  0.00  0.00    -0.053 A 
ATOM     19  C   UNL     1       7.940  -1.459 -25.937  0.00  0.00    -0.024 C 
ATOM     20  C   UNL     1       7.709  -0.488 -26.847  0.00  0.00    -0.056 C 
ATOM     21  C   UNL     1       6.850  -0.495 -28.013  0.00  0.00    -0.053 C 
ATOM     22  C   UNL     1       6.937   0.355 -29.049  0.00  0.00    -0.010 C 
ATOM     23  C   UNL     1       7.946   1.351 -29.186  0.00  0.00    -0.057 C 
ATOM     24  C   UNL     1       8.801   2.186 -29.296  0.00  0.00    +0.009 C 
ATOM     25 CL   UNL     1      10.063   3.405 -29.441  0.00  0.00    -0.022 Cl
ATOM     26  O   UNL     1       5.694  -4.021 -24.490  0.00  0.00    -0.427 OA
ATOM     27  H   UNL     1       3.572  -5.228 -24.498  0.00  0.00    +0.000 HD
ENDROOT
TORSDOF 0
ENDMDL
