MODEL 1
REMARK VINA RESULT:    -5.212      0.000      0.000
REMARK INTER + INTRA:          -5.212
REMARK INTER:                  -5.212
REMARK INTRA:                   0.000
REMARK UNBOUND:                 0.000
REMARK  Name = /home/vital/Documents/PhD_2021/Malaria_codes/scripts/../data/pdbqt_ligands/ligand_389_temp.pdb
REMARK                            x       y       z     vdW  Elec       q    Type
REMARK                         _______ _______ _______ _____ _____    ______ ____
ROOT
ATOM      1  C   UNL     1       5.102   8.193 -19.247  0.00  0.00    -0.091 C 
ATOM      2  C   UNL     1       4.374   9.224 -19.717  0.00  0.00    -0.024 C 
ATOM      3  C   UNL     1       3.863  10.233 -18.781  0.00  0.00    -0.054 C 
ATOM      4  C   UNL     1       3.112  10.092 -17.672  0.00  0.00    -0.059 C 
ATOM      5  C   UNL     1       2.526   8.903 -17.066  0.00  0.00    -0.040 C 
ATOM      6  C   UNL     1       1.900   7.903 -17.718  0.00  0.00    +0.052 C 
ATOM      7  C   UNL     1       1.312   6.737 -17.000  0.00  0.00    +0.046 C 
ATOM      8  C   UNL     1       0.447   5.913 -17.947  0.00  0.00    +0.105 C 
ATOM      9  N   UNL     1      -0.392   4.979 -17.357  0.00  0.00    -0.330 N 
ATOM     10  C   UNL     1      -1.525   4.413 -18.086  0.00  0.00    +0.033 C 
ATOM     11  C   UNL     1      -2.711   5.382 -18.044  0.00  0.00    +0.060 C 
ATOM     12  O   UNL     1      -3.139   5.572 -16.690  0.00  0.00    -0.393 OA
ATOM     13  N   UNL     1       0.494   6.042 -19.236  0.00  0.00    -0.200 N 
ATOM     14  C   UNL     1       1.316   6.997 -19.775  0.00  0.00    +0.260 C 
ATOM     15  N   UNL     1       1.897   7.908 -19.073  0.00  0.00    -0.215 N 
ATOM     16  N   UNL     1       1.530   7.025 -21.141  0.00  0.00    -0.167 N 
ATOM     17  C   UNL     1       2.387   7.733 -21.531  0.00  0.00    -0.008 C 
ATOM     18  C   UNL     1       3.315   8.523 -22.002  0.00  0.00    +0.008 C 
ATOM     19  C   UNL     1       4.214   9.361 -21.191  0.00  0.00    +0.002 C 
ATOM     20  C   UNL     1       4.997  10.293 -21.771  0.00  0.00    +0.013 C 
ATOM     21 CL   UNL     1       5.081  10.695 -23.436  0.00  0.00    -0.091 Cl
ATOM     22  H   UNL     1      -0.222   4.693 -16.431  0.00  0.00    +0.000 HD
ATOM     23  H   UNL     1      -3.412   4.721 -16.314  0.00  0.00    +0.000 HD
ATOM     24  H   UNL     1      -0.051   5.464 -19.818  0.00  0.00    +0.000 HD
ATOM     25  H   UNL     1       2.360   8.639 -19.542  0.00  0.00    +0.000 HD
ATOM     26  H   UNL     1       0.992   6.479 -21.758  0.00  0.00    +0.000 HD
ENDROOT
TORSDOF 0
ENDMDL
MODEL 2
REMARK VINA RESULT:    -5.131      8.029     11.289
REMARK INTER + INTRA:          -5.131
REMARK INTER:                  -5.131
REMARK INTRA:                   0.000
REMARK UNBOUND:                 0.000
REMARK  Name = /home/vital/Documents/PhD_2021/Malaria_codes/scripts/../data/pdbqt_ligands/ligand_389_temp.pdb
REMARK                            x       y       z     vdW  Elec       q    Type
REMARK                         _______ _______ _______ _____ _____    ______ ____
ROOT
ATOM      1  C   UNL     1      -2.077  -2.096 -22.548  0.00  0.00    -0.091 C 
ATOM      2  C   UNL     1      -2.234  -3.045 -21.606  0.00  0.00    -0.024 C 
ATOM      3  C   UNL     1      -3.269  -2.879 -20.579  0.00  0.00    -0.054 C 
ATOM      4  C   UNL     1      -3.491  -1.865 -19.720  0.00  0.00    -0.059 C 
ATOM      5  C   UNL     1      -2.753  -0.629 -19.501  0.00  0.00    -0.040 C 
ATOM      6  C   UNL     1      -1.412  -0.502 -19.434  0.00  0.00    +0.052 C 
ATOM      7  C   UNL     1      -0.753   0.811 -19.181  0.00  0.00    +0.046 C 
ATOM      8  C   UNL     1       0.731   0.612 -18.895  0.00  0.00    +0.105 C 
ATOM      9  N   UNL     1       1.404   1.699 -18.354  0.00  0.00    -0.330 N 
ATOM     10  C   UNL     1       2.692   1.534 -17.685  0.00  0.00    +0.033 C 
ATOM     11  C   UNL     1       2.477   1.058 -16.245  0.00  0.00    +0.060 C 
ATOM     12  O   UNL     1       1.747   2.045 -15.507  0.00  0.00    -0.393 OA
ATOM     13  N   UNL     1       1.357  -0.493 -19.156  0.00  0.00    -0.200 N 
ATOM     14  C   UNL     1       0.647  -1.550 -19.662  0.00  0.00    +0.260 C 
ATOM     15  N   UNL     1      -0.640  -1.580 -19.709  0.00  0.00    -0.215 N 
ATOM     16  N   UNL     1       1.319  -2.666 -20.127  0.00  0.00    -0.167 N 
ATOM     17  C   UNL     1       0.684  -3.458 -20.725  0.00  0.00    -0.008 C 
ATOM     18  C   UNL     1       0.008  -4.369 -21.374  0.00  0.00    +0.008 C 
ATOM     19  C   UNL     1      -1.421  -4.288 -21.715  0.00  0.00    +0.002 C 
ATOM     20  C   UNL     1      -2.075  -5.363 -22.202  0.00  0.00    +0.013 C 
ATOM     21 CL   UNL     1      -1.443  -6.933 -22.474  0.00  0.00    -0.091 Cl
ATOM     22  H   UNL     1       1.006   2.596 -18.423  0.00  0.00    +0.000 HD
ATOM     23  H   UNL     1       2.247   2.875 -15.495  0.00  0.00    +0.000 HD
ATOM     24  H   UNL     1       2.324  -0.571 -18.994  0.00  0.00    +0.000 HD
ATOM     25  H   UNL     1      -1.082  -2.425 -19.957  0.00  0.00    +0.000 HD
ATOM     26  H   UNL     1       2.282  -2.792 -19.967  0.00  0.00    +0.000 HD
ENDROOT
TORSDOF 0
ENDMDL
MODEL 3
REMARK VINA RESULT:    -4.871     11.176     12.312
REMARK INTER + INTRA:          -4.871
REMARK INTER:                  -4.871
REMARK INTRA:                   0.000
REMARK UNBOUND:                 0.000
REMARK  Name = /home/vital/Documents/PhD_2021/Malaria_codes/scripts/../data/pdbqt_ligands/ligand_389_temp.pdb
REMARK                            x       y       z     vdW  Elec       q    Type
REMARK                         _______ _______ _______ _____ _____    ______ ____
ROOT
ATOM      1  C   UNL     1       4.855  -2.446 -23.674  0.00  0.00    -0.091 C 
ATOM      2  C   UNL     1       5.709  -3.480 -23.546  0.00  0.00    -0.024 C 
ATOM      3  C   UNL     1       5.314  -4.648 -22.752  0.00  0.00    -0.054 C 
ATOM      4  C   UNL     1       4.883  -4.732 -21.478  0.00  0.00    -0.059 C 
ATOM      5  C   UNL     1       4.713  -3.699 -20.464  0.00  0.00    -0.040 C 
ATOM      6  C   UNL     1       5.573  -2.697 -20.195  0.00  0.00    +0.052 C 
ATOM      7  C   UNL     1       5.316  -1.701 -19.117  0.00  0.00    +0.046 C 
ATOM      8  C   UNL     1       6.562  -0.859 -18.864  0.00  0.00    +0.105 C 
ATOM      9  N   UNL     1       6.567  -0.103 -17.701  0.00  0.00    -0.330 N 
ATOM     10  C   UNL     1       7.812   0.428 -17.150  0.00  0.00    +0.033 C 
ATOM     11  C   UNL     1       8.534  -0.659 -16.347  0.00  0.00    +0.060 C 
ATOM     12  O   UNL     1       7.726  -1.066 -15.237  0.00  0.00    -0.393 OA
ATOM     13  N   UNL     1       7.561  -0.817 -19.688  0.00  0.00    -0.200 N 
ATOM     14  C   UNL     1       7.526  -1.602 -20.811  0.00  0.00    +0.260 C 
ATOM     15  N   UNL     1       6.651  -2.528 -20.999  0.00  0.00    -0.215 N 
ATOM     16  N   UNL     1       8.482  -1.433 -21.795  0.00  0.00    -0.167 N 
ATOM     17  C   UNL     1       8.299  -1.990 -22.816  0.00  0.00    -0.008 C 
ATOM     18  C   UNL     1       8.140  -2.610 -23.956  0.00  0.00    +0.008 C 
ATOM     19  C   UNL     1       6.982  -3.443 -24.318  0.00  0.00    +0.002 C 
ATOM     20  C   UNL     1       7.003  -4.205 -25.431  0.00  0.00    +0.013 C 
ATOM     21 CL   UNL     1       8.289  -4.380 -26.551  0.00  0.00    -0.091 Cl
ATOM     22  H   UNL     1       5.717   0.079 -17.239  0.00  0.00    +0.000 HD
ATOM     23  H   UNL     1       7.561  -0.303 -14.660  0.00  0.00    +0.000 HD
ATOM     24  H   UNL     1       8.332  -0.231 -19.511  0.00  0.00    +0.000 HD
ATOM     25  H   UNL     1       6.770  -3.140 -21.760  0.00  0.00    +0.000 HD
ATOM     26  H   UNL     1       9.279  -0.873 -21.649  0.00  0.00    +0.000 HD
ENDROOT
TORSDOF 0
ENDMDL
MODEL 4
REMARK VINA RESULT:    -4.848     10.910     14.009
REMARK INTER + INTRA:          -4.848
REMARK INTER:                  -4.848
REMARK INTRA:                   0.000
REMARK UNBOUND:                 0.000
REMARK  Name = /home/vital/Documents/PhD_2021/Malaria_codes/scripts/../data/pdbqt_ligands/ligand_389_temp.pdb
REMARK                            x       y       z     vdW  Elec       q    Type
REMARK                         _______ _______ _______ _____ _____    ______ ____
ROOT
ATOM      1  C   UNL     1      -4.685  -6.085 -24.901  0.00  0.00    -0.091 C 
ATOM      2  C   UNL     1      -3.902  -5.278 -25.642  0.00  0.00    -0.024 C 
ATOM      3  C   UNL     1      -2.453  -5.509 -25.674  0.00  0.00    -0.054 C 
ATOM      4  C   UNL     1      -1.562  -5.597 -24.668  0.00  0.00    -0.059 C 
ATOM      5  C   UNL     1      -1.736  -5.448 -23.229  0.00  0.00    -0.040 C 
ATOM      6  C   UNL     1      -2.468  -4.500 -22.609  0.00  0.00    +0.052 C 
ATOM      7  C   UNL     1      -2.564  -4.420 -21.124  0.00  0.00    +0.046 C 
ATOM      8  C   UNL     1      -3.227  -3.113 -20.705  0.00  0.00    +0.105 C 
ATOM      9  N   UNL     1      -3.116  -2.769 -19.365  0.00  0.00    -0.330 N 
ATOM     10  C   UNL     1      -3.353  -1.399 -18.914  0.00  0.00    +0.033 C 
ATOM     11  C   UNL     1      -2.103  -0.546 -19.151  0.00  0.00    +0.060 C 
ATOM     12  O   UNL     1      -1.010  -1.057 -18.378  0.00  0.00    -0.393 OA
ATOM     13  N   UNL     1      -3.884  -2.361 -21.532  0.00  0.00    -0.200 N 
ATOM     14  C   UNL     1      -3.944  -2.724 -22.851  0.00  0.00    +0.260 C 
ATOM     15  N   UNL     1      -3.221  -3.662 -23.360  0.00  0.00    -0.215 N 
ATOM     16  N   UNL     1      -4.792  -2.049 -23.710  0.00  0.00    -0.167 N 
ATOM     17  C   UNL     1      -4.952  -2.519 -24.778  0.00  0.00    -0.008 C 
ATOM     18  C   UNL     1      -5.136  -2.998 -25.980  0.00  0.00    +0.008 C 
ATOM     19  C   UNL     1      -4.557  -4.249 -26.496  0.00  0.00    +0.002 C 
ATOM     20  C   UNL     1      -4.636  -4.555 -27.808  0.00  0.00    +0.013 C 
ATOM     21 CL   UNL     1      -5.338  -3.614 -29.058  0.00  0.00    -0.091 Cl
ATOM     22  H   UNL     1      -2.873  -3.459 -18.708  0.00  0.00    +0.000 HD
ATOM     23  H   UNL     1      -1.239  -1.029 -17.436  0.00  0.00    +0.000 HD
ATOM     24  H   UNL     1      -4.333  -1.543 -21.216  0.00  0.00    +0.000 HD
ATOM     25  H   UNL     1      -3.217  -3.774 -24.338  0.00  0.00    +0.000 HD
ATOM     26  H   UNL     1      -5.243  -1.216 -23.441  0.00  0.00    +0.000 HD
ENDROOT
TORSDOF 0
ENDMDL
MODEL 5
REMARK VINA RESULT:    -4.832      9.099     10.507
REMARK INTER + INTRA:          -4.832
REMARK INTER:                  -4.832
REMARK INTRA:                   0.000
REMARK UNBOUND:                 0.000
REMARK  Name = /home/vital/Documents/PhD_2021/Malaria_codes/scripts/../data/pdbqt_ligands/ligand_389_temp.pdb
REMARK                            x       y       z     vdW  Elec       q    Type
REMARK                         _______ _______ _______ _____ _____    ______ ____
ROOT
ATOM      1  C   UNL     1       3.634  -3.584 -22.814  0.00  0.00    -0.091 C 
ATOM      2  C   UNL     1       4.816  -3.673 -22.174  0.00  0.00    -0.024 C 
ATOM      3  C   UNL     1       4.950  -4.583 -21.030  0.00  0.00    -0.054 C 
ATOM      4  C   UNL     1       4.228  -4.671 -19.896  0.00  0.00    -0.059 C 
ATOM      5  C   UNL     1       3.112  -3.866 -19.416  0.00  0.00    -0.040 C 
ATOM      6  C   UNL     1       3.017  -2.522 -19.472  0.00  0.00    +0.052 C 
ATOM      7  C   UNL     1       1.838  -1.789 -18.930  0.00  0.00    +0.046 C 
ATOM      8  C   UNL     1       2.119  -0.291 -18.887  0.00  0.00    +0.105 C 
ATOM      9  N   UNL     1       1.239   0.478 -18.138  0.00  0.00    -0.330 N 
ATOM     10  C   UNL     1       1.598   1.824 -17.699  0.00  0.00    +0.033 C 
ATOM     11  C   UNL     1       2.471   1.750 -16.442  0.00  0.00    +0.060 C 
ATOM     12  O   UNL     1       1.737   1.143 -15.372  0.00  0.00    -0.393 OA
ATOM     13  N   UNL     1       3.103   0.259 -19.526  0.00  0.00    -0.200 N 
ATOM     14  C   UNL     1       3.964  -0.542 -20.230  0.00  0.00    +0.260 C 
ATOM     15  N   UNL     1       3.973  -1.827 -20.134  0.00  0.00    -0.215 N 
ATOM     16  N   UNL     1       4.900   0.031 -21.071  0.00  0.00    -0.167 N 
ATOM     17  C   UNL     1       5.481  -0.695 -21.794  0.00  0.00    -0.008 C 
ATOM     18  C   UNL     1       6.161  -1.472 -22.595  0.00  0.00    +0.008 C 
ATOM     19  C   UNL     1       5.977  -2.927 -22.729  0.00  0.00    +0.002 C 
ATOM     20  C   UNL     1       6.861  -3.670 -23.427  0.00  0.00    +0.013 C 
ATOM     21 CL   UNL     1       8.288  -3.132 -24.211  0.00  0.00    -0.091 Cl
ATOM     22  H   UNL     1       0.359   0.109 -17.899  0.00  0.00    +0.000 HD
ATOM     23  H   UNL     1       0.948   1.674 -15.180  0.00  0.00    +0.000 HD
ATOM     24  H   UNL     1       3.229   1.235 -19.507  0.00  0.00    +0.000 HD
ATOM     25  H   UNL     1       4.706  -2.325 -20.562  0.00  0.00    +0.000 HD
ATOM     26  H   UNL     1       5.072   1.000 -21.067  0.00  0.00    +0.000 HD
ENDROOT
TORSDOF 0
ENDMDL
MODEL 6
REMARK VINA RESULT:    -4.669      8.445     11.734
REMARK INTER + INTRA:          -4.669
REMARK INTER:                  -4.669
REMARK INTRA:                   0.000
REMARK UNBOUND:                 0.000
REMARK  Name = /home/vital/Documents/PhD_2021/Malaria_codes/scripts/../data/pdbqt_ligands/ligand_389_temp.pdb
REMARK                            x       y       z     vdW  Elec       q    Type
REMARK                         _______ _______ _______ _____ _____    ______ ____
ROOT
ATOM      1  C   UNL     1      -6.764   1.508 -25.933  0.00  0.00    -0.091 C 
ATOM      2  C   UNL     1      -7.083   1.350 -24.634  0.00  0.00    -0.024 C 
ATOM      3  C   UNL     1      -8.344   1.905 -24.128  0.00  0.00    -0.054 C 
ATOM      4  C   UNL     1      -8.830   3.160 -24.187  0.00  0.00    -0.059 C 
ATOM      5  C   UNL     1      -8.246   4.380 -24.729  0.00  0.00    -0.040 C 
ATOM      6  C   UNL     1      -6.972   4.792 -24.572  0.00  0.00    +0.052 C 
ATOM      7  C   UNL     1      -6.477   6.073 -25.150  0.00  0.00    +0.046 C 
ATOM      8  C   UNL     1      -5.096   6.407 -24.597  0.00  0.00    +0.105 C 
ATOM      9  N   UNL     1      -4.644   7.701 -24.812  0.00  0.00    -0.330 N 
ATOM     10  C   UNL     1      -3.547   8.259 -24.024  0.00  0.00    +0.033 C 
ATOM     11  C   UNL     1      -4.073   8.757 -22.674  0.00  0.00    +0.060 C 
ATOM     12  O   UNL     1      -5.020   9.812 -22.878  0.00  0.00    -0.393 OA
ATOM     13  N   UNL     1      -4.358   5.539 -23.978  0.00  0.00    -0.200 N 
ATOM     14  C   UNL     1      -4.856   4.281 -23.762  0.00  0.00    +0.260 C 
ATOM     15  N   UNL     1      -6.090   3.966 -23.960  0.00  0.00    -0.215 N 
ATOM     16  N   UNL     1      -4.023   3.288 -23.281  0.00  0.00    -0.167 N 
ATOM     17  C   UNL     1      -4.444   2.188 -23.295  0.00  0.00    -0.008 C 
ATOM     18  C   UNL     1      -4.884   0.957 -23.276  0.00  0.00    +0.008 C 
ATOM     19  C   UNL     1      -6.192   0.513 -23.785  0.00  0.00    +0.002 C 
ATOM     20  C   UNL     1      -6.639  -0.735 -23.536  0.00  0.00    +0.013 C 
ATOM     21 CL   UNL     1      -5.862  -1.959 -22.619  0.00  0.00    -0.091 Cl
ATOM     22  H   UNL     1      -5.069   8.251 -25.508  0.00  0.00    +0.000 HD
ATOM     23  H   UNL     1      -4.591  10.548 -23.342  0.00  0.00    +0.000 HD
ATOM     24  H   UNL     1      -3.455   5.780 -23.669  0.00  0.00    +0.000 HD
ATOM     25  H   UNL     1      -6.404   3.084 -23.654  0.00  0.00    +0.000 HD
ATOM     26  H   UNL     1      -3.122   3.491 -22.942  0.00  0.00    +0.000 HD
ENDROOT
TORSDOF 0
ENDMDL
MODEL 7
REMARK VINA RESULT:    -4.655      9.557     10.894
REMARK INTER + INTRA:          -4.655
REMARK INTER:                  -4.655
REMARK INTRA:                   0.000
REMARK UNBOUND:                 0.000
REMARK  Name = /home/vital/Documents/PhD_2021/Malaria_codes/scripts/../data/pdbqt_ligands/ligand_389_temp.pdb
REMARK                            x       y       z     vdW  Elec       q    Type
REMARK                         _______ _______ _______ _____ _____    ______ ____
ROOT
ATOM      1  C   UNL     1       4.937  -4.481 -23.131  0.00  0.00    -0.091 C 
ATOM      2  C   UNL     1       5.597  -3.621 -22.332  0.00  0.00    -0.024 C 
ATOM      3  C   UNL     1       5.867  -3.994 -20.938  0.00  0.00    -0.054 C 
ATOM      4  C   UNL     1       5.027  -4.394 -19.964  0.00  0.00    -0.059 C 
ATOM      5  C   UNL     1       3.578  -4.544 -19.962  0.00  0.00    -0.040 C 
ATOM      6  C   UNL     1       2.687  -3.680 -20.490  0.00  0.00    +0.052 C 
ATOM      7  C   UNL     1       1.217  -3.916 -20.416  0.00  0.00    +0.046 C 
ATOM      8  C   UNL     1       0.458  -2.667 -20.850  0.00  0.00    +0.105 C 
ATOM      9  N   UNL     1      -0.897  -2.637 -20.551  0.00  0.00    -0.330 N 
ATOM     10  C   UNL     1      -1.644  -1.381 -20.554  0.00  0.00    +0.033 C 
ATOM     11  C   UNL     1      -1.422  -0.636 -19.234  0.00  0.00    +0.060 C 
ATOM     12  O   UNL     1      -1.922  -1.417 -18.143  0.00  0.00    -0.393 OA
ATOM     13  N   UNL     1       1.020  -1.687 -21.486  0.00  0.00    -0.200 N 
ATOM     14  C   UNL     1       2.366  -1.746 -21.735  0.00  0.00    +0.260 C 
ATOM     15  N   UNL     1       3.145  -2.623 -21.202  0.00  0.00    -0.215 N 
ATOM     16  N   UNL     1       2.949  -0.814 -22.573  0.00  0.00    -0.167 N 
ATOM     17  C   UNL     1       4.060  -1.020 -22.907  0.00  0.00    -0.008 C 
ATOM     18  C   UNL     1       5.299  -1.204 -23.281  0.00  0.00    +0.008 C 
ATOM     19  C   UNL     1       6.130  -2.367 -22.931  0.00  0.00    +0.002 C 
ATOM     20  C   UNL     1       7.454  -2.370 -23.191  0.00  0.00    +0.013 C 
ATOM     21 CL   UNL     1       8.382  -1.110 -23.891  0.00  0.00    -0.091 Cl
ATOM     22  H   UNL     1      -1.362  -3.476 -20.333  0.00  0.00    +0.000 HD
ATOM     23  H   UNL     1      -2.872  -1.571 -18.264  0.00  0.00    +0.000 HD
ATOM     24  H   UNL     1       0.488  -0.915 -21.785  0.00  0.00    +0.000 HD
ATOM     25  H   UNL     1       4.118  -2.519 -21.318  0.00  0.00    +0.000 HD
ATOM     26  H   UNL     1       2.459  -0.016 -22.877  0.00  0.00    +0.000 HD
ENDROOT
TORSDOF 0
ENDMDL
MODEL 8
REMARK VINA RESULT:    -4.388     15.502     17.514
REMARK INTER + INTRA:          -4.388
REMARK INTER:                  -4.388
REMARK INTRA:                   0.000
REMARK UNBOUND:                 0.000
REMARK  Name = /home/vital/Documents/PhD_2021/Malaria_codes/scripts/../data/pdbqt_ligands/ligand_389_temp.pdb
REMARK                            x       y       z     vdW  Elec       q    Type
REMARK                         _______ _______ _______ _____ _____    ______ ____
ROOT
ATOM      1  C   UNL     1      -1.913  -0.642 -33.189  0.00  0.00    -0.091 C 
ATOM      2  C   UNL     1      -1.167   0.171 -33.962  0.00  0.00    -0.024 C 
ATOM      3  C   UNL     1      -0.910  -0.197 -35.359  0.00  0.00    -0.054 C 
ATOM      4  C   UNL     1      -0.385  -1.322 -35.882  0.00  0.00    -0.059 C 
ATOM      5  C   UNL     1       0.138  -2.517 -35.232  0.00  0.00    -0.040 C 
ATOM      6  C   UNL     1       0.938  -2.548 -34.147  0.00  0.00    +0.052 C 
ATOM      7  C   UNL     1       1.440  -3.828 -33.571  0.00  0.00    +0.046 C 
ATOM      8  C   UNL     1       2.520  -3.554 -32.531  0.00  0.00    +0.105 C 
ATOM      9  N   UNL     1       3.280  -4.644 -32.132  0.00  0.00    -0.330 N 
ATOM     10  C   UNL     1       4.565  -4.465 -31.460  0.00  0.00    +0.033 C 
ATOM     11  C   UNL     1       5.662  -4.185 -32.493  0.00  0.00    +0.060 C 
ATOM     12  O   UNL     1       5.803  -5.307 -33.371  0.00  0.00    -0.393 OA
ATOM     13  N   UNL     1       2.720  -2.381 -32.016  0.00  0.00    -0.200 N 
ATOM     14  C   UNL     1       1.966  -1.327 -32.461  0.00  0.00    +0.260 C 
ATOM     15  N   UNL     1       1.207  -1.389 -33.500  0.00  0.00    -0.215 N 
ATOM     16  N   UNL     1       2.024  -0.115 -31.798  0.00  0.00    -0.167 N 
ATOM     17  C   UNL     1       1.221   0.694 -32.095  0.00  0.00    -0.008 C 
ATOM     18  C   UNL     1       0.359   1.623 -32.415  0.00  0.00    +0.008 C 
ATOM     19  C   UNL     1      -0.728   1.476 -33.395  0.00  0.00    +0.002 C 
ATOM     20  C   UNL     1      -1.435   2.549 -33.806  0.00  0.00    +0.013 C 
ATOM     21 CL   UNL     1      -1.213   4.185 -33.341  0.00  0.00    -0.091 Cl
ATOM     22  H   UNL     1       2.947  -5.554 -32.304  0.00  0.00    +0.000 HD
ATOM     23  H   UNL     1       6.045  -6.093 -32.856  0.00  0.00    +0.000 HD
ATOM     24  H   UNL     1       3.401  -2.250 -31.318  0.00  0.00    +0.000 HD
ATOM     25  H   UNL     1       0.804  -0.557 -33.839  0.00  0.00    +0.000 HD
ATOM     26  H   UNL     1       2.704   0.063 -31.109  0.00  0.00    +0.000 HD
ENDROOT
TORSDOF 0
ENDMDL
MODEL 9
REMARK VINA RESULT:    -4.223     16.325     18.187
REMARK INTER + INTRA:          -4.223
REMARK INTER:                  -4.223
REMARK INTRA:                   0.000
REMARK UNBOUND:                 0.000
REMARK  Name = /home/vital/Documents/PhD_2021/Malaria_codes/scripts/../data/pdbqt_ligands/ligand_389_temp.pdb
REMARK                            x       y       z     vdW  Elec       q    Type
REMARK                         _______ _______ _______ _____ _____    ______ ____
ROOT
ATOM      1  C   UNL     1      -1.626  -2.788 -34.158  0.00  0.00    -0.091 C 
ATOM      2  C   UNL     1      -0.937  -1.982 -34.989  0.00  0.00    -0.024 C 
ATOM      3  C   UNL     1      -0.196  -2.568 -36.113  0.00  0.00    -0.054 C 
ATOM      4  C   UNL     1       0.741  -3.535 -36.130  0.00  0.00    -0.059 C 
ATOM      5  C   UNL     1       1.356  -4.281 -35.040  0.00  0.00    -0.040 C 
ATOM      6  C   UNL     1       1.784  -3.771 -33.867  0.00  0.00    +0.052 C 
ATOM      7  C   UNL     1       2.423  -4.619 -32.822  0.00  0.00    +0.046 C 
ATOM      8  C   UNL     1       3.040  -3.745 -31.735  0.00  0.00    +0.105 C 
ATOM      9  N   UNL     1       3.916  -4.376 -30.863  0.00  0.00    -0.330 N 
ATOM     10  C   UNL     1       4.853  -3.608 -30.046  0.00  0.00    +0.033 C 
ATOM     11  C   UNL     1       6.084  -3.229 -30.876  0.00  0.00    +0.060 C 
ATOM     12  O   UNL     1       6.771  -4.413 -31.298  0.00  0.00    -0.393 OA
ATOM     13  N   UNL     1       2.757  -2.488 -31.598  0.00  0.00    -0.200 N 
ATOM     14  C   UNL     1       1.909  -1.899 -32.499  0.00  0.00    +0.260 C 
ATOM     15  N   UNL     1       1.530  -2.469 -33.590  0.00  0.00    -0.215 N 
ATOM     16  N   UNL     1       1.443  -0.618 -32.265  0.00  0.00    -0.167 N 
ATOM     17  C   UNL     1       0.574  -0.233 -32.960  0.00  0.00    -0.008 C 
ATOM     18  C   UNL     1      -0.376   0.236 -33.726  0.00  0.00    +0.008 C 
ATOM     19  C   UNL     1      -1.051  -0.510 -34.801  0.00  0.00    +0.002 C 
ATOM     20  C   UNL     1      -1.870   0.121 -35.667  0.00  0.00    +0.013 C 
ATOM     21 CL   UNL     1      -2.242   1.794 -35.721  0.00  0.00    -0.091 Cl
ATOM     22  H   UNL     1       3.906  -5.357 -30.794  0.00  0.00    +0.000 HD
ATOM     23  H   UNL     1       7.056  -4.916 -30.520  0.00  0.00    +0.000 HD
ATOM     24  H   UNL     1       3.145  -1.965 -30.860  0.00  0.00    +0.000 HD
ATOM     25  H   UNL     1       1.034  -1.935 -34.252  0.00  0.00    +0.000 HD
ATOM     26  H   UNL     1       1.820  -0.055 -31.551  0.00  0.00    +0.000 HD
ENDROOT
TORSDOF 0
ENDMDL
