MODEL 1
REMARK VINA RESULT:    -5.054      0.000      0.000
REMARK INTER + INTRA:          -5.054
REMARK INTER:                  -5.054
REMARK INTRA:                   0.000
REMARK UNBOUND:                 0.000
REMARK  Name = /home/vital/Documents/PhD_2021/Malaria_codes/scripts/../data/pdbqt_ligands/ligand_271_temp.pdb
REMARK                            x       y       z     vdW  Elec       q    Type
REMARK                         _______ _______ _______ _____ _____    ______ ____
ROOT
ATOM      1  C1  UNL     1       4.187  10.319 -22.053  0.00  0.00    +0.079 C 
ATOM      2  O1  UNL     1       4.289  10.648 -20.673  0.00  0.00    -0.495 OA
ATOM      3  C2  UNL     1       3.601   9.858 -19.795  0.00  0.00    +0.121 A 
ATOM      4  C3  UNL     1       3.737  10.226 -18.451  0.00  0.00    -0.016 A 
ATOM      5  C4  UNL     1       3.090   9.506 -17.442  0.00  0.00    -0.015 A 
ATOM      6  C5  UNL     1       2.300   8.410 -17.777  0.00  0.00    +0.140 A 
ATOM      7  O2  UNL     1       1.686   7.738 -16.751  0.00  0.00    -0.450 OA
ATOM      8  C6  UNL     1       0.896   6.644 -17.069  0.00  0.00    +0.193 A 
ATOM      9  C7  UNL     1       0.230   5.915 -15.947  0.00  0.00    +0.277 C 
ATOM     10  N1  UNL     1       0.482   6.424 -14.711  0.00  0.00    -0.323 N 
ATOM     11  O3  UNL     1      -0.490   4.937 -16.103  0.00  0.00    -0.267 OA
ATOM     12  C8  UNL     1       0.685   6.189 -18.311  0.00  0.00    +0.033 A 
ATOM     13  C9  UNL     1       1.324   6.880 -19.441  0.00  0.00    +0.193 A 
ATOM     14  O4  UNL     1       1.159   6.498 -20.592  0.00  0.00    -0.287 OA
ATOM     15  C10 UNL     1       2.163   8.042 -19.114  0.00  0.00    +0.067 A 
ATOM     16  C11 UNL     1       2.811   8.759 -20.127  0.00  0.00    -0.006 A 
ATOM     17  H   UNL     1       1.065   7.212 -14.612  0.00  0.00    +0.000 HD
ATOM     18  H   UNL     1       0.083   6.005 -13.914  0.00  0.00    +0.000 HD
ENDROOT
TORSDOF 0
ENDMDL
MODEL 2
REMARK VINA RESULT:    -4.870      2.655      3.892
REMARK INTER + INTRA:          -4.870
REMARK INTER:                  -4.870
REMARK INTRA:                   0.000
REMARK UNBOUND:                 0.000
REMARK  Name = /home/vital/Documents/PhD_2021/Malaria_codes/scripts/../data/pdbqt_ligands/ligand_271_temp.pdb
REMARK                            x       y       z     vdW  Elec       q    Type
REMARK                         _______ _______ _______ _____ _____    ______ ____
ROOT
ATOM      1  C1  UNL     1       5.549   7.634 -15.998  0.00  0.00    +0.079 C 
ATOM      2  O1  UNL     1       4.802   8.057 -17.133  0.00  0.00    -0.495 OA
ATOM      3  C2  UNL     1       3.513   7.613 -17.227  0.00  0.00    +0.121 A 
ATOM      4  C3  UNL     1       2.825   8.058 -18.362  0.00  0.00    -0.016 A 
ATOM      5  C4  UNL     1       1.498   7.684 -18.588  0.00  0.00    -0.015 A 
ATOM      6  C5  UNL     1       0.851   6.856 -17.675  0.00  0.00    +0.140 A 
ATOM      7  O2  UNL     1      -0.451   6.518 -17.943  0.00  0.00    -0.450 OA
ATOM      8  C6  UNL     1      -1.109   5.693 -17.042  0.00  0.00    +0.193 A 
ATOM      9  C7  UNL     1      -2.527   5.327 -17.338  0.00  0.00    +0.277 C 
ATOM     10  N1  UNL     1      -3.021   5.859 -18.490  0.00  0.00    -0.323 N 
ATOM     11  O3  UNL     1      -3.210   4.609 -16.619  0.00  0.00    -0.267 OA
ATOM     12  C8  UNL     1      -0.566   5.200 -15.921  0.00  0.00    +0.033 A 
ATOM     13  C9  UNL     1       0.827   5.538 -15.595  0.00  0.00    +0.193 A 
ATOM     14  O4  UNL     1       1.363   5.110 -14.581  0.00  0.00    -0.287 OA
ATOM     15  C10 UNL     1       1.533   6.411 -16.545  0.00  0.00    +0.067 A 
ATOM     16  C11 UNL     1       2.863   6.785 -16.313  0.00  0.00    -0.006 A 
ATOM     17  H   UNL     1      -2.452   6.434 -19.051  0.00  0.00    +0.000 HD
ATOM     18  H   UNL     1      -3.948   5.669 -18.762  0.00  0.00    +0.000 HD
ENDROOT
TORSDOF 0
ENDMDL
MODEL 3
REMARK VINA RESULT:    -4.591     17.902     19.643
REMARK INTER + INTRA:          -4.591
REMARK INTER:                  -4.591
REMARK INTRA:                   0.000
REMARK UNBOUND:                 0.000
REMARK  Name = /home/vital/Documents/PhD_2021/Malaria_codes/scripts/../data/pdbqt_ligands/ligand_271_temp.pdb
REMARK                            x       y       z     vdW  Elec       q    Type
REMARK                         _______ _______ _______ _____ _____    ______ ____
ROOT
ATOM      1  C1  UNL     1      -2.435  -0.596 -35.526  0.00  0.00    +0.079 C 
ATOM      2  O1  UNL     1      -1.948  -1.819 -36.067  0.00  0.00    -0.495 OA
ATOM      3  C2  UNL     1      -0.783  -2.307 -35.546  0.00  0.00    +0.121 A 
ATOM      4  C3  UNL     1      -0.350  -3.511 -36.114  0.00  0.00    -0.016 A 
ATOM      5  C4  UNL     1       0.827  -4.127 -35.678  0.00  0.00    -0.015 A 
ATOM      6  C5  UNL     1       1.579  -3.535 -34.667  0.00  0.00    +0.140 A 
ATOM      7  O2  UNL     1       2.725  -4.179 -34.275  0.00  0.00    -0.450 OA
ATOM      8  C6  UNL     1       3.485  -3.602 -33.268  0.00  0.00    +0.193 A 
ATOM      9  C7  UNL     1       4.733  -4.308 -32.846  0.00  0.00    +0.277 C 
ATOM     10  N1  UNL     1       4.986  -5.465 -33.516  0.00  0.00    -0.323 N 
ATOM     11  O3  UNL     1       5.483  -3.898 -31.969  0.00  0.00    -0.267 OA
ATOM     12  C8  UNL     1       3.182  -2.456 -32.644  0.00  0.00    +0.033 A 
ATOM     13  C9  UNL     1       1.963  -1.734 -33.032  0.00  0.00    +0.193 A 
ATOM     14  O4  UNL     1       1.647  -0.684 -32.489  0.00  0.00    -0.287 OA
ATOM     15  C10 UNL     1       1.151  -2.337 -34.100  0.00  0.00    +0.067 A 
ATOM     16  C11 UNL     1      -0.028  -1.718 -34.532  0.00  0.00    -0.006 A 
ATOM     17  H   UNL     1       4.367  -5.774 -34.217  0.00  0.00    +0.000 HD
ATOM     18  H   UNL     1       5.787  -5.994 -33.301  0.00  0.00    +0.000 HD
ENDROOT
TORSDOF 0
ENDMDL
MODEL 4
REMARK VINA RESULT:    -4.297      1.414      1.480
REMARK INTER + INTRA:          -4.297
REMARK INTER:                  -4.297
REMARK INTRA:                   0.000
REMARK UNBOUND:                 0.000
REMARK  Name = /home/vital/Documents/PhD_2021/Malaria_codes/scripts/../data/pdbqt_ligands/ligand_271_temp.pdb
REMARK                            x       y       z     vdW  Elec       q    Type
REMARK                         _______ _______ _______ _____ _____    ______ ____
ROOT
ATOM      1  C1  UNL     1       5.111   9.786 -21.263  0.00  0.00    +0.079 C 
ATOM      2  O1  UNL     1       4.761   9.943 -19.893  0.00  0.00    -0.495 OA
ATOM      3  C2  UNL     1       3.710   9.199 -19.433  0.00  0.00    +0.121 A 
ATOM      4  C3  UNL     1       3.409   9.391 -18.079  0.00  0.00    -0.016 A 
ATOM      5  C4  UNL     1       2.360   8.695 -17.473  0.00  0.00    -0.015 A 
ATOM      6  C5  UNL     1       1.603   7.800 -18.224  0.00  0.00    +0.140 A 
ATOM      7  O2  UNL     1       0.584   7.143 -17.582  0.00  0.00    -0.450 OA
ATOM      8  C6  UNL     1      -0.179   6.248 -18.317  0.00  0.00    +0.193 A 
ATOM      9  C7  UNL     1      -1.288   5.535 -17.613  0.00  0.00    +0.277 C 
ATOM     10  N1  UNL     1      -1.424   5.856 -16.297  0.00  0.00    -0.323 N 
ATOM     11  O3  UNL     1      -2.027   4.723 -18.155  0.00  0.00    -0.267 OA
ATOM     12  C8  UNL     1       0.005   5.974 -19.615  0.00  0.00    +0.033 A 
ATOM     13  C9  UNL     1       1.086   6.656 -20.341  0.00  0.00    +0.193 A 
ATOM     14  O4  UNL     1       1.290   6.435 -21.528  0.00  0.00    -0.287 OA
ATOM     15  C10 UNL     1       1.900   7.607 -19.571  0.00  0.00    +0.067 A 
ATOM     16  C11 UNL     1       2.952   8.301 -20.182  0.00  0.00    -0.006 A 
ATOM     17  H   UNL     1      -0.816   6.512 -15.885  0.00  0.00    +0.000 HD
ATOM     18  H   UNL     1      -2.129   5.432 -15.758  0.00  0.00    +0.000 HD
ENDROOT
TORSDOF 0
ENDMDL
MODEL 5
REMARK VINA RESULT:    -4.181      2.342      2.747
REMARK INTER + INTRA:          -4.181
REMARK INTER:                  -4.181
REMARK INTRA:                   0.000
REMARK UNBOUND:                 0.000
REMARK  Name = /home/vital/Documents/PhD_2021/Malaria_codes/scripts/../data/pdbqt_ligands/ligand_271_temp.pdb
REMARK                            x       y       z     vdW  Elec       q    Type
REMARK                         _______ _______ _______ _____ _____    ______ ____
ROOT
ATOM      1  C1  UNL     1       3.850   8.169 -22.557  0.00  0.00    +0.079 C 
ATOM      2  O1  UNL     1       3.754   8.414 -21.159  0.00  0.00    -0.495 OA
ATOM      3  C2  UNL     1       2.668   7.895 -20.512  0.00  0.00    +0.121 A 
ATOM      4  C3  UNL     1       2.623   8.165 -19.139  0.00  0.00    -0.016 A 
ATOM      5  C4  UNL     1       1.570   7.695 -18.350  0.00  0.00    -0.015 A 
ATOM      6  C5  UNL     1       0.550   6.950 -18.936  0.00  0.00    +0.140 A 
ATOM      7  O2  UNL     1      -0.461   6.513 -18.119  0.00  0.00    -0.450 OA
ATOM      8  C6  UNL     1      -1.484   5.769 -18.689  0.00  0.00    +0.193 A 
ATOM      9  C7  UNL     1      -2.583   5.296 -17.794  0.00  0.00    +0.277 C 
ATOM     10  N1  UNL     1      -2.449   5.660 -16.489  0.00  0.00    -0.323 N 
ATOM     11  O3  UNL     1      -3.537   4.633 -18.180  0.00  0.00    -0.267 OA
ATOM     12  C8  UNL     1      -1.560   5.442 -19.986  0.00  0.00    +0.033 A 
ATOM     13  C9  UNL     1      -0.497   5.890 -20.897  0.00  0.00    +0.193 A 
ATOM     14  O4  UNL     1      -0.526   5.614 -22.088  0.00  0.00    -0.287 OA
ATOM     15  C10 UNL     1       0.592   6.680 -20.302  0.00  0.00    +0.067 A 
ATOM     16  C11 UNL     1       1.646   7.147 -21.096  0.00  0.00    -0.006 A 
ATOM     17  H   UNL     1      -1.673   6.193 -16.204  0.00  0.00    +0.000 HD
ATOM     18  H   UNL     1      -3.129   5.389 -15.830  0.00  0.00    +0.000 HD
ENDROOT
TORSDOF 0
ENDMDL
MODEL 6
REMARK VINA RESULT:    -4.106     11.450     13.731
REMARK INTER + INTRA:          -4.106
REMARK INTER:                  -4.106
REMARK INTRA:                   0.000
REMARK UNBOUND:                 0.000
REMARK  Name = /home/vital/Documents/PhD_2021/Malaria_codes/scripts/../data/pdbqt_ligands/ligand_271_temp.pdb
REMARK                            x       y       z     vdW  Elec       q    Type
REMARK                         _______ _______ _______ _____ _____    ______ ____
ROOT
ATOM      1  C1  UNL     1      -4.088  -6.049 -26.276  0.00  0.00    +0.079 C 
ATOM      2  O1  UNL     1      -3.180  -6.338 -25.219  0.00  0.00    -0.495 OA
ATOM      3  C2  UNL     1      -3.155  -5.464 -24.168  0.00  0.00    +0.121 A 
ATOM      4  C3  UNL     1      -2.245  -5.795 -23.157  0.00  0.00    -0.016 A 
ATOM      5  C4  UNL     1      -2.112  -4.992 -22.021  0.00  0.00    -0.015 A 
ATOM      6  C5  UNL     1      -2.893  -3.846 -21.893  0.00  0.00    +0.140 A 
ATOM      7  O2  UNL     1      -2.724  -3.092 -20.760  0.00  0.00    -0.450 OA
ATOM      8  C6  UNL     1      -3.496  -1.948 -20.619  0.00  0.00    +0.193 A 
ATOM      9  C7  UNL     1      -3.308  -1.129 -19.382  0.00  0.00    +0.277 C 
ATOM     10  N1  UNL     1      -2.377  -1.614 -18.517  0.00  0.00    -0.323 N 
ATOM     11  O3  UNL     1      -3.930  -0.102 -19.145  0.00  0.00    -0.267 OA
ATOM     12  C8  UNL     1      -4.400  -1.521 -21.510  0.00  0.00    +0.033 A 
ATOM     13  C9  UNL     1      -4.613  -2.300 -22.738  0.00  0.00    +0.193 A 
ATOM     14  O4  UNL     1      -5.429  -1.947 -23.579  0.00  0.00    -0.287 OA
ATOM     15  C10 UNL     1      -3.799  -3.514 -22.898  0.00  0.00    +0.067 A 
ATOM     16  C11 UNL     1      -3.936  -4.317 -24.037  0.00  0.00    -0.006 A 
ATOM     17  H   UNL     1      -1.890  -2.443 -18.730  0.00  0.00    +0.000 HD
ATOM     18  H   UNL     1      -2.190  -1.137 -17.676  0.00  0.00    +0.000 HD
ENDROOT
TORSDOF 0
ENDMDL
MODEL 7
REMARK VINA RESULT:    -4.054      2.830      4.051
REMARK INTER + INTRA:          -4.054
REMARK INTER:                  -4.054
REMARK INTRA:                   0.000
REMARK UNBOUND:                 0.000
REMARK  Name = /home/vital/Documents/PhD_2021/Malaria_codes/scripts/../data/pdbqt_ligands/ligand_271_temp.pdb
REMARK                            x       y       z     vdW  Elec       q    Type
REMARK                         _______ _______ _______ _____ _____    ______ ____
ROOT
ATOM      1  C1  UNL     1       0.870   5.847 -21.227  0.00  0.00    +0.079 C 
ATOM      2  O1  UNL     1       1.034   6.904 -20.288  0.00  0.00    -0.495 OA
ATOM      3  C2  UNL     1       1.259   6.549 -18.988  0.00  0.00    +0.121 A 
ATOM      4  C3  UNL     1       1.413   7.626 -18.108  0.00  0.00    -0.016 A 
ATOM      5  C4  UNL     1       1.649   7.412 -16.747  0.00  0.00    -0.015 A 
ATOM      6  C5  UNL     1       1.732   6.111 -16.259  0.00  0.00    +0.140 A 
ATOM      7  O2  UNL     1       1.965   5.955 -14.917  0.00  0.00    -0.450 OA
ATOM      8  C6  UNL     1       2.050   4.664 -14.416  0.00  0.00    +0.193 A 
ATOM      9  C7  UNL     1       2.305   4.499 -12.953  0.00  0.00    +0.277 C 
ATOM     10  N1  UNL     1       2.425   5.666 -12.263  0.00  0.00    -0.323 N 
ATOM     11  O3  UNL     1       2.400   3.413 -12.396  0.00  0.00    -0.267 OA
ATOM     12  C8  UNL     1       1.923   3.550 -15.149  0.00  0.00    +0.033 A 
ATOM     13  C9  UNL     1       1.672   3.672 -16.593  0.00  0.00    +0.193 A 
ATOM     14  O4  UNL     1       1.549   2.682 -17.300  0.00  0.00    -0.287 OA
ATOM     15  C10 UNL     1       1.579   5.037 -17.133  0.00  0.00    +0.067 A 
ATOM     16  C11 UNL     1       1.344   5.247 -18.497  0.00  0.00    -0.006 A 
ATOM     17  H   UNL     1       2.344   6.528 -12.733  0.00  0.00    +0.000 HD
ATOM     18  H   UNL     1       2.594   5.650 -11.293  0.00  0.00    +0.000 HD
ENDROOT
TORSDOF 0
ENDMDL
MODEL 8
REMARK VINA RESULT:    -3.924     16.570     18.297
REMARK INTER + INTRA:          -3.924
REMARK INTER:                  -3.924
REMARK INTRA:                   0.000
REMARK UNBOUND:                 0.000
REMARK  Name = /home/vital/Documents/PhD_2021/Malaria_codes/scripts/../data/pdbqt_ligands/ligand_271_temp.pdb
REMARK                            x       y       z     vdW  Elec       q    Type
REMARK                         _______ _______ _______ _____ _____    ______ ____
ROOT
ATOM      1  C1  UNL     1      -1.229   0.107 -32.879  0.00  0.00    +0.079 C 
ATOM      2  O1  UNL     1      -0.887  -0.969 -33.745  0.00  0.00    -0.495 OA
ATOM      3  C2  UNL     1       0.300  -1.604 -33.505  0.00  0.00    +0.121 A 
ATOM      4  C3  UNL     1       0.588  -2.654 -34.386  0.00  0.00    -0.016 A 
ATOM      5  C4  UNL     1       1.767  -3.392 -34.259  0.00  0.00    -0.015 A 
ATOM      6  C5  UNL     1       2.669  -3.080 -33.246  0.00  0.00    +0.140 A 
ATOM      7  O2  UNL     1       3.812  -3.835 -33.164  0.00  0.00    -0.450 OA
ATOM      8  C6  UNL     1       4.720  -3.536 -32.159  0.00  0.00    +0.193 A 
ATOM      9  C7  UNL     1       5.963  -4.361 -32.075  0.00  0.00    +0.277 C 
ATOM     10  N1  UNL     1       6.063  -5.335 -33.020  0.00  0.00    -0.323 N 
ATOM     11  O3  UNL     1       6.836  -4.194 -31.233  0.00  0.00    -0.267 OA
ATOM     12  C8  UNL     1       4.565  -2.561 -31.254  0.00  0.00    +0.033 A 
ATOM     13  C9  UNL     1       3.354  -1.728 -31.305  0.00  0.00    +0.193 A 
ATOM     14  O4  UNL     1       3.171  -0.826 -30.499  0.00  0.00    -0.287 OA
ATOM     15  C10 UNL     1       2.386  -2.036 -32.368  0.00  0.00    +0.067 A 
ATOM     16  C11 UNL     1       1.204  -1.295 -32.490  0.00  0.00    -0.006 A 
ATOM     17  H   UNL     1       5.347  -5.450 -33.687  0.00  0.00    +0.000 HD
ATOM     18  H   UNL     1       6.850  -5.926 -33.038  0.00  0.00    +0.000 HD
ENDROOT
TORSDOF 0
ENDMDL
MODEL 9
REMARK VINA RESULT:    -3.808      2.556      5.496
REMARK INTER + INTRA:          -3.808
REMARK INTER:                  -3.808
REMARK INTRA:                   0.000
REMARK UNBOUND:                 0.000
REMARK  Name = /home/vital/Documents/PhD_2021/Malaria_codes/scripts/../data/pdbqt_ligands/ligand_271_temp.pdb
REMARK                            x       y       z     vdW  Elec       q    Type
REMARK                         _______ _______ _______ _____ _____    ______ ____
ROOT
ATOM      1  C1  UNL     1      -0.122   4.794 -16.346  0.00  0.00    +0.079 C 
ATOM      2  O1  UNL     1       0.644   5.922 -15.939  0.00  0.00    -0.495 OA
ATOM      3  C2  UNL     1       1.269   6.635 -16.924  0.00  0.00    +0.121 A 
ATOM      4  C3  UNL     1       2.007   7.733 -16.469  0.00  0.00    -0.016 A 
ATOM      5  C4  UNL     1       2.699   8.553 -17.365  0.00  0.00    -0.015 A 
ATOM      6  C5  UNL     1       2.653   8.273 -18.729  0.00  0.00    +0.140 A 
ATOM      7  O2  UNL     1       3.349   9.108 -19.566  0.00  0.00    -0.450 OA
ATOM      8  C6  UNL     1       3.313   8.842 -20.927  0.00  0.00    +0.193 A 
ATOM      9  C7  UNL     1       4.072   9.754 -21.836  0.00  0.00    +0.277 C 
ATOM     10  N1  UNL     1       4.729  10.766 -21.205  0.00  0.00    -0.323 N 
ATOM     11  O3  UNL     1       4.116   9.622 -23.052  0.00  0.00    -0.267 OA
ATOM     12  C8  UNL     1       2.646   7.826 -21.490  0.00  0.00    +0.033 A 
ATOM     13  C9  UNL     1       1.887   6.908 -20.629  0.00  0.00    +0.193 A 
ATOM     14  O4  UNL     1       1.263   5.967 -21.100  0.00  0.00    -0.287 OA
ATOM     15  C10 UNL     1       1.919   7.181 -19.184  0.00  0.00    +0.067 A 
ATOM     16  C11 UNL     1       1.224   6.358 -18.290  0.00  0.00    -0.006 A 
ATOM     17  H   UNL     1       4.679  10.851 -20.225  0.00  0.00    +0.000 HD
ATOM     18  H   UNL     1       5.254  11.414 -21.728  0.00  0.00    +0.000 HD
ENDROOT
TORSDOF 0
ENDMDL
