MODEL 1
REMARK VINA RESULT:    -6.765      0.000      0.000
REMARK INTER + INTRA:          -6.765
REMARK INTER:                  -6.765
REMARK INTRA:                   0.000
REMARK UNBOUND:                 0.000
REMARK  Name = /home/vital/Documents/PhD_2021/Malaria_codes/scripts/../data/pdbqt_ligands/ligand_58_temp.pdb
REMARK                            x       y       z     vdW  Elec       q    Type
REMARK                         _______ _______ _______ _____ _____    ______ ____
ROOT
ATOM      1  C1  UNL     1       9.676  -2.366 -24.457  0.00  0.00    -0.063 C 
ATOM      2  C2  UNL     1       8.798  -3.399 -25.141  0.00  0.00    -0.032 C 
ATOM      3  C3  UNL     1       7.562  -2.767 -25.768  0.00  0.00    +0.048 C 
ATOM      4  O1  UNL     1       6.796  -3.801 -26.386  0.00  0.00    -0.376 OA
ATOM      5  C4  UNL     1       5.615  -3.285 -27.002  0.00  0.00    +0.084 C 
ATOM      6  C5  UNL     1       4.802  -4.426 -27.632  0.00  0.00    +0.121 C 
ATOM      7  C6  UNL     1       4.276  -5.364 -26.545  0.00  0.00    -0.026 C 
ATOM      8  O2  UNL     1       3.713  -3.817 -28.352  0.00  0.00    -0.486 OA
ATOM      9  C7  UNL     1       3.249  -4.581 -29.398  0.00  0.00    +0.139 A 
ATOM     10  C8  UNL     1       2.030  -5.258 -29.249  0.00  0.00    +0.063 A 
ATOM     11  C9  UNL     1       1.222  -5.121 -28.012  0.00  0.00    +0.164 C 
ATOM     12  C10 UNL     1       0.694  -6.383 -27.377  0.00  0.00    -0.001 C 
ATOM     13  O3  UNL     1       0.967  -4.014 -27.548  0.00  0.00    -0.292 OA
ATOM     14  C11 UNL     1       1.540  -6.067 -30.279  0.00  0.00    -0.005 A 
ATOM     15  C12 UNL     1       2.253  -6.190 -31.474  0.00  0.00    +0.129 A 
ATOM     16  O4  UNL     1       1.845  -6.974 -32.528  0.00  0.00    -0.494 OA
ATOM     17  C13 UNL     1       0.622  -7.685 -32.402  0.00  0.00    +0.079 C 
ATOM     18  C14 UNL     1       3.461  -5.469 -31.664  0.00  0.00    +0.027 A 
ATOM     19  C15 UNL     1       4.190  -5.541 -32.873  0.00  0.00    -0.050 A 
ATOM     20  C16 UNL     1       5.356  -4.804 -33.076  0.00  0.00    -0.061 A 
ATOM     21  C17 UNL     1       5.821  -3.966 -32.075  0.00  0.00    -0.061 A 
ATOM     22  C18 UNL     1       5.126  -3.881 -30.868  0.00  0.00    -0.050 A 
ATOM     23  C19 UNL     1       3.955  -4.636 -30.625  0.00  0.00    +0.028 A 
ENDROOT
TORSDOF 0
ENDMDL
MODEL 2
REMARK VINA RESULT:    -6.680     11.760     15.267
REMARK INTER + INTRA:          -6.680
REMARK INTER:                  -6.680
REMARK INTRA:                   0.000
REMARK UNBOUND:                 0.000
REMARK  Name = /home/vital/Documents/PhD_2021/Malaria_codes/scripts/../data/pdbqt_ligands/ligand_58_temp.pdb
REMARK                            x       y       z     vdW  Elec       q    Type
REMARK                         _______ _______ _______ _____ _____    ______ ____
ROOT
ATOM      1  C1  UNL     1      -6.211  -1.853 -22.595  0.00  0.00    -0.063 C 
ATOM      2  C2  UNL     1      -5.325  -1.532 -21.405  0.00  0.00    -0.032 C 
ATOM      3  C3  UNL     1      -4.174  -0.612 -21.787  0.00  0.00    +0.048 C 
ATOM      4  O1  UNL     1      -3.394  -0.362 -20.618  0.00  0.00    -0.376 OA
ATOM      5  C4  UNL     1      -2.290   0.501 -20.895  0.00  0.00    +0.084 C 
ATOM      6  C5  UNL     1      -1.458   0.725 -19.623  0.00  0.00    +0.121 C 
ATOM      7  C6  UNL     1      -0.805  -0.584 -19.179  0.00  0.00    -0.026 C 
ATOM      8  O2  UNL     1      -0.458   1.712 -19.945  0.00  0.00    -0.486 OA
ATOM      9  C7  UNL     1      -0.024   2.432 -18.856  0.00  0.00    +0.139 A 
ATOM     10  C8  UNL     1       1.239   2.145 -18.319  0.00  0.00    +0.063 A 
ATOM     11  C9  UNL     1       2.122   1.123 -18.934  0.00  0.00    +0.164 C 
ATOM     12  C10 UNL     1       2.763   0.110 -18.019  0.00  0.00    -0.001 C 
ATOM     13  O3  UNL     1       2.344   1.129 -20.141  0.00  0.00    -0.292 OA
ATOM     14  C11 UNL     1       1.702   2.837 -17.195  0.00  0.00    -0.005 A 
ATOM     15  C12 UNL     1       0.917   3.833 -16.611  0.00  0.00    +0.129 A 
ATOM     16  O4  UNL     1       1.295   4.549 -15.499  0.00  0.00    -0.494 OA
ATOM     17  C13 UNL     1       2.563   4.270 -14.922  0.00  0.00    +0.079 C 
ATOM     18  C14 UNL     1      -0.340   4.175 -17.175  0.00  0.00    +0.027 A 
ATOM     19  C15 UNL     1      -1.146   5.203 -16.633  0.00  0.00    -0.050 A 
ATOM     20  C16 UNL     1      -2.363   5.566 -17.207  0.00  0.00    -0.061 A 
ATOM     21  C17 UNL     1      -2.805   4.914 -18.347  0.00  0.00    -0.061 A 
ATOM     22  C18 UNL     1      -2.035   3.891 -18.900  0.00  0.00    -0.050 A 
ATOM     23  C19 UNL     1      -0.809   3.484 -18.324  0.00  0.00    +0.028 A 
ENDROOT
TORSDOF 0
ENDMDL
MODEL 3
REMARK VINA RESULT:    -6.632      3.194      8.649
REMARK INTER + INTRA:          -6.632
REMARK INTER:                  -6.632
REMARK INTRA:                   0.000
REMARK UNBOUND:                 0.000
REMARK  Name = /home/vital/Documents/PhD_2021/Malaria_codes/scripts/../data/pdbqt_ligands/ligand_58_temp.pdb
REMARK                            x       y       z     vdW  Elec       q    Type
REMARK                         _______ _______ _______ _____ _____    ______ ____
ROOT
ATOM      1  C1  UNL     1       5.461  -4.244 -32.207  0.00  0.00    -0.063 C 
ATOM      2  C2  UNL     1       5.229  -3.592 -30.856  0.00  0.00    -0.032 C 
ATOM      3  C3  UNL     1       5.990  -4.304 -29.744  0.00  0.00    +0.048 C 
ATOM      4  O1  UNL     1       5.719  -3.631 -28.515  0.00  0.00    -0.376 OA
ATOM      5  C4  UNL     1       6.402  -4.241 -27.419  0.00  0.00    +0.084 C 
ATOM      6  C5  UNL     1       6.067  -3.510 -26.111  0.00  0.00    +0.121 C 
ATOM      7  C6  UNL     1       4.586  -3.685 -25.770  0.00  0.00    -0.026 C 
ATOM      8  O2  UNL     1       6.898  -4.086 -25.084  0.00  0.00    -0.486 OA
ATOM      9  C7  UNL     1       7.155  -3.228 -24.039  0.00  0.00    +0.139 A 
ATOM     10  C8  UNL     1       6.486  -3.428 -22.823  0.00  0.00    +0.063 A 
ATOM     11  C9  UNL     1       5.555  -4.569 -22.637  0.00  0.00    +0.164 C 
ATOM     12  C10 UNL     1       4.210  -4.281 -22.020  0.00  0.00    -0.001 C 
ATOM     13  O3  UNL     1       5.889  -5.709 -22.945  0.00  0.00    -0.292 OA
ATOM     14  C11 UNL     1       6.701  -2.561 -21.747  0.00  0.00    -0.005 A 
ATOM     15  C12 UNL     1       7.599  -1.499 -21.871  0.00  0.00    +0.129 A 
ATOM     16  O4  UNL     1       7.856  -0.596 -20.865  0.00  0.00    -0.494 OA
ATOM     17  C13 UNL     1       7.182  -0.763 -19.625  0.00  0.00    +0.079 C 
ATOM     18  C14 UNL     1       8.327  -1.314 -23.075  0.00  0.00    +0.027 A 
ATOM     19  C15 UNL     1       9.271  -0.272 -23.224  0.00  0.00    -0.050 A 
ATOM     20  C16 UNL     1      10.014  -0.111 -24.392  0.00  0.00    -0.061 A 
ATOM     21  C17 UNL     1       9.838  -0.996 -25.445  0.00  0.00    -0.061 A 
ATOM     22  C18 UNL     1       8.908  -2.029 -25.329  0.00  0.00    -0.050 A 
ATOM     23  C19 UNL     1       8.122  -2.200 -24.165  0.00  0.00    +0.028 A 
ENDROOT
TORSDOF 0
ENDMDL
MODEL 4
REMARK VINA RESULT:    -6.549      7.806     10.730
REMARK INTER + INTRA:          -6.549
REMARK INTER:                  -6.549
REMARK INTRA:                   0.000
REMARK UNBOUND:                 0.000
REMARK  Name = /home/vital/Documents/PhD_2021/Malaria_codes/scripts/../data/pdbqt_ligands/ligand_58_temp.pdb
REMARK                            x       y       z     vdW  Elec       q    Type
REMARK                         _______ _______ _______ _____ _____    ______ ____
ROOT
ATOM      1  C1  UNL     1       4.890  -4.259 -20.290  0.00  0.00    -0.063 C 
ATOM      2  C2  UNL     1       3.768  -3.598 -21.071  0.00  0.00    -0.032 C 
ATOM      3  C3  UNL     1       2.440  -4.317 -20.873  0.00  0.00    +0.048 C 
ATOM      4  O1  UNL     1       1.445  -3.637 -21.637  0.00  0.00    -0.376 OA
ATOM      5  C4  UNL     1       0.164  -4.253 -21.501  0.00  0.00    +0.084 C 
ATOM      6  C5  UNL     1      -0.876  -3.512 -22.356  0.00  0.00    +0.121 C 
ATOM      7  C6  UNL     1      -0.545  -3.666 -23.842  0.00  0.00    -0.026 C 
ATOM      8  O2  UNL     1      -2.159  -4.097 -22.056  0.00  0.00    -0.486 OA
ATOM      9  C7  UNL     1      -3.215  -3.239 -22.261  0.00  0.00    +0.139 A 
ATOM     10  C8  UNL     1      -4.024  -3.426 -23.391  0.00  0.00    +0.063 A 
ATOM     11  C9  UNL     1      -3.788  -4.553 -24.328  0.00  0.00    +0.164 C 
ATOM     12  C10 UNL     1      -3.766  -4.244 -25.803  0.00  0.00    -0.001 C 
ATOM     13  O3  UNL     1      -3.650  -5.698 -23.910  0.00  0.00    -0.292 OA
ATOM     14  C11 UNL     1      -5.090  -2.558 -23.648  0.00  0.00    -0.005 A 
ATOM     15  C12 UNL     1      -5.369  -1.509 -22.769  0.00  0.00    +0.129 A 
ATOM     16  O4  UNL     1      -6.390  -0.607 -22.957  0.00  0.00    -0.494 OA
ATOM     17  C13 UNL     1      -7.218  -0.760 -24.102  0.00  0.00    +0.079 C 
ATOM     18  C14 UNL     1      -4.595  -1.338 -21.591  0.00  0.00    +0.027 A 
ATOM     19  C15 UNL     1      -4.871  -0.310 -20.660  0.00  0.00    -0.050 A 
ATOM     20  C16 UNL     1      -4.136  -0.164 -19.485  0.00  0.00    -0.061 A 
ATOM     21  C17 UNL     1      -3.107  -1.050 -19.204  0.00  0.00    -0.061 A 
ATOM     22  C18 UNL     1      -2.808  -2.069 -20.107  0.00  0.00    -0.050 A 
ATOM     23  C19 UNL     1      -3.520  -2.225 -21.320  0.00  0.00    +0.028 A 
ENDROOT
TORSDOF 0
ENDMDL
MODEL 5
REMARK VINA RESULT:    -6.483      9.737     12.727
REMARK INTER + INTRA:          -6.483
REMARK INTER:                  -6.483
REMARK INTRA:                   0.000
REMARK UNBOUND:                 0.000
REMARK  Name = /home/vital/Documents/PhD_2021/Malaria_codes/scripts/../data/pdbqt_ligands/ligand_58_temp.pdb
REMARK                            x       y       z     vdW  Elec       q    Type
REMARK                         _______ _______ _______ _____ _____    ______ ____
ROOT
ATOM      1  C1  UNL     1      -5.163  -1.226 -21.406  0.00  0.00    -0.063 C 
ATOM      2  C2  UNL     1      -3.709  -0.800 -21.490  0.00  0.00    -0.032 C 
ATOM      3  C3  UNL     1      -2.960  -1.082 -20.194  0.00  0.00    +0.048 C 
ATOM      4  O1  UNL     1      -1.608  -0.654 -20.357  0.00  0.00    -0.376 OA
ATOM      5  C4  UNL     1      -0.836  -0.889 -19.178  0.00  0.00    +0.084 C 
ATOM      6  C5  UNL     1       0.604  -0.392 -19.379  0.00  0.00    +0.121 C 
ATOM      7  C6  UNL     1       0.623   1.129 -19.540  0.00  0.00    -0.026 C 
ATOM      8  O2  UNL     1       1.352  -0.791 -18.213  0.00  0.00    -0.486 OA
ATOM      9  C7  UNL     1       2.698  -0.948 -18.449  0.00  0.00    +0.139 A 
ATOM     10  C8  UNL     1       3.582   0.036 -17.986  0.00  0.00    +0.063 A 
ATOM     11  C9  UNL     1       3.094   1.204 -17.210  0.00  0.00    +0.164 C 
ATOM     12  C10 UNL     1       3.587   2.570 -17.617  0.00  0.00    -0.001 C 
ATOM     13  O3  UNL     1       2.343   1.052 -16.252  0.00  0.00    -0.292 OA
ATOM     14  C11 UNL     1       4.954  -0.074 -18.231  0.00  0.00    -0.005 A 
ATOM     15  C12 UNL     1       5.456  -1.178 -18.924  0.00  0.00    +0.129 A 
ATOM     16  O4  UNL     1       6.789  -1.354 -19.215  0.00  0.00    -0.494 OA
ATOM     17  C13 UNL     1       7.709  -0.366 -18.773  0.00  0.00    +0.079 C 
ATOM     18  C14 UNL     1       4.583  -2.212 -19.352  0.00  0.00    +0.027 A 
ATOM     19  C15 UNL     1       5.060  -3.362 -20.023  0.00  0.00    -0.050 A 
ATOM     20  C16 UNL     1       4.209  -4.396 -20.410  0.00  0.00    -0.061 A 
ATOM     21  C17 UNL     1       2.855  -4.311 -20.129  0.00  0.00    -0.061 A 
ATOM     22  C18 UNL     1       2.355  -3.186 -19.474  0.00  0.00    -0.050 A 
ATOM     23  C19 UNL     1       3.191  -2.110 -19.093  0.00  0.00    +0.028 A 
ENDROOT
TORSDOF 0
ENDMDL
MODEL 6
REMARK VINA RESULT:    -6.461      1.894      7.892
REMARK INTER + INTRA:          -6.461
REMARK INTER:                  -6.461
REMARK INTRA:                   0.000
REMARK UNBOUND:                 0.000
REMARK  Name = /home/vital/Documents/PhD_2021/Malaria_codes/scripts/../data/pdbqt_ligands/ligand_58_temp.pdb
REMARK                            x       y       z     vdW  Elec       q    Type
REMARK                         _______ _______ _______ _____ _____    ______ ____
ROOT
ATOM      1  C1  UNL     1      -2.435  -9.384 -35.062  0.00  0.00    -0.063 C 
ATOM      2  C2  UNL     1      -1.184  -9.205 -34.222  0.00  0.00    -0.032 C 
ATOM      3  C3  UNL     1      -1.018  -7.767 -33.749  0.00  0.00    +0.048 C 
ATOM      4  O1  UNL     1       0.176  -7.687 -32.971  0.00  0.00    -0.376 OA
ATOM      5  C4  UNL     1       0.401  -6.362 -32.487  0.00  0.00    +0.084 C 
ATOM      6  C5  UNL     1       1.706  -6.307 -31.679  0.00  0.00    +0.121 C 
ATOM      7  C6  UNL     1       2.905  -6.579 -32.588  0.00  0.00    -0.026 C 
ATOM      8  O2  UNL     1       1.789  -4.986 -31.107  0.00  0.00    -0.486 OA
ATOM      9  C7  UNL     1       2.532  -4.934 -29.950  0.00  0.00    +0.139 A 
ATOM     10  C8  UNL     1       3.820  -4.380 -30.001  0.00  0.00    +0.063 A 
ATOM     11  C9  UNL     1       4.363  -3.813 -31.261  0.00  0.00    +0.164 C 
ATOM     12  C10 UNL     1       5.757  -4.218 -31.667  0.00  0.00    -0.001 C 
ATOM     13  O3  UNL     1       3.706  -3.016 -31.925  0.00  0.00    -0.292 OA
ATOM     14  C11 UNL     1       4.616  -4.334 -28.853  0.00  0.00    -0.005 A 
ATOM     15  C12 UNL     1       4.125  -4.823 -27.640  0.00  0.00    +0.129 A 
ATOM     16  O4  UNL     1       4.849  -4.824 -26.470  0.00  0.00    -0.494 OA
ATOM     17  C13 UNL     1       6.164  -4.285 -26.493  0.00  0.00    +0.079 C 
ATOM     18  C14 UNL     1       2.805  -5.335 -27.556  0.00  0.00    +0.027 A 
ATOM     19  C15 UNL     1       2.262  -5.804 -26.338  0.00  0.00    -0.050 A 
ATOM     20  C16 UNL     1       0.952  -6.273 -26.246  0.00  0.00    -0.061 A 
ATOM     21  C17 UNL     1       0.145  -6.278 -27.372  0.00  0.00    -0.061 A 
ATOM     22  C18 UNL     1       0.656  -5.828 -28.589  0.00  0.00    -0.050 A 
ATOM     23  C19 UNL     1       1.988  -5.371 -28.718  0.00  0.00    +0.028 A 
ENDROOT
TORSDOF 0
ENDMDL
MODEL 7
REMARK VINA RESULT:    -6.460      9.104     12.593
REMARK INTER + INTRA:          -6.460
REMARK INTER:                  -6.460
REMARK INTRA:                   0.000
REMARK UNBOUND:                 0.000
REMARK  Name = /home/vital/Documents/PhD_2021/Malaria_codes/scripts/../data/pdbqt_ligands/ligand_58_temp.pdb
REMARK                            x       y       z     vdW  Elec       q    Type
REMARK                         _______ _______ _______ _____ _____    ______ ____
ROOT
ATOM      1  C1  UNL     1      -9.841   1.936 -28.081  0.00  0.00    -0.063 C 
ATOM      2  C2  UNL     1      -8.478   1.575 -27.519  0.00  0.00    -0.032 C 
ATOM      3  C3  UNL     1      -8.591   0.741 -26.249  0.00  0.00    +0.048 C 
ATOM      4  O1  UNL     1      -7.273   0.446 -25.789  0.00  0.00    -0.376 OA
ATOM      5  C4  UNL     1      -7.294  -0.339 -24.596  0.00  0.00    +0.084 C 
ATOM      6  C5  UNL     1      -5.862  -0.613 -24.114  0.00  0.00    +0.121 C 
ATOM      7  C6  UNL     1      -5.187   0.691 -23.689  0.00  0.00    -0.026 C 
ATOM      8  O2  UNL     1      -5.961  -1.524 -23.001  0.00  0.00    -0.486 OA
ATOM      9  C7  UNL     1      -4.838  -2.298 -22.822  0.00  0.00    +0.139 A 
ATOM     10  C8  UNL     1      -3.968  -1.989 -21.766  0.00  0.00    +0.063 A 
ATOM     11  C9  UNL     1      -4.268  -0.883 -20.822  0.00  0.00    +0.164 C 
ATOM     12  C10 UNL     1      -3.160   0.091 -20.512  0.00  0.00    -0.001 C 
ATOM     13  O3  UNL     1      -5.371  -0.793 -20.292  0.00  0.00    -0.292 OA
ATOM     14  C11 UNL     1      -2.803  -2.736 -21.569  0.00  0.00    -0.005 A 
ATOM     15  C12 UNL     1      -2.506  -3.809 -22.412  0.00  0.00    +0.129 A 
ATOM     16  O4  UNL     1      -1.375  -4.583 -22.292  0.00  0.00    -0.494 OA
ATOM     17  C13 UNL     1      -0.467  -4.286 -21.242  0.00  0.00    +0.079 C 
ATOM     18  C14 UNL     1      -3.402  -4.171 -23.452  0.00  0.00    +0.027 A 
ATOM     19  C15 UNL     1      -3.152  -5.273 -24.302  0.00  0.00    -0.050 A 
ATOM     20  C16 UNL     1      -4.049  -5.653 -25.299  0.00  0.00    -0.061 A 
ATOM     21  C17 UNL     1      -5.228  -4.944 -25.469  0.00  0.00    -0.061 A 
ATOM     22  C18 UNL     1      -5.497  -3.847 -24.650  0.00  0.00    -0.050 A 
ATOM     23  C19 UNL     1      -4.593  -3.423 -23.647  0.00  0.00    +0.028 A 
ENDROOT
TORSDOF 0
ENDMDL
MODEL 8
REMARK VINA RESULT:    -6.323     14.392     17.227
REMARK INTER + INTRA:          -6.323
REMARK INTER:                  -6.323
REMARK INTRA:                   0.000
REMARK UNBOUND:                 0.000
REMARK  Name = /home/vital/Documents/PhD_2021/Malaria_codes/scripts/../data/pdbqt_ligands/ligand_58_temp.pdb
REMARK                            x       y       z     vdW  Elec       q    Type
REMARK                         _______ _______ _______ _____ _____    ______ ____
ROOT
ATOM      1  C1  UNL     1       2.900   9.049 -25.571  0.00  0.00    -0.063 C 
ATOM      2  C2  UNL     1       3.038   8.108 -24.388  0.00  0.00    -0.032 C 
ATOM      3  C3  UNL     1       2.730   8.806 -23.069  0.00  0.00    +0.048 C 
ATOM      4  O1  UNL     1       2.883   7.856 -22.015  0.00  0.00    -0.376 OA
ATOM      5  C4  UNL     1       2.608   8.436 -20.739  0.00  0.00    +0.084 C 
ATOM      6  C5  UNL     1       2.808   7.396 -19.627  0.00  0.00    +0.121 C 
ATOM      7  C6  UNL     1       4.280   6.989 -19.541  0.00  0.00    -0.026 C 
ATOM      8  O2  UNL     1       2.375   8.008 -18.396  0.00  0.00    -0.486 OA
ATOM      9  C7  UNL     1       1.950   7.104 -17.451  0.00  0.00    +0.139 A 
ATOM     10  C8  UNL     1       2.787   6.825 -16.361  0.00  0.00    +0.063 A 
ATOM     11  C9  UNL     1       4.086   7.524 -16.192  0.00  0.00    +0.164 C 
ATOM     12  C10 UNL     1       5.297   6.683 -15.876  0.00  0.00    -0.001 C 
ATOM     13  O3  UNL     1       4.157   8.746 -16.274  0.00  0.00    -0.292 OA
ATOM     14  C11 UNL     1       2.402   5.891 -15.395  0.00  0.00    -0.005 A 
ATOM     15  C12 UNL     1       1.170   5.242 -15.498  0.00  0.00    +0.129 A 
ATOM     16  O4  UNL     1       0.725   4.303 -14.597  0.00  0.00    -0.494 OA
ATOM     17  C13 UNL     1       1.558   3.987 -13.490  0.00  0.00    +0.079 C 
ATOM     18  C14 UNL     1       0.286   5.551 -16.564  0.00  0.00    +0.027 A 
ATOM     19  C15 UNL     1      -0.984   4.941 -16.681  0.00  0.00    -0.050 A 
ATOM     20  C16 UNL     1      -1.870   5.272 -17.705  0.00  0.00    -0.061 A 
ATOM     21  C17 UNL     1      -1.511   6.230 -18.640  0.00  0.00    -0.061 A 
ATOM     22  C18 UNL     1      -0.261   6.844 -18.554  0.00  0.00    -0.050 A 
ATOM     23  C19 UNL     1       0.667   6.509 -17.540  0.00  0.00    +0.028 A 
ENDROOT
TORSDOF 0
ENDMDL
MODEL 9
REMARK VINA RESULT:    -6.167      9.418     11.837
REMARK INTER + INTRA:          -6.167
REMARK INTER:                  -6.167
REMARK INTRA:                   0.000
REMARK UNBOUND:                 0.000
REMARK  Name = /home/vital/Documents/PhD_2021/Malaria_codes/scripts/../data/pdbqt_ligands/ligand_58_temp.pdb
REMARK                            x       y       z     vdW  Elec       q    Type
REMARK                         _______ _______ _______ _____ _____    ______ ____
ROOT
ATOM      1  C1  UNL     1      -0.133   6.751 -18.454  0.00  0.00    -0.063 C 
ATOM      2  C2  UNL     1      -0.211   5.592 -19.432  0.00  0.00    -0.032 C 
ATOM      3  C3  UNL     1      -0.221   4.247 -18.718  0.00  0.00    +0.048 C 
ATOM      4  O1  UNL     1      -0.296   3.218 -19.705  0.00  0.00    -0.376 OA
ATOM      5  C4  UNL     1      -0.313   1.919 -19.111  0.00  0.00    +0.084 C 
ATOM      6  C5  UNL     1      -0.365   0.837 -20.200  0.00  0.00    +0.121 C 
ATOM      7  C6  UNL     1       0.922   0.853 -21.025  0.00  0.00    -0.026 C 
ATOM      8  O2  UNL     1      -0.525  -0.427 -19.527  0.00  0.00    -0.486 OA
ATOM      9  C7  UNL     1      -1.143  -1.385 -20.297  0.00  0.00    +0.139 A 
ATOM     10  C8  UNL     1      -0.365  -2.415 -20.846  0.00  0.00    +0.063 A 
ATOM     11  C9  UNL     1       1.090  -2.509 -20.567  0.00  0.00    +0.164 C 
ATOM     12  C10 UNL     1       2.014  -2.733 -21.738  0.00  0.00    -0.001 C 
ATOM     13  O3  UNL     1       1.515  -2.439 -19.418  0.00  0.00    -0.292 OA
ATOM     14  C11 UNL     1      -0.953  -3.391 -21.656  0.00  0.00    -0.005 A 
ATOM     15  C12 UNL     1      -2.326  -3.359 -21.909  0.00  0.00    +0.129 A 
ATOM     16  O4  UNL     1      -2.976  -4.274 -22.704  0.00  0.00    -0.494 OA
ATOM     17  C13 UNL     1      -2.211  -5.320 -23.287  0.00  0.00    +0.079 C 
ATOM     18  C14 UNL     1      -3.139  -2.357 -21.318  0.00  0.00    +0.027 A 
ATOM     19  C15 UNL     1      -4.537  -2.315 -21.522  0.00  0.00    -0.050 A 
ATOM     20  C16 UNL     1      -5.343  -1.355 -20.912  0.00  0.00    -0.061 A 
ATOM     21  C17 UNL     1      -4.771  -0.412 -20.072  0.00  0.00    -0.061 A 
ATOM     22  C18 UNL     1      -3.393  -0.425 -19.857  0.00  0.00    -0.050 A 
ATOM     23  C19 UNL     1      -2.548  -1.372 -20.484  0.00  0.00    +0.028 A 
ENDROOT
TORSDOF 0
ENDMDL
