MODEL 1
REMARK VINA RESULT:    -5.080      0.000      0.000
REMARK INTER + INTRA:          -5.080
REMARK INTER:                  -5.080
REMARK INTRA:                   0.000
REMARK UNBOUND:                 0.000
REMARK  Name = /home/vital/Documents/PhD_2021/Malaria_codes/scripts/../data/pdbqt_ligands/ligand_170_temp.pdb
REMARK                            x       y       z     vdW  Elec       q    Type
REMARK                         _______ _______ _______ _____ _____    ______ ____
ROOT
ATOM      1  C1  UNL     1       5.521  -2.561 -22.909  0.00  0.00    -0.100 C 
ATOM      2  C2  UNL     1       5.275  -2.604 -21.591  0.00  0.00    -0.060 C 
ATOM      3  C3  UNL     1       4.037  -3.113 -20.876  0.00  0.00    +0.089 C 
ATOM      4  C4  UNL     1       4.438  -4.347 -20.054  0.00  0.00    -0.032 C 
ATOM      5  O1  UNL     1       3.685  -2.059 -19.977  0.00  0.00    -0.384 OA
ATOM      6  C5  UNL     1       2.857  -3.409 -21.822  0.00  0.00    +0.056 C 
ATOM      7  C6  UNL     1       1.575  -3.770 -21.097  0.00  0.00    +0.216 C 
ATOM      8  O2  UNL     1       1.398  -3.562 -19.900  0.00  0.00    -0.276 OA
ATOM      9  N1  UNL     1       0.617  -4.320 -21.926  0.00  0.00    -0.313 N 
ATOM     10  C7  UNL     1      -0.733  -4.608 -21.449  0.00  0.00    +0.021 C 
ATOM     11  C8  UNL     1      -1.323  -5.748 -22.277  0.00  0.00    -0.047 C 
ATOM     12  C9  UNL     1      -1.593  -3.332 -21.503  0.00  0.00    -0.031 C 
ATOM     13  C10 UNL     1      -2.965  -3.505 -20.850  0.00  0.00    -0.033 C 
ATOM     14  C11 UNL     1      -3.739  -2.214 -20.859  0.00  0.00    -0.085 C 
ATOM     15  C12 UNL     1      -3.889  -1.343 -19.841  0.00  0.00    -0.080 C 
ATOM     16  C13 UNL     1      -3.252  -1.483 -18.486  0.00  0.00    -0.044 C 
ATOM     17  C14 UNL     1      -4.731  -0.105 -20.007  0.00  0.00    -0.044 C 
ATOM     18  H   UNL     1       4.430  -1.876 -19.385  0.00  0.00    +0.000 HD
ATOM     19  H   UNL     1       0.849  -4.522 -22.860  0.00  0.00    +0.000 HD
ENDROOT
TORSDOF 0
ENDMDL
MODEL 2
REMARK VINA RESULT:    -4.784      8.808     10.700
REMARK INTER + INTRA:          -4.784
REMARK INTER:                  -4.784
REMARK INTRA:                   0.000
REMARK UNBOUND:                 0.000
REMARK  Name = /home/vital/Documents/PhD_2021/Malaria_codes/scripts/../data/pdbqt_ligands/ligand_170_temp.pdb
REMARK                            x       y       z     vdW  Elec       q    Type
REMARK                         _______ _______ _______ _____ _____    ______ ____
ROOT
ATOM      1  C1  UNL     1       2.801  -2.423 -31.910  0.00  0.00    -0.100 C 
ATOM      2  C2  UNL     1       4.131  -2.377 -32.075  0.00  0.00    -0.060 C 
ATOM      3  C3  UNL     1       5.214  -2.984 -31.204  0.00  0.00    +0.089 C 
ATOM      4  C4  UNL     1       5.930  -4.067 -32.024  0.00  0.00    -0.032 C 
ATOM      5  O1  UNL     1       6.128  -1.910 -30.967  0.00  0.00    -0.384 OA
ATOM      6  C5  UNL     1       4.691  -3.530 -29.861  0.00  0.00    +0.056 C 
ATOM      7  C6  UNL     1       5.790  -3.997 -28.927  0.00  0.00    +0.216 C 
ATOM      8  O2  UNL     1       6.973  -3.705 -29.080  0.00  0.00    -0.276 OA
ATOM      9  N1  UNL     1       5.322  -4.751 -27.869  0.00  0.00    -0.313 N 
ATOM     10  C7  UNL     1       6.203  -5.180 -26.785  0.00  0.00    +0.021 C 
ATOM     11  C8  UNL     1       5.650  -6.463 -26.170  0.00  0.00    -0.047 C 
ATOM     12  C9  UNL     1       6.355  -4.048 -25.753  0.00  0.00    -0.031 C 
ATOM     13  C10 UNL     1       7.405  -4.349 -24.683  0.00  0.00    -0.033 C 
ATOM     14  C11 UNL     1       7.573  -3.186 -23.743  0.00  0.00    -0.085 C 
ATOM     15  C12 UNL     1       8.546  -2.253 -23.760  0.00  0.00    -0.080 C 
ATOM     16  C13 UNL     1       9.645  -2.175 -24.784  0.00  0.00    -0.044 C 
ATOM     17  C14 UNL     1       8.588  -1.166 -22.719  0.00  0.00    -0.044 C 
ATOM     18  H   UNL     1       6.454  -1.570 -31.814  0.00  0.00    +0.000 HD
ATOM     19  H   UNL     1       4.371  -5.006 -27.844  0.00  0.00    +0.000 HD
ENDROOT
TORSDOF 0
ENDMDL
MODEL 3
REMARK VINA RESULT:    -4.226      5.339      8.160
REMARK INTER + INTRA:          -4.226
REMARK INTER:                  -4.226
REMARK INTRA:                   0.000
REMARK UNBOUND:                 0.000
REMARK  Name = /home/vital/Documents/PhD_2021/Malaria_codes/scripts/../data/pdbqt_ligands/ligand_170_temp.pdb
REMARK                            x       y       z     vdW  Elec       q    Type
REMARK                         _______ _______ _______ _____ _____    ______ ____
ROOT
ATOM      1  C1  UNL     1      -2.806  -3.419 -21.389  0.00  0.00    -0.100 C 
ATOM      2  C2  UNL     1      -3.813  -2.798 -20.758  0.00  0.00    -0.060 C 
ATOM      3  C3  UNL     1      -4.089  -1.310 -20.650  0.00  0.00    +0.089 C 
ATOM      4  C4  UNL     1      -5.401  -1.015 -21.392  0.00  0.00    -0.032 C 
ATOM      5  O1  UNL     1      -4.291  -1.083 -19.253  0.00  0.00    -0.384 OA
ATOM      6  C5  UNL     1      -2.930  -0.430 -21.159  0.00  0.00    +0.056 C 
ATOM      7  C6  UNL     1      -3.139   1.051 -20.911  0.00  0.00    +0.216 C 
ATOM      8  O2  UNL     1      -3.980   1.491 -20.133  0.00  0.00    -0.276 OA
ATOM      9  N1  UNL     1      -2.264   1.850 -21.621  0.00  0.00    -0.313 N 
ATOM     10  C7  UNL     1      -2.213   3.296 -21.417  0.00  0.00    +0.021 C 
ATOM     11  C8  UNL     1      -1.713   3.963 -22.697  0.00  0.00    -0.047 C 
ATOM     12  C9  UNL     1      -1.332   3.623 -20.198  0.00  0.00    -0.031 C 
ATOM     13  C10 UNL     1      -1.373   5.101 -19.807  0.00  0.00    -0.033 C 
ATOM     14  C11 UNL     1      -0.560   5.360 -18.567  0.00  0.00    -0.085 C 
ATOM     15  C12 UNL     1      -1.013   5.501 -17.306  0.00  0.00    -0.080 C 
ATOM     16  C13 UNL     1      -2.452   5.374 -16.888  0.00  0.00    -0.044 C 
ATOM     17  C14 UNL     1      -0.062   5.792 -16.175  0.00  0.00    -0.044 C 
ATOM     18  H   UNL     1      -5.021  -1.639 -18.938  0.00  0.00    +0.000 HD
ATOM     19  H   UNL     1      -1.661   1.436 -22.279  0.00  0.00    +0.000 HD
ENDROOT
TORSDOF 0
ENDMDL
MODEL 4
REMARK VINA RESULT:    -4.208      8.934     11.174
REMARK INTER + INTRA:          -4.208
REMARK INTER:                  -4.208
REMARK INTRA:                   0.000
REMARK UNBOUND:                 0.000
REMARK  Name = /home/vital/Documents/PhD_2021/Malaria_codes/scripts/../data/pdbqt_ligands/ligand_170_temp.pdb
REMARK                            x       y       z     vdW  Elec       q    Type
REMARK                         _______ _______ _______ _____ _____    ______ ____
ROOT
ATOM      1  C1  UNL     1       0.214  -4.354 -24.853  0.00  0.00    -0.100 C 
ATOM      2  C2  UNL     1       0.139  -5.512 -25.525  0.00  0.00    -0.060 C 
ATOM      3  C3  UNL     1       0.880  -5.927 -26.782  0.00  0.00    +0.089 C 
ATOM      4  C4  UNL     1       1.812  -7.093 -26.421  0.00  0.00    -0.032 C 
ATOM      5  O1  UNL     1      -0.142  -6.411 -27.657  0.00  0.00    -0.384 OA
ATOM      6  C5  UNL     1       1.641  -4.770 -27.459  0.00  0.00    +0.056 C 
ATOM      7  C6  UNL     1       2.254  -5.146 -28.794  0.00  0.00    +0.216 C 
ATOM      8  O2  UNL     1       1.938  -6.155 -29.419  0.00  0.00    -0.276 OA
ATOM      9  N1  UNL     1       3.173  -4.222 -29.251  0.00  0.00    -0.313 N 
ATOM     10  C7  UNL     1       3.773  -4.331 -30.578  0.00  0.00    +0.021 C 
ATOM     11  C8  UNL     1       5.141  -3.654 -30.565  0.00  0.00    -0.047 C 
ATOM     12  C9  UNL     1       2.826  -3.731 -31.633  0.00  0.00    -0.031 C 
ATOM     13  C10 UNL     1       3.298  -3.970 -33.068  0.00  0.00    -0.033 C 
ATOM     14  C11 UNL     1       2.306  -3.433 -34.064  0.00  0.00    -0.085 C 
ATOM     15  C12 UNL     1       1.381  -4.130 -34.755  0.00  0.00    -0.080 C 
ATOM     16  C13 UNL     1       1.133  -5.606 -34.614  0.00  0.00    -0.044 C 
ATOM     17  C14 UNL     1       0.481  -3.441 -35.746  0.00  0.00    -0.044 C 
ATOM     18  H   UNL     1      -0.618  -7.138 -27.227  0.00  0.00    +0.000 HD
ATOM     19  H   UNL     1       3.430  -3.471 -28.668  0.00  0.00    +0.000 HD
ENDROOT
TORSDOF 0
ENDMDL
MODEL 5
REMARK VINA RESULT:    -4.084      5.687      8.406
REMARK INTER + INTRA:          -4.084
REMARK INTER:                  -4.084
REMARK INTRA:                   0.000
REMARK UNBOUND:                 0.000
REMARK  Name = /home/vital/Documents/PhD_2021/Malaria_codes/scripts/../data/pdbqt_ligands/ligand_170_temp.pdb
REMARK                            x       y       z     vdW  Elec       q    Type
REMARK                         _______ _______ _______ _____ _____    ______ ____
ROOT
ATOM      1  C1  UNL     1       8.905   1.782 -27.605  0.00  0.00    -0.100 C 
ATOM      2  C2  UNL     1       9.591   1.466 -26.497  0.00  0.00    -0.060 C 
ATOM      3  C3  UNL     1       9.548   0.181 -25.690  0.00  0.00    +0.089 C 
ATOM      4  C4  UNL     1      10.923  -0.494 -25.798  0.00  0.00    -0.032 C 
ATOM      5  O1  UNL     1       9.354   0.613 -24.341  0.00  0.00    -0.384 OA
ATOM      6  C5  UNL     1       8.407  -0.768 -26.104  0.00  0.00    +0.056 C 
ATOM      7  C6  UNL     1       8.266  -1.977 -25.201  0.00  0.00    +0.216 C 
ATOM      8  O2  UNL     1       8.792  -2.056 -24.095  0.00  0.00    -0.276 OA
ATOM      9  N1  UNL     1       7.460  -2.964 -25.734  0.00  0.00    -0.313 N 
ATOM     10  C7  UNL     1       7.089  -4.148 -24.963  0.00  0.00    +0.021 C 
ATOM     11  C8  UNL     1       6.804  -5.300 -25.924  0.00  0.00    -0.047 C 
ATOM     12  C9  UNL     1       5.890  -3.828 -24.053  0.00  0.00    -0.031 C 
ATOM     13  C10 UNL     1       5.556  -4.960 -23.080  0.00  0.00    -0.033 C 
ATOM     14  C11 UNL     1       4.428  -4.574 -22.161  0.00  0.00    -0.085 C 
ATOM     15  C12 UNL     1       4.522  -4.144 -20.887  0.00  0.00    -0.080 C 
ATOM     16  C13 UNL     1       5.811  -3.918 -20.146  0.00  0.00    -0.044 C 
ATOM     17  C14 UNL     1       3.285  -3.828 -20.089  0.00  0.00    -0.044 C 
ATOM     18  H   UNL     1      10.074   1.209 -24.085  0.00  0.00    +0.000 HD
ATOM     19  H   UNL     1       7.126  -2.867 -26.654  0.00  0.00    +0.000 HD
ENDROOT
TORSDOF 0
ENDMDL
MODEL 6
REMARK VINA RESULT:    -4.050     12.529     13.563
REMARK INTER + INTRA:          -4.050
REMARK INTER:                  -4.050
REMARK INTRA:                   0.000
REMARK UNBOUND:                 0.000
REMARK  Name = /home/vital/Documents/PhD_2021/Malaria_codes/scripts/../data/pdbqt_ligands/ligand_170_temp.pdb
REMARK                            x       y       z     vdW  Elec       q    Type
REMARK                         _______ _______ _______ _____ _____    ______ ____
ROOT
ATOM      1  C1  UNL     1       8.011   2.618 -33.786  0.00  0.00    -0.100 C 
ATOM      2  C2  UNL     1       6.874   2.865 -33.120  0.00  0.00    -0.060 C 
ATOM      3  C3  UNL     1       5.879   1.874 -32.546  0.00  0.00    +0.089 C 
ATOM      4  C4  UNL     1       5.894   2.019 -31.017  0.00  0.00    -0.032 C 
ATOM      5  O1  UNL     1       4.610   2.316 -33.036  0.00  0.00    -0.384 OA
ATOM      6  C5  UNL     1       6.132   0.420 -32.988  0.00  0.00    +0.056 C 
ATOM      7  C6  UNL     1       5.053  -0.546 -32.542  0.00  0.00    +0.216 C 
ATOM      8  O2  UNL     1       3.952  -0.185 -32.136  0.00  0.00    -0.276 OA
ATOM      9  N1  UNL     1       5.421  -1.871 -32.672  0.00  0.00    -0.313 N 
ATOM     10  C7  UNL     1       4.474  -2.956 -32.425  0.00  0.00    +0.021 C 
ATOM     11  C8  UNL     1       5.244  -4.202 -31.994  0.00  0.00    -0.047 C 
ATOM     12  C9  UNL     1       3.614  -3.198 -33.678  0.00  0.00    -0.031 C 
ATOM     13  C10 UNL     1       2.475  -4.192 -33.442  0.00  0.00    -0.033 C 
ATOM     14  C11 UNL     1       1.617  -4.339 -34.670  0.00  0.00    -0.085 C 
ATOM     15  C12 UNL     1       0.425  -3.757 -34.909  0.00  0.00    -0.080 C 
ATOM     16  C13 UNL     1      -0.261  -2.787 -33.986  0.00  0.00    -0.044 C 
ATOM     17  C14 UNL     1      -0.326  -4.037 -36.184  0.00  0.00    -0.044 C 
ATOM     18  H   UNL     1       4.456   3.231 -32.755  0.00  0.00    +0.000 HD
ATOM     19  H   UNL     1       6.342  -2.090 -32.939  0.00  0.00    +0.000 HD
ENDROOT
TORSDOF 0
ENDMDL
MODEL 7
REMARK VINA RESULT:    -4.000      7.486     10.683
REMARK INTER + INTRA:          -4.000
REMARK INTER:                  -4.000
REMARK INTRA:                   0.000
REMARK UNBOUND:                 0.000
REMARK  Name = /home/vital/Documents/PhD_2021/Malaria_codes/scripts/../data/pdbqt_ligands/ligand_170_temp.pdb
REMARK                            x       y       z     vdW  Elec       q    Type
REMARK                         _______ _______ _______ _____ _____    ______ ____
ROOT
ATOM      1  C1  UNL     1       5.708  -4.157 -23.178  0.00  0.00    -0.100 C 
ATOM      2  C2  UNL     1       6.601  -4.731 -23.997  0.00  0.00    -0.060 C 
ATOM      3  C3  UNL     1       6.986  -4.328 -25.409  0.00  0.00    +0.089 C 
ATOM      4  C4  UNL     1       8.454  -3.878 -25.390  0.00  0.00    -0.032 C 
ATOM      5  O1  UNL     1       6.887  -5.538 -26.165  0.00  0.00    -0.384 OA
ATOM      6  C5  UNL     1       6.062  -3.256 -26.017  0.00  0.00    +0.056 C 
ATOM      7  C6  UNL     1       6.350  -2.965 -27.477  0.00  0.00    +0.216 C 
ATOM      8  O2  UNL     1       7.031  -3.698 -28.188  0.00  0.00    -0.276 OA
ATOM      9  N1  UNL     1       5.740  -1.813 -27.934  0.00  0.00    -0.313 N 
ATOM     10  C7  UNL     1       5.781  -1.432 -29.343  0.00  0.00    +0.021 C 
ATOM     11  C8  UNL     1       5.651   0.085 -29.455  0.00  0.00    -0.047 C 
ATOM     12  C9  UNL     1       4.683  -2.178 -30.121  0.00  0.00    -0.031 C 
ATOM     13  C10 UNL     1       4.776  -1.976 -31.635  0.00  0.00    -0.033 C 
ATOM     14  C11 UNL     1       3.731  -2.782 -32.358  0.00  0.00    -0.085 C 
ATOM     15  C12 UNL     1       3.898  -3.964 -32.983  0.00  0.00    -0.080 C 
ATOM     16  C13 UNL     1       5.186  -4.739 -33.031  0.00  0.00    -0.044 C 
ATOM     17  C14 UNL     1       2.748  -4.629 -33.693  0.00  0.00    -0.044 C 
ATOM     18  H   UNL     1       7.470  -6.209 -25.778  0.00  0.00    +0.000 HD
ATOM     19  H   UNL     1       5.264  -1.235 -27.294  0.00  0.00    +0.000 HD
ENDROOT
TORSDOF 0
ENDMDL
MODEL 8
REMARK VINA RESULT:    -3.868     13.537     14.493
REMARK INTER + INTRA:          -3.868
REMARK INTER:                  -3.868
REMARK INTRA:                   0.000
REMARK UNBOUND:                 0.000
REMARK  Name = /home/vital/Documents/PhD_2021/Malaria_codes/scripts/../data/pdbqt_ligands/ligand_170_temp.pdb
REMARK                            x       y       z     vdW  Elec       q    Type
REMARK                         _______ _______ _______ _____ _____    ______ ____
ROOT
ATOM      1  C1  UNL     1      -0.275  -1.236 -35.249  0.00  0.00    -0.100 C 
ATOM      2  C2  UNL     1      -1.164  -0.436 -35.857  0.00  0.00    -0.060 C 
ATOM      3  C3  UNL     1      -2.479   0.097 -35.320  0.00  0.00    +0.089 C 
ATOM      4  C4  UNL     1      -2.357   1.623 -35.199  0.00  0.00    -0.032 C 
ATOM      5  O1  UNL     1      -3.432  -0.207 -36.342  0.00  0.00    -0.384 OA
ATOM      6  C5  UNL     1      -2.911  -0.554 -33.992  0.00  0.00    +0.056 C 
ATOM      7  C6  UNL     1      -4.295  -0.135 -33.535  0.00  0.00    +0.216 C 
ATOM      8  O2  UNL     1      -5.108   0.419 -34.269  0.00  0.00    -0.276 OA
ATOM      9  N1  UNL     1      -4.559  -0.472 -32.222  0.00  0.00    -0.313 N 
ATOM     10  C7  UNL     1      -5.882  -0.278 -31.633  0.00  0.00    +0.021 C 
ATOM     11  C8  UNL     1      -5.735  -0.089 -30.125  0.00  0.00    -0.047 C 
ATOM     12  C9  UNL     1      -6.796  -1.463 -31.994  0.00  0.00    -0.031 C 
ATOM     13  C10 UNL     1      -8.250  -1.250 -31.571  0.00  0.00    -0.033 C 
ATOM     14  C11 UNL     1      -9.119  -2.398 -32.010  0.00  0.00    -0.085 C 
ATOM     15  C12 UNL     1      -9.934  -2.443 -33.083  0.00  0.00    -0.080 C 
ATOM     16  C13 UNL     1     -10.090  -1.340 -34.093  0.00  0.00    -0.044 C 
ATOM     17  C14 UNL     1     -10.767  -3.665 -33.365  0.00  0.00    -0.044 C 
ATOM     18  H   UNL     1      -3.155   0.205 -37.175  0.00  0.00    +0.000 HD
ATOM     19  H   UNL     1      -3.839  -0.852 -31.669  0.00  0.00    +0.000 HD
ENDROOT
TORSDOF 0
ENDMDL
MODEL 9
REMARK VINA RESULT:    -3.808      2.342      7.424
REMARK INTER + INTRA:          -3.808
REMARK INTER:                  -3.808
REMARK INTRA:                   0.000
REMARK UNBOUND:                 0.000
REMARK  Name = /home/vital/Documents/PhD_2021/Malaria_codes/scripts/../data/pdbqt_ligands/ligand_170_temp.pdb
REMARK                            x       y       z     vdW  Elec       q    Type
REMARK                         _______ _______ _______ _____ _____    ______ ____
ROOT
ATOM      1  C1  UNL     1      -4.914  -1.919 -22.205  0.00  0.00    -0.100 C 
ATOM      2  C2  UNL     1      -4.407  -2.412 -21.066  0.00  0.00    -0.060 C 
ATOM      3  C3  UNL     1      -3.019  -2.217 -20.485  0.00  0.00    +0.089 C 
ATOM      4  C4  UNL     1      -3.161  -1.433 -19.171  0.00  0.00    -0.032 C 
ATOM      5  O1  UNL     1      -2.568  -3.539 -20.183  0.00  0.00    -0.384 OA
ATOM      6  C5  UNL     1      -2.034  -1.538 -21.457  0.00  0.00    +0.056 C 
ATOM      7  C6  UNL     1      -0.612  -1.481 -20.936  0.00  0.00    +0.216 C 
ATOM      8  O2  UNL     1      -0.213  -2.156 -19.991  0.00  0.00    -0.276 OA
ATOM      9  N1  UNL     1       0.197  -0.623 -21.655  0.00  0.00    -0.313 N 
ATOM     10  C7  UNL     1       1.632  -0.529 -21.399  0.00  0.00    +0.021 C 
ATOM     11  C8  UNL     1       2.122   0.860 -21.802  0.00  0.00    -0.047 C 
ATOM     12  C9  UNL     1       2.373  -1.655 -22.143  0.00  0.00    -0.031 C 
ATOM     13  C10 UNL     1       3.857  -1.739 -21.781  0.00  0.00    -0.033 C 
ATOM     14  C11 UNL     1       4.521  -2.898 -22.472  0.00  0.00    -0.085 C 
ATOM     15  C12 UNL     1       4.812  -4.105 -21.948  0.00  0.00    -0.080 C 
ATOM     16  C13 UNL     1       4.470  -4.543 -20.550  0.00  0.00    -0.044 C 
ATOM     17  C14 UNL     1       5.515  -5.153 -22.771  0.00  0.00    -0.044 C 
ATOM     18  H   UNL     1      -3.191  -3.962 -19.572  0.00  0.00    +0.000 HD
ATOM     19  H   UNL     1      -0.203  -0.061 -22.357  0.00  0.00    +0.000 HD
ENDROOT
TORSDOF 0
ENDMDL
