MODEL 1
REMARK VINA RESULT:    -4.798      0.000      0.000
REMARK INTER + INTRA:          -4.798
REMARK INTER:                  -4.798
REMARK INTRA:                   0.000
REMARK UNBOUND:                 0.000
REMARK  Name = /home/vital/Documents/PhD_2021/Malaria_codes/scripts/../data/pdbqt_ligands/ligand_242_temp.pdb
REMARK                            x       y       z     vdW  Elec       q    Type
REMARK                         _______ _______ _______ _____ _____    ______ ____
ROOT
ATOM      1  C   UNL     1       6.916   1.273 -29.408  0.00  0.00    -0.034 C 
ATOM      2  C   UNL     1       8.414   1.307 -29.355  0.00  0.00    -0.001 C 
ATOM      3  C   UNL     1       9.158   1.512 -30.401  0.00  0.00    -0.109 C 
ATOM      4  P   UNL     1      10.965   1.668 -30.604  0.00  0.00    +0.029 P 
ATOM      5  C   UNL     1      11.539   1.394 -28.847  0.00  0.00    -0.035 C 
ATOM      6  C   UNL     1      10.589   1.212 -27.908  0.00  0.00    +0.023 C 
ATOM      7  C   UNL     1      11.007   0.952 -26.504  0.00  0.00    +0.128 C 
ATOM      8  N   UNL     1      12.142   1.546 -25.984  0.00  0.00    -0.327 N 
ATOM      9  C   UNL     1      12.468   1.525 -24.568  0.00  0.00    +0.034 C 
ATOM     10  C   UNL     1      11.592   2.491 -23.767  0.00  0.00    +0.060 C 
ATOM     11  O   UNL     1      11.974   2.499 -22.395  0.00  0.00    -0.393 OA
ATOM     12  N   UNL     1      10.279   0.176 -25.757  0.00  0.00    -0.199 N 
ATOM     13  C   UNL     1       9.198  -0.475 -26.300  0.00  0.00    +0.218 C 
ATOM     14  N   UNL     1       8.835  -1.594 -25.603  0.00  0.00    -0.284 N 
ATOM     15  C   UNL     1       7.909  -2.607 -25.897  0.00  0.00    +0.035 A 
ATOM     16  C   UNL     1       7.181  -2.685 -27.088  0.00  0.00    -0.039 A 
ATOM     17  C   UNL     1       6.244  -3.703 -27.304  0.00  0.00    -0.040 A 
ATOM     18  C   UNL     1       6.008  -4.664 -26.321  0.00  0.00    +0.059 A 
ATOM     19 CL   UNL     1       4.840  -5.891 -26.652  0.00  0.00    -0.082 Cl
ATOM     20  C   UNL     1       6.713  -4.598 -25.120  0.00  0.00    +0.061 A 
ATOM     21 CL   UNL     1       6.480  -5.742 -23.845  0.00  0.00    -0.082 Cl
ATOM     22  C   UNL     1       7.651  -3.577 -24.913  0.00  0.00    -0.021 A 
ATOM     23  N   UNL     1       8.592  -0.047 -27.352  0.00  0.00    -0.239 N 
ATOM     24  C   UNL     1       9.069   1.184 -27.968  0.00  0.00    +0.111 C 
ATOM     25  H   UNL     1      12.757   2.004 -26.602  0.00  0.00    +0.000 HD
ATOM     26  H   UNL     1      11.865   1.610 -22.024  0.00  0.00    +0.000 HD
ATOM     27  H   UNL     1      10.501   0.056 -24.805  0.00  0.00    +0.000 HD
ATOM     28  H   UNL     1       9.304  -1.708 -24.745  0.00  0.00    +0.000 HD
ATOM     29  H   UNL     1       7.828  -0.539 -27.729  0.00  0.00    +0.000 HD
ENDROOT
TORSDOF 0
ENDMDL
MODEL 2
REMARK VINA RESULT:    -4.690     11.725     13.111
REMARK INTER + INTRA:          -4.690
REMARK INTER:                  -4.690
REMARK INTRA:                   0.000
REMARK UNBOUND:                 0.000
REMARK  Name = /home/vital/Documents/PhD_2021/Malaria_codes/scripts/../data/pdbqt_ligands/ligand_242_temp.pdb
REMARK                            x       y       z     vdW  Elec       q    Type
REMARK                         _______ _______ _______ _____ _____    ______ ____
ROOT
ATOM      1  C   UNL     1       5.350   2.238 -16.533  0.00  0.00    -0.034 C 
ATOM      2  C   UNL     1       4.235   2.746 -15.670  0.00  0.00    -0.001 C 
ATOM      3  C   UNL     1       4.342   2.895 -14.383  0.00  0.00    -0.109 C 
ATOM      4  P   UNL     1       3.188   3.544 -13.127  0.00  0.00    +0.029 P 
ATOM      5  C   UNL     1       1.695   3.921 -14.186  0.00  0.00    -0.035 C 
ATOM      6  C   UNL     1       1.807   3.702 -15.512  0.00  0.00    +0.023 C 
ATOM      7  C   UNL     1       0.628   3.954 -16.383  0.00  0.00    +0.128 C 
ATOM      8  N   UNL     1      -0.252   4.982 -16.100  0.00  0.00    -0.327 N 
ATOM      9  C   UNL     1      -1.274   5.428 -17.032  0.00  0.00    +0.034 C 
ATOM     10  C   UNL     1      -0.681   6.247 -18.180  0.00  0.00    +0.060 C 
ATOM     11  O   UNL     1      -1.708   6.726 -19.043  0.00  0.00    -0.393 OA
ATOM     12  N   UNL     1       0.443   3.211 -17.434  0.00  0.00    -0.199 N 
ATOM     13  C   UNL     1       1.273   2.141 -17.667  0.00  0.00    +0.218 C 
ATOM     14  N   UNL     1       0.710   1.184 -18.464  0.00  0.00    -0.284 N 
ATOM     15  C   UNL     1       1.144  -0.105 -18.809  0.00  0.00    +0.035 A 
ATOM     16  C   UNL     1       2.299  -0.708 -18.301  0.00  0.00    -0.039 A 
ATOM     17  C   UNL     1       2.697  -1.986 -18.716  0.00  0.00    -0.040 A 
ATOM     18  C   UNL     1       1.948  -2.685 -19.660  0.00  0.00    +0.059 A 
ATOM     19 CL   UNL     1       2.494  -4.255 -20.126  0.00  0.00    -0.082 Cl
ATOM     20  C   UNL     1       0.799  -2.099 -20.190  0.00  0.00    +0.061 A 
ATOM     21 CL   UNL     1      -0.186  -2.891 -21.370  0.00  0.00    -0.082 Cl
ATOM     22  C   UNL     1       0.407  -0.821 -19.769  0.00  0.00    -0.021 A 
ATOM     23  N   UNL     1       2.465   2.075 -17.186  0.00  0.00    -0.239 N 
ATOM     24  C   UNL     1       2.945   3.192 -16.382  0.00  0.00    +0.111 C 
ATOM     25  H   UNL     1      -0.183   5.433 -15.227  0.00  0.00    +0.000 HD
ATOM     26  H   UNL     1      -2.188   5.973 -19.422  0.00  0.00    +0.000 HD
ATOM     27  H   UNL     1      -0.289   3.414 -18.060  0.00  0.00    +0.000 HD
ATOM     28  H   UNL     1      -0.150   1.444 -18.866  0.00  0.00    +0.000 HD
ATOM     29  H   UNL     1       3.036   1.292 -17.356  0.00  0.00    +0.000 HD
ENDROOT
TORSDOF 0
ENDMDL
MODEL 3
REMARK VINA RESULT:    -4.600     13.123     14.222
REMARK INTER + INTRA:          -4.600
REMARK INTER:                  -4.600
REMARK INTRA:                   0.000
REMARK UNBOUND:                 0.000
REMARK  Name = /home/vital/Documents/PhD_2021/Malaria_codes/scripts/../data/pdbqt_ligands/ligand_242_temp.pdb
REMARK                            x       y       z     vdW  Elec       q    Type
REMARK                         _______ _______ _______ _____ _____    ______ ____
ROOT
ATOM      1  C   UNL     1       1.396   2.219 -18.514  0.00  0.00    -0.034 C 
ATOM      2  C   UNL     1       0.512   3.376 -18.158  0.00  0.00    -0.001 C 
ATOM      3  C   UNL     1       0.586   4.004 -17.022  0.00  0.00    -0.109 C 
ATOM      4  P   UNL     1      -0.304   5.458 -16.370  0.00  0.00    +0.029 P 
ATOM      5  C   UNL     1      -1.463   5.825 -17.789  0.00  0.00    -0.035 C 
ATOM      6  C   UNL     1      -1.360   5.048 -18.887  0.00  0.00    +0.023 C 
ATOM      7  C   UNL     1      -2.291   5.284 -20.022  0.00  0.00    +0.128 C 
ATOM      8  N   UNL     1      -2.720   6.561 -20.330  0.00  0.00    -0.327 N 
ATOM      9  C   UNL     1      -3.427   6.885 -21.558  0.00  0.00    +0.034 C 
ATOM     10  C   UNL     1      -2.491   6.905 -22.767  0.00  0.00    +0.060 C 
ATOM     11  O   UNL     1      -3.195   7.286 -23.945  0.00  0.00    -0.393 OA
ATOM     12  N   UNL     1      -2.682   4.276 -20.745  0.00  0.00    -0.199 N 
ATOM     13  C   UNL     1      -2.319   3.000 -20.387  0.00  0.00    +0.218 C 
ATOM     14  N   UNL     1      -3.156   2.040 -20.883  0.00  0.00    -0.284 N 
ATOM     15  C   UNL     1      -3.234   0.662 -20.634  0.00  0.00    +0.035 A 
ATOM     16  C   UNL     1      -2.438  -0.015 -19.705  0.00  0.00    -0.039 A 
ATOM     17  C   UNL     1      -2.541  -1.402 -19.530  0.00  0.00    -0.040 A 
ATOM     18  C   UNL     1      -3.441  -2.143 -20.293  0.00  0.00    +0.059 A 
ATOM     19 CL   UNL     1      -3.517  -3.847 -20.027  0.00  0.00    -0.082 Cl
ATOM     20  C   UNL     1      -4.236  -1.492 -21.235  0.00  0.00    +0.061 A 
ATOM     21 CL   UNL     1      -5.373  -2.332 -22.229  0.00  0.00    -0.082 Cl
ATOM     22  C   UNL     1      -4.128  -0.104 -21.403  0.00  0.00    -0.021 A 
ATOM     23  N   UNL     1      -1.279   2.754 -19.670  0.00  0.00    -0.239 N 
ATOM     24  C   UNL     1      -0.455   3.878 -19.244  0.00  0.00    +0.111 C 
ATOM     25  H   UNL     1      -2.537   7.286 -19.688  0.00  0.00    +0.000 HD
ATOM     26  H   UNL     1      -3.904   6.647 -24.119  0.00  0.00    +0.000 HD
ATOM     27  H   UNL     1      -3.236   4.426 -21.544  0.00  0.00    +0.000 HD
ATOM     28  H   UNL     1      -3.820   2.374 -21.528  0.00  0.00    +0.000 HD
ATOM     29  H   UNL     1      -1.046   1.833 -19.416  0.00  0.00    +0.000 HD
ENDROOT
TORSDOF 0
ENDMDL
MODEL 4
REMARK VINA RESULT:    -4.522     11.920     12.882
REMARK INTER + INTRA:          -4.522
REMARK INTER:                  -4.522
REMARK INTRA:                   0.000
REMARK UNBOUND:                 0.000
REMARK  Name = /home/vital/Documents/PhD_2021/Malaria_codes/scripts/../data/pdbqt_ligands/ligand_242_temp.pdb
REMARK                            x       y       z     vdW  Elec       q    Type
REMARK                         _______ _______ _______ _____ _____    ______ ____
ROOT
ATOM      1  C   UNL     1      -1.446   4.957 -17.247  0.00  0.00    -0.034 C 
ATOM      2  C   UNL     1      -0.030   5.400 -17.031  0.00  0.00    -0.001 C 
ATOM      3  C   UNL     1       0.404   6.579 -17.363  0.00  0.00    -0.109 C 
ATOM      4  P   UNL     1       2.028   7.387 -17.156  0.00  0.00    +0.029 P 
ATOM      5  C   UNL     1       3.001   6.012 -16.346  0.00  0.00    -0.035 C 
ATOM      6  C   UNL     1       2.344   4.867 -16.076  0.00  0.00    +0.023 C 
ATOM      7  C   UNL     1       3.094   3.735 -15.467  0.00  0.00    +0.128 C 
ATOM      8  N   UNL     1       4.118   3.969 -14.569  0.00  0.00    -0.327 N 
ATOM      9  C   UNL     1       4.721   2.919 -13.765  0.00  0.00    +0.034 C 
ATOM     10  C   UNL     1       3.809   2.484 -12.617  0.00  0.00    +0.060 C 
ATOM     11  O   UNL     1       4.448   1.502 -11.808  0.00  0.00    -0.393 OA
ATOM     12  N   UNL     1       2.761   2.515 -15.770  0.00  0.00    -0.199 N 
ATOM     13  C   UNL     1       1.799   2.288 -16.723  0.00  0.00    +0.218 C 
ATOM     14  N   UNL     1       1.888   1.051 -17.298  0.00  0.00    -0.284 N 
ATOM     15  C   UNL     1       1.217   0.489 -18.395  0.00  0.00    +0.035 A 
ATOM     16  C   UNL     1       0.305   1.182 -19.197  0.00  0.00    -0.039 A 
ATOM     17  C   UNL     1      -0.360   0.551 -20.257  0.00  0.00    -0.040 A 
ATOM     18  C   UNL     1      -0.132  -0.796 -20.529  0.00  0.00    +0.059 A 
ATOM     19 CL   UNL     1      -0.984  -1.512 -21.849  0.00  0.00    -0.082 Cl
ATOM     20  C   UNL     1       0.763  -1.511 -19.734  0.00  0.00    +0.061 A 
ATOM     21 CL   UNL     1       1.101  -3.187 -19.995  0.00  0.00    -0.082 Cl
ATOM     22  C   UNL     1       1.426  -0.872 -18.677  0.00  0.00    -0.021 A 
ATOM     23  N   UNL     1       0.900   3.161 -17.018  0.00  0.00    -0.239 N 
ATOM     24  C   UNL     1       0.905   4.425 -16.294  0.00  0.00    +0.111 C 
ATOM     25  H   UNL     1       4.454   4.890 -14.468  0.00  0.00    +0.000 HD
ATOM     26  H   UNL     1       4.652   0.722 -12.347  0.00  0.00    +0.000 HD
ATOM     27  H   UNL     1       3.197   1.757 -15.318  0.00  0.00    +0.000 HD
ATOM     28  H   UNL     1       2.536   0.448 -16.867  0.00  0.00    +0.000 HD
ATOM     29  H   UNL     1       0.228   2.980 -17.714  0.00  0.00    +0.000 HD
ENDROOT
TORSDOF 0
ENDMDL
MODEL 5
REMARK VINA RESULT:    -4.431     12.868     14.533
REMARK INTER + INTRA:          -4.431
REMARK INTER:                  -4.431
REMARK INTRA:                   0.000
REMARK UNBOUND:                 0.000
REMARK  Name = /home/vital/Documents/PhD_2021/Malaria_codes/scripts/../data/pdbqt_ligands/ligand_242_temp.pdb
REMARK                            x       y       z     vdW  Elec       q    Type
REMARK                         _______ _______ _______ _____ _____    ______ ____
ROOT
ATOM      1  C   UNL     1       3.582  10.524 -17.774  0.00  0.00    -0.034 C 
ATOM      2  C   UNL     1       3.590   9.130 -17.222  0.00  0.00    -0.001 C 
ATOM      3  C   UNL     1       4.509   8.690 -16.415  0.00  0.00    -0.109 C 
ATOM      4  P   UNL     1       4.719   7.092 -15.558  0.00  0.00    +0.029 P 
ATOM      5  C   UNL     1       3.233   6.155 -16.195  0.00  0.00    -0.035 C 
ATOM      6  C   UNL     1       2.395   6.814 -17.019  0.00  0.00    +0.023 C 
ATOM      7  C   UNL     1       1.221   6.091 -17.578  0.00  0.00    +0.128 C 
ATOM      8  N   UNL     1       0.566   5.128 -16.834  0.00  0.00    -0.327 N 
ATOM      9  C   UNL     1      -0.716   4.564 -17.223  0.00  0.00    +0.034 C 
ATOM     10  C   UNL     1      -1.867   5.541 -16.978  0.00  0.00    +0.060 C 
ATOM     11  O   UNL     1      -3.117   4.942 -17.307  0.00  0.00    -0.393 OA
ATOM     12  N   UNL     1       0.798   6.389 -18.771  0.00  0.00    -0.199 N 
ATOM     13  C   UNL     1       1.500   7.288 -19.538  0.00  0.00    +0.218 C 
ATOM     14  N   UNL     1       1.273   7.148 -20.879  0.00  0.00    -0.284 N 
ATOM     15  C   UNL     1       1.892   7.743 -21.989  0.00  0.00    +0.035 A 
ATOM     16  C   UNL     1       2.985   8.610 -21.908  0.00  0.00    -0.039 A 
ATOM     17  C   UNL     1       3.534   9.200 -23.055  0.00  0.00    -0.040 A 
ATOM     18  C   UNL     1       2.989   8.939 -24.311  0.00  0.00    +0.059 A 
ATOM     19 CL   UNL     1       3.713   9.698 -25.681  0.00  0.00    -0.082 Cl
ATOM     20  C   UNL     1       1.890   8.088 -24.414  0.00  0.00    +0.061 A 
ATOM     21 CL   UNL     1       1.146   7.714 -25.929  0.00  0.00    -0.082 Cl
ATOM     22  C   UNL     1       1.348   7.500 -23.262  0.00  0.00    -0.021 A 
ATOM     23  N   UNL     1       2.276   8.176 -19.023  0.00  0.00    -0.239 N 
ATOM     24  C   UNL     1       2.390   8.232 -17.571  0.00  0.00    +0.111 C 
ATOM     25  H   UNL     1       0.986   4.810 -16.002  0.00  0.00    +0.000 HD
ATOM     26  H   UNL     1      -3.120   4.695 -18.245  0.00  0.00    +0.000 HD
ATOM     27  H   UNL     1      -0.021   5.974 -19.124  0.00  0.00    +0.000 HD
ATOM     28  H   UNL     1       0.549   6.521 -21.105  0.00  0.00    +0.000 HD
ATOM     29  H   UNL     1       2.778   8.801 -19.594  0.00  0.00    +0.000 HD
ENDROOT
TORSDOF 0
ENDMDL
MODEL 6
REMARK VINA RESULT:    -4.199      4.879      7.013
REMARK INTER + INTRA:          -4.199
REMARK INTER:                  -4.199
REMARK INTRA:                   0.000
REMARK UNBOUND:                 0.000
REMARK  Name = /home/vital/Documents/PhD_2021/Malaria_codes/scripts/../data/pdbqt_ligands/ligand_242_temp.pdb
REMARK                            x       y       z     vdW  Elec       q    Type
REMARK                         _______ _______ _______ _____ _____    ______ ____
ROOT
ATOM      1  C   UNL     1       9.307  -3.061 -24.617  0.00  0.00    -0.034 C 
ATOM      2  C   UNL     1       8.433  -2.216 -23.739  0.00  0.00    -0.001 C 
ATOM      3  C   UNL     1       7.200  -2.518 -23.463  0.00  0.00    -0.109 C 
ATOM      4  P   UNL     1       5.957  -1.720 -22.391  0.00  0.00    +0.029 P 
ATOM      5  C   UNL     1       6.919  -0.237 -21.784  0.00  0.00    -0.035 C 
ATOM      6  C   UNL     1       8.200  -0.125 -22.188  0.00  0.00    +0.023 C 
ATOM      7  C   UNL     1       8.988   1.062 -21.758  0.00  0.00    +0.128 C 
ATOM      8  N   UNL     1       8.786   1.629 -20.515  0.00  0.00    -0.327 N 
ATOM      9  C   UNL     1       9.677   2.626 -19.945  0.00  0.00    +0.034 C 
ATOM     10  C   UNL     1      10.986   2.006 -19.453  0.00  0.00    +0.060 C 
ATOM     11  O   UNL     1      11.814   2.992 -18.843  0.00  0.00    -0.393 OA
ATOM     12  N   UNL     1       9.891   1.549 -22.556  0.00  0.00    -0.199 N 
ATOM     13  C   UNL     1      10.033   1.033 -23.821  0.00  0.00    +0.218 C 
ATOM     14  N   UNL     1      10.620   1.903 -24.698  0.00  0.00    -0.284 N 
ATOM     15  C   UNL     1      10.802   1.834 -26.087  0.00  0.00    +0.035 A 
ATOM     16  C   UNL     1      10.317   0.801 -26.894  0.00  0.00    -0.039 A 
ATOM     17  C   UNL     1      10.566   0.773 -28.272  0.00  0.00    -0.040 A 
ATOM     18  C   UNL     1      11.319   1.780 -28.872  0.00  0.00    +0.059 A 
ATOM     19 CL   UNL     1      11.588   1.685 -30.575  0.00  0.00    -0.082 Cl
ATOM     20  C   UNL     1      11.825   2.815 -28.086  0.00  0.00    +0.061 A 
ATOM     21 CL   UNL     1      12.774   4.100 -28.745  0.00  0.00    -0.082 Cl
ATOM     22  C   UNL     1      11.569   2.836 -26.708  0.00  0.00    -0.021 A 
ATOM     23  N   UNL     1       9.659  -0.160 -24.126  0.00  0.00    -0.239 N 
ATOM     24  C   UNL     1       9.083  -0.990 -23.075  0.00  0.00    +0.111 C 
ATOM     25  H   UNL     1       8.002   1.345 -19.990  0.00  0.00    +0.000 HD
ATOM     26  H   UNL     1      12.028   3.680 -19.491  0.00  0.00    +0.000 HD
ATOM     27  H   UNL     1      10.472   2.285 -22.255  0.00  0.00    +0.000 HD
ATOM     28  H   UNL     1      10.976   2.721 -24.281  0.00  0.00    +0.000 HD
ATOM     29  H   UNL     1       9.760  -0.503 -25.042  0.00  0.00    +0.000 HD
ENDROOT
TORSDOF 0
ENDMDL
MODEL 7
REMARK VINA RESULT:    -3.781      6.231      8.969
REMARK INTER + INTRA:          -3.781
REMARK INTER:                  -3.781
REMARK INTRA:                   0.000
REMARK UNBOUND:                 0.000
REMARK  Name = /home/vital/Documents/PhD_2021/Malaria_codes/scripts/../data/pdbqt_ligands/ligand_242_temp.pdb
REMARK                            x       y       z     vdW  Elec       q    Type
REMARK                         _______ _______ _______ _____ _____    ______ ____
ROOT
ATOM      1  C   UNL     1      10.028   7.793 -22.449  0.00  0.00    -0.034 C 
ATOM      2  C   UNL     1      11.055   7.612 -21.372  0.00  0.00    -0.001 C 
ATOM      3  C   UNL     1      11.835   8.568 -20.964  0.00  0.00    -0.109 C 
ATOM      4  P   UNL     1      13.100   8.637 -19.651  0.00  0.00    +0.029 P 
ATOM      5  C   UNL     1      13.046   6.879 -19.020  0.00  0.00    -0.035 C 
ATOM      6  C   UNL     1      12.143   6.049 -19.580  0.00  0.00    +0.023 C 
ATOM      7  C   UNL     1      12.095   4.632 -19.132  0.00  0.00    +0.128 C 
ATOM      8  N   UNL     1      12.358   4.298 -17.817  0.00  0.00    -0.327 N 
ATOM      9  C   UNL     1      12.096   2.979 -17.268  0.00  0.00    +0.034 C 
ATOM     10  C   UNL     1      10.603   2.746 -17.030  0.00  0.00    +0.060 C 
ATOM     11  O   UNL     1      10.378   1.473 -16.433  0.00  0.00    -0.393 OA
ATOM     12  N   UNL     1      11.778   3.705 -19.987  0.00  0.00    -0.199 N 
ATOM     13  C   UNL     1      11.596   4.030 -21.309  0.00  0.00    +0.218 C 
ATOM     14  N   UNL     1      11.763   2.969 -22.155  0.00  0.00    -0.284 N 
ATOM     15  C   UNL     1      11.821   2.902 -23.555  0.00  0.00    +0.035 A 
ATOM     16  C   UNL     1      11.776   4.017 -24.398  0.00  0.00    -0.039 A 
ATOM     17  C   UNL     1      11.801   3.879 -25.792  0.00  0.00    -0.040 A 
ATOM     18  C   UNL     1      11.862   2.614 -26.373  0.00  0.00    +0.059 A 
ATOM     19 CL   UNL     1      11.890   2.515 -28.096  0.00  0.00    -0.082 Cl
ATOM     20  C   UNL     1      11.894   1.486 -25.553  0.00  0.00    +0.061 A 
ATOM     21 CL   UNL     1      11.962  -0.120 -26.188  0.00  0.00    -0.082 Cl
ATOM     22  C   UNL     1      11.870   1.634 -24.159  0.00  0.00    -0.021 A 
ATOM     23  N   UNL     1      11.283   5.219 -21.690  0.00  0.00    -0.239 N 
ATOM     24  C   UNL     1      11.099   6.243 -20.670  0.00  0.00    +0.111 C 
ATOM     25  H   UNL     1      12.741   4.986 -17.225  0.00  0.00    +0.000 HD
ATOM     26  H   UNL     1      10.705   0.777 -17.024  0.00  0.00    +0.000 HD
ATOM     27  H   UNL     1      11.668   2.773 -19.688  0.00  0.00    +0.000 HD
ATOM     28  H   UNL     1      11.860   2.100 -21.703  0.00  0.00    +0.000 HD
ATOM     29  H   UNL     1      11.170   5.430 -22.645  0.00  0.00    +0.000 HD
ENDROOT
TORSDOF 0
ENDMDL
MODEL 8
REMARK VINA RESULT:    -3.691      8.039     10.327
REMARK INTER + INTRA:          -3.691
REMARK INTER:                  -3.691
REMARK INTRA:                   0.000
REMARK UNBOUND:                 0.000
REMARK  Name = /home/vital/Documents/PhD_2021/Malaria_codes/scripts/../data/pdbqt_ligands/ligand_242_temp.pdb
REMARK                            x       y       z     vdW  Elec       q    Type
REMARK                         _______ _______ _______ _____ _____    ______ ____
ROOT
ATOM      1  C   UNL     1       6.849   0.672 -33.470  0.00  0.00    -0.034 C 
ATOM      2  C   UNL     1       7.805   1.548 -32.717  0.00  0.00    -0.001 C 
ATOM      3  C   UNL     1       8.438   1.157 -31.651  0.00  0.00    -0.109 C 
ATOM      4  P   UNL     1       9.684   1.979 -30.600  0.00  0.00    +0.029 P 
ATOM      5  C   UNL     1       9.807   3.644 -31.439  0.00  0.00    -0.035 C 
ATOM      6  C   UNL     1       9.065   3.832 -32.549  0.00  0.00    +0.023 C 
ATOM      7  C   UNL     1       9.107   5.157 -33.224  0.00  0.00    +0.128 C 
ATOM      8  N   UNL     1      10.270   5.901 -33.246  0.00  0.00    -0.327 N 
ATOM      9  C   UNL     1      10.442   7.077 -34.084  0.00  0.00    +0.034 C 
ATOM     10  C   UNL     1      10.648   6.705 -35.553  0.00  0.00    +0.060 C 
ATOM     11  O   UNL     1      10.878   7.868 -36.342  0.00  0.00    -0.393 OA
ATOM     12  N   UNL     1       8.038   5.603 -33.817  0.00  0.00    -0.199 N 
ATOM     13  C   UNL     1       6.863   4.898 -33.724  0.00  0.00    +0.218 C 
ATOM     14  N   UNL     1       5.753   5.668 -33.936  0.00  0.00    -0.284 N 
ATOM     15  C   UNL     1       4.387   5.385 -33.781  0.00  0.00    +0.035 A 
ATOM     16  C   UNL     1       3.886   4.180 -33.280  0.00  0.00    -0.039 A 
ATOM     17  C   UNL     1       2.508   3.946 -33.185  0.00  0.00    -0.040 A 
ATOM     18  C   UNL     1       1.599   4.916 -33.603  0.00  0.00    +0.059 A 
ATOM     19 CL   UNL     1      -0.085   4.564 -33.459  0.00  0.00    -0.082 Cl
ATOM     20  C   UNL     1       2.075   6.121 -34.119  0.00  0.00    +0.061 A 
ATOM     21 CL   UNL     1       1.021   7.376 -34.667  0.00  0.00    -0.082 Cl
ATOM     22  C   UNL     1       3.456   6.347 -34.208  0.00  0.00    -0.021 A 
ATOM     23  N   UNL     1       6.833   3.635 -33.477  0.00  0.00    -0.239 N 
ATOM     24  C   UNL     1       8.101   2.936 -33.311  0.00  0.00    +0.111 C 
ATOM     25  H   UNL     1      11.018   5.623 -32.669  0.00  0.00    +0.000 HD
ATOM     26  H   UNL     1      10.109   8.457 -36.282  0.00  0.00    +0.000 HD
ATOM     27  H   UNL     1       8.072   6.441 -34.332  0.00  0.00    +0.000 HD
ATOM     28  H   UNL     1       5.945   6.580 -34.252  0.00  0.00    +0.000 HD
ATOM     29  H   UNL     1       5.977   3.155 -33.402  0.00  0.00    +0.000 HD
ENDROOT
TORSDOF 0
ENDMDL
MODEL 9
REMARK VINA RESULT:    -3.633     12.617     14.470
REMARK INTER + INTRA:          -3.633
REMARK INTER:                  -3.633
REMARK INTRA:                   0.000
REMARK UNBOUND:                 0.000
REMARK  Name = /home/vital/Documents/PhD_2021/Malaria_codes/scripts/../data/pdbqt_ligands/ligand_242_temp.pdb
REMARK                            x       y       z     vdW  Elec       q    Type
REMARK                         _______ _______ _______ _____ _____    ______ ____
ROOT
ATOM      1  C   UNL     1       3.092   9.768 -17.385  0.00  0.00    -0.034 C 
ATOM      2  C   UNL     1       2.724   8.316 -17.325  0.00  0.00    -0.001 C 
ATOM      3  C   UNL     1       3.132   7.517 -16.384  0.00  0.00    -0.109 C 
ATOM      4  P   UNL     1       2.787   5.759 -16.039  0.00  0.00    +0.029 P 
ATOM      5  C   UNL     1       1.676   5.331 -17.480  0.00  0.00    -0.035 C 
ATOM      6  C   UNL     1       1.367   6.324 -18.337  0.00  0.00    +0.023 C 
ATOM      7  C   UNL     1       0.517   6.015 -19.518  0.00  0.00    +0.128 C 
ATOM      8  N   UNL     1      -0.488   5.070 -19.436  0.00  0.00    -0.327 N 
ATOM      9  C   UNL     1      -1.497   4.896 -20.468  0.00  0.00    +0.034 C 
ATOM     10  C   UNL     1      -2.541   6.013 -20.438  0.00  0.00    +0.060 C 
ATOM     11  O   UNL     1      -3.553   5.785 -21.415  0.00  0.00    -0.393 OA
ATOM     12  N   UNL     1       0.712   6.662 -20.629  0.00  0.00    -0.199 N 
ATOM     13  C   UNL     1       1.762   7.541 -20.731  0.00  0.00    +0.218 C 
ATOM     14  N   UNL     1       2.158   7.764 -22.020  0.00  0.00    -0.284 N 
ATOM     15  C   UNL     1       3.264   8.451 -22.542  0.00  0.00    +0.035 A 
ATOM     16  C   UNL     1       4.274   9.024 -21.763  0.00  0.00    -0.039 A 
ATOM     17  C   UNL     1       5.334   9.730 -22.346  0.00  0.00    -0.040 A 
ATOM     18  C   UNL     1       5.399   9.886 -23.730  0.00  0.00    +0.059 A 
ATOM     19 CL   UNL     1       6.732  10.767 -24.384  0.00  0.00    -0.082 Cl
ATOM     20  C   UNL     1       4.397   9.335 -24.527  0.00  0.00    +0.061 A 
ATOM     21 CL   UNL     1       4.394   9.486 -26.249  0.00  0.00    -0.082 Cl
ATOM     22  C   UNL     1       3.340   8.628 -23.935  0.00  0.00    -0.021 A 
ATOM     23  N   UNL     1       2.294   8.102 -19.701  0.00  0.00    -0.239 N 
ATOM     24  C   UNL     1       1.740   7.798 -18.389  0.00  0.00    +0.111 C 
ATOM     25  H   UNL     1      -0.522   4.488 -18.642  0.00  0.00    +0.000 HD
ATOM     26  H   UNL     1      -3.151   5.767 -22.298  0.00  0.00    +0.000 HD
ATOM     27  H   UNL     1       0.109   6.522 -21.395  0.00  0.00    +0.000 HD
ATOM     28  H   UNL     1       1.564   7.374 -22.701  0.00  0.00    +0.000 HD
ATOM     29  H   UNL     1       3.054   8.719 -19.799  0.00  0.00    +0.000 HD
ENDROOT
TORSDOF 0
ENDMDL
