MODEL 1
REMARK VINA RESULT:    -6.941      0.000      0.000
REMARK INTER + INTRA:          -6.941
REMARK INTER:                  -6.941
REMARK INTRA:                   0.000
REMARK UNBOUND:                 0.000
REMARK  Name = /home/vital/Documents/PhD_2021/Malaria_codes/scripts/../data/pdbqt_ligands/ligand_343_temp.pdb
REMARK                            x       y       z     vdW  Elec       q    Type
REMARK                         _______ _______ _______ _____ _____    ______ ____
ROOT
ATOM      1  C1  UNL     1       5.437  -0.736 -20.389  0.00  0.00    -0.037 C 
ATOM      2  C2  UNL     1       4.557  -1.954 -20.250  0.00  0.00    -0.011 A 
ATOM      3  C3  UNL     1       3.535  -2.013 -19.279  0.00  0.00    +0.046 A 
ATOM      4 CL1  UNL     1       3.212  -0.712 -18.183  0.00  0.00    -0.083 Cl
ATOM      5  C4  UNL     1       2.723  -3.143 -19.155  0.00  0.00    -0.043 A 
ATOM      6  C5  UNL     1       2.915  -4.232 -19.995  0.00  0.00    -0.059 A 
ATOM      7  C6  UNL     1       3.919  -4.195 -20.961  0.00  0.00    -0.040 A 
ATOM      8  C7  UNL     1       4.746  -3.073 -21.105  0.00  0.00    +0.038 A 
ATOM      9  N1  UNL     1       5.768  -3.021 -22.081  0.00  0.00    -0.279 N 
ATOM     10  C8  UNL     1       6.138  -3.974 -23.014  0.00  0.00    +0.284 C 
ATOM     11  O1  UNL     1       5.620  -5.075 -23.163  0.00  0.00    -0.266 OA
ATOM     12  C9  UNL     1       7.246  -3.530 -23.841  0.00  0.00    +0.190 A 
ATOM     13  C10 UNL     1       7.919  -4.151 -24.874  0.00  0.00    -0.011 A 
ATOM     14  C11 UNL     1       8.916  -3.244 -25.313  0.00  0.00    -0.015 A 
ATOM     15  C12 UNL     1       8.804  -2.114 -24.527  0.00  0.00    +0.136 A 
ATOM     16  C13 UNL     1       9.512  -0.837 -24.461  0.00  0.00    +0.019 A 
ATOM     17  C14 UNL     1      10.572  -0.562 -25.341  0.00  0.00    -0.051 A 
ATOM     18  C15 UNL     1      11.256   0.656 -25.287  0.00  0.00    -0.060 A 
ATOM     19  C16 UNL     1      10.891   1.620 -24.351  0.00  0.00    -0.043 A 
ATOM     20  C17 UNL     1       9.842   1.360 -23.474  0.00  0.00    +0.042 A 
ATOM     21 CL2  UNL     1       9.385   2.547 -22.314  0.00  0.00    -0.084 Cl
ATOM     22  C18 UNL     1       9.156   0.146 -23.525  0.00  0.00    -0.033 A 
ATOM     23  O2  UNL     1       7.786  -2.288 -23.628  0.00  0.00    -0.450 OA
ATOM     24  H   UNL     1       6.291  -2.188 -22.099  0.00  0.00    +0.000 HD
ENDROOT
TORSDOF 0
ENDMDL
MODEL 2
REMARK VINA RESULT:    -6.864      4.245      8.666
REMARK INTER + INTRA:          -6.864
REMARK INTER:                  -6.864
REMARK INTRA:                   0.000
REMARK UNBOUND:                 0.000
REMARK  Name = /home/vital/Documents/PhD_2021/Malaria_codes/scripts/../data/pdbqt_ligands/ligand_343_temp.pdb
REMARK                            x       y       z     vdW  Elec       q    Type
REMARK                         _______ _______ _______ _____ _____    ______ ____
ROOT
ATOM      1  C1  UNL     1       5.169  -3.135 -23.239  0.00  0.00    -0.037 C 
ATOM      2  C2  UNL     1       6.095  -3.585 -24.342  0.00  0.00    -0.011 A 
ATOM      3  C3  UNL     1       7.459  -3.224 -24.347  0.00  0.00    +0.046 A 
ATOM      4 CL1  UNL     1       8.170  -2.248 -23.105  0.00  0.00    -0.083 Cl
ATOM      5  C4  UNL     1       8.313  -3.643 -25.369  0.00  0.00    -0.043 A 
ATOM      6  C5  UNL     1       7.824  -4.429 -26.404  0.00  0.00    -0.059 A 
ATOM      7  C6  UNL     1       6.480  -4.798 -26.420  0.00  0.00    -0.040 A 
ATOM      8  C7  UNL     1       5.604  -4.390 -25.405  0.00  0.00    +0.038 A 
ATOM      9  N1  UNL     1       4.239  -4.757 -25.407  0.00  0.00    -0.279 N 
ATOM     10  C8  UNL     1       3.539  -5.523 -26.323  0.00  0.00    +0.284 C 
ATOM     11  O1  UNL     1       4.002  -6.040 -27.333  0.00  0.00    -0.266 OA
ATOM     12  C9  UNL     1       2.139  -5.669 -25.961  0.00  0.00    +0.190 A 
ATOM     13  C10 UNL     1       1.102  -6.337 -26.579  0.00  0.00    -0.011 A 
ATOM     14  C11 UNL     1      -0.047  -6.136 -25.776  0.00  0.00    -0.015 A 
ATOM     15  C12 UNL     1       0.343  -5.354 -24.706  0.00  0.00    +0.136 A 
ATOM     16  C13 UNL     1      -0.341  -4.798 -23.539  0.00  0.00    +0.019 A 
ATOM     17  C14 UNL     1      -1.710  -5.034 -23.334  0.00  0.00    -0.051 A 
ATOM     18  C15 UNL     1      -2.373  -4.507 -22.222  0.00  0.00    -0.060 A 
ATOM     19  C16 UNL     1      -1.677  -3.735 -21.296  0.00  0.00    -0.043 A 
ATOM     20  C17 UNL     1      -0.320  -3.493 -21.488  0.00  0.00    +0.042 A 
ATOM     21 CL2  UNL     1       0.548  -2.539 -20.348  0.00  0.00    -0.084 Cl
ATOM     22  C18 UNL     1       0.347  -4.018 -22.597  0.00  0.00    -0.033 A 
ATOM     23  O2  UNL     1       1.677  -5.068 -24.818  0.00  0.00    -0.450 OA
ATOM     24  H   UNL     1       3.710  -4.419 -24.649  0.00  0.00    +0.000 HD
ENDROOT
TORSDOF 0
ENDMDL
MODEL 3
REMARK VINA RESULT:    -6.833      3.956      4.820
REMARK INTER + INTRA:          -6.833
REMARK INTER:                  -6.833
REMARK INTRA:                   0.000
REMARK UNBOUND:                 0.000
REMARK  Name = /home/vital/Documents/PhD_2021/Malaria_codes/scripts/../data/pdbqt_ligands/ligand_343_temp.pdb
REMARK                            x       y       z     vdW  Elec       q    Type
REMARK                         _______ _______ _______ _____ _____    ______ ____
ROOT
ATOM      1  C1  UNL     1       1.857  -3.376 -22.625  0.00  0.00    -0.037 C 
ATOM      2  C2  UNL     1       0.766  -4.103 -23.373  0.00  0.00    -0.011 A 
ATOM      3  C3  UNL     1      -0.569  -4.091 -22.917  0.00  0.00    +0.046 A 
ATOM      4 CL1  UNL     1      -1.058  -3.254 -21.482  0.00  0.00    -0.083 Cl
ATOM      5  C4  UNL     1      -1.575  -4.764 -23.614  0.00  0.00    -0.043 A 
ATOM      6  C5  UNL     1      -1.269  -5.460 -24.776  0.00  0.00    -0.059 A 
ATOM      7  C6  UNL     1       0.044  -5.486 -25.244  0.00  0.00    -0.040 A 
ATOM      8  C7  UNL     1       1.070  -4.818 -24.563  0.00  0.00    +0.038 A 
ATOM      9  N1  UNL     1       2.405  -4.835 -25.026  0.00  0.00    -0.279 N 
ATOM     10  C8  UNL     1       2.938  -5.454 -26.143  0.00  0.00    +0.284 C 
ATOM     11  O1  UNL     1       2.316  -6.124 -26.960  0.00  0.00    -0.266 OA
ATOM     12  C9  UNL     1       4.367  -5.228 -26.268  0.00  0.00    +0.190 A 
ATOM     13  C10 UNL     1       5.279  -5.653 -27.213  0.00  0.00    -0.011 A 
ATOM     14  C11 UNL     1       6.538  -5.129 -26.827  0.00  0.00    -0.015 A 
ATOM     15  C12 UNL     1       6.334  -4.410 -25.665  0.00  0.00    +0.136 A 
ATOM     16  C13 UNL     1       7.198  -3.639 -24.772  0.00  0.00    +0.019 A 
ATOM     17  C14 UNL     1       8.571  -3.516 -25.037  0.00  0.00    -0.051 A 
ATOM     18  C15 UNL     1       9.406  -2.781 -24.189  0.00  0.00    -0.060 A 
ATOM     19  C16 UNL     1       8.879  -2.155 -23.063  0.00  0.00    -0.043 A 
ATOM     20  C17 UNL     1       7.519  -2.269 -22.790  0.00  0.00    +0.042 A 
ATOM     21 CL2  UNL     1       6.860  -1.497 -21.399  0.00  0.00    -0.084 Cl
ATOM     22  C18 UNL     1       6.682  -3.001 -23.633  0.00  0.00    -0.033 A 
ATOM     23  O2  UNL     1       5.011  -4.470 -25.323  0.00  0.00    -0.450 OA
ATOM     24  H   UNL     1       3.049  -4.334 -24.475  0.00  0.00    +0.000 HD
ENDROOT
TORSDOF 0
ENDMDL
MODEL 4
REMARK VINA RESULT:    -6.785      6.210      7.424
REMARK INTER + INTRA:          -6.785
REMARK INTER:                  -6.785
REMARK INTRA:                   0.000
REMARK UNBOUND:                 0.000
REMARK  Name = /home/vital/Documents/PhD_2021/Malaria_codes/scripts/../data/pdbqt_ligands/ligand_343_temp.pdb
REMARK                            x       y       z     vdW  Elec       q    Type
REMARK                         _______ _______ _______ _____ _____    ______ ____
ROOT
ATOM      1  C1  UNL     1       8.052  -1.469 -26.740  0.00  0.00    -0.037 C 
ATOM      2  C2  UNL     1       7.364  -2.668 -26.136  0.00  0.00    -0.011 A 
ATOM      3  C3  UNL     1       7.664  -3.104 -24.829  0.00  0.00    +0.046 A 
ATOM      4 CL1  UNL     1       8.830  -2.310 -23.825  0.00  0.00    -0.083 Cl
ATOM      5  C4  UNL     1       7.024  -4.215 -24.274  0.00  0.00    -0.043 A 
ATOM      6  C5  UNL     1       6.074  -4.909 -25.011  0.00  0.00    -0.059 A 
ATOM      7  C6  UNL     1       5.763  -4.497 -26.306  0.00  0.00    -0.040 A 
ATOM      8  C7  UNL     1       6.391  -3.386 -26.884  0.00  0.00    +0.038 A 
ATOM      9  N1  UNL     1       6.085  -2.955 -28.195  0.00  0.00    -0.279 N 
ATOM     10  C8  UNL     1       5.186  -3.486 -29.104  0.00  0.00    +0.284 C 
ATOM     11  O1  UNL     1       4.469  -4.462 -28.921  0.00  0.00    -0.266 OA
ATOM     12  C9  UNL     1       5.168  -2.745 -30.354  0.00  0.00    +0.190 A 
ATOM     13  C10 UNL     1       4.435  -2.924 -31.510  0.00  0.00    -0.011 A 
ATOM     14  C11 UNL     1       4.832  -1.900 -32.405  0.00  0.00    -0.015 A 
ATOM     15  C12 UNL     1       5.787  -1.145 -31.753  0.00  0.00    +0.136 A 
ATOM     16  C13 UNL     1       6.582   0.030 -32.107  0.00  0.00    +0.019 A 
ATOM     17  C14 UNL     1       6.443   0.632 -33.368  0.00  0.00    -0.051 A 
ATOM     18  C15 UNL     1       7.199   1.756 -33.716  0.00  0.00    -0.060 A 
ATOM     19  C16 UNL     1       8.105   2.296 -32.808  0.00  0.00    -0.043 A 
ATOM     20  C17 UNL     1       8.252   1.708 -31.555  0.00  0.00    +0.042 A 
ATOM     21 CL2  UNL     1       9.371   2.370 -30.427  0.00  0.00    -0.084 Cl
ATOM     22  C18 UNL     1       7.500   0.586 -31.203  0.00  0.00    -0.033 A 
ATOM     23  O2  UNL     1       5.993  -1.660 -30.502  0.00  0.00    -0.450 OA
ATOM     24  H   UNL     1       6.582  -2.165 -28.506  0.00  0.00    +0.000 HD
ENDROOT
TORSDOF 0
ENDMDL
MODEL 5
REMARK VINA RESULT:    -6.683      5.285      9.012
REMARK INTER + INTRA:          -6.683
REMARK INTER:                  -6.683
REMARK INTRA:                   0.000
REMARK UNBOUND:                 0.000
REMARK  Name = /home/vital/Documents/PhD_2021/Malaria_codes/scripts/../data/pdbqt_ligands/ligand_343_temp.pdb
REMARK                            x       y       z     vdW  Elec       q    Type
REMARK                         _______ _______ _______ _____ _____    ______ ____
ROOT
ATOM      1  C1  UNL     1       8.821   0.691 -29.429  0.00  0.00    -0.037 C 
ATOM      2  C2  UNL     1       9.902   1.584 -28.874  0.00  0.00    -0.011 A 
ATOM      3  C3  UNL     1      10.354   2.716 -29.584  0.00  0.00    +0.046 A 
ATOM      4 CL1  UNL     1       9.714   3.166 -31.129  0.00  0.00    -0.083 Cl
ATOM      5  C4  UNL     1      11.356   3.541 -29.066  0.00  0.00    -0.043 A 
ATOM      6  C5  UNL     1      11.923   3.253 -27.832  0.00  0.00    -0.059 A 
ATOM      7  C6  UNL     1      11.492   2.139 -27.113  0.00  0.00    -0.040 A 
ATOM      8  C7  UNL     1      10.489   1.297 -27.612  0.00  0.00    +0.038 A 
ATOM      9  N1  UNL     1      10.042   0.165 -26.894  0.00  0.00    -0.279 N 
ATOM     10  C8  UNL     1      10.456  -0.312 -25.663  0.00  0.00    +0.284 C 
ATOM     11  O1  UNL     1      11.320   0.187 -24.951  0.00  0.00    -0.266 OA
ATOM     12  C9  UNL     1       9.741  -1.514 -25.270  0.00  0.00    +0.190 A 
ATOM     13  C10 UNL     1       9.835  -2.305 -24.143  0.00  0.00    -0.011 A 
ATOM     14  C11 UNL     1       8.891  -3.350 -24.300  0.00  0.00    -0.015 A 
ATOM     15  C12 UNL     1       8.266  -3.148 -25.515  0.00  0.00    +0.136 A 
ATOM     16  C13 UNL     1       7.220  -3.847 -26.259  0.00  0.00    +0.019 A 
ATOM     17  C14 UNL     1       6.624  -5.006 -25.735  0.00  0.00    -0.051 A 
ATOM     18  C15 UNL     1       5.623  -5.683 -26.438  0.00  0.00    -0.060 A 
ATOM     19  C16 UNL     1       5.200  -5.210 -27.677  0.00  0.00    -0.043 A 
ATOM     20  C17 UNL     1       5.782  -4.062 -28.207  0.00  0.00    +0.042 A 
ATOM     21 CL2  UNL     1       5.264  -3.472 -29.739  0.00  0.00    -0.084 Cl
ATOM     22  C18 UNL     1       6.782  -3.384 -27.509  0.00  0.00    -0.033 A 
ATOM     23  O2  UNL     1       8.784  -2.028 -26.108  0.00  0.00    -0.450 OA
ATOM     24  H   UNL     1       9.333  -0.360 -27.332  0.00  0.00    +0.000 HD
ENDROOT
TORSDOF 0
ENDMDL
MODEL 6
REMARK VINA RESULT:    -6.579     11.078     12.857
REMARK INTER + INTRA:          -6.579
REMARK INTER:                  -6.579
REMARK INTRA:                   0.000
REMARK UNBOUND:                 0.000
REMARK  Name = /home/vital/Documents/PhD_2021/Malaria_codes/scripts/../data/pdbqt_ligands/ligand_343_temp.pdb
REMARK                            x       y       z     vdW  Elec       q    Type
REMARK                         _______ _______ _______ _____ _____    ______ ____
ROOT
ATOM      1  C1  UNL     1      -5.237   0.901 -22.909  0.00  0.00    -0.037 C 
ATOM      2  C2  UNL     1      -4.521  -0.136 -22.079  0.00  0.00    -0.011 A 
ATOM      3  C3  UNL     1      -4.829  -1.508 -22.195  0.00  0.00    +0.046 A 
ATOM      4 CL1  UNL     1      -6.035  -2.105 -23.285  0.00  0.00    -0.083 Cl
ATOM      5  C4  UNL     1      -4.164  -2.465 -21.425  0.00  0.00    -0.043 A 
ATOM      6  C5  UNL     1      -3.182  -2.072 -20.526  0.00  0.00    -0.059 A 
ATOM      7  C6  UNL     1      -2.862  -0.721 -20.394  0.00  0.00    -0.040 A 
ATOM      8  C7  UNL     1      -3.515   0.256 -21.156  0.00  0.00    +0.038 A 
ATOM      9  N1  UNL     1      -3.201   1.629 -21.033  0.00  0.00    -0.279 N 
ATOM     10  C8  UNL     1      -2.271   2.246 -20.214  0.00  0.00    +0.284 C 
ATOM     11  O1  UNL     1      -1.527   1.683 -19.419  0.00  0.00    -0.266 OA
ATOM     12  C9  UNL     1      -2.255   3.688 -20.390  0.00  0.00    +0.190 A 
ATOM     13  C10 UNL     1      -1.499   4.672 -19.786  0.00  0.00    -0.011 A 
ATOM     14  C11 UNL     1      -1.912   5.905 -20.349  0.00  0.00    -0.015 A 
ATOM     15  C12 UNL     1      -2.901   5.614 -21.269  0.00  0.00    +0.136 A 
ATOM     16  C13 UNL     1      -3.727   6.413 -22.174  0.00  0.00    +0.019 A 
ATOM     17  C14 UNL     1      -3.586   7.810 -22.223  0.00  0.00    -0.051 A 
ATOM     18  C15 UNL     1      -4.370   8.583 -23.084  0.00  0.00    -0.060 A 
ATOM     19  C16 UNL     1      -5.308   7.971 -23.912  0.00  0.00    -0.043 A 
ATOM     20  C17 UNL     1      -5.456   6.588 -23.873  0.00  0.00    +0.042 A 
ATOM     21 CL2  UNL     1      -6.614   5.824 -24.893  0.00  0.00    -0.084 Cl
ATOM     22  C18 UNL     1      -4.676   5.812 -23.014  0.00  0.00    -0.033 A 
ATOM     23  O2  UNL     1      -3.112   4.262 -21.294  0.00  0.00    -0.450 OA
ATOM     24  H   UNL     1      -3.717   2.233 -21.614  0.00  0.00    +0.000 HD
ENDROOT
TORSDOF 0
ENDMDL
MODEL 7
REMARK VINA RESULT:    -6.394      3.965      8.842
REMARK INTER + INTRA:          -6.394
REMARK INTER:                  -6.394
REMARK INTRA:                   0.000
REMARK UNBOUND:                 0.000
REMARK  Name = /home/vital/Documents/PhD_2021/Malaria_codes/scripts/../data/pdbqt_ligands/ligand_343_temp.pdb
REMARK                            x       y       z     vdW  Elec       q    Type
REMARK                         _______ _______ _______ _____ _____    ______ ____
ROOT
ATOM      1  C1  UNL     1       5.069  -4.507 -25.074  0.00  0.00    -0.037 C 
ATOM      2  C2  UNL     1       6.285  -3.813 -24.510  0.00  0.00    -0.011 A 
ATOM      3  C3  UNL     1       7.512  -3.803 -25.206  0.00  0.00    +0.046 A 
ATOM      4 CL1  UNL     1       7.719  -4.575 -26.743  0.00  0.00    -0.083 Cl
ATOM      5  C4  UNL     1       8.634  -3.159 -24.681  0.00  0.00    -0.043 A 
ATOM      6  C5  UNL     1       8.554  -2.514 -23.454  0.00  0.00    -0.059 A 
ATOM      7  C6  UNL     1       7.352  -2.512 -22.748  0.00  0.00    -0.040 A 
ATOM      8  C7  UNL     1       6.213  -3.151 -23.255  0.00  0.00    +0.038 A 
ATOM      9  N1  UNL     1       4.987  -3.156 -22.551  0.00  0.00    -0.279 N 
ATOM     10  C8  UNL     1       4.676  -2.588 -21.328  0.00  0.00    +0.284 C 
ATOM     11  O1  UNL     1       5.443  -1.954 -20.613  0.00  0.00    -0.266 OA
ATOM     12  C9  UNL     1       3.293  -2.821 -20.949  0.00  0.00    +0.190 A 
ATOM     13  C10 UNL     1       2.576  -2.441 -19.833  0.00  0.00    -0.011 A 
ATOM     14  C11 UNL     1       1.264  -2.950 -20.000  0.00  0.00    -0.015 A 
ATOM     15  C12 UNL     1       1.243  -3.616 -21.210  0.00  0.00    +0.136 A 
ATOM     16  C13 UNL     1       0.224  -4.350 -21.959  0.00  0.00    +0.019 A 
ATOM     17  C14 UNL     1      -1.078  -4.484 -21.449  0.00  0.00    -0.051 A 
ATOM     18  C15 UNL     1      -2.060  -5.183 -22.157  0.00  0.00    -0.060 A 
ATOM     19  C16 UNL     1      -1.756  -5.758 -23.388  0.00  0.00    -0.043 A 
ATOM     20  C17 UNL     1      -0.470  -5.631 -23.904  0.00  0.00    +0.042 A 
ATOM     21 CL2  UNL     1      -0.087  -6.340 -25.426  0.00  0.00    -0.084 Cl
ATOM     22  C18 UNL     1       0.514  -4.934 -23.201  0.00  0.00    -0.033 A 
ATOM     23  O2  UNL     1       2.480  -3.539 -21.789  0.00  0.00    -0.450 OA
ATOM     24  H   UNL     1       4.248  -3.632 -22.994  0.00  0.00    +0.000 HD
ENDROOT
TORSDOF 0
ENDMDL
MODEL 8
REMARK VINA RESULT:    -6.373      6.415      8.945
REMARK INTER + INTRA:          -6.373
REMARK INTER:                  -6.373
REMARK INTRA:                   0.000
REMARK UNBOUND:                 0.000
REMARK  Name = /home/vital/Documents/PhD_2021/Malaria_codes/scripts/../data/pdbqt_ligands/ligand_343_temp.pdb
REMARK                            x       y       z     vdW  Elec       q    Type
REMARK                         _______ _______ _______ _____ _____    ______ ____
ROOT
ATOM      1  C1  UNL     1       1.766  -4.204 -29.142  0.00  0.00    -0.037 C 
ATOM      2  C2  UNL     1       2.385  -4.190 -30.518  0.00  0.00    -0.011 A 
ATOM      3  C3  UNL     1       1.588  -4.186 -31.681  0.00  0.00    +0.046 A 
ATOM      4 CL1  UNL     1      -0.144  -4.194 -31.626  0.00  0.00    -0.083 Cl
ATOM      5  C4  UNL     1       2.166  -4.173 -32.953  0.00  0.00    -0.043 A 
ATOM      6  C5  UNL     1       3.548  -4.164 -33.087  0.00  0.00    -0.059 A 
ATOM      7  C6  UNL     1       4.356  -4.170 -31.951  0.00  0.00    -0.040 A 
ATOM      8  C7  UNL     1       3.799  -4.182 -30.666  0.00  0.00    +0.038 A 
ATOM      9  N1  UNL     1       4.605  -4.187 -29.504  0.00  0.00    -0.279 N 
ATOM     10  C8  UNL     1       5.985  -4.181 -29.396  0.00  0.00    +0.284 C 
ATOM     11  O1  UNL     1       6.781  -4.169 -30.328  0.00  0.00    -0.266 OA
ATOM     12  C9  UNL     1       6.427  -4.189 -28.012  0.00  0.00    +0.190 A 
ATOM     13  C10 UNL     1       7.691  -4.187 -27.458  0.00  0.00    -0.011 A 
ATOM     14  C11 UNL     1       7.518  -4.199 -26.051  0.00  0.00    -0.015 A 
ATOM     15  C12 UNL     1       6.157  -4.208 -25.814  0.00  0.00    +0.136 A 
ATOM     16  C13 UNL     1       5.326  -4.222 -24.611  0.00  0.00    +0.019 A 
ATOM     17  C14 UNL     1       5.915  -4.228 -23.337  0.00  0.00    -0.051 A 
ATOM     18  C15 UNL     1       5.130  -4.241 -22.180  0.00  0.00    -0.060 A 
ATOM     19  C16 UNL     1       3.742  -4.247 -22.280  0.00  0.00    -0.043 A 
ATOM     20  C17 UNL     1       3.145  -4.241 -23.538  0.00  0.00    +0.042 A 
ATOM     21 CL2  UNL     1       1.429  -4.249 -23.669  0.00  0.00    -0.084 Cl
ATOM     22  C18 UNL     1       3.925  -4.228 -24.695  0.00  0.00    -0.033 A 
ATOM     23  O2  UNL     1       5.491  -4.202 -27.009  0.00  0.00    -0.450 OA
ATOM     24  H   UNL     1       4.115  -4.195 -28.651  0.00  0.00    +0.000 HD
ENDROOT
TORSDOF 0
ENDMDL
MODEL 9
REMARK VINA RESULT:    -6.234      4.448      9.113
REMARK INTER + INTRA:          -6.234
REMARK INTER:                  -6.234
REMARK INTRA:                   0.000
REMARK UNBOUND:                 0.000
REMARK  Name = /home/vital/Documents/PhD_2021/Malaria_codes/scripts/../data/pdbqt_ligands/ligand_343_temp.pdb
REMARK                            x       y       z     vdW  Elec       q    Type
REMARK                         _______ _______ _______ _____ _____    ______ ____
ROOT
ATOM      1  C1  UNL     1       3.595  -4.219 -26.610  0.00  0.00    -0.037 C 
ATOM      2  C2  UNL     1       5.068  -4.172 -26.285  0.00  0.00    -0.011 A 
ATOM      3  C3  UNL     1       6.045  -4.222 -27.302  0.00  0.00    +0.046 A 
ATOM      4 CL1  UNL     1       5.639  -4.338 -28.982  0.00  0.00    -0.083 Cl
ATOM      5  C4  UNL     1       7.407  -4.178 -26.996  0.00  0.00    -0.043 A 
ATOM      6  C5  UNL     1       7.819  -4.084 -25.674  0.00  0.00    -0.059 A 
ATOM      7  C6  UNL     1       6.872  -4.035 -24.653  0.00  0.00    -0.040 A 
ATOM      8  C7  UNL     1       5.500  -4.077 -24.935  0.00  0.00    +0.038 A 
ATOM      9  N1  UNL     1       4.527  -4.027 -23.910  0.00  0.00    -0.279 N 
ATOM     10  C8  UNL     1       4.701  -3.935 -22.540  0.00  0.00    +0.284 C 
ATOM     11  O1  UNL     1       5.775  -3.878 -21.953  0.00  0.00    -0.266 OA
ATOM     12  C9  UNL     1       3.436  -3.910 -21.827  0.00  0.00    +0.190 A 
ATOM     13  C10 UNL     1       3.150  -3.828 -20.479  0.00  0.00    -0.011 A 
ATOM     14  C11 UNL     1       1.738  -3.845 -20.361  0.00  0.00    -0.015 A 
ATOM     15  C12 UNL     1       1.230  -3.937 -21.642  0.00  0.00    +0.136 A 
ATOM     16  C13 UNL     1      -0.117  -3.997 -22.208  0.00  0.00    +0.019 A 
ATOM     17  C14 UNL     1      -1.245  -3.962 -21.373  0.00  0.00    -0.051 A 
ATOM     18  C15 UNL     1      -2.537  -4.019 -21.904  0.00  0.00    -0.060 A 
ATOM     19  C16 UNL     1      -2.721  -4.112 -23.281  0.00  0.00    -0.043 A 
ATOM     20  C17 UNL     1      -1.611  -4.147 -24.119  0.00  0.00    +0.042 A 
ATOM     21 CL2  UNL     1      -1.832  -4.262 -25.823  0.00  0.00    -0.084 Cl
ATOM     22  C18 UNL     1      -0.320  -4.091 -23.594  0.00  0.00    -0.033 A 
ATOM     23  O2  UNL     1       2.264  -3.978 -22.537  0.00  0.00    -0.450 OA
ATOM     24  H   UNL     1       3.592  -4.062 -24.215  0.00  0.00    +0.000 HD
ENDROOT
TORSDOF 0
ENDMDL
