MODEL 1
REMARK VINA RESULT:    -7.469      0.000      0.000
REMARK INTER + INTRA:          -7.469
REMARK INTER:                  -7.469
REMARK INTRA:                   0.000
REMARK UNBOUND:                 0.000
REMARK  Name = /home/vital/Documents/PhD_2021/Malaria_codes/scripts/../data/pdbqt_ligands/ligand_306_temp.pdb
REMARK                            x       y       z     vdW  Elec       q    Type
REMARK                         _______ _______ _______ _____ _____    ______ ____
ROOT
ATOM      1  C1  UNL     1      -0.345   1.448 -19.550  0.00  0.00    -0.031 C 
ATOM      2  C2  UNL     1       0.063   0.174 -20.268  0.00  0.00    +0.087 C 
ATOM      3  O1  UNL     1       0.246  -0.849 -19.282  0.00  0.00    -0.489 OA
ATOM      4  C3  UNL     1       1.152  -1.808 -19.666  0.00  0.00    +0.162 A 
ATOM      5  C4  UNL     1       2.193  -2.031 -18.758  0.00  0.00    -0.016 A 
ATOM      6  C5  UNL     1       3.163  -2.992 -19.028  0.00  0.00    -0.051 A 
ATOM      7  C6  UNL     1       3.095  -3.741 -20.203  0.00  0.00    -0.021 A 
ATOM      8  C7  UNL     1       4.112  -4.763 -20.468  0.00  0.00    -0.051 C 
ATOM      9  C8  UNL     1       5.038  -4.738 -21.440  0.00  0.00    -0.014 C 
ATOM     10  C9  UNL     1       5.251  -3.617 -22.396  0.00  0.00    +0.190 C 
ATOM     11  O2  UNL     1       4.943  -2.458 -22.138  0.00  0.00    -0.287 OA
ATOM     12  C10 UNL     1       5.940  -3.904 -23.685  0.00  0.00    +0.066 A 
ATOM     13  C11 UNL     1       5.923  -5.183 -24.264  0.00  0.00    -0.006 A 
ATOM     14  C12 UNL     1       6.593  -5.400 -25.466  0.00  0.00    +0.118 A 
ATOM     15  O3  UNL     1       6.600  -6.625 -26.066  0.00  0.00    -0.507 OA
ATOM     16  C13 UNL     1       7.280  -4.373 -26.103  0.00  0.00    -0.017 A 
ATOM     17  C14 UNL     1       7.283  -3.096 -25.547  0.00  0.00    -0.016 A 
ATOM     18  C15 UNL     1       6.603  -2.860 -24.353  0.00  0.00    +0.128 A 
ATOM     19  O4  UNL     1       6.629  -1.572 -23.889  0.00  0.00    -0.506 OA
ATOM     20  C16 UNL     1       2.031  -3.540 -21.096  0.00  0.00    -0.009 A 
ATOM     21  C17 UNL     1       1.046  -2.579 -20.839  0.00  0.00    +0.162 A 
ATOM     22  O5  UNL     1      -0.042  -2.343 -21.634  0.00  0.00    -0.489 OA
ATOM     23  C18 UNL     1      -0.208  -3.069 -22.850  0.00  0.00    +0.087 C 
ATOM     24  C19 UNL     1      -0.921  -4.388 -22.601  0.00  0.00    -0.031 C 
ATOM     25  H   UNL     1       6.148  -7.344 -25.669  0.00  0.00    +0.000 HD
ATOM     26  H   UNL     1       6.189  -1.352 -23.092  0.00  0.00    +0.000 HD
ENDROOT
TORSDOF 0
ENDMDL
MODEL 2
REMARK VINA RESULT:    -7.200     10.122     13.119
REMARK INTER + INTRA:          -7.200
REMARK INTER:                  -7.200
REMARK INTRA:                   0.000
REMARK UNBOUND:                 0.000
REMARK  Name = /home/vital/Documents/PhD_2021/Malaria_codes/scripts/../data/pdbqt_ligands/ligand_306_temp.pdb
REMARK                            x       y       z     vdW  Elec       q    Type
REMARK                         _______ _______ _______ _____ _____    ______ ____
ROOT
ATOM      1  C1  UNL     1       3.507  -1.587 -32.259  0.00  0.00    -0.031 C 
ATOM      2  C2  UNL     1       2.725  -2.806 -31.804  0.00  0.00    +0.087 C 
ATOM      3  O1  UNL     1       3.638  -3.906 -31.710  0.00  0.00    -0.489 OA
ATOM      4  C3  UNL     1       3.033  -5.124 -31.909  0.00  0.00    +0.162 A 
ATOM      5  C4  UNL     1       3.618  -5.916 -32.902  0.00  0.00    -0.016 A 
ATOM      6  C5  UNL     1       3.105  -7.180 -33.183  0.00  0.00    -0.051 A 
ATOM      7  C6  UNL     1       2.008  -7.662 -32.467  0.00  0.00    -0.021 A 
ATOM      8  C7  UNL     1       1.487  -9.000 -32.759  0.00  0.00    -0.051 C 
ATOM      9  C8  UNL     1       0.296  -9.296 -33.303  0.00  0.00    -0.014 C 
ATOM     10  C9  UNL     1      -0.701  -8.299 -33.784  0.00  0.00    +0.190 C 
ATOM     11  O2  UNL     1      -0.386  -7.171 -34.151  0.00  0.00    -0.287 OA
ATOM     12  C10 UNL     1      -2.125  -8.717 -33.899  0.00  0.00    +0.066 A 
ATOM     13  C11 UNL     1      -2.655  -9.758 -33.120  0.00  0.00    -0.006 A 
ATOM     14  C12 UNL     1      -3.992 -10.117 -33.275  0.00  0.00    +0.118 A 
ATOM     15  O3  UNL     1      -4.551 -11.119 -32.537  0.00  0.00    -0.507 OA
ATOM     16  C13 UNL     1      -4.813  -9.464 -34.187  0.00  0.00    -0.017 A 
ATOM     17  C14 UNL     1      -4.300  -8.415 -34.947  0.00  0.00    -0.016 A 
ATOM     18  C15 UNL     1      -2.969  -8.034 -34.792  0.00  0.00    +0.128 A 
ATOM     19  O4  UNL     1      -2.552  -6.975 -35.553  0.00  0.00    -0.506 OA
ATOM     20  C16 UNL     1       1.443  -6.879 -31.448  0.00  0.00    -0.009 A 
ATOM     21  C17 UNL     1       1.949  -5.607 -31.153  0.00  0.00    +0.162 A 
ATOM     22  O5  UNL     1       1.484  -4.794 -30.154  0.00  0.00    -0.489 OA
ATOM     23  C18 UNL     1       0.374  -5.205 -29.359  0.00  0.00    +0.087 C 
ATOM     24  C19 UNL     1       0.834  -6.055 -28.185  0.00  0.00    -0.031 C 
ATOM     25  H   UNL     1      -4.031 -11.585 -31.910  0.00  0.00    +0.000 HD
ATOM     26  H   UNL     1      -1.667  -6.673 -35.491  0.00  0.00    +0.000 HD
ENDROOT
TORSDOF 0
ENDMDL
MODEL 3
REMARK VINA RESULT:    -7.120      5.777      8.191
REMARK INTER + INTRA:          -7.120
REMARK INTER:                  -7.120
REMARK INTRA:                   0.000
REMARK UNBOUND:                 0.000
REMARK  Name = /home/vital/Documents/PhD_2021/Malaria_codes/scripts/../data/pdbqt_ligands/ligand_306_temp.pdb
REMARK                            x       y       z     vdW  Elec       q    Type
REMARK                         _______ _______ _______ _____ _____    ______ ____
ROOT
ATOM      1  C1  UNL     1      11.654   0.233 -25.448  0.00  0.00    -0.031 C 
ATOM      2  C2  UNL     1      10.190  -0.087 -25.697  0.00  0.00    +0.087 C 
ATOM      3  O1  UNL     1       9.775  -1.044 -24.714  0.00  0.00    -0.489 OA
ATOM      4  C3  UNL     1       8.749  -1.849 -25.149  0.00  0.00    +0.162 A 
ATOM      5  C4  UNL     1       8.994  -3.221 -25.046  0.00  0.00    -0.016 A 
ATOM      6  C5  UNL     1       8.021  -4.138 -25.437  0.00  0.00    -0.051 A 
ATOM      7  C6  UNL     1       6.795  -3.686 -25.928  0.00  0.00    -0.021 A 
ATOM      8  C7  UNL     1       5.772  -4.660 -26.321  0.00  0.00    -0.051 C 
ATOM      9  C8  UNL     1       5.320  -4.889 -27.564  0.00  0.00    -0.014 C 
ATOM     10  C9  UNL     1       5.835  -4.238 -28.800  0.00  0.00    +0.190 C 
ATOM     11  O2  UNL     1       6.974  -3.790 -28.888  0.00  0.00    -0.287 OA
ATOM     12  C10 UNL     1       4.957  -4.202 -30.002  0.00  0.00    +0.066 A 
ATOM     13  C11 UNL     1       3.558  -4.255 -29.898  0.00  0.00    -0.006 A 
ATOM     14  C12 UNL     1       2.783  -4.229 -31.056  0.00  0.00    +0.118 A 
ATOM     15  O3  UNL     1       1.421  -4.274 -31.002  0.00  0.00    -0.507 OA
ATOM     16  C13 UNL     1       3.370  -4.151 -32.314  0.00  0.00    -0.017 A 
ATOM     17  C14 UNL     1       4.757  -4.075 -32.425  0.00  0.00    -0.016 A 
ATOM     18  C15 UNL     1       5.544  -4.084 -31.274  0.00  0.00    +0.128 A 
ATOM     19  O4  UNL     1       6.895  -3.974 -31.468  0.00  0.00    -0.506 OA
ATOM     20  C16 UNL     1       6.539  -2.308 -25.998  0.00  0.00    -0.009 A 
ATOM     21  C17 UNL     1       7.506  -1.374 -25.607  0.00  0.00    +0.162 A 
ATOM     22  O5  UNL     1       7.327  -0.017 -25.608  0.00  0.00    -0.489 OA
ATOM     23  C18 UNL     1       6.102   0.540 -26.078  0.00  0.00    +0.087 C 
ATOM     24  C19 UNL     1       5.071   0.602 -24.963  0.00  0.00    -0.031 C 
ATOM     25  H   UNL     1       0.987  -4.327 -30.173  0.00  0.00    +0.000 HD
ATOM     26  H   UNL     1       7.475  -3.974 -30.732  0.00  0.00    +0.000 HD
ENDROOT
TORSDOF 0
ENDMDL
MODEL 4
REMARK VINA RESULT:    -7.020      7.316     10.975
REMARK INTER + INTRA:          -7.020
REMARK INTER:                  -7.020
REMARK INTRA:                   0.000
REMARK UNBOUND:                 0.000
REMARK  Name = /home/vital/Documents/PhD_2021/Malaria_codes/scripts/../data/pdbqt_ligands/ligand_306_temp.pdb
REMARK                            x       y       z     vdW  Elec       q    Type
REMARK                         _______ _______ _______ _____ _____    ______ ____
ROOT
ATOM      1  C1  UNL     1       0.145   5.519 -24.084  0.00  0.00    -0.031 C 
ATOM      2  C2  UNL     1       0.138   4.798 -22.747  0.00  0.00    +0.087 C 
ATOM      3  O1  UNL     1      -1.163   4.959 -22.167  0.00  0.00    -0.489 OA
ATOM      4  C3  UNL     1      -1.146   4.915 -20.794  0.00  0.00    +0.162 A 
ATOM      5  C4  UNL     1      -1.739   6.013 -20.163  0.00  0.00    -0.016 A 
ATOM      6  C5  UNL     1      -1.800   6.074 -18.773  0.00  0.00    -0.051 A 
ATOM      7  C6  UNL     1      -1.275   5.032 -18.006  0.00  0.00    -0.021 A 
ATOM      8  C7  UNL     1      -1.360   5.099 -16.544  0.00  0.00    -0.051 C 
ATOM      9  C8  UNL     1      -0.336   5.229 -15.687  0.00  0.00    -0.014 C 
ATOM     10  C9  UNL     1       1.091   5.406 -16.073  0.00  0.00    +0.190 C 
ATOM     11  O2  UNL     1       1.432   5.892 -17.147  0.00  0.00    -0.287 OA
ATOM     12  C10 UNL     1       2.144   5.051 -15.082  0.00  0.00    +0.066 A 
ATOM     13  C11 UNL     1       1.917   4.109 -14.066  0.00  0.00    -0.006 A 
ATOM     14  C12 UNL     1       2.934   3.822 -13.158  0.00  0.00    +0.118 A 
ATOM     15  O3  UNL     1       2.758   2.912 -12.158  0.00  0.00    -0.507 OA
ATOM     16  C13 UNL     1       4.171   4.452 -13.238  0.00  0.00    -0.017 A 
ATOM     17  C14 UNL     1       4.412   5.371 -14.257  0.00  0.00    -0.016 A 
ATOM     18  C15 UNL     1       3.410   5.656 -15.182  0.00  0.00    +0.128 A 
ATOM     19  O4  UNL     1       3.737   6.546 -16.170  0.00  0.00    -0.506 OA
ATOM     20  C16 UNL     1      -0.711   3.915 -18.642  0.00  0.00    -0.009 A 
ATOM     21  C17 UNL     1      -0.644   3.839 -20.038  0.00  0.00    +0.162 A 
ATOM     22  O5  UNL     1      -0.146   2.774 -20.739  0.00  0.00    -0.489 OA
ATOM     23  C18 UNL     1       0.400   1.656 -20.044  0.00  0.00    +0.087 C 
ATOM     24  C19 UNL     1      -0.687   0.658 -19.682  0.00  0.00    -0.031 C 
ATOM     25  H   UNL     1       1.939   2.465 -12.069  0.00  0.00    +0.000 HD
ATOM     26  H   UNL     1       3.104   6.777 -16.821  0.00  0.00    +0.000 HD
ENDROOT
TORSDOF 0
ENDMDL
MODEL 5
REMARK VINA RESULT:    -6.887      9.614     12.140
REMARK INTER + INTRA:          -6.887
REMARK INTER:                  -6.887
REMARK INTRA:                   0.000
REMARK UNBOUND:                 0.000
REMARK  Name = /home/vital/Documents/PhD_2021/Malaria_codes/scripts/../data/pdbqt_ligands/ligand_306_temp.pdb
REMARK                            x       y       z     vdW  Elec       q    Type
REMARK                         _______ _______ _______ _____ _____    ______ ____
ROOT
ATOM      1  C1  UNL     1       0.997   0.940 -32.846  0.00  0.00    -0.031 C 
ATOM      2  C2  UNL     1       0.987  -0.440 -32.214  0.00  0.00    +0.087 C 
ATOM      3  O1  UNL     1       2.332  -0.935 -32.214  0.00  0.00    -0.489 OA
ATOM      4  C3  UNL     1       2.399  -2.307 -32.256  0.00  0.00    +0.162 A 
ATOM      5  C4  UNL     1       3.185  -2.826 -33.290  0.00  0.00    -0.016 A 
ATOM      6  C5  UNL     1       3.344  -4.203 -33.425  0.00  0.00    -0.051 A 
ATOM      7  C6  UNL     1       2.725  -5.068 -32.521  0.00  0.00    -0.021 A 
ATOM      8  C7  UNL     1       2.914  -6.515 -32.662  0.00  0.00    -0.051 C 
ATOM      9  C8  UNL     1       1.978  -7.417 -32.995  0.00  0.00    -0.014 C 
ATOM     10  C9  UNL     1       0.569  -7.099 -33.358  0.00  0.00    +0.190 C 
ATOM     11  O2  UNL     1       0.232  -6.015 -33.824  0.00  0.00    -0.287 OA
ATOM     12  C10 UNL     1      -0.458  -8.170 -33.224  0.00  0.00    +0.066 A 
ATOM     13  C11 UNL     1      -0.303  -9.234 -32.322  0.00  0.00    -0.006 A 
ATOM     14  C12 UNL     1      -1.289 -10.215 -32.245  0.00  0.00    +0.118 A 
ATOM     15  O3  UNL     1      -1.183 -11.264 -31.380  0.00  0.00    -0.507 OA
ATOM     16  C13 UNL     1      -2.425 -10.160 -33.046  0.00  0.00    -0.017 A 
ATOM     17  C14 UNL     1      -2.596  -9.095 -33.927  0.00  0.00    -0.016 A 
ATOM     18  C15 UNL     1      -1.626  -8.098 -34.003  0.00  0.00    +0.128 A 
ATOM     19  O4  UNL     1      -1.885  -7.070 -34.871  0.00  0.00    -0.506 OA
ATOM     20  C16 UNL     1       1.966  -4.543 -31.464  0.00  0.00    -0.009 A 
ATOM     21  C17 UNL     1       1.797  -3.162 -31.314  0.00  0.00    +0.162 A 
ATOM     22  O5  UNL     1       1.106  -2.565 -30.295  0.00  0.00    -0.489 OA
ATOM     23  C18 UNL     1       0.450  -3.366 -29.314  0.00  0.00    +0.087 C 
ATOM     24  C19 UNL     1       1.403  -3.734 -28.189  0.00  0.00    -0.031 C 
ATOM     25  H   UNL     1      -0.433 -11.338 -30.823  0.00  0.00    +0.000 HD
ATOM     26  H   UNL     1      -1.269  -6.370 -34.965  0.00  0.00    +0.000 HD
ENDROOT
TORSDOF 0
ENDMDL
MODEL 6
REMARK VINA RESULT:    -6.826      9.911     12.061
REMARK INTER + INTRA:          -6.826
REMARK INTER:                  -6.826
REMARK INTRA:                   0.000
REMARK UNBOUND:                 0.000
REMARK  Name = /home/vital/Documents/PhD_2021/Malaria_codes/scripts/../data/pdbqt_ligands/ligand_306_temp.pdb
REMARK                            x       y       z     vdW  Elec       q    Type
REMARK                         _______ _______ _______ _____ _____    ______ ____
ROOT
ATOM      1  C1  UNL     1       4.762   7.881 -24.436  0.00  0.00    -0.031 C 
ATOM      2  C2  UNL     1       3.828   7.468 -23.311  0.00  0.00    +0.087 C 
ATOM      3  O1  UNL     1       3.218   8.654 -22.787  0.00  0.00    -0.489 OA
ATOM      4  C3  UNL     1       2.863   8.536 -21.465  0.00  0.00    +0.162 A 
ATOM      5  C4  UNL     1       3.370   9.534 -20.628  0.00  0.00    -0.016 A 
ATOM      6  C5  UNL     1       3.064   9.532 -19.270  0.00  0.00    -0.051 A 
ATOM      7  C6  UNL     1       2.243   8.535 -18.742  0.00  0.00    -0.021 A 
ATOM      8  C7  UNL     1       1.913   8.552 -17.314  0.00  0.00    -0.051 C 
ATOM      9  C8  UNL     1       2.300   7.658 -16.391  0.00  0.00    -0.014 C 
ATOM     10  C9  UNL     1       3.211   6.506 -16.639  0.00  0.00    +0.190 C 
ATOM     11  O2  UNL     1       4.039   6.499 -17.545  0.00  0.00    -0.287 OA
ATOM     12  C10 UNL     1       3.168   5.352 -15.700  0.00  0.00    +0.066 A 
ATOM     13  C11 UNL     1       2.019   5.050 -14.952  0.00  0.00    -0.006 A 
ATOM     14  C12 UNL     1       2.036   3.964 -14.079  0.00  0.00    +0.118 A 
ATOM     15  O3  UNL     1       0.942   3.631 -13.336  0.00  0.00    -0.507 OA
ATOM     16  C13 UNL     1       3.171   3.173 -13.934  0.00  0.00    -0.017 A 
ATOM     17  C14 UNL     1       4.307   3.453 -14.689  0.00  0.00    -0.016 A 
ATOM     18  C15 UNL     1       4.300   4.526 -15.579  0.00  0.00    +0.128 A 
ATOM     19  O4  UNL     1       5.445   4.714 -16.306  0.00  0.00    -0.506 OA
ATOM     20  C16 UNL     1       1.707   7.553 -19.590  0.00  0.00    -0.009 A 
ATOM     21  C17 UNL     1       2.004   7.543 -20.958  0.00  0.00    +0.162 A 
ATOM     22  O5  UNL     1       1.496   6.648 -21.861  0.00  0.00    -0.489 OA
ATOM     23  C18 UNL     1       0.636   5.600 -21.420  0.00  0.00    +0.087 C 
ATOM     24  C19 UNL     1      -0.809   6.070 -21.370  0.00  0.00    -0.031 C 
ATOM     25  H   UNL     1       0.157   4.138 -13.404  0.00  0.00    +0.000 HD
ATOM     26  H   UNL     1       5.499   5.420 -16.920  0.00  0.00    +0.000 HD
ENDROOT
TORSDOF 0
ENDMDL
MODEL 7
REMARK VINA RESULT:    -6.767      6.789     10.001
REMARK INTER + INTRA:          -6.767
REMARK INTER:                  -6.767
REMARK INTRA:                   0.000
REMARK UNBOUND:                 0.000
REMARK  Name = /home/vital/Documents/PhD_2021/Malaria_codes/scripts/../data/pdbqt_ligands/ligand_306_temp.pdb
REMARK                            x       y       z     vdW  Elec       q    Type
REMARK                         _______ _______ _______ _____ _____    ______ ____
ROOT
ATOM      1  C1  UNL     1       4.210   1.116 -26.868  0.00  0.00    -0.031 C 
ATOM      2  C2  UNL     1       4.382  -0.324 -27.319  0.00  0.00    +0.087 C 
ATOM      3  O1  UNL     1       5.581  -0.401 -28.098  0.00  0.00    -0.489 OA
ATOM      4  C3  UNL     1       5.550  -1.409 -29.032  0.00  0.00    +0.162 A 
ATOM      5  C4  UNL     1       5.819  -1.005 -30.343  0.00  0.00    -0.016 A 
ATOM      6  C5  UNL     1       5.835  -1.940 -31.375  0.00  0.00    -0.051 A 
ATOM      7  C6  UNL     1       5.589  -3.286 -31.100  0.00  0.00    -0.021 A 
ATOM      8  C7  UNL     1       5.625  -4.264 -32.192  0.00  0.00    -0.051 C 
ATOM      9  C8  UNL     1       4.586  -4.960 -32.678  0.00  0.00    -0.014 C 
ATOM     10  C9  UNL     1       3.171  -4.812 -32.239  0.00  0.00    +0.190 C 
ATOM     11  O2  UNL     1       2.734  -3.776 -31.746  0.00  0.00    -0.287 OA
ATOM     12  C10 UNL     1       2.230  -5.940 -32.484  0.00  0.00    +0.066 A 
ATOM     13  C11 UNL     1       2.679  -7.265 -32.603  0.00  0.00    -0.006 A 
ATOM     14  C12 UNL     1       1.756  -8.281 -32.843  0.00  0.00    +0.118 A 
ATOM     15  O3  UNL     1       2.146  -9.583 -32.962  0.00  0.00    -0.507 OA
ATOM     16  C13 UNL     1       0.398  -8.008 -32.967  0.00  0.00    -0.017 A 
ATOM     17  C14 UNL     1      -0.057  -6.699 -32.827  0.00  0.00    -0.016 A 
ATOM     18  C15 UNL     1       0.852  -5.674 -32.571  0.00  0.00    +0.128 A 
ATOM     19  O4  UNL     1       0.320  -4.422 -32.416  0.00  0.00    -0.506 OA
ATOM     20  C16 UNL     1       5.353  -3.694 -29.779  0.00  0.00    -0.009 A 
ATOM     21  C17 UNL     1       5.336  -2.767 -28.730  0.00  0.00    +0.162 A 
ATOM     22  O5  UNL     1       5.151  -3.083 -27.411  0.00  0.00    -0.489 OA
ATOM     23  C18 UNL     1       4.906  -4.434 -27.029  0.00  0.00    +0.087 C 
ATOM     24  C19 UNL     1       6.212  -5.184 -26.822  0.00  0.00    -0.031 C 
ATOM     25  H   UNL     1       3.053  -9.809 -32.885  0.00  0.00    +0.000 HD
ATOM     26  H   UNL     1       0.882  -3.693 -32.242  0.00  0.00    +0.000 HD
ENDROOT
TORSDOF 0
ENDMDL
MODEL 8
REMARK VINA RESULT:    -6.766      9.387     12.114
REMARK INTER + INTRA:          -6.766
REMARK INTER:                  -6.766
REMARK INTRA:                   0.000
REMARK UNBOUND:                 0.000
REMARK  Name = /home/vital/Documents/PhD_2021/Malaria_codes/scripts/../data/pdbqt_ligands/ligand_306_temp.pdb
REMARK                            x       y       z     vdW  Elec       q    Type
REMARK                         _______ _______ _______ _____ _____    ______ ____
ROOT
ATOM      1  C1  UNL     1      -4.680  -8.155 -32.349  0.00  0.00    -0.031 C 
ATOM      2  C2  UNL     1      -3.505  -7.340 -32.861  0.00  0.00    +0.087 C 
ATOM      3  O1  UNL     1      -2.707  -8.193 -33.691  0.00  0.00    -0.489 OA
ATOM      4  C3  UNL     1      -1.382  -7.828 -33.718  0.00  0.00    +0.162 A 
ATOM      5  C4  UNL     1      -0.485  -8.848 -33.388  0.00  0.00    -0.016 A 
ATOM      6  C5  UNL     1       0.887  -8.605 -33.398  0.00  0.00    -0.051 A 
ATOM      7  C6  UNL     1       1.368  -7.342 -33.745  0.00  0.00    -0.021 A 
ATOM      8  C7  UNL     1       2.814  -7.102 -33.769  0.00  0.00    -0.051 C 
ATOM      9  C8  UNL     1       3.507  -6.301 -32.944  0.00  0.00    -0.014 C 
ATOM     10  C9  UNL     1       2.935  -5.553 -31.791  0.00  0.00    +0.190 C 
ATOM     11  O2  UNL     1       1.922  -5.916 -31.201  0.00  0.00    -0.287 OA
ATOM     12  C10 UNL     1       3.670  -4.362 -31.282  0.00  0.00    +0.066 A 
ATOM     13  C11 UNL     1       4.530  -3.617 -32.105  0.00  0.00    -0.006 A 
ATOM     14  C12 UNL     1       5.202  -2.517 -31.575  0.00  0.00    +0.118 A 
ATOM     15  O3  UNL     1       6.043  -1.762 -32.338  0.00  0.00    -0.507 OA
ATOM     16  C13 UNL     1       5.036  -2.143 -30.246  0.00  0.00    -0.017 A 
ATOM     17  C14 UNL     1       4.167  -2.863 -29.430  0.00  0.00    -0.016 A 
ATOM     18  C15 UNL     1       3.476  -3.956 -29.950  0.00  0.00    +0.128 A 
ATOM     19  O4  UNL     1       2.618  -4.591 -29.092  0.00  0.00    -0.506 OA
ATOM     20  C16 UNL     1       0.467  -6.329 -34.108  0.00  0.00    -0.009 A 
ATOM     21  C17 UNL     1      -0.915  -6.559 -34.105  0.00  0.00    +0.162 A 
ATOM     22  O5  UNL     1      -1.859  -5.642 -34.480  0.00  0.00    -0.489 OA
ATOM     23  C18 UNL     1      -1.464  -4.327 -34.864  0.00  0.00    +0.087 C 
ATOM     24  C19 UNL     1      -1.113  -4.277 -36.342  0.00  0.00    -0.031 C 
ATOM     25  H   UNL     1       6.182  -1.981 -33.239  0.00  0.00    +0.000 HD
ATOM     26  H   UNL     1       2.126  -5.332 -29.385  0.00  0.00    +0.000 HD
ENDROOT
TORSDOF 0
ENDMDL
MODEL 9
REMARK VINA RESULT:    -6.368      3.804      6.687
REMARK INTER + INTRA:          -6.368
REMARK INTER:                  -6.368
REMARK INTRA:                   0.000
REMARK UNBOUND:                 0.000
REMARK  Name = /home/vital/Documents/PhD_2021/Malaria_codes/scripts/../data/pdbqt_ligands/ligand_306_temp.pdb
REMARK                            x       y       z     vdW  Elec       q    Type
REMARK                         _______ _______ _______ _____ _____    ______ ____
ROOT
ATOM      1  C1  UNL     1       8.935   1.146 -22.214  0.00  0.00    -0.031 C 
ATOM      2  C2  UNL     1       8.015  -0.018 -22.541  0.00  0.00    +0.087 C 
ATOM      3  O1  UNL     1       8.815  -1.204 -22.617  0.00  0.00    -0.489 OA
ATOM      4  C3  UNL     1       8.287  -2.155 -23.456  0.00  0.00    +0.162 A 
ATOM      5  C4  UNL     1       9.157  -2.611 -24.451  0.00  0.00    -0.016 A 
ATOM      6  C5  UNL     1       8.741  -3.589 -25.351  0.00  0.00    -0.051 A 
ATOM      7  C6  UNL     1       7.454  -4.121 -25.257  0.00  0.00    -0.021 A 
ATOM      8  C7  UNL     1       7.033  -5.162 -26.199  0.00  0.00    -0.051 C 
ATOM      9  C8  UNL     1       6.093  -5.050 -27.150  0.00  0.00    -0.014 C 
ATOM     10  C9  UNL     1       5.344  -3.804 -27.475  0.00  0.00    +0.190 C 
ATOM     11  O2  UNL     1       5.792  -2.684 -27.251  0.00  0.00    -0.287 OA
ATOM     12  C10 UNL     1       4.035  -3.925 -28.175  0.00  0.00    +0.066 A 
ATOM     13  C11 UNL     1       3.247  -5.082 -28.074  0.00  0.00    -0.006 A 
ATOM     14  C12 UNL     1       2.035  -5.147 -28.758  0.00  0.00    +0.118 A 
ATOM     15  O3  UNL     1       1.235  -6.249 -28.685  0.00  0.00    -0.507 OA
ATOM     16  C13 UNL     1       1.591  -4.086 -29.540  0.00  0.00    -0.017 A 
ATOM     17  C14 UNL     1       2.356  -2.926 -29.626  0.00  0.00    -0.016 A 
ATOM     18  C15 UNL     1       3.563  -2.840 -28.935  0.00  0.00    +0.128 A 
ATOM     19  O4  UNL     1       4.240  -1.655 -29.047  0.00  0.00    -0.506 OA
ATOM     20  C16 UNL     1       6.594  -3.686 -24.236  0.00  0.00    -0.009 A 
ATOM     21  C17 UNL     1       6.998  -2.705 -23.322  0.00  0.00    +0.162 A 
ATOM     22  O5  UNL     1       6.240  -2.252 -22.278  0.00  0.00    -0.489 OA
ATOM     23  C18 UNL     1       4.916  -2.746 -22.090  0.00  0.00    +0.087 C 
ATOM     24  C19 UNL     1       4.927  -4.026 -21.269  0.00  0.00    -0.031 C 
ATOM     25  H   UNL     1       1.498  -6.986 -28.169  0.00  0.00    +0.000 HD
ATOM     26  H   UNL     1       5.057  -1.538 -28.604  0.00  0.00    +0.000 HD
ENDROOT
TORSDOF 0
ENDMDL
