MODEL 1
REMARK VINA RESULT:    -5.313      0.000      0.000
REMARK INTER + INTRA:          -5.313
REMARK INTER:                  -5.313
REMARK INTRA:                   0.000
REMARK UNBOUND:                 0.000
REMARK  Name = /home/vital/Documents/PhD_2021/Malaria_codes/scripts/../data/pdbqt_ligands/ligand_364_temp.pdb
REMARK                            x       y       z     vdW  Elec       q    Type
REMARK                         _______ _______ _______ _____ _____    ______ ____
ROOT
ATOM      1  C1  UNL     1       1.799   8.760 -24.302  0.00  0.00    -0.060 C 
ATOM      2  C2  UNL     1       3.004   8.160 -23.592  0.00  0.00    -0.015 C 
ATOM      3  C3  UNL     1       3.054   8.559 -22.127  0.00  0.00    +0.023 A 
ATOM      4  N1  UNL     1       2.272   7.798 -21.287  0.00  0.00    -0.358 N 
ATOM      5  C4  UNL     1       2.191   8.019 -19.909  0.00  0.00    +0.051 A 
ATOM      6  C5  UNL     1       1.360   7.209 -19.126  0.00  0.00    -0.038 A 
ATOM      7  C6  UNL     1       1.273   7.407 -17.751  0.00  0.00    -0.060 A 
ATOM      8  C7  UNL     1       2.018   8.416 -17.145  0.00  0.00    -0.058 A 
ATOM      9  C8  UNL     1       2.865   9.243 -17.903  0.00  0.00    -0.038 A 
ATOM     10  C9  UNL     1       3.643  10.312 -17.185  0.00  0.00    -0.039 C 
ATOM     11  C10 UNL     1       2.948   9.035 -19.300  0.00  0.00    +0.048 A 
ATOM     12  C11 UNL     1       3.820   9.859 -20.193  0.00  0.00    +0.193 A 
ATOM     13  O1  UNL     1       4.521  10.764 -19.749  0.00  0.00    -0.287 OA
ATOM     14  C12 UNL     1       3.831   9.564 -21.669  0.00  0.00    +0.019 A 
ATOM     15  C13 UNL     1       4.698  10.471 -22.508  0.00  0.00    -0.025 C 
ATOM     16  C14 UNL     1       6.151  10.016 -22.527  0.00  0.00    -0.061 C 
ATOM     17  H   UNL     1       1.745   7.063 -21.676  0.00  0.00    +0.000 HD
ENDROOT
TORSDOF 0
ENDMDL
MODEL 2
REMARK VINA RESULT:    -4.872      2.586      5.242
REMARK INTER + INTRA:          -4.872
REMARK INTER:                  -4.872
REMARK INTRA:                   0.000
REMARK UNBOUND:                 0.000
REMARK  Name = /home/vital/Documents/PhD_2021/Malaria_codes/scripts/../data/pdbqt_ligands/ligand_364_temp.pdb
REMARK                            x       y       z     vdW  Elec       q    Type
REMARK                         _______ _______ _______ _____ _____    ______ ____
ROOT
ATOM      1  C1  UNL     1      -2.259   5.621 -17.344  0.00  0.00    -0.060 C 
ATOM      2  C2  UNL     1      -0.867   5.015 -17.451  0.00  0.00    -0.015 C 
ATOM      3  C3  UNL     1       0.112   5.961 -18.125  0.00  0.00    +0.023 A 
ATOM      4  N1  UNL     1       0.668   6.911 -17.298  0.00  0.00    -0.358 N 
ATOM      5  C4  UNL     1       1.588   7.867 -17.743  0.00  0.00    +0.051 A 
ATOM      6  C5  UNL     1       2.096   8.809 -16.841  0.00  0.00    -0.038 A 
ATOM      7  C6  UNL     1       3.019   9.762 -17.261  0.00  0.00    -0.060 A 
ATOM      8  C7  UNL     1       3.445   9.781 -18.588  0.00  0.00    -0.058 A 
ATOM      9  C8  UNL     1       2.956   8.845 -19.516  0.00  0.00    -0.038 A 
ATOM     10  C9  UNL     1       3.459   8.921 -20.932  0.00  0.00    -0.039 C 
ATOM     11  C10 UNL     1       2.018   7.880 -19.081  0.00  0.00    +0.048 A 
ATOM     12  C11 UNL     1       1.441   6.842 -19.989  0.00  0.00    +0.193 A 
ATOM     13  O1  UNL     1       1.762   6.772 -21.172  0.00  0.00    -0.287 OA
ATOM     14  C12 UNL     1       0.442   5.864 -19.431  0.00  0.00    +0.019 A 
ATOM     15  C13 UNL     1      -0.130   4.880 -20.421  0.00  0.00    -0.025 C 
ATOM     16  C14 UNL     1       0.772   3.667 -20.611  0.00  0.00    -0.061 C 
ATOM     17  H   UNL     1       0.407   6.918 -16.349  0.00  0.00    +0.000 HD
ENDROOT
TORSDOF 0
ENDMDL
MODEL 3
REMARK VINA RESULT:    -4.851      1.594      3.228
REMARK INTER + INTRA:          -4.851
REMARK INTER:                  -4.851
REMARK INTRA:                   0.000
REMARK UNBOUND:                 0.000
REMARK  Name = /home/vital/Documents/PhD_2021/Malaria_codes/scripts/../data/pdbqt_ligands/ligand_364_temp.pdb
REMARK                            x       y       z     vdW  Elec       q    Type
REMARK                         _______ _______ _______ _____ _____    ______ ____
ROOT
ATOM      1  C1  UNL     1       6.755   9.850 -22.485  0.00  0.00    -0.060 C 
ATOM      2  C2  UNL     1       5.323  10.360 -22.569  0.00  0.00    -0.015 C 
ATOM      3  C3  UNL     1       4.453   9.787 -21.464  0.00  0.00    +0.023 A 
ATOM      4  N1  UNL     1       4.537  10.442 -20.256  0.00  0.00    -0.358 N 
ATOM      5  C4  UNL     1       3.811  10.056 -19.125  0.00  0.00    +0.051 A 
ATOM      6  C5  UNL     1       3.965  10.767 -17.928  0.00  0.00    -0.038 A 
ATOM      7  C6  UNL     1       3.243  10.404 -16.794  0.00  0.00    -0.060 A 
ATOM      8  C7  UNL     1       2.359   9.328 -16.847  0.00  0.00    -0.058 A 
ATOM      9  C8  UNL     1       2.180   8.599 -18.034  0.00  0.00    -0.038 A 
ATOM     10  C9  UNL     1       1.207   7.450 -18.021  0.00  0.00    -0.039 C 
ATOM     11  C10 UNL     1       2.916   8.973 -19.182  0.00  0.00    +0.048 A 
ATOM     12  C11 UNL     1       2.794   8.263 -20.492  0.00  0.00    +0.193 A 
ATOM     13  O1  UNL     1       2.034   7.310 -20.639  0.00  0.00    -0.287 OA
ATOM     14  C12 UNL     1       3.629   8.733 -21.653  0.00  0.00    +0.019 A 
ATOM     15  C13 UNL     1       3.486   7.934 -22.925  0.00  0.00    -0.025 C 
ATOM     16  C14 UNL     1       2.292   8.387 -23.755  0.00  0.00    -0.061 C 
ATOM     17  H   UNL     1       5.138  11.219 -20.185  0.00  0.00    +0.000 HD
ENDROOT
TORSDOF 0
ENDMDL
MODEL 4
REMARK VINA RESULT:    -4.770      3.426      5.918
REMARK INTER + INTRA:          -4.770
REMARK INTER:                  -4.770
REMARK INTRA:                   0.000
REMARK UNBOUND:                 0.000
REMARK  Name = /home/vital/Documents/PhD_2021/Malaria_codes/scripts/../data/pdbqt_ligands/ligand_364_temp.pdb
REMARK                            x       y       z     vdW  Elec       q    Type
REMARK                         _______ _______ _______ _____ _____    ______ ____
ROOT
ATOM      1  C1  UNL     1       3.134   5.541 -15.545  0.00  0.00    -0.060 C 
ATOM      2  C2  UNL     1       2.378   6.824 -15.860  0.00  0.00    -0.015 C 
ATOM      3  C3  UNL     1       1.375   6.628 -16.984  0.00  0.00    +0.023 A 
ATOM      4  N1  UNL     1       0.164   6.096 -16.599  0.00  0.00    -0.358 N 
ATOM      5  C4  UNL     1      -0.879   5.844 -17.496  0.00  0.00    +0.051 A 
ATOM      6  C5  UNL     1      -2.075   5.287 -17.027  0.00  0.00    -0.038 A 
ATOM      7  C6  UNL     1      -3.129   5.037 -17.901  0.00  0.00    -0.060 A 
ATOM      8  C7  UNL     1      -2.998   5.346 -19.254  0.00  0.00    -0.058 A 
ATOM      9  C8  UNL     1      -1.812   5.910 -19.754  0.00  0.00    -0.038 A 
ATOM     10  C9  UNL     1      -1.739   6.220 -21.225  0.00  0.00    -0.039 C 
ATOM     11  C10 UNL     1      -0.746   6.160 -18.859  0.00  0.00    +0.048 A 
ATOM     12  C11 UNL     1       0.554   6.759 -19.292  0.00  0.00    +0.193 A 
ATOM     13  O1  UNL     1       0.760   7.073 -20.461  0.00  0.00    -0.287 OA
ATOM     14  C12 UNL     1       1.631   6.978 -18.263  0.00  0.00    +0.019 A 
ATOM     15  C13 UNL     1       2.929   7.540 -18.787  0.00  0.00    -0.025 C 
ATOM     16  C14 UNL     1       2.893   9.058 -18.898  0.00  0.00    -0.061 C 
ATOM     17  H   UNL     1       0.027   5.883 -15.648  0.00  0.00    +0.000 HD
ENDROOT
TORSDOF 0
ENDMDL
MODEL 5
REMARK VINA RESULT:    -4.456     14.875     17.661
REMARK INTER + INTRA:          -4.456
REMARK INTER:                  -4.456
REMARK INTRA:                   0.000
REMARK UNBOUND:                 0.000
REMARK  Name = /home/vital/Documents/PhD_2021/Malaria_codes/scripts/../data/pdbqt_ligands/ligand_364_temp.pdb
REMARK                            x       y       z     vdW  Elec       q    Type
REMARK                         _______ _______ _______ _____ _____    ______ ____
ROOT
ATOM      1  C1  UNL     1       0.010   3.499 -33.040  0.00  0.00    -0.060 C 
ATOM      2  C2  UNL     1      -0.997   2.399 -32.735  0.00  0.00    -0.015 C 
ATOM      3  C3  UNL     1      -0.661   1.107 -33.459  0.00  0.00    +0.023 A 
ATOM      4  N1  UNL     1       0.281   0.318 -32.837  0.00  0.00    -0.358 N 
ATOM      5  C4  UNL     1       0.716  -0.905 -33.358  0.00  0.00    +0.051 A 
ATOM      6  C5  UNL     1       1.689  -1.642 -32.671  0.00  0.00    -0.038 A 
ATOM      7  C6  UNL     1       2.128  -2.866 -33.167  0.00  0.00    -0.060 A 
ATOM      8  C7  UNL     1       1.597  -3.366 -34.355  0.00  0.00    -0.058 A 
ATOM      9  C8  UNL     1       0.617  -2.652 -35.064  0.00  0.00    -0.038 A 
ATOM     10  C9  UNL     1       0.085  -3.252 -36.338  0.00  0.00    -0.039 C 
ATOM     11  C10 UNL     1       0.175  -1.410 -34.554  0.00  0.00    +0.048 A 
ATOM     12  C11 UNL     1      -0.864  -0.576 -35.232  0.00  0.00    +0.193 A 
ATOM     13  O1  UNL     1      -1.397  -0.938 -36.277  0.00  0.00    -0.287 OA
ATOM     14  C12 UNL     1      -1.260   0.738 -34.612  0.00  0.00    +0.019 A 
ATOM     15  C13 UNL     1      -2.277   1.542 -35.382  0.00  0.00    -0.025 C 
ATOM     16  C14 UNL     1      -3.704   1.105 -35.076  0.00  0.00    -0.061 C 
ATOM     17  H   UNL     1       0.665   0.629 -31.986  0.00  0.00    +0.000 HD
ENDROOT
TORSDOF 0
ENDMDL
MODEL 6
REMARK VINA RESULT:    -4.414      2.504      4.958
REMARK INTER + INTRA:          -4.414
REMARK INTER:                  -4.414
REMARK INTRA:                   0.000
REMARK UNBOUND:                 0.000
REMARK  Name = /home/vital/Documents/PhD_2021/Malaria_codes/scripts/../data/pdbqt_ligands/ligand_364_temp.pdb
REMARK                            x       y       z     vdW  Elec       q    Type
REMARK                         _______ _______ _______ _____ _____    ______ ____
ROOT
ATOM      1  C1  UNL     1       0.486   3.597 -21.376  0.00  0.00    -0.060 C 
ATOM      2  C2  UNL     1      -0.347   4.843 -21.109  0.00  0.00    -0.015 C 
ATOM      3  C3  UNL     1       0.416   5.868 -20.287  0.00  0.00    +0.023 A 
ATOM      4  N1  UNL     1       1.265   6.679 -21.007  0.00  0.00    -0.358 N 
ATOM      5  C4  UNL     1       2.048   7.678 -20.420  0.00  0.00    +0.051 A 
ATOM      6  C5  UNL     1       2.898   8.450 -21.221  0.00  0.00    -0.038 A 
ATOM      7  C6  UNL     1       3.679   9.455 -20.658  0.00  0.00    -0.060 A 
ATOM      8  C7  UNL     1       3.616   9.699 -19.287  0.00  0.00    -0.058 A 
ATOM      9  C8  UNL     1       2.769   8.944 -18.458  0.00  0.00    -0.038 A 
ATOM     10  C9  UNL     1       2.748   9.262 -16.987  0.00  0.00    -0.039 C 
ATOM     11  C10 UNL     1       1.979   7.924 -19.038  0.00  0.00    +0.048 A 
ATOM     12  C11 UNL     1       1.046   7.068 -18.243  0.00  0.00    +0.193 A 
ATOM     13  O1  UNL     1       0.914   7.215 -17.031  0.00  0.00    -0.287 OA
ATOM     14  C12 UNL     1       0.254   6.003 -18.953  0.00  0.00    +0.019 A 
ATOM     15  C13 UNL     1      -0.626   5.150 -18.074  0.00  0.00    -0.025 C 
ATOM     16  C14 UNL     1      -1.975   5.805 -17.807  0.00  0.00    -0.061 C 
ATOM     17  H   UNL     1       1.322   6.549 -21.982  0.00  0.00    +0.000 HD
ENDROOT
TORSDOF 0
ENDMDL
MODEL 7
REMARK VINA RESULT:    -4.413      4.327      6.858
REMARK INTER + INTRA:          -4.413
REMARK INTER:                  -4.413
REMARK INTRA:                   0.000
REMARK UNBOUND:                 0.000
REMARK  Name = /home/vital/Documents/PhD_2021/Malaria_codes/scripts/../data/pdbqt_ligands/ligand_364_temp.pdb
REMARK                            x       y       z     vdW  Elec       q    Type
REMARK                         _______ _______ _______ _____ _____    ______ ____
ROOT
ATOM      1  C1  UNL     1       2.840   8.590 -16.785  0.00  0.00    -0.060 C 
ATOM      2  C2  UNL     1       2.821   7.085 -17.010  0.00  0.00    -0.015 C 
ATOM      3  C3  UNL     1       1.450   6.596 -17.447  0.00  0.00    +0.023 A 
ATOM      4  N1  UNL     1       1.184   6.728 -18.791  0.00  0.00    -0.358 N 
ATOM      5  C4  UNL     1      -0.025   6.334 -19.373  0.00  0.00    +0.051 A 
ATOM      6  C5  UNL     1      -0.223   6.516 -20.748  0.00  0.00    -0.038 A 
ATOM      7  C6  UNL     1      -1.416   6.121 -21.347  0.00  0.00    -0.060 A 
ATOM      8  C7  UNL     1      -2.421   5.539 -20.578  0.00  0.00    -0.058 A 
ATOM      9  C8  UNL     1      -2.251   5.339 -19.198  0.00  0.00    -0.038 A 
ATOM     10  C9  UNL     1      -3.376   4.702 -18.428  0.00  0.00    -0.039 C 
ATOM     11  C10 UNL     1      -1.036   5.742 -18.596  0.00  0.00    +0.048 A 
ATOM     12  C11 UNL     1      -0.757   5.571 -17.137  0.00  0.00    +0.193 A 
ATOM     13  O1  UNL     1      -1.578   5.059 -16.381  0.00  0.00    -0.287 OA
ATOM     14  C12 UNL     1       0.565   6.042 -16.591  0.00  0.00    +0.019 A 
ATOM     15  C13 UNL     1       0.750   5.879 -15.102  0.00  0.00    -0.025 C 
ATOM     16  C14 UNL     1       1.231   4.482 -14.735  0.00  0.00    -0.061 C 
ATOM     17  H   UNL     1       1.878   7.118 -19.370  0.00  0.00    +0.000 HD
ENDROOT
TORSDOF 0
ENDMDL
MODEL 8
REMARK VINA RESULT:    -4.377      1.717      3.252
REMARK INTER + INTRA:          -4.377
REMARK INTER:                  -4.377
REMARK INTRA:                   0.000
REMARK UNBOUND:                 0.000
REMARK  Name = /home/vital/Documents/PhD_2021/Malaria_codes/scripts/../data/pdbqt_ligands/ligand_364_temp.pdb
REMARK                            x       y       z     vdW  Elec       q    Type
REMARK                         _______ _______ _______ _____ _____    ______ ____
ROOT
ATOM      1  C1  UNL     1       5.753   9.360 -24.085  0.00  0.00    -0.060 C 
ATOM      2  C2  UNL     1       4.310   9.767 -23.825  0.00  0.00    -0.015 C 
ATOM      3  C3  UNL     1       3.831   9.312 -22.457  0.00  0.00    +0.023 A 
ATOM      4  N1  UNL     1       4.177  10.140 -21.413  0.00  0.00    -0.358 N 
ATOM      5  C4  UNL     1       3.825   9.881 -20.084  0.00  0.00    +0.051 A 
ATOM      6  C5  UNL     1       4.228  10.766 -19.077  0.00  0.00    -0.038 A 
ATOM      7  C6  UNL     1       3.880  10.531 -17.750  0.00  0.00    -0.060 A 
ATOM      8  C7  UNL     1       3.122   9.410 -17.417  0.00  0.00    -0.058 A 
ATOM      9  C8  UNL     1       2.699   8.505 -18.406  0.00  0.00    -0.038 A 
ATOM     10  C9  UNL     1       1.882   7.316 -17.978  0.00  0.00    -0.039 C 
ATOM     11  C10 UNL     1       3.057   8.751 -19.752  0.00  0.00    +0.048 A 
ATOM     12  C11 UNL     1       2.654   7.851 -20.877  0.00  0.00    +0.193 A 
ATOM     13  O1  UNL     1       1.978   6.844 -20.684  0.00  0.00    -0.287 OA
ATOM     14  C12 UNL     1       3.093   8.195 -22.275  0.00  0.00    +0.019 A 
ATOM     15  C13 UNL     1       2.689   7.213 -23.346  0.00  0.00    -0.025 C 
ATOM     16  C14 UNL     1       1.277   7.469 -23.855  0.00  0.00    -0.061 C 
ATOM     17  H   UNL     1       4.696  10.952 -21.611  0.00  0.00    +0.000 HD
ENDROOT
TORSDOF 0
ENDMDL
MODEL 9
REMARK VINA RESULT:    -4.039     15.124     17.762
REMARK INTER + INTRA:          -4.039
REMARK INTER:                  -4.039
REMARK INTRA:                   0.000
REMARK UNBOUND:                 0.000
REMARK  Name = /home/vital/Documents/PhD_2021/Malaria_codes/scripts/../data/pdbqt_ligands/ligand_364_temp.pdb
REMARK                            x       y       z     vdW  Elec       q    Type
REMARK                         _______ _______ _______ _____ _____    ______ ____
ROOT
ATOM      1  C1  UNL     1      -4.575   1.393 -34.617  0.00  0.00    -0.060 C 
ATOM      2  C2  UNL     1      -3.235   1.793 -35.219  0.00  0.00    -0.015 C 
ATOM      3  C3  UNL     1      -2.139   0.802 -34.866  0.00  0.00    +0.023 A 
ATOM      4  N1  UNL     1      -2.083  -0.317 -35.668  0.00  0.00    -0.358 N 
ATOM      5  C4  UNL     1      -1.142  -1.336 -35.492  0.00  0.00    +0.051 A 
ATOM      6  C5  UNL     1      -1.161  -2.449 -36.342  0.00  0.00    -0.038 A 
ATOM      7  C6  UNL     1      -0.228  -3.470 -36.189  0.00  0.00    -0.060 A 
ATOM      8  C7  UNL     1       0.737  -3.387 -35.187  0.00  0.00    -0.058 A 
ATOM      9  C8  UNL     1       0.784  -2.281 -34.321  0.00  0.00    -0.038 A 
ATOM     10  C9  UNL     1       1.853  -2.254 -33.262  0.00  0.00    -0.039 C 
ATOM     11  C10 UNL     1      -0.168  -1.247 -34.482  0.00  0.00    +0.048 A 
ATOM     12  C11 UNL     1      -0.199  -0.030 -33.615  0.00  0.00    +0.193 A 
ATOM     13  O1  UNL     1       0.616   0.138 -32.712  0.00  0.00    -0.287 OA
ATOM     14  C12 UNL     1      -1.259   1.010 -33.862  0.00  0.00    +0.019 A 
ATOM     15  C13 UNL     1      -1.255   2.184 -32.914  0.00  0.00    -0.025 C 
ATOM     16  C14 UNL     1      -0.267   3.261 -33.342  0.00  0.00    -0.061 C 
ATOM     17  H   UNL     1      -2.736  -0.402 -36.399  0.00  0.00    +0.000 HD
ENDROOT
TORSDOF 0
ENDMDL
