MODEL 1
REMARK VINA RESULT:    -5.020      0.000      0.000
REMARK INTER + INTRA:          -5.020
REMARK INTER:                  -5.020
REMARK INTRA:                   0.000
REMARK UNBOUND:                 0.000
REMARK  Name = /home/vital/Documents/PhD_2021/Malaria_codes/scripts/../data/pdbqt_ligands/ligand_346_temp.pdb
REMARK                            x       y       z     vdW  Elec       q    Type
REMARK                         _______ _______ _______ _____ _____    ______ ____
ROOT
ATOM      1  C   UNL     1       4.156   2.450 -15.780  0.00  0.00    +0.079 C 
ATOM      2  O   UNL     1       4.759   1.602 -16.747  0.00  0.00    -0.489 OA
ATOM      3  C   UNL     1       3.962   0.682 -17.381  0.00  0.00    +0.203 A 
ATOM      4  C   UNL     1       2.592   0.456 -17.229  0.00  0.00    +0.162 A 
ATOM      5  O   UNL     1       1.836   1.194 -16.360  0.00  0.00    -0.503 OA
ATOM      6  C   UNL     1       1.952  -0.545 -17.975  0.00  0.00    -0.012 A 
ATOM      7  C   UNL     1       2.668  -1.337 -18.887  0.00  0.00    -0.026 A 
ATOM      8  C   UNL     1       1.966  -2.402 -19.694  0.00  0.00    +0.022 C 
ATOM      9  N   UNL     1       1.120  -1.786 -20.719  0.00  0.00    -0.309 N 
ATOM     10  C   UNL     1       0.468  -2.800 -21.577  0.00  0.00    +0.026 C 
ATOM     11  C   UNL     1      -0.723  -3.489 -20.865  0.00  0.00    +0.093 C 
ATOM     12  O   UNL     1      -1.551  -2.476 -20.278  0.00  0.00    -0.386 OA
ATOM     13  C   UNL     1      -1.517  -4.354 -21.818  0.00  0.00    -0.018 A 
ATOM     14  C   UNL     1      -2.619  -3.848 -22.523  0.00  0.00    -0.056 A 
ATOM     15  C   UNL     1      -3.321  -4.655 -23.421  0.00  0.00    -0.061 A 
ATOM     16  C   UNL     1      -2.928  -5.975 -23.629  0.00  0.00    -0.062 A 
ATOM     17  C   UNL     1      -1.834  -6.491 -22.938  0.00  0.00    -0.061 A 
ATOM     18  C   UNL     1      -1.131  -5.686 -22.039  0.00  0.00    -0.056 A 
ATOM     19  C   UNL     1       4.038  -1.108 -19.050  0.00  0.00    -0.012 A 
ATOM     20  C   UNL     1       4.660  -0.115 -18.302  0.00  0.00    +0.162 A 
ATOM     21  O   UNL     1       6.006   0.074 -18.491  0.00  0.00    -0.503 OA
ATOM     22  H   UNL     1       2.236   1.870 -15.848  0.00  0.00    +0.000 HD
ATOM     23  H   UNL     1       1.696  -1.181 -21.303  0.00  0.00    +0.000 HD
ATOM     24  H   UNL     1       0.389  -1.253 -20.247  0.00  0.00    +0.000 HD
ATOM     25  H   UNL     1      -1.888  -1.891 -20.975  0.00  0.00    +0.000 HD
ATOM     26  H   UNL     1       6.459   0.734 -18.005  0.00  0.00    +0.000 HD
ENDROOT
TORSDOF 0
ENDMDL
MODEL 2
REMARK VINA RESULT:    -4.812      8.259     11.032
REMARK INTER + INTRA:          -4.812
REMARK INTER:                  -4.812
REMARK INTRA:                   0.000
REMARK UNBOUND:                 0.000
REMARK  Name = /home/vital/Documents/PhD_2021/Malaria_codes/scripts/../data/pdbqt_ligands/ligand_346_temp.pdb
REMARK                            x       y       z     vdW  Elec       q    Type
REMARK                         _______ _______ _______ _____ _____    ______ ____
ROOT
ATOM      1  C   UNL     1       3.891  -4.605 -20.265  0.00  0.00    +0.079 C 
ATOM      2  O   UNL     1       4.663  -5.209 -21.293  0.00  0.00    -0.489 OA
ATOM      3  C   UNL     1       5.316  -4.385 -22.175  0.00  0.00    +0.203 A 
ATOM      4  C   UNL     1       5.354  -2.989 -22.207  0.00  0.00    +0.162 A 
ATOM      5  O   UNL     1       4.691  -2.233 -21.280  0.00  0.00    -0.503 OA
ATOM      6  C   UNL     1       6.084  -2.322 -23.202  0.00  0.00    -0.012 A 
ATOM      7  C   UNL     1       6.791  -3.039 -24.183  0.00  0.00    -0.026 A 
ATOM      8  C   UNL     1       7.584  -2.310 -25.241  0.00  0.00    +0.022 C 
ATOM      9  N   UNL     1       8.784  -1.711 -24.652  0.00  0.00    -0.309 N 
ATOM     10  C   UNL     1       9.625  -1.047 -25.671  0.00  0.00    +0.026 C 
ATOM     11  C   UNL     1       9.039   0.317 -26.114  0.00  0.00    +0.093 C 
ATOM     12  O   UNL     1       8.692   1.066 -24.942  0.00  0.00    -0.386 OA
ATOM     13  C   UNL     1      10.010   1.086 -26.981  0.00  0.00    -0.018 A 
ATOM     14  C   UNL     1      10.924   1.996 -26.430  0.00  0.00    -0.056 A 
ATOM     15  C   UNL     1      11.833   2.674 -27.244  0.00  0.00    -0.061 A 
ATOM     16  C   UNL     1      11.843   2.448 -28.619  0.00  0.00    -0.062 A 
ATOM     17  C   UNL     1      10.943   1.545 -29.181  0.00  0.00    -0.061 A 
ATOM     18  C   UNL     1      10.034   0.867 -28.368  0.00  0.00    -0.056 A 
ATOM     19  C   UNL     1       6.763  -4.436 -24.150  0.00  0.00    -0.012 A 
ATOM     20  C   UNL     1       6.033  -5.084 -23.159  0.00  0.00    +0.162 A 
ATOM     21  O   UNL     1       6.030  -6.455 -23.166  0.00  0.00    -0.503 OA
ATOM     22  H   UNL     1       4.194  -2.650 -20.603  0.00  0.00    +0.000 HD
ATOM     23  H   UNL     1       9.331  -2.443 -24.200  0.00  0.00    +0.000 HD
ATOM     24  H   UNL     1       8.487  -1.005 -23.978  0.00  0.00    +0.000 HD
ATOM     25  H   UNL     1       9.487   1.216 -24.407  0.00  0.00    +0.000 HD
ATOM     26  H   UNL     1       5.549  -6.926 -22.514  0.00  0.00    +0.000 HD
ENDROOT
TORSDOF 0
ENDMDL
MODEL 3
REMARK VINA RESULT:    -4.630     17.587     19.168
REMARK INTER + INTRA:          -4.630
REMARK INTER:                  -4.630
REMARK INTRA:                   0.000
REMARK UNBOUND:                 0.000
REMARK  Name = /home/vital/Documents/PhD_2021/Malaria_codes/scripts/../data/pdbqt_ligands/ligand_346_temp.pdb
REMARK                            x       y       z     vdW  Elec       q    Type
REMARK                         _______ _______ _______ _____ _____    ______ ____
ROOT
ATOM      1  C   UNL     1     -10.563 -10.885 -29.339  0.00  0.00    +0.079 C 
ATOM      2  O   UNL     1     -10.306 -10.737 -30.728  0.00  0.00    -0.489 OA
ATOM      3  C   UNL     1     -10.442  -9.487 -31.278  0.00  0.00    +0.203 A 
ATOM      4  C   UNL     1     -10.790  -8.288 -30.653  0.00  0.00    +0.162 A 
ATOM      5  O   UNL     1     -11.049  -8.228 -29.311  0.00  0.00    -0.503 OA
ATOM      6  C   UNL     1     -10.880  -7.101 -31.396  0.00  0.00    -0.012 A 
ATOM      7  C   UNL     1     -10.622  -7.092 -32.777  0.00  0.00    -0.026 A 
ATOM      8  C   UNL     1     -10.710  -5.806 -33.564  0.00  0.00    +0.022 C 
ATOM      9  N   UNL     1      -9.582  -4.932 -33.232  0.00  0.00    -0.309 N 
ATOM     10  C   UNL     1      -9.593  -3.690 -34.036  0.00  0.00    +0.026 C 
ATOM     11  C   UNL     1     -10.655  -2.680 -33.534  0.00  0.00    +0.093 C 
ATOM     12  O   UNL     1     -10.528  -2.555 -32.111  0.00  0.00    -0.386 OA
ATOM     13  C   UNL     1     -10.509  -1.335 -34.211  0.00  0.00    -0.018 A 
ATOM     14  C   UNL     1      -9.715  -0.318 -33.661  0.00  0.00    -0.056 A 
ATOM     15  C   UNL     1      -9.569   0.905 -34.316  0.00  0.00    -0.061 A 
ATOM     16  C   UNL     1     -10.211   1.127 -35.533  0.00  0.00    -0.062 A 
ATOM     17  C   UNL     1     -11.001   0.126 -36.094  0.00  0.00    -0.061 A 
ATOM     18  C   UNL     1     -11.148  -1.098 -35.439  0.00  0.00    -0.056 A 
ATOM     19  C   UNL     1     -10.265  -8.288 -33.405  0.00  0.00    -0.012 A 
ATOM     20  C   UNL     1     -10.182  -9.457 -32.657  0.00  0.00    +0.162 A 
ATOM     21  O   UNL     1      -9.831 -10.609 -33.314  0.00  0.00    -0.503 OA
ATOM     22  H   UNL     1     -10.997  -9.004 -28.788  0.00  0.00    +0.000 HD
ATOM     23  H   UNL     1      -8.712  -5.433 -33.412  0.00  0.00    +0.000 HD
ATOM     24  H   UNL     1      -9.660  -4.673 -32.249  0.00  0.00    +0.000 HD
ATOM     25  H   UNL     1      -9.642  -2.225 -31.893  0.00  0.00    +0.000 HD
ATOM     26  H   UNL     1      -9.765 -11.416 -32.843  0.00  0.00    +0.000 HD
ENDROOT
TORSDOF 0
ENDMDL
MODEL 4
REMARK VINA RESULT:    -4.596      9.528     11.160
REMARK INTER + INTRA:          -4.596
REMARK INTER:                  -4.596
REMARK INTRA:                   0.000
REMARK UNBOUND:                 0.000
REMARK  Name = /home/vital/Documents/PhD_2021/Malaria_codes/scripts/../data/pdbqt_ligands/ligand_346_temp.pdb
REMARK                            x       y       z     vdW  Elec       q    Type
REMARK                         _______ _______ _______ _____ _____    ______ ____
ROOT
ATOM      1  C   UNL     1      13.381   6.034 -26.627  0.00  0.00    +0.079 C 
ATOM      2  O   UNL     1      13.500   5.181 -25.498  0.00  0.00    -0.489 OA
ATOM      3  C   UNL     1      12.616   4.138 -25.383  0.00  0.00    +0.203 A 
ATOM      4  C   UNL     1      11.587   3.762 -26.250  0.00  0.00    +0.162 A 
ATOM      5  O   UNL     1      11.336   4.450 -27.405  0.00  0.00    -0.503 OA
ATOM      6  C   UNL     1      10.780   2.654 -25.953  0.00  0.00    -0.012 A 
ATOM      7  C   UNL     1      10.986   1.901 -24.785  0.00  0.00    -0.026 A 
ATOM      8  C   UNL     1      10.119   0.703 -24.483  0.00  0.00    +0.022 C 
ATOM      9  N   UNL     1      10.446  -0.401 -25.388  0.00  0.00    -0.309 N 
ATOM     10  C   UNL     1       9.666  -1.618 -25.077  0.00  0.00    +0.026 C 
ATOM     11  C   UNL     1       8.201  -1.515 -25.571  0.00  0.00    +0.093 C 
ATOM     12  O   UNL     1       8.209  -1.054 -26.928  0.00  0.00    -0.386 OA
ATOM     13  C   UNL     1       7.478  -2.837 -25.452  0.00  0.00    -0.018 A 
ATOM     14  C   UNL     1       7.454  -3.759 -26.509  0.00  0.00    -0.056 A 
ATOM     15  C   UNL     1       6.806  -4.988 -26.369  0.00  0.00    -0.061 A 
ATOM     16  C   UNL     1       6.178  -5.313 -25.169  0.00  0.00    -0.062 A 
ATOM     17  C   UNL     1       6.195  -4.409 -24.109  0.00  0.00    -0.061 A 
ATOM     18  C   UNL     1       6.842  -3.180 -24.247  0.00  0.00    -0.056 A 
ATOM     19  C   UNL     1      12.019   2.269 -23.919  0.00  0.00    -0.012 A 
ATOM     20  C   UNL     1      12.811   3.371 -24.224  0.00  0.00    +0.162 A 
ATOM     21  O   UNL     1      13.812   3.698 -23.345  0.00  0.00    -0.503 OA
ATOM     22  H   UNL     1      11.859   5.195 -27.631  0.00  0.00    +0.000 HD
ATOM     23  H   UNL     1      11.439  -0.615 -25.301  0.00  0.00    +0.000 HD
ATOM     24  H   UNL     1      10.215  -0.110 -26.338  0.00  0.00    +0.000 HD
ATOM     25  H   UNL     1       8.692  -1.688 -27.482  0.00  0.00    +0.000 HD
ATOM     26  H   UNL     1      14.364   4.434 -23.518  0.00  0.00    +0.000 HD
ENDROOT
TORSDOF 0
ENDMDL
MODEL 5
REMARK VINA RESULT:    -4.588     12.873     15.371
REMARK INTER + INTRA:          -4.588
REMARK INTER:                  -4.588
REMARK INTRA:                   0.000
REMARK UNBOUND:                 0.000
REMARK  Name = /home/vital/Documents/PhD_2021/Malaria_codes/scripts/../data/pdbqt_ligands/ligand_346_temp.pdb
REMARK                            x       y       z     vdW  Elec       q    Type
REMARK                         _______ _______ _______ _____ _____    ______ ____
ROOT
ATOM      1  C   UNL     1       4.087  -5.352 -33.288  0.00  0.00    +0.079 C 
ATOM      2  O   UNL     1       3.759  -4.258 -32.444  0.00  0.00    -0.489 OA
ATOM      3  C   UNL     1       2.761  -3.409 -32.851  0.00  0.00    +0.203 A 
ATOM      4  C   UNL     1       1.974  -3.470 -34.005  0.00  0.00    +0.162 A 
ATOM      5  O   UNL     1       2.128  -4.470 -34.925  0.00  0.00    -0.503 OA
ATOM      6  C   UNL     1       0.995  -2.495 -34.247  0.00  0.00    -0.012 A 
ATOM      7  C   UNL     1       0.782  -1.442 -33.341  0.00  0.00    -0.026 A 
ATOM      8  C   UNL     1      -0.284  -0.407 -33.606  0.00  0.00    +0.022 C 
ATOM      9  N   UNL     1      -1.614  -0.990 -33.417  0.00  0.00    -0.309 N 
ATOM     10  C   UNL     1      -2.685   0.014 -33.600  0.00  0.00    +0.026 C 
ATOM     11  C   UNL     1      -2.930   0.341 -35.094  0.00  0.00    +0.093 C 
ATOM     12  O   UNL     1      -3.038  -0.891 -35.819  0.00  0.00    -0.386 OA
ATOM     13  C   UNL     1      -4.167   1.190 -35.283  0.00  0.00    -0.018 A 
ATOM     14  C   UNL     1      -5.426   0.614 -35.511  0.00  0.00    -0.056 A 
ATOM     15  C   UNL     1      -6.561   1.414 -35.653  0.00  0.00    -0.061 A 
ATOM     16  C   UNL     1      -6.453   2.801 -35.564  0.00  0.00    -0.062 A 
ATOM     17  C   UNL     1      -5.211   3.388 -35.335  0.00  0.00    -0.061 A 
ATOM     18  C   UNL     1      -4.075   2.589 -35.193  0.00  0.00    -0.056 A 
ATOM     19  C   UNL     1       1.561  -1.383 -32.182  0.00  0.00    -0.012 A 
ATOM     20  C   UNL     1       2.530  -2.354 -31.955  0.00  0.00    +0.162 A 
ATOM     21  O   UNL     1       3.273  -2.255 -30.806  0.00  0.00    -0.503 OA
ATOM     22  H   UNL     1       2.775  -5.136 -34.790  0.00  0.00    +0.000 HD
ATOM     23  H   UNL     1      -1.677  -1.370 -32.473  0.00  0.00    +0.000 HD
ATOM     24  H   UNL     1      -1.742  -1.720 -34.118  0.00  0.00    +0.000 HD
ATOM     25  H   UNL     1      -3.786  -1.404 -35.475  0.00  0.00    +0.000 HD
ATOM     26  H   UNL     1       3.934  -2.891 -30.620  0.00  0.00    +0.000 HD
ENDROOT
TORSDOF 0
ENDMDL
MODEL 6
REMARK VINA RESULT:    -4.521      5.652     10.573
REMARK INTER + INTRA:          -4.521
REMARK INTER:                  -4.521
REMARK INTRA:                   0.000
REMARK UNBOUND:                 0.000
REMARK  Name = /home/vital/Documents/PhD_2021/Malaria_codes/scripts/../data/pdbqt_ligands/ligand_346_temp.pdb
REMARK                            x       y       z     vdW  Elec       q    Type
REMARK                         _______ _______ _______ _____ _____    ______ ____
ROOT
ATOM      1  C   UNL     1      -4.241  -0.801 -20.526  0.00  0.00    +0.079 C 
ATOM      2  O   UNL     1      -2.902  -0.686 -20.987  0.00  0.00    -0.489 OA
ATOM      3  C   UNL     1      -2.257   0.510 -20.795  0.00  0.00    +0.203 A 
ATOM      4  C   UNL     1      -2.726   1.670 -20.176  0.00  0.00    +0.162 A 
ATOM      5  O   UNL     1      -3.986   1.740 -19.646  0.00  0.00    -0.503 OA
ATOM      6  C   UNL     1      -1.906   2.804 -20.079  0.00  0.00    -0.012 A 
ATOM      7  C   UNL     1      -0.601   2.799 -20.599  0.00  0.00    -0.026 A 
ATOM      8  C   UNL     1       0.277   4.021 -20.478  0.00  0.00    +0.022 C 
ATOM      9  N   UNL     1       0.709   4.198 -19.089  0.00  0.00    -0.309 N 
ATOM     10  C   UNL     1       1.630   5.346 -18.942  0.00  0.00    +0.026 C 
ATOM     11  C   UNL     1       0.883   6.703 -18.989  0.00  0.00    +0.093 C 
ATOM     12  O   UNL     1      -0.245   6.633 -18.108  0.00  0.00    -0.386 OA
ATOM     13  C   UNL     1       1.792   7.853 -18.616  0.00  0.00    -0.018 A 
ATOM     14  C   UNL     1       1.903   8.300 -17.291  0.00  0.00    -0.056 A 
ATOM     15  C   UNL     1       2.770   9.343 -16.962  0.00  0.00    -0.061 A 
ATOM     16  C   UNL     1       3.541   9.950 -17.951  0.00  0.00    -0.062 A 
ATOM     17  C   UNL     1       3.444   9.515 -19.271  0.00  0.00    -0.061 A 
ATOM     18  C   UNL     1       2.577   8.472 -19.602  0.00  0.00    -0.056 A 
ATOM     19  C   UNL     1      -0.123   1.637 -21.212  0.00  0.00    -0.012 A 
ATOM     20  C   UNL     1      -0.948   0.521 -21.303  0.00  0.00    +0.162 A 
ATOM     21  O   UNL     1      -0.440  -0.597 -21.914  0.00  0.00    -0.503 OA
ATOM     22  H   UNL     1      -4.557   0.999 -19.695  0.00  0.00    +0.000 HD
ATOM     23  H   UNL     1       1.186   3.352 -18.781  0.00  0.00    +0.000 HD
ATOM     24  H   UNL     1      -0.119   4.381 -18.522  0.00  0.00    +0.000 HD
ATOM     25  H   UNL     1       0.061   6.466 -17.203  0.00  0.00    +0.000 HD
ATOM     26  H   UNL     1      -0.967  -1.367 -21.994  0.00  0.00    +0.000 HD
ENDROOT
TORSDOF 0
ENDMDL
MODEL 7
REMARK VINA RESULT:    -4.412      9.438     11.072
REMARK INTER + INTRA:          -4.412
REMARK INTER:                  -4.412
REMARK INTRA:                   0.000
REMARK UNBOUND:                 0.000
REMARK  Name = /home/vital/Documents/PhD_2021/Malaria_codes/scripts/../data/pdbqt_ligands/ligand_346_temp.pdb
REMARK                            x       y       z     vdW  Elec       q    Type
REMARK                         _______ _______ _______ _____ _____    ______ ____
ROOT
ATOM      1  C   UNL     1      13.830   5.378 -24.461  0.00  0.00    +0.079 C 
ATOM      2  O   UNL     1      12.919   5.145 -25.526  0.00  0.00    -0.489 OA
ATOM      3  C   UNL     1      12.301   3.921 -25.587  0.00  0.00    +0.203 A 
ATOM      4  C   UNL     1      12.421   2.834 -24.718  0.00  0.00    +0.162 A 
ATOM      5  O   UNL     1      13.233   2.882 -23.618  0.00  0.00    -0.503 OA
ATOM      6  C   UNL     1      11.699   1.655 -24.954  0.00  0.00    -0.012 A 
ATOM      7  C   UNL     1      10.845   1.540 -26.064  0.00  0.00    -0.026 A 
ATOM      8  C   UNL     1      10.063   0.270 -26.301  0.00  0.00    +0.022 C 
ATOM      9  N   UNL     1       8.987   0.146 -25.315  0.00  0.00    -0.309 N 
ATOM     10  C   UNL     1       8.154  -1.052 -25.558  0.00  0.00    +0.026 C 
ATOM     11  C   UNL     1       8.858  -2.355 -25.103  0.00  0.00    +0.093 C 
ATOM     12  O   UNL     1       9.374  -2.156 -23.780  0.00  0.00    -0.386 OA
ATOM     13  C   UNL     1       7.920  -3.540 -25.146  0.00  0.00    -0.018 A 
ATOM     14  C   UNL     1       7.159  -3.914 -24.029  0.00  0.00    -0.056 A 
ATOM     15  C   UNL     1       6.276  -4.993 -24.097  0.00  0.00    -0.061 A 
ATOM     16  C   UNL     1       6.138  -5.709 -25.285  0.00  0.00    -0.062 A 
ATOM     17  C   UNL     1       6.884  -5.347 -26.404  0.00  0.00    -0.061 A 
ATOM     18  C   UNL     1       7.768  -4.268 -26.337  0.00  0.00    -0.056 A 
ATOM     19  C   UNL     1      10.715   2.628 -26.931  0.00  0.00    -0.012 A 
ATOM     20  C   UNL     1      11.438   3.791 -26.686  0.00  0.00    +0.162 A 
ATOM     21  O   UNL     1      11.283   4.833 -27.564  0.00  0.00    -0.503 OA
ATOM     22  H   UNL     1      13.727   3.657 -23.434  0.00  0.00    +0.000 HD
ATOM     23  H   UNL     1       8.395   0.975 -25.366  0.00  0.00    +0.000 HD
ATOM     24  H   UNL     1       9.413   0.054 -24.393  0.00  0.00    +0.000 HD
ATOM     25  H   UNL     1       8.643  -1.957 -23.174  0.00  0.00    +0.000 HD
ATOM     26  H   UNL     1      11.754   5.631 -27.431  0.00  0.00    +0.000 HD
ENDROOT
TORSDOF 0
ENDMDL
MODEL 8
REMARK VINA RESULT:    -4.258     15.228     17.682
REMARK INTER + INTRA:          -4.258
REMARK INTER:                  -4.258
REMARK INTRA:                   0.000
REMARK UNBOUND:                 0.000
REMARK  Name = /home/vital/Documents/PhD_2021/Malaria_codes/scripts/../data/pdbqt_ligands/ligand_346_temp.pdb
REMARK                            x       y       z     vdW  Elec       q    Type
REMARK                         _______ _______ _______ _____ _____    ______ ____
ROOT
ATOM      1  C   UNL     1      -8.079   6.061 -34.787  0.00  0.00    +0.079 C 
ATOM      2  O   UNL     1      -8.395   4.688 -34.966  0.00  0.00    -0.489 OA
ATOM      3  C   UNL     1      -7.357   3.806 -35.130  0.00  0.00    +0.203 A 
ATOM      4  C   UNL     1      -5.983   4.058 -35.128  0.00  0.00    +0.162 A 
ATOM      5  O   UNL     1      -5.487   5.319 -34.942  0.00  0.00    -0.503 OA
ATOM      6  C   UNL     1      -5.070   3.010 -35.316  0.00  0.00    -0.012 A 
ATOM      7  C   UNL     1      -5.513   1.690 -35.508  0.00  0.00    -0.026 A 
ATOM      8  C   UNL     1      -4.520   0.569 -35.696  0.00  0.00    +0.022 C 
ATOM      9  N   UNL     1      -3.840   0.277 -34.432  0.00  0.00    -0.309 N 
ATOM     10  C   UNL     1      -2.908  -0.865 -34.560  0.00  0.00    +0.026 C 
ATOM     11  C   UNL     1      -1.600  -0.473 -35.290  0.00  0.00    +0.093 C 
ATOM     12  O   UNL     1      -1.098   0.738 -34.707  0.00  0.00    -0.386 OA
ATOM     13  C   UNL     1      -0.568  -1.576 -35.217  0.00  0.00    -0.018 A 
ATOM     14  C   UNL     1       0.377  -1.631 -34.183  0.00  0.00    -0.056 A 
ATOM     15  C   UNL     1       1.302  -2.674 -34.117  0.00  0.00    -0.061 A 
ATOM     16  C   UNL     1       1.291  -3.680 -35.081  0.00  0.00    -0.062 A 
ATOM     17  C   UNL     1       0.356  -3.642 -36.113  0.00  0.00    -0.061 A 
ATOM     18  C   UNL     1      -0.570  -2.598 -36.181  0.00  0.00    -0.056 A 
ATOM     19  C   UNL     1      -6.886   1.432 -35.502  0.00  0.00    -0.012 A 
ATOM     20  C   UNL     1      -7.781   2.481 -35.317  0.00  0.00    +0.162 A 
ATOM     21  O   UNL     1      -9.120   2.183 -35.321  0.00  0.00    -0.503 OA
ATOM     22  H   UNL     1      -6.072   6.039 -34.814  0.00  0.00    +0.000 HD
ATOM     23  H   UNL     1      -4.539   0.054 -33.725  0.00  0.00    +0.000 HD
ATOM     24  H   UNL     1      -3.298   1.100 -34.168  0.00  0.00    +0.000 HD
ATOM     25  H   UNL     1      -0.910   0.591 -33.767  0.00  0.00    +0.000 HD
ATOM     26  H   UNL     1      -9.751   2.863 -35.200  0.00  0.00    +0.000 HD
ENDROOT
TORSDOF 0
ENDMDL
MODEL 9
REMARK VINA RESULT:    -4.137      9.913     11.338
REMARK INTER + INTRA:          -4.137
REMARK INTER:                  -4.137
REMARK INTRA:                   0.000
REMARK UNBOUND:                 0.000
REMARK  Name = /home/vital/Documents/PhD_2021/Malaria_codes/scripts/../data/pdbqt_ligands/ligand_346_temp.pdb
REMARK                            x       y       z     vdW  Elec       q    Type
REMARK                         _______ _______ _______ _____ _____    ______ ____
ROOT
ATOM      1  C   UNL     1       8.674  -3.248 -25.552  0.00  0.00    +0.079 C 
ATOM      2  O   UNL     1       7.652  -4.233 -25.578  0.00  0.00    -0.489 OA
ATOM      3  C   UNL     1       6.682  -4.128 -26.543  0.00  0.00    +0.203 A 
ATOM      4  C   UNL     1       6.551  -3.174 -27.555  0.00  0.00    +0.162 A 
ATOM      5  O   UNL     1       7.457  -2.160 -27.704  0.00  0.00    -0.503 OA
ATOM      6  C   UNL     1       5.476  -3.235 -28.453  0.00  0.00    -0.012 A 
ATOM      7  C   UNL     1       4.511  -4.253 -28.358  0.00  0.00    -0.026 A 
ATOM      8  C   UNL     1       3.366  -4.317 -29.339  0.00  0.00    +0.022 C 
ATOM      9  N   UNL     1       3.849  -4.741 -30.655  0.00  0.00    -0.309 N 
ATOM     10  C   UNL     1       2.743  -4.884 -31.627  0.00  0.00    +0.026 C 
ATOM     11  C   UNL     1       2.238  -3.513 -32.143  0.00  0.00    +0.093 C 
ATOM     12  O   UNL     1       3.372  -2.726 -32.530  0.00  0.00    -0.386 OA
ATOM     13  C   UNL     1       1.270  -3.672 -33.294  0.00  0.00    -0.018 A 
ATOM     14  C   UNL     1       1.708  -3.675 -34.626  0.00  0.00    -0.056 A 
ATOM     15  C   UNL     1       0.803  -3.853 -35.674  0.00  0.00    -0.061 A 
ATOM     16  C   UNL     1      -0.551  -4.036 -35.403  0.00  0.00    -0.062 A 
ATOM     17  C   UNL     1      -1.002  -4.038 -34.084  0.00  0.00    -0.061 A 
ATOM     18  C   UNL     1      -0.098  -3.860 -33.036  0.00  0.00    -0.056 A 
ATOM     19  C   UNL     1       4.643  -5.216 -27.353  0.00  0.00    -0.012 A 
ATOM     20  C   UNL     1       5.713  -5.141 -26.468  0.00  0.00    +0.162 A 
ATOM     21  O   UNL     1       5.802  -6.104 -25.495  0.00  0.00    -0.503 OA
ATOM     22  H   UNL     1       8.186  -2.092 -27.119  0.00  0.00    +0.000 HD
ATOM     23  H   UNL     1       4.321  -5.639 -30.560  0.00  0.00    +0.000 HD
ATOM     24  H   UNL     1       4.487  -4.025 -31.004  0.00  0.00    +0.000 HD
ATOM     25  H   UNL     1       3.853  -3.179 -33.240  0.00  0.00    +0.000 HD
ATOM     26  H   UNL     1       6.509  -6.086 -24.881  0.00  0.00    +0.000 HD
ENDROOT
TORSDOF 0
ENDMDL
