MODEL 1
REMARK VINA RESULT:    -6.942      0.000      0.000
REMARK INTER + INTRA:          -6.942
REMARK INTER:                  -6.942
REMARK INTRA:                   0.000
REMARK UNBOUND:                 0.000
REMARK  Name = /home/vital/Documents/PhD_2021/Malaria_codes/scripts/../data/pdbqt_ligands/ligand_12_temp.pdb
REMARK                            x       y       z     vdW  Elec       q    Type
REMARK                         _______ _______ _______ _____ _____    ______ ____
ROOT
ATOM      1  N   UNL     1      -0.054   5.688 -16.199  0.00  0.00    -0.327 N 
ATOM      2  C   UNL     1      -1.209   4.817 -16.356  0.00  0.00    +0.012 C 
ATOM      3  C   UNL     1      -2.212   5.483 -17.242  0.00  0.00    -0.074 C 
ATOM      4  C   UNL     1      -2.754   5.019 -18.382  0.00  0.00    -0.082 C 
ATOM      5  C   UNL     1      -2.466   3.714 -19.065  0.00  0.00    +0.001 C 
ATOM      6  C   UNL     1      -2.147   3.975 -20.520  0.00  0.00    +0.004 C 
ATOM      7  N   UNL     1      -0.992   4.145 -21.071  0.00  0.00    -0.283 NA
ATOM      8  C   UNL     1       0.215   4.121 -20.255  0.00  0.00    +0.102 C 
ATOM      9  C   UNL     1       0.644   2.730 -20.119  0.00  0.00    -0.054 C 
ATOM     10  C   UNL     1       1.002   1.593 -19.972  0.00  0.00    +0.036 C 
ATOM     11  N   UNL     1       1.401   0.330 -19.780  0.00  0.00    -0.205 NA
ATOM     12  C   UNL     1       2.145  -0.179 -20.705  0.00  0.00    +0.038 C 
ATOM     13  C   UNL     1       2.697  -1.556 -20.669  0.00  0.00    -0.046 C 
ATOM     14  C   UNL     1       2.373  -2.410 -19.684  0.00  0.00    -0.071 C 
ATOM     15  C   UNL     1       2.844  -3.826 -19.495  0.00  0.00    +0.028 C 
ATOM     16  C   UNL     1       3.846  -4.256 -20.478  0.00  0.00    -0.093 C 
ATOM     17  C   UNL     1       4.666  -4.590 -21.290  0.00  0.00    -0.074 C 
ATOM     18  C   UNL     1       5.634  -4.944 -22.268  0.00  0.00    -0.009 C 
ATOM     19  C   UNL     1       5.440  -4.797 -23.594  0.00  0.00    -0.020 C 
ATOM     20  C   UNL     1       6.516  -5.198 -24.566  0.00  0.00    +0.047 C 
ATOM     21 CL   UNL     1       7.564  -3.819 -24.956  0.00  0.00    -0.121 Cl
ATOM     22  C   UNL     1       4.156  -4.299 -24.218  0.00  0.00    +0.092 C 
ATOM     23  O   UNL     1       4.398  -3.050 -24.857  0.00  0.00    -0.274 OA
ATOM     24 CL   UNL     1       3.019  -2.417 -25.593  0.00  0.00    +0.062 Cl
ATOM     25  H   UNL     1       0.632   5.236 -15.594  0.00  0.00    +0.000 HD
ATOM     26  H   UNL     1      -0.348   6.570 -15.780  0.00  0.00    +0.000 HD
ATOM     27  H   UNL     1       0.363   5.867 -17.112  0.00  0.00    +0.000 HD
ENDROOT
TORSDOF 0
ENDMDL
MODEL 2
REMARK VINA RESULT:    -6.858      4.989      6.446
REMARK INTER + INTRA:          -6.858
REMARK INTER:                  -6.858
REMARK INTRA:                   0.000
REMARK UNBOUND:                 0.000
REMARK  Name = /home/vital/Documents/PhD_2021/Malaria_codes/scripts/../data/pdbqt_ligands/ligand_12_temp.pdb
REMARK                            x       y       z     vdW  Elec       q    Type
REMARK                         _______ _______ _______ _____ _____    ______ ____
ROOT
ATOM      1  N   UNL     1       6.089   5.445 -15.523  0.00  0.00    -0.327 N 
ATOM      2  C   UNL     1       5.896   4.460 -14.469  0.00  0.00    +0.012 C 
ATOM      3  C   UNL     1       5.040   5.048 -13.394  0.00  0.00    -0.074 C 
ATOM      4  C   UNL     1       3.881   4.577 -12.901  0.00  0.00    -0.082 C 
ATOM      5  C   UNL     1       3.143   3.341 -13.327  0.00  0.00    +0.001 C 
ATOM      6  C   UNL     1       1.700   3.698 -13.607  0.00  0.00    +0.004 C 
ATOM      7  N   UNL     1       1.156   4.017 -14.734  0.00  0.00    -0.283 NA
ATOM      8  C   UNL     1       1.969   4.090 -15.940  0.00  0.00    +0.102 C 
ATOM      9  C   UNL     1       2.046   2.750 -16.520  0.00  0.00    -0.054 C 
ATOM     10  C   UNL     1       2.143   1.655 -17.001  0.00  0.00    +0.036 C 
ATOM     11  N   UNL     1       2.282   0.436 -17.537  0.00  0.00    -0.205 NA
ATOM     12  C   UNL     1       1.335   0.052 -18.328  0.00  0.00    +0.038 C 
ATOM     13  C   UNL     1       1.312  -1.257 -19.028  0.00  0.00    -0.046 C 
ATOM     14  C   UNL     1       2.259  -2.183 -18.804  0.00  0.00    -0.071 C 
ATOM     15  C   UNL     1       2.387  -3.545 -19.429  0.00  0.00    +0.028 C 
ATOM     16  C   UNL     1       1.386  -3.820 -20.467  0.00  0.00    -0.093 C 
ATOM     17  C   UNL     1       0.560  -4.027 -21.314  0.00  0.00    -0.074 C 
ATOM     18  C   UNL     1      -0.433  -4.231 -22.309  0.00  0.00    -0.009 C 
ATOM     19  C   UNL     1      -1.751  -4.050 -22.093  0.00  0.00    -0.020 C 
ATOM     20  C   UNL     1      -2.740  -4.289 -23.203  0.00  0.00    +0.047 C 
ATOM     21 CL   UNL     1      -3.071  -2.788 -24.090  0.00  0.00    -0.121 Cl
ATOM     22  C   UNL     1      -2.352  -3.670 -20.760  0.00  0.00    +0.092 C 
ATOM     23  O   UNL     1      -2.937  -2.376 -20.860  0.00  0.00    -0.274 OA
ATOM     24 CL   UNL     1      -3.645  -1.868 -19.416  0.00  0.00    +0.062 Cl
ATOM     25  H   UNL     1       6.673   5.046 -16.257  0.00  0.00    +0.000 HD
ATOM     26  H   UNL     1       6.545   6.271 -15.136  0.00  0.00    +0.000 HD
ATOM     27  H   UNL     1       5.184   5.708 -15.913  0.00  0.00    +0.000 HD
ENDROOT
TORSDOF 0
ENDMDL
MODEL 3
REMARK VINA RESULT:    -6.825      7.128     12.007
REMARK INTER + INTRA:          -6.825
REMARK INTER:                  -6.825
REMARK INTRA:                   0.000
REMARK UNBOUND:                 0.000
REMARK  Name = /home/vital/Documents/PhD_2021/Malaria_codes/scripts/../data/pdbqt_ligands/ligand_12_temp.pdb
REMARK                            x       y       z     vdW  Elec       q    Type
REMARK                         _______ _______ _______ _____ _____    ______ ____
ROOT
ATOM      1  N   UNL     1       0.952  -9.278 -32.859  0.00  0.00    -0.327 N 
ATOM      2  C   UNL     1       1.951  -8.338 -33.343  0.00  0.00    +0.012 C 
ATOM      3  C   UNL     1       1.285  -7.304 -34.193  0.00  0.00    -0.074 C 
ATOM      4  C   UNL     1       1.306  -5.967 -34.049  0.00  0.00    -0.082 C 
ATOM      5  C   UNL     1       1.994  -5.176 -32.974  0.00  0.00    +0.001 C 
ATOM      6  C   UNL     1       1.006  -4.205 -32.365  0.00  0.00    +0.004 C 
ATOM      7  N   UNL     1       0.264  -4.363 -31.321  0.00  0.00    -0.283 NA
ATOM      8  C   UNL     1       0.302  -5.619 -30.585  0.00  0.00    +0.102 C 
ATOM      9  C   UNL     1       1.398  -5.549 -29.619  0.00  0.00    -0.054 C 
ATOM     10  C   UNL     1       2.306  -5.524 -28.836  0.00  0.00    +0.036 C 
ATOM     11  N   UNL     1       3.331  -5.521 -27.973  0.00  0.00    -0.205 NA
ATOM     12  C   UNL     1       3.104  -4.977 -26.823  0.00  0.00    +0.038 C 
ATOM     13  C   UNL     1       4.106  -4.888 -25.731  0.00  0.00    -0.046 C 
ATOM     14  C   UNL     1       5.371  -5.301 -25.912  0.00  0.00    -0.071 C 
ATOM     15  C   UNL     1       6.500  -5.287 -24.917  0.00  0.00    +0.028 C 
ATOM     16  C   UNL     1       6.104  -4.844 -23.574  0.00  0.00    -0.093 C 
ATOM     17  C   UNL     1       5.762  -4.481 -22.482  0.00  0.00    -0.074 C 
ATOM     18  C   UNL     1       5.315  -4.047 -21.205  0.00  0.00    -0.009 C 
ATOM     19  C   UNL     1       4.636  -2.899 -21.004  0.00  0.00    -0.020 C 
ATOM     20  C   UNL     1       4.199  -2.511 -19.618  0.00  0.00    +0.047 C 
ATOM     21 CL   UNL     1       2.555  -3.091 -19.285  0.00  0.00    -0.121 Cl
ATOM     22  C   UNL     1       4.316  -1.898 -22.090  0.00  0.00    +0.092 C 
ATOM     23  O   UNL     1       2.906  -1.841 -22.275  0.00  0.00    -0.274 OA
ATOM     24 CL   UNL     1       2.449  -0.738 -23.466  0.00  0.00    +0.062 Cl
ATOM     25  H   UNL     1       1.403  -9.985 -32.279  0.00  0.00    +0.000 HD
ATOM     26  H   UNL     1       0.497  -9.729 -33.653  0.00  0.00    +0.000 HD
ATOM     27  H   UNL     1       0.255  -8.779 -32.307  0.00  0.00    +0.000 HD
ENDROOT
TORSDOF 0
ENDMDL
MODEL 4
REMARK VINA RESULT:    -6.659      8.968     12.152
REMARK INTER + INTRA:          -6.659
REMARK INTER:                  -6.659
REMARK INTRA:                   0.000
REMARK UNBOUND:                 0.000
REMARK  Name = /home/vital/Documents/PhD_2021/Malaria_codes/scripts/../data/pdbqt_ligands/ligand_12_temp.pdb
REMARK                            x       y       z     vdW  Elec       q    Type
REMARK                         _______ _______ _______ _____ _____    ______ ____
ROOT
ATOM      1  N   UNL     1      -1.095  -6.736 -31.559  0.00  0.00    -0.327 N 
ATOM      2  C   UNL     1       0.060  -7.560 -31.879  0.00  0.00    +0.012 C 
ATOM      3  C   UNL     1       0.462  -7.317 -33.299  0.00  0.00    -0.074 C 
ATOM      4  C   UNL     1       1.658  -6.922 -33.770  0.00  0.00    -0.082 C 
ATOM      5  C   UNL     1       2.892  -6.604 -32.977  0.00  0.00    +0.001 C 
ATOM      6  C   UNL     1       3.420  -5.251 -33.403  0.00  0.00    +0.004 C 
ATOM      7  N   UNL     1       3.180  -4.096 -32.880  0.00  0.00    -0.283 NA
ATOM      8  C   UNL     1       2.277  -3.984 -31.743  0.00  0.00    +0.102 C 
ATOM      9  C   UNL     1       3.049  -4.216 -30.523  0.00  0.00    -0.054 C 
ATOM     10  C   UNL     1       3.657  -4.427 -29.510  0.00  0.00    +0.036 C 
ATOM     11  N   UNL     1       4.316  -4.684 -28.373  0.00  0.00    -0.205 NA
ATOM     12  C   UNL     1       4.939  -3.686 -27.839  0.00  0.00    +0.038 C 
ATOM     13  C   UNL     1       5.713  -3.766 -26.575  0.00  0.00    -0.046 C 
ATOM     14  C   UNL     1       5.889  -4.936 -25.939  0.00  0.00    -0.071 C 
ATOM     15  C   UNL     1       6.634  -5.190 -24.657  0.00  0.00    +0.028 C 
ATOM     16  C   UNL     1       7.136  -3.971 -24.010  0.00  0.00    -0.093 C 
ATOM     17  C   UNL     1       7.539  -2.963 -23.495  0.00  0.00    -0.074 C 
ATOM     18  C   UNL     1       7.997  -1.748 -22.918  0.00  0.00    -0.009 C 
ATOM     19  C   UNL     1       8.725  -0.834 -23.590  0.00  0.00    -0.020 C 
ATOM     20  C   UNL     1       9.173   0.429 -22.905  0.00  0.00    +0.047 C 
ATOM     21 CL   UNL     1       8.002   1.739 -23.162  0.00  0.00    -0.121 Cl
ATOM     22  C   UNL     1       9.202  -1.004 -25.014  0.00  0.00    +0.092 C 
ATOM     23  O   UNL     1       8.572  -0.031 -25.840  0.00  0.00    -0.274 OA
ATOM     24 CL   UNL     1       9.051  -0.135 -27.453  0.00  0.00    +0.062 Cl
ATOM     25  H   UNL     1      -1.372  -6.900 -30.592  0.00  0.00    +0.000 HD
ATOM     26  H   UNL     1      -1.868  -6.979 -32.179  0.00  0.00    +0.000 HD
ATOM     27  H   UNL     1      -0.857  -5.752 -31.683  0.00  0.00    +0.000 HD
ENDROOT
TORSDOF 0
ENDMDL
MODEL 5
REMARK VINA RESULT:    -6.601      7.541      8.816
REMARK INTER + INTRA:          -6.601
REMARK INTER:                  -6.601
REMARK INTRA:                   0.000
REMARK UNBOUND:                 0.000
REMARK  Name = /home/vital/Documents/PhD_2021/Malaria_codes/scripts/../data/pdbqt_ligands/ligand_12_temp.pdb
REMARK                            x       y       z     vdW  Elec       q    Type
REMARK                         _______ _______ _______ _____ _____    ______ ____
ROOT
ATOM      1  N   UNL     1       3.558   2.846 -16.515  0.00  0.00    -0.327 N 
ATOM      2  C   UNL     1       2.434   2.978 -15.601  0.00  0.00    +0.012 C 
ATOM      3  C   UNL     1       2.294   4.409 -15.192  0.00  0.00    -0.074 C 
ATOM      4  C   UNL     1       1.219   5.208 -15.308  0.00  0.00    -0.082 C 
ATOM      5  C   UNL     1      -0.115   4.861 -15.902  0.00  0.00    +0.001 C 
ATOM      6  C   UNL     1      -0.494   5.914 -16.920  0.00  0.00    +0.004 C 
ATOM      7  N   UNL     1      -0.290   5.908 -18.195  0.00  0.00    -0.283 NA
ATOM      8  C   UNL     1       0.409   4.790 -18.816  0.00  0.00    +0.102 C 
ATOM      9  C   UNL     1      -0.571   3.747 -19.112  0.00  0.00    -0.054 C 
ATOM     10  C   UNL     1      -1.354   2.867 -19.343  0.00  0.00    +0.036 C 
ATOM     11  N   UNL     1      -2.210   1.866 -19.584  0.00  0.00    -0.205 NA
ATOM     12  C   UNL     1      -2.865   1.935 -20.696  0.00  0.00    +0.038 C 
ATOM     13  C   UNL     1      -3.848   0.918 -21.149  0.00  0.00    -0.046 C 
ATOM     14  C   UNL     1      -4.189  -0.118 -20.365  0.00  0.00    -0.071 C 
ATOM     15  C   UNL     1      -5.154  -1.230 -20.670  0.00  0.00    +0.028 C 
ATOM     16  C   UNL     1      -5.698  -1.188 -22.034  0.00  0.00    -0.093 C 
ATOM     17  C   UNL     1      -6.133  -1.138 -23.152  0.00  0.00    -0.074 C 
ATOM     18  C   UNL     1      -6.621  -1.044 -24.483  0.00  0.00    -0.009 C 
ATOM     19  C   UNL     1      -7.176   0.074 -24.994  0.00  0.00    -0.020 C 
ATOM     20  C   UNL     1      -7.671   0.092 -26.416  0.00  0.00    +0.047 C 
ATOM     21 CL   UNL     1      -6.409   0.677 -27.518  0.00  0.00    -0.121 Cl
ATOM     22  C   UNL     1      -7.410   1.344 -24.210  0.00  0.00    +0.092 C 
ATOM     23  O   UNL     1      -6.599   2.383 -24.747  0.00  0.00    -0.274 OA
ATOM     24 CL   UNL     1      -6.799   3.850 -23.940  0.00  0.00    +0.062 Cl
ATOM     25  H   UNL     1       3.655   1.871 -16.795  0.00  0.00    +0.000 HD
ATOM     26  H   UNL     1       4.412   3.154 -16.051  0.00  0.00    +0.000 HD
ATOM     27  H   UNL     1       3.393   3.422 -17.341  0.00  0.00    +0.000 HD
ENDROOT
TORSDOF 0
ENDMDL
MODEL 6
REMARK VINA RESULT:    -6.598     10.321     12.372
REMARK INTER + INTRA:          -6.598
REMARK INTER:                  -6.598
REMARK INTRA:                   0.000
REMARK UNBOUND:                 0.000
REMARK  Name = /home/vital/Documents/PhD_2021/Malaria_codes/scripts/../data/pdbqt_ligands/ligand_12_temp.pdb
REMARK                            x       y       z     vdW  Elec       q    Type
REMARK                         _______ _______ _______ _____ _____    ______ ____
ROOT
ATOM      1  N   UNL     1      -0.698  -6.424 -30.455  0.00  0.00    -0.327 N 
ATOM      2  C   UNL     1       0.384  -7.234 -30.992  0.00  0.00    +0.012 C 
ATOM      3  C   UNL     1       0.435  -7.069 -32.477  0.00  0.00    -0.074 C 
ATOM      4  C   UNL     1       1.470  -6.672 -33.237  0.00  0.00    -0.082 C 
ATOM      5  C   UNL     1       2.841  -6.271 -32.774  0.00  0.00    +0.001 C 
ATOM      6  C   UNL     1       3.199  -4.933 -33.384  0.00  0.00    +0.004 C 
ATOM      7  N   UNL     1       3.040  -3.754 -32.883  0.00  0.00    -0.283 NA
ATOM      8  C   UNL     1       2.422  -3.596 -31.574  0.00  0.00    +0.102 C 
ATOM      9  C   UNL     1       3.465  -3.730 -30.558  0.00  0.00    -0.054 C 
ATOM     10  C   UNL     1       4.301  -3.861 -29.706  0.00  0.00    +0.036 C 
ATOM     11  N   UNL     1       5.216  -4.028 -28.743  0.00  0.00    -0.205 NA
ATOM     12  C   UNL     1       5.904  -2.982 -28.425  0.00  0.00    +0.038 C 
ATOM     13  C   UNL     1       6.954  -2.962 -27.375  0.00  0.00    -0.046 C 
ATOM     14  C   UNL     1       7.321  -4.084 -26.736  0.00  0.00    -0.071 C 
ATOM     15  C   UNL     1       8.353  -4.237 -25.653  0.00  0.00    +0.028 C 
ATOM     16  C   UNL     1       8.941  -2.967 -25.209  0.00  0.00    -0.093 C 
ATOM     17  C   UNL     1       9.411  -1.918 -24.858  0.00  0.00    -0.074 C 
ATOM     18  C   UNL     1       9.939  -0.657 -24.472  0.00  0.00    -0.009 C 
ATOM     19  C   UNL     1      10.453   0.233 -25.344  0.00  0.00    -0.020 C 
ATOM     20  C   UNL     1      10.995   1.548 -24.853  0.00  0.00    +0.047 C 
ATOM     21 CL   UNL     1       9.744   2.806 -24.899  0.00  0.00    -0.121 Cl
ATOM     22  C   UNL     1      10.593  -0.012 -26.829  0.00  0.00    +0.092 C 
ATOM     23  O   UNL     1       9.748   0.889 -27.535  0.00  0.00    -0.274 OA
ATOM     24 CL   UNL     1       9.843   0.697 -29.208  0.00  0.00    +0.062 Cl
ATOM     25  H   UNL     1      -0.735  -6.534 -29.443  0.00  0.00    +0.000 HD
ATOM     26  H   UNL     1      -1.583  -6.726 -30.863  0.00  0.00    +0.000 HD
ATOM     27  H   UNL     1      -0.536  -5.443 -30.685  0.00  0.00    +0.000 HD
ENDROOT
TORSDOF 0
ENDMDL
MODEL 7
REMARK VINA RESULT:    -6.575     10.441     12.989
REMARK INTER + INTRA:          -6.575
REMARK INTER:                  -6.575
REMARK INTRA:                   0.000
REMARK UNBOUND:                 0.000
REMARK  Name = /home/vital/Documents/PhD_2021/Malaria_codes/scripts/../data/pdbqt_ligands/ligand_12_temp.pdb
REMARK                            x       y       z     vdW  Elec       q    Type
REMARK                         _______ _______ _______ _____ _____    ______ ____
ROOT
ATOM      1  N   UNL     1      12.838   5.513 -34.344  0.00  0.00    -0.327 N 
ATOM      2  C   UNL     1      12.397   6.412 -33.289  0.00  0.00    +0.012 C 
ATOM      3  C   UNL     1      11.258   7.241 -33.790  0.00  0.00    -0.074 C 
ATOM      4  C   UNL     1      10.026   7.366 -33.268  0.00  0.00    -0.082 C 
ATOM      5  C   UNL     1       9.476   6.680 -32.051  0.00  0.00    +0.001 C 
ATOM      6  C   UNL     1       8.154   6.033 -32.402  0.00  0.00    +0.004 C 
ATOM      7  N   UNL     1       7.930   4.821 -32.785  0.00  0.00    -0.283 NA
ATOM      8  C   UNL     1       9.041   3.893 -32.952  0.00  0.00    +0.102 C 
ATOM      9  C   UNL     1       9.320   3.279 -31.655  0.00  0.00    -0.054 C 
ATOM     10  C   UNL     1       9.583   2.779 -30.596  0.00  0.00    +0.036 C 
ATOM     11  N   UNL     1       9.905   2.231 -29.417  0.00  0.00    -0.205 NA
ATOM     12  C   UNL     1       9.226   1.188 -29.071  0.00  0.00    +0.038 C 
ATOM     13  C   UNL     1       9.441   0.433 -27.811  0.00  0.00    -0.046 C 
ATOM     14  C   UNL     1      10.322   0.855 -26.889  0.00  0.00    -0.071 C 
ATOM     15  C   UNL     1      10.663   0.211 -25.573  0.00  0.00    +0.028 C 
ATOM     16  C   UNL     1       9.996  -1.078 -25.351  0.00  0.00    -0.093 C 
ATOM     17  C   UNL     1       9.442  -2.131 -25.187  0.00  0.00    -0.074 C 
ATOM     18  C   UNL     1       8.769  -3.372 -25.033  0.00  0.00    -0.009 C 
ATOM     19  C   UNL     1       7.436  -3.519 -25.178  0.00  0.00    -0.020 C 
ATOM     20  C   UNL     1       6.799  -4.870 -24.997  0.00  0.00    +0.047 C 
ATOM     21 CL   UNL     1       6.673  -5.725 -26.547  0.00  0.00    -0.121 Cl
ATOM     22  C   UNL     1       6.479  -2.383 -25.458  0.00  0.00    +0.092 C 
ATOM     23  O   UNL     1       5.900  -2.565 -26.746  0.00  0.00    -0.274 OA
ATOM     24 CL   UNL     1       4.806  -1.346 -27.145  0.00  0.00    +0.062 Cl
ATOM     25  H   UNL     1      13.615   4.946 -34.005  0.00  0.00    +0.000 HD
ATOM     26  H   UNL     1      13.142   6.059 -35.151  0.00  0.00    +0.000 HD
ATOM     27  H   UNL     1      12.067   4.904 -34.618  0.00  0.00    +0.000 HD
ENDROOT
TORSDOF 0
ENDMDL
MODEL 8
REMARK VINA RESULT:    -6.569      6.399      7.327
REMARK INTER + INTRA:          -6.569
REMARK INTER:                  -6.569
REMARK INTRA:                   0.000
REMARK UNBOUND:                 0.000
REMARK  Name = /home/vital/Documents/PhD_2021/Malaria_codes/scripts/../data/pdbqt_ligands/ligand_12_temp.pdb
REMARK                            x       y       z     vdW  Elec       q    Type
REMARK                         _______ _______ _______ _____ _____    ______ ____
ROOT
ATOM      1  N   UNL     1       3.792   3.800 -16.342  0.00  0.00    -0.327 N 
ATOM      2  C   UNL     1       2.634   3.698 -15.466  0.00  0.00    +0.012 C 
ATOM      3  C   UNL     1       2.107   5.069 -15.184  0.00  0.00    -0.074 C 
ATOM      4  C   UNL     1       0.866   5.543 -15.390  0.00  0.00    -0.082 C 
ATOM      5  C   UNL     1      -0.303   4.812 -15.982  0.00  0.00    +0.001 C 
ATOM      6  C   UNL     1      -0.899   5.647 -17.094  0.00  0.00    +0.004 C 
ATOM      7  N   UNL     1      -0.645   5.599 -18.359  0.00  0.00    -0.283 NA
ATOM      8  C   UNL     1       0.349   4.663 -18.867  0.00  0.00    +0.102 C 
ATOM      9  C   UNL     1      -0.311   3.378 -19.096  0.00  0.00    -0.054 C 
ATOM     10  C   UNL     1      -0.826   2.308 -19.269  0.00  0.00    +0.036 C 
ATOM     11  N   UNL     1      -1.379   1.101 -19.445  0.00  0.00    -0.205 NA
ATOM     12  C   UNL     1      -1.979   0.910 -20.573  0.00  0.00    +0.038 C 
ATOM     13  C   UNL     1      -2.641  -0.362 -20.960  0.00  0.00    -0.046 C 
ATOM     14  C   UNL     1      -2.733  -1.389 -20.100  0.00  0.00    -0.071 C 
ATOM     15  C   UNL     1      -3.359  -2.737 -20.331  0.00  0.00    +0.028 C 
ATOM     16  C   UNL     1      -3.835  -2.943 -21.705  0.00  0.00    -0.093 C 
ATOM     17  C   UNL     1      -4.218  -3.094 -22.833  0.00  0.00    -0.074 C 
ATOM     18  C   UNL     1      -4.655  -3.233 -24.178  0.00  0.00    -0.009 C 
ATOM     19  C   UNL     1      -5.461  -2.344 -24.794  0.00  0.00    -0.020 C 
ATOM     20  C   UNL     1      -5.880  -2.565 -26.222  0.00  0.00    +0.047 C 
ATOM     21 CL   UNL     1      -4.769  -1.751 -27.342  0.00  0.00    -0.121 Cl
ATOM     22  C   UNL     1      -6.053  -1.124 -24.125  0.00  0.00    +0.092 C 
ATOM     23  O   UNL     1      -5.519   0.048 -24.730  0.00  0.00    -0.274 OA
ATOM     24 CL   UNL     1      -6.131   1.466 -24.054  0.00  0.00    +0.062 Cl
ATOM     25  H   UNL     1       4.154   2.867 -16.536  0.00  0.00    +0.000 HD
ATOM     26  H   UNL     1       4.515   4.356 -15.885  0.00  0.00    +0.000 HD
ATOM     27  H   UNL     1       3.519   4.248 -17.216  0.00  0.00    +0.000 HD
ENDROOT
TORSDOF 0
ENDMDL
MODEL 9
REMARK VINA RESULT:    -6.400      6.597     10.038
REMARK INTER + INTRA:          -6.400
REMARK INTER:                  -6.400
REMARK INTRA:                   0.000
REMARK UNBOUND:                 0.000
REMARK  Name = /home/vital/Documents/PhD_2021/Malaria_codes/scripts/../data/pdbqt_ligands/ligand_12_temp.pdb
REMARK                            x       y       z     vdW  Elec       q    Type
REMARK                         _______ _______ _______ _____ _____    ______ ____
ROOT
ATOM      1  N   UNL     1      -4.544  -0.824 -25.474  0.00  0.00    -0.327 N 
ATOM      2  C   UNL     1      -5.512  -0.617 -24.408  0.00  0.00    +0.012 C 
ATOM      3  C   UNL     1      -5.811  -1.927 -23.752  0.00  0.00    -0.074 C 
ATOM      4  C   UNL     1      -5.697  -2.253 -22.452  0.00  0.00    -0.082 C 
ATOM      5  C   UNL     1      -5.216  -1.378 -21.331  0.00  0.00    +0.001 C 
ATOM      6  C   UNL     1      -4.141  -2.110 -20.558  0.00  0.00    +0.004 C 
ATOM      7  N   UNL     1      -2.861  -2.056 -20.716  0.00  0.00    -0.283 NA
ATOM      8  C   UNL     1      -2.291  -1.224 -21.767  0.00  0.00    +0.102 C 
ATOM      9  C   UNL     1      -2.140   0.133 -21.243  0.00  0.00    -0.054 C 
ATOM     10  C   UNL     1      -2.029   1.259 -20.843  0.00  0.00    +0.036 C 
ATOM     11  N   UNL     1      -1.922   2.525 -20.419  0.00  0.00    -0.205 NA
ATOM     12  C   UNL     1      -0.850   2.813 -19.758  0.00  0.00    +0.038 C 
ATOM     13  C   UNL     1      -0.541   4.162 -19.218  0.00  0.00    -0.046 C 
ATOM     14  C   UNL     1      -1.425   5.168 -19.312  0.00  0.00    -0.071 C 
ATOM     15  C   UNL     1      -1.271   6.584 -18.828  0.00  0.00    +0.028 C 
ATOM     16  C   UNL     1       0.056   6.880 -18.272  0.00  0.00    -0.093 C 
ATOM     17  C   UNL     1       1.147   7.105 -17.822  0.00  0.00    -0.074 C 
ATOM     18  C   UNL     1       2.448   7.329 -17.299  0.00  0.00    -0.009 C 
ATOM     19  C   UNL     1       3.013   6.554 -16.351  0.00  0.00    -0.020 C 
ATOM     20  C   UNL     1       4.398   6.860 -15.849  0.00  0.00    +0.047 C 
ATOM     21 CL   UNL     1       5.620   5.958 -16.769  0.00  0.00    -0.121 Cl
ATOM     22  C   UNL     1       2.321   5.391 -15.678  0.00  0.00    +0.092 C 
ATOM     23  O   UNL     1       2.989   4.183 -16.024  0.00  0.00    -0.274 OA
ATOM     24 CL   UNL     1       2.292   2.825 -15.309  0.00  0.00    +0.062 Cl
ATOM     25  H   UNL     1      -4.339   0.067 -25.924  0.00  0.00    +0.000 HD
ATOM     26  H   UNL     1      -4.930  -1.471 -26.162  0.00  0.00    +0.000 HD
ATOM     27  H   UNL     1      -3.687  -1.215 -25.084  0.00  0.00    +0.000 HD
ENDROOT
TORSDOF 0
ENDMDL
