MODEL 1
REMARK VINA RESULT:    -5.590      0.000      0.000
REMARK INTER + INTRA:          -5.590
REMARK INTER:                  -5.590
REMARK INTRA:                   0.000
REMARK UNBOUND:                 0.000
REMARK  Name = /home/vital/Documents/PhD_2021/Malaria_codes/scripts/../data/pdbqt_ligands/ligand_140_temp.pdb
REMARK                            x       y       z     vdW  Elec       q    Type
REMARK                         _______ _______ _______ _____ _____    ______ ____
ROOT
ATOM      1  C1  UNL     1       4.465  10.535 -19.258  0.00  0.00    -0.046 C 
ATOM      2  C2  UNL     1       3.713   9.256 -19.452  0.00  0.00    -0.085 C 
ATOM      3  C3  UNL     1       3.058   8.957 -20.585  0.00  0.00    -0.041 C 
ATOM      4  C4  UNL     1       2.267   7.716 -20.908  0.00  0.00    +0.082 C 
ATOM      5  N1  UNL     1       1.750   7.733 -22.111  0.00  0.00    -0.185 NA
ATOM      6  N2  UNL     1       0.991   6.663 -22.480  0.00  0.00    -0.241 N 
ATOM      7  C5  UNL     1      -0.389   6.876 -22.614  0.00  0.00    +0.034 C 
ATOM      8  C6  UNL     1      -1.284   6.399 -21.718  0.00  0.00    +0.005 C 
ATOM      9  C7  UNL     1      -2.725   6.633 -21.814  0.00  0.00    -0.015 C 
ATOM     10  C8  UNL     1      -3.598   6.187 -22.746  0.00  0.00    +0.111 C 
ATOM     11  N3  UNL     1      -4.988   6.188 -22.404  0.00  0.00    -0.216 N 
ATOM     12  N4  UNL     1      -5.873   5.247 -22.951  0.00  0.00    -0.135 NA
ATOM     13  C9  UNL     1      -5.299   4.683 -23.806  0.00  0.00    +0.022 C 
ATOM     14  C10 UNL     1      -4.175   4.616 -24.455  0.00  0.00    +0.061 C 
ATOM     15  N5  UNL     1      -3.226   5.564 -23.997  0.00  0.00    -0.286 N 
ATOM     16  C11 UNL     1      -2.680   6.451 -25.061  0.00  0.00    +0.019 C 
ATOM     17  C12 UNL     1      -1.184   6.706 -24.977  0.00  0.00    -0.032 C 
ATOM     18  C13 UNL     1      -0.801   7.653 -23.843  0.00  0.00    -0.011 C 
ATOM     19  C14 UNL     1      -0.786   5.597 -20.569  0.00  0.00    +0.002 C 
ATOM     20  C15 UNL     1      -0.788   4.250 -20.709  0.00  0.00    -0.078 C 
ATOM     21  C16 UNL     1      -0.392   3.217 -19.702  0.00  0.00    -0.046 C 
ATOM     22  C17 UNL     1      -0.415   6.243 -19.299  0.00  0.00    +0.053 C 
ATOM     23  N6  UNL     1      -1.458   6.436 -18.373  0.00  0.00    -0.320 N 
ATOM     24  C18 UNL     1      -2.563   5.544 -18.171  0.00  0.00    +0.108 C 
ATOM     25  O1  UNL     1      -3.444   6.228 -17.314  0.00  0.00    -0.377 OA
ATOM     26  C19 UNL     1       0.846   6.685 -19.049  0.00  0.00    +0.063 C 
ATOM     27 CL1  UNL     1       1.116   7.474 -17.481  0.00  0.00    -0.084 Cl
ATOM     28  C20 UNL     1       2.127   6.607 -19.853  0.00  0.00    +0.114 C 
ATOM     29 CL2  UNL     1       2.543   4.996 -20.495  0.00  0.00    -0.109 Cl
ATOM     30  H   UNL     1       1.393   5.780 -22.645  0.00  0.00    +0.000 HD
ATOM     31  H   UNL     1      -5.329   6.862 -21.773  0.00  0.00    +0.000 HD
ATOM     32  H   UNL     1      -1.426   7.250 -17.821  0.00  0.00    +0.000 HD
ATOM     33  H   UNL     1      -2.985   6.453 -16.490  0.00  0.00    +0.000 HD
ENDROOT
TORSDOF 0
ENDMDL
MODEL 2
REMARK VINA RESULT:    -5.353      3.606      6.244
REMARK INTER + INTRA:          -5.353
REMARK INTER:                  -5.353
REMARK INTRA:                   0.000
REMARK UNBOUND:                 0.000
REMARK  Name = /home/vital/Documents/PhD_2021/Malaria_codes/scripts/../data/pdbqt_ligands/ligand_140_temp.pdb
REMARK                            x       y       z     vdW  Elec       q    Type
REMARK                         _______ _______ _______ _____ _____    ______ ____
ROOT
ATOM      1  C1  UNL     1       0.833  10.430 -26.343  0.00  0.00    -0.046 C 
ATOM      2  C2  UNL     1       1.566   9.631 -25.311  0.00  0.00    -0.085 C 
ATOM      3  C3  UNL     1       0.976   8.684 -24.566  0.00  0.00    -0.041 C 
ATOM      4  C4  UNL     1       1.592   7.816 -23.499  0.00  0.00    +0.082 C 
ATOM      5  N1  UNL     1       0.739   6.982 -22.958  0.00  0.00    -0.185 NA
ATOM      6  N2  UNL     1       1.201   6.176 -21.961  0.00  0.00    -0.241 N 
ATOM      7  C5  UNL     1       0.738   6.439 -20.663  0.00  0.00    +0.034 C 
ATOM      8  C6  UNL     1       1.525   6.998 -19.714  0.00  0.00    +0.005 C 
ATOM      9  C7  UNL     1       1.060   7.313 -18.363  0.00  0.00    -0.015 C 
ATOM     10  C8  UNL     1       0.674   6.469 -17.379  0.00  0.00    +0.111 C 
ATOM     11  N3  UNL     1       0.671   6.974 -16.039  0.00  0.00    -0.216 N 
ATOM     12  N4  UNL     1       0.903   6.130 -14.943  0.00  0.00    -0.135 NA
ATOM     13  C9  UNL     1       0.883   5.026 -15.341  0.00  0.00    +0.022 C 
ATOM     14  C10 UNL     1       0.701   4.289 -16.396  0.00  0.00    +0.061 C 
ATOM     15  N5  UNL     1       0.418   5.057 -17.553  0.00  0.00    -0.286 N 
ATOM     16  C11 UNL     1      -0.841   4.677 -18.250  0.00  0.00    +0.019 C 
ATOM     17  C12 UNL     1      -0.747   4.639 -19.768  0.00  0.00    -0.032 C 
ATOM     18  C13 UNL     1      -0.692   6.028 -20.398  0.00  0.00    -0.011 C 
ATOM     19  C14 UNL     1       2.938   7.316 -20.055  0.00  0.00    +0.002 C 
ATOM     20  C15 UNL     1       3.872   6.390 -19.738  0.00  0.00    -0.078 C 
ATOM     21  C16 UNL     1       5.355   6.475 -19.921  0.00  0.00    -0.046 C 
ATOM     22  C17 UNL     1       3.304   8.630 -20.608  0.00  0.00    +0.053 C 
ATOM     23  N6  UNL     1       3.577   9.644 -19.672  0.00  0.00    -0.320 N 
ATOM     24  C18 UNL     1       4.210   9.449 -18.399  0.00  0.00    +0.108 C 
ATOM     25  O1  UNL     1       4.091  10.681 -17.729  0.00  0.00    -0.377 OA
ATOM     26  C19 UNL     1       3.324   8.876 -21.946  0.00  0.00    +0.063 C 
ATOM     27 CL1  UNL     1       3.755  10.524 -22.446  0.00  0.00    -0.084 Cl
ATOM     28  C20 UNL     1       3.078   7.984 -23.145  0.00  0.00    +0.114 C 
ATOM     29 CL2  UNL     1       3.963   6.436 -23.157  0.00  0.00    -0.109 Cl
ATOM     30  H   UNL     1       1.832   5.443 -22.143  0.00  0.00    +0.000 HD
ATOM     31  H   UNL     1       0.502   7.931 -15.885  0.00  0.00    +0.000 HD
ATOM     32  H   UNL     1       3.312  10.562 -19.909  0.00  0.00    +0.000 HD
ATOM     33  H   UNL     1       4.512  11.378 -18.256  0.00  0.00    +0.000 HD
ENDROOT
TORSDOF 0
ENDMDL
MODEL 3
REMARK VINA RESULT:    -5.115     13.589     16.461
REMARK INTER + INTRA:          -5.115
REMARK INTER:                  -5.115
REMARK INTRA:                   0.000
REMARK UNBOUND:                 0.000
REMARK  Name = /home/vital/Documents/PhD_2021/Malaria_codes/scripts/../data/pdbqt_ligands/ligand_140_temp.pdb
REMARK                            x       y       z     vdW  Elec       q    Type
REMARK                         _______ _______ _______ _____ _____    ______ ____
ROOT
ATOM      1  C1  UNL     1       1.661   8.744 -36.342  0.00  0.00    -0.046 C 
ATOM      2  C2  UNL     1       2.587   8.166 -35.319  0.00  0.00    -0.085 C 
ATOM      3  C3  UNL     1       3.822   8.642 -35.099  0.00  0.00    -0.041 C 
ATOM      4  C4  UNL     1       4.849   8.155 -34.110  0.00  0.00    +0.082 C 
ATOM      5  N1  UNL     1       5.963   8.844 -34.143  0.00  0.00    -0.185 NA
ATOM      6  N2  UNL     1       6.963   8.455 -33.302  0.00  0.00    -0.241 N 
ATOM      7  C5  UNL     1       8.095   7.869 -33.886  0.00  0.00    +0.034 C 
ATOM      8  C6  UNL     1       8.357   6.545 -33.788  0.00  0.00    +0.005 C 
ATOM      9  C7  UNL     1       9.513   5.902 -34.414  0.00  0.00    -0.015 C 
ATOM     10  C8  UNL     1      10.827   6.063 -34.139  0.00  0.00    +0.111 C 
ATOM     11  N3  UNL     1      11.724   5.036 -34.577  0.00  0.00    -0.216 N 
ATOM     12  N4  UNL     1      12.906   4.755 -33.875  0.00  0.00    -0.135 NA
ATOM     13  C9  UNL     1      13.052   5.607 -33.079  0.00  0.00    +0.022 C 
ATOM     14  C10 UNL     1      12.557   6.717 -32.622  0.00  0.00    +0.061 C 
ATOM     15  N5  UNL     1      11.376   7.107 -33.301  0.00  0.00    -0.286 N 
ATOM     16  C11 UNL     1      11.419   8.481 -33.872  0.00  0.00    +0.019 C 
ATOM     17  C12 UNL     1      10.143   9.289 -33.694  0.00  0.00    -0.032 C 
ATOM     18  C13 UNL     1       9.012   8.830 -34.609  0.00  0.00    -0.011 C 
ATOM     19  C14 UNL     1       7.424   5.689 -33.007  0.00  0.00    +0.002 C 
ATOM     20  C15 UNL     1       7.738   5.456 -31.712  0.00  0.00    -0.078 C 
ATOM     21  C16 UNL     1       7.009   4.600 -30.725  0.00  0.00    -0.046 C 
ATOM     22  C17 UNL     1       6.274   5.038 -33.655  0.00  0.00    +0.053 C 
ATOM     23  N6  UNL     1       6.520   3.782 -34.240  0.00  0.00    -0.320 N 
ATOM     24  C18 UNL     1       7.426   2.793 -33.731  0.00  0.00    +0.108 C 
ATOM     25  O1  UNL     1       7.502   1.805 -34.729  0.00  0.00    -0.377 OA
ATOM     26  C19 UNL     1       5.054   5.634 -33.741  0.00  0.00    +0.063 C 
ATOM     27 CL1  UNL     1       3.783   4.726 -34.586  0.00  0.00    -0.084 Cl
ATOM     28  C20 UNL     1       4.529   6.951 -33.211  0.00  0.00    +0.114 C 
ATOM     29 CL2  UNL     1       4.853   7.279 -31.487  0.00  0.00    -0.109 Cl
ATOM     30  H   UNL     1       6.893   8.579 -32.328  0.00  0.00    +0.000 HD
ATOM     31  H   UNL     1      11.508   4.519 -35.385  0.00  0.00    +0.000 HD
ATOM     32  H   UNL     1       6.031   3.564 -35.066  0.00  0.00    +0.000 HD
ATOM     33  H   UNL     1       6.616   1.450 -34.901  0.00  0.00    +0.000 HD
ENDROOT
TORSDOF 0
ENDMDL
MODEL 4
REMARK VINA RESULT:    -5.059      5.791      7.840
REMARK INTER + INTRA:          -5.059
REMARK INTER:                  -5.059
REMARK INTRA:                   0.000
REMARK UNBOUND:                 0.000
REMARK  Name = /home/vital/Documents/PhD_2021/Malaria_codes/scripts/../data/pdbqt_ligands/ligand_140_temp.pdb
REMARK                            x       y       z     vdW  Elec       q    Type
REMARK                         _______ _______ _______ _____ _____    ______ ____
ROOT
ATOM      1  C1  UNL     1      10.117   8.191 -12.845  0.00  0.00    -0.046 C 
ATOM      2  C2  UNL     1       9.233   7.240 -13.589  0.00  0.00    -0.085 C 
ATOM      3  C3  UNL     1       8.286   7.643 -14.448  0.00  0.00    -0.041 C 
ATOM      4  C4  UNL     1       7.333   6.797 -15.254  0.00  0.00    +0.082 C 
ATOM      5  N1  UNL     1       6.527   7.503 -16.007  0.00  0.00    -0.185 NA
ATOM      6  N2  UNL     1       5.609   6.823 -16.749  0.00  0.00    -0.241 N 
ATOM      7  C5  UNL     1       4.265   6.940 -16.365  0.00  0.00    +0.034 C 
ATOM      8  C6  UNL     1       3.594   5.930 -15.766  0.00  0.00    +0.005 C 
ATOM      9  C7  UNL     1       2.202   6.036 -15.325  0.00  0.00    -0.015 C 
ATOM     10  C8  UNL     1       1.083   6.180 -16.072  0.00  0.00    +0.111 C 
ATOM     11  N3  UNL     1      -0.166   5.837 -15.463  0.00  0.00    -0.216 N 
ATOM     12  N4  UNL     1      -1.240   5.355 -16.226  0.00  0.00    -0.135 NA
ATOM     13  C9  UNL     1      -0.957   5.496 -17.357  0.00  0.00    +0.022 C 
ATOM     14  C10 UNL     1      -0.049   5.951 -18.167  0.00  0.00    +0.061 C 
ATOM     15  N5  UNL     1       1.065   6.499 -17.482  0.00  0.00    -0.286 N 
ATOM     16  C11 UNL     1       1.393   7.900 -17.864  0.00  0.00    +0.019 C 
ATOM     17  C12 UNL     1       2.876   8.190 -18.025  0.00  0.00    -0.032 C 
ATOM     18  C13 UNL     1       3.619   8.267 -16.695  0.00  0.00    -0.011 C 
ATOM     19  C14 UNL     1       4.300   4.642 -15.534  0.00  0.00    +0.002 C 
ATOM     20  C15 UNL     1       4.145   3.676 -16.470  0.00  0.00    -0.078 C 
ATOM     21  C16 UNL     1       4.696   2.286 -16.460  0.00  0.00    -0.046 C 
ATOM     22  C17 UNL     1       5.039   4.399 -14.284  0.00  0.00    +0.053 C 
ATOM     23  N6  UNL     1       4.292   3.880 -13.211  0.00  0.00    -0.320 N 
ATOM     24  C18 UNL     1       3.203   2.953 -13.330  0.00  0.00    +0.108 C 
ATOM     25  O1  UNL     1       2.635   2.875 -12.045  0.00  0.00    -0.377 OA
ATOM     26  C19 UNL     1       6.356   4.710 -14.146  0.00  0.00    +0.063 C 
ATOM     27 CL1  UNL     1       7.089   4.385 -12.562  0.00  0.00    -0.084 Cl
ATOM     28  C20 UNL     1       7.374   5.267 -15.119  0.00  0.00    +0.114 C 
ATOM     29 CL2  UNL     1       7.470   4.443 -16.699  0.00  0.00    -0.109 Cl
ATOM     30  H   UNL     1       5.877   6.273 -17.520  0.00  0.00    +0.000 HD
ATOM     31  H   UNL     1      -0.274   5.942 -14.490  0.00  0.00    +0.000 HD
ATOM     32  H   UNL     1       4.535   4.178 -12.305  0.00  0.00    +0.000 HD
ATOM     33  H   UNL     1       3.309   2.586 -11.411  0.00  0.00    +0.000 HD
ENDROOT
TORSDOF 0
ENDMDL
MODEL 5
REMARK VINA RESULT:    -4.821     12.829     15.201
REMARK INTER + INTRA:          -4.821
REMARK INTER:                  -4.821
REMARK INTRA:                   0.000
REMARK UNBOUND:                 0.000
REMARK  Name = /home/vital/Documents/PhD_2021/Malaria_codes/scripts/../data/pdbqt_ligands/ligand_140_temp.pdb
REMARK                            x       y       z     vdW  Elec       q    Type
REMARK                         _______ _______ _______ _____ _____    ______ ____
ROOT
ATOM      1  C1  UNL     1       2.171   5.305 -33.476  0.00  0.00    -0.046 C 
ATOM      2  C2  UNL     1       1.518   4.044 -33.005  0.00  0.00    -0.085 C 
ATOM      3  C3  UNL     1       2.212   2.956 -32.637  0.00  0.00    -0.041 C 
ATOM      4  C4  UNL     1       1.683   1.631 -32.149  0.00  0.00    +0.082 C 
ATOM      5  N1  UNL     1       2.630   0.772 -31.866  0.00  0.00    -0.185 NA
ATOM      6  N2  UNL     1       2.245  -0.466 -31.446  0.00  0.00    -0.241 N 
ATOM      7  C5  UNL     1       2.464  -1.535 -32.326  0.00  0.00    +0.034 C 
ATOM      8  C6  UNL     1       1.454  -2.141 -32.993  0.00  0.00    +0.005 C 
ATOM      9  C7  UNL     1       1.656  -3.237 -33.942  0.00  0.00    -0.015 C 
ATOM     10  C8  UNL     1       2.099  -4.493 -33.707  0.00  0.00    +0.111 C 
ATOM     11  N3  UNL     1       1.813  -5.489 -34.695  0.00  0.00    -0.216 N 
ATOM     12  N4  UNL     1       1.645  -6.837 -34.342  0.00  0.00    -0.135 NA
ATOM     13  C9  UNL     1       1.973  -6.948 -33.220  0.00  0.00    +0.022 C 
ATOM     14  C10 UNL     1       2.454  -6.312 -32.195  0.00  0.00    +0.061 C 
ATOM     15  N5  UNL     1       2.696  -4.942 -32.469  0.00  0.00    -0.286 N 
ATOM     16  C11 UNL     1       4.087  -4.496 -32.187  0.00  0.00    +0.019 C 
ATOM     17  C12 UNL     1       4.200  -3.138 -31.512  0.00  0.00    -0.032 C 
ATOM     18  C13 UNL     1       3.905  -1.975 -32.454  0.00  0.00    -0.011 C 
ATOM     19  C14 UNL     1       0.062  -1.673 -32.759  0.00  0.00    +0.002 C 
ATOM     20  C15 UNL     1      -0.665  -2.339 -31.831  0.00  0.00    -0.078 C 
ATOM     21  C16 UNL     1      -2.090  -2.112 -31.438  0.00  0.00    -0.046 C 
ATOM     22  C17 UNL     1      -0.527  -0.606 -33.584  0.00  0.00    +0.053 C 
ATOM     23  N6  UNL     1      -1.145  -1.016 -34.780  0.00  0.00    -0.320 N 
ATOM     24  C18 UNL     1      -1.873  -2.239 -34.960  0.00  0.00    +0.108 C 
ATOM     25  O1  UNL     1      -2.130  -2.322 -36.341  0.00  0.00    -0.377 OA
ATOM     26  C19 UNL     1      -0.432   0.709 -33.249  0.00  0.00    +0.063 C 
ATOM     27 CL1  UNL     1      -1.166   1.871 -34.373  0.00  0.00    -0.084 Cl
ATOM     28  C20 UNL     1       0.166   1.409 -32.047  0.00  0.00    +0.114 C 
ATOM     29 CL2  UNL     1      -0.326   0.774 -30.454  0.00  0.00    -0.109 Cl
ATOM     30  H   UNL     1       1.831  -0.603 -30.563  0.00  0.00    +0.000 HD
ATOM     31  H   UNL     1       1.733  -5.224 -35.640  0.00  0.00    +0.000 HD
ATOM     32  H   UNL     1      -1.073  -0.414 -35.556  0.00  0.00    +0.000 HD
ATOM     33  H   UNL     1      -2.631  -1.541 -36.624  0.00  0.00    +0.000 HD
ENDROOT
TORSDOF 0
ENDMDL
MODEL 6
REMARK VINA RESULT:    -4.679      3.193      5.668
REMARK INTER + INTRA:          -4.679
REMARK INTER:                  -4.679
REMARK INTRA:                   0.000
REMARK UNBOUND:                 0.000
REMARK  Name = /home/vital/Documents/PhD_2021/Malaria_codes/scripts/../data/pdbqt_ligands/ligand_140_temp.pdb
REMARK                            x       y       z     vdW  Elec       q    Type
REMARK                         _______ _______ _______ _____ _____    ______ ____
ROOT
ATOM      1  C1  UNL     1       1.728   3.871 -13.331  0.00  0.00    -0.046 C 
ATOM      2  C2  UNL     1       1.937   4.911 -14.387  0.00  0.00    -0.085 C 
ATOM      3  C3  UNL     1       1.045   5.154 -15.360  0.00  0.00    -0.041 C 
ATOM      4  C4  UNL     1       1.133   6.162 -16.476  0.00  0.00    +0.082 C 
ATOM      5  N1  UNL     1       0.086   6.150 -17.264  0.00  0.00    -0.185 NA
ATOM      6  N2  UNL     1       0.091   7.009 -18.322  0.00  0.00    -0.241 N 
ATOM      7  C5  UNL     1       0.220   6.447 -19.600  0.00  0.00    +0.034 C 
ATOM      8  C6  UNL     1       1.360   6.550 -20.323  0.00  0.00    +0.005 C 
ATOM      9  C7  UNL     1       1.534   5.945 -21.644  0.00  0.00    -0.015 C 
ATOM     10  C8  UNL     1       0.909   6.246 -22.805  0.00  0.00    +0.111 C 
ATOM     11  N3  UNL     1       1.536   5.825 -24.022  0.00  0.00    -0.216 N 
ATOM     12  N4  UNL     1       1.373   6.549 -25.213  0.00  0.00    -0.135 NA
ATOM     13  C9  UNL     1       0.532   7.347 -25.025  0.00  0.00    +0.022 C 
ATOM     14  C10 UNL     1      -0.319   7.795 -24.152  0.00  0.00    +0.061 C 
ATOM     15  N5  UNL     1      -0.257   7.093 -22.922  0.00  0.00    -0.286 N 
ATOM     16  C11 UNL     1      -1.557   6.524 -22.473  0.00  0.00    +0.019 C 
ATOM     17  C12 UNL     1      -1.845   6.678 -20.988  0.00  0.00    -0.032 C 
ATOM     18  C13 UNL     1      -1.013   5.741 -20.117  0.00  0.00    -0.011 C 
ATOM     19  C14 UNL     1       2.501   7.313 -19.752  0.00  0.00    +0.002 C 
ATOM     20  C15 UNL     1       2.613   8.614 -20.106  0.00  0.00    -0.078 C 
ATOM     21  C16 UNL     1       3.683   9.587 -19.721  0.00  0.00    -0.046 C 
ATOM     22  C17 UNL     1       3.522   6.643 -18.929  0.00  0.00    +0.053 C 
ATOM     23  N6  UNL     1       4.598   6.063 -19.625  0.00  0.00    -0.320 N 
ATOM     24  C18 UNL     1       5.193   6.590 -20.819  0.00  0.00    +0.108 C 
ATOM     25  O1  UNL     1       6.080   5.593 -21.267  0.00  0.00    -0.377 OA
ATOM     26  C19 UNL     1       3.410   6.534 -17.577  0.00  0.00    +0.063 C 
ATOM     27 CL1  UNL     1       4.712   5.666 -16.739  0.00  0.00    -0.084 Cl
ATOM     28  C20 UNL     1       2.377   7.055 -16.600  0.00  0.00    +0.114 C 
ATOM     29 CL2  UNL     1       1.966   8.784 -16.752  0.00  0.00    -0.109 Cl
ATOM     30  H   UNL     1       0.007   7.982 -18.194  0.00  0.00    +0.000 HD
ATOM     31  H   UNL     1       2.091   5.013 -24.022  0.00  0.00    +0.000 HD
ATOM     32  H   UNL     1       4.973   5.228 -19.263  0.00  0.00    +0.000 HD
ATOM     33  H   UNL     1       6.731   5.404 -20.573  0.00  0.00    +0.000 HD
ENDROOT
TORSDOF 0
ENDMDL
MODEL 7
REMARK VINA RESULT:    -4.513      5.011      6.834
REMARK INTER + INTRA:          -4.513
REMARK INTER:                  -4.513
REMARK INTRA:                   0.000
REMARK UNBOUND:                 0.000
REMARK  Name = /home/vital/Documents/PhD_2021/Malaria_codes/scripts/../data/pdbqt_ligands/ligand_140_temp.pdb
REMARK                            x       y       z     vdW  Elec       q    Type
REMARK                         _______ _______ _______ _____ _____    ______ ____
ROOT
ATOM      1  C1  UNL     1       7.656  10.233 -12.320  0.00  0.00    -0.046 C 
ATOM      2  C2  UNL     1       7.248   9.038 -13.122  0.00  0.00    -0.085 C 
ATOM      3  C3  UNL     1       6.517   9.126 -14.244  0.00  0.00    -0.041 C 
ATOM      4  C4  UNL     1       6.040   8.011 -15.139  0.00  0.00    +0.082 C 
ATOM      5  N1  UNL     1       5.345   8.435 -16.165  0.00  0.00    -0.185 NA
ATOM      6  N2  UNL     1       4.845   7.493 -17.013  0.00  0.00    -0.241 N 
ATOM      7  C5  UNL     1       3.456   7.302 -17.007  0.00  0.00    +0.034 C 
ATOM      8  C6  UNL     1       2.879   6.205 -16.463  0.00  0.00    +0.005 C 
ATOM      9  C7  UNL     1       1.432   5.995 -16.412  0.00  0.00    -0.015 C 
ATOM     10  C8  UNL     1       0.566   5.799 -17.433  0.00  0.00    +0.111 C 
ATOM     11  N3  UNL     1      -0.699   5.205 -17.122  0.00  0.00    -0.216 N 
ATOM     12  N4  UNL     1      -1.381   4.414 -18.059  0.00  0.00    -0.135 NA
ATOM     13  C9  UNL     1      -0.828   4.534 -19.087  0.00  0.00    +0.022 C 
ATOM     14  C10 UNL     1       0.150   5.137 -19.694  0.00  0.00    +0.061 C 
ATOM     15  N5  UNL     1       0.878   5.996 -18.832  0.00  0.00    -0.286 N 
ATOM     16  C11 UNL     1       0.986   7.400 -19.312  0.00  0.00    +0.019 C 
ATOM     17  C12 UNL     1       2.355   8.037 -19.127  0.00  0.00    -0.032 C 
ATOM     18  C13 UNL     1       2.656   8.397 -17.675  0.00  0.00    -0.011 C 
ATOM     19  C14 UNL     1       3.754   5.155 -15.878  0.00  0.00    +0.002 C 
ATOM     20  C15 UNL     1       4.085   4.112 -16.676  0.00  0.00    -0.078 C 
ATOM     21  C16 UNL     1       4.900   2.907 -16.328  0.00  0.00    -0.046 C 
ATOM     22  C17 UNL     1       4.146   5.200 -14.459  0.00  0.00    +0.053 C 
ATOM     23  N6  UNL     1       3.257   4.595 -13.551  0.00  0.00    -0.320 N 
ATOM     24  C18 UNL     1       2.476   3.420 -13.812  0.00  0.00    +0.108 C 
ATOM     25  O1  UNL     1       1.599   3.302 -12.718  0.00  0.00    -0.377 OA
ATOM     26  C19 UNL     1       5.269   5.838 -14.034  0.00  0.00    +0.063 C 
ATOM     27 CL1  UNL     1       5.577   5.827 -12.285  0.00  0.00    -0.084 Cl
ATOM     28  C20 UNL     1       6.373   6.554 -14.783  0.00  0.00    +0.114 C 
ATOM     29 CL2  UNL     1       7.089   5.662 -16.152  0.00  0.00    -0.109 Cl
ATOM     30  H   UNL     1       5.433   6.970 -17.604  0.00  0.00    +0.000 HD
ATOM     31  H   UNL     1      -1.096   5.354 -16.234  0.00  0.00    +0.000 HD
ATOM     32  H   UNL     1       3.163   5.012 -12.664  0.00  0.00    +0.000 HD
ATOM     33  H   UNL     1       2.112   3.238 -11.898  0.00  0.00    +0.000 HD
ENDROOT
TORSDOF 0
ENDMDL
MODEL 8
REMARK VINA RESULT:    -4.206     10.830     12.801
REMARK INTER + INTRA:          -4.206
REMARK INTER:                  -4.206
REMARK INTRA:                   0.000
REMARK UNBOUND:                 0.000
REMARK  Name = /home/vital/Documents/PhD_2021/Malaria_codes/scripts/../data/pdbqt_ligands/ligand_140_temp.pdb
REMARK                            x       y       z     vdW  Elec       q    Type
REMARK                         _______ _______ _______ _____ _____    ______ ____
ROOT
ATOM      1  C1  UNL     1       8.752   0.031 -16.478  0.00  0.00    -0.046 C 
ATOM      2  C2  UNL     1       8.680   0.855 -17.725  0.00  0.00    -0.085 C 
ATOM      3  C3  UNL     1       8.301   0.355 -18.911  0.00  0.00    -0.041 C 
ATOM      4  C4  UNL     1       8.188   1.068 -20.233  0.00  0.00    +0.082 C 
ATOM      5  N1  UNL     1       7.785   0.289 -21.206  0.00  0.00    -0.185 NA
ATOM      6  N2  UNL     1       7.682   0.842 -22.447  0.00  0.00    -0.241 N 
ATOM      7  C5  UNL     1       8.617   0.431 -23.408  0.00  0.00    +0.034 C 
ATOM      8  C6  UNL     1       9.624   1.233 -23.826  0.00  0.00    +0.005 C 
ATOM      9  C7  UNL     1      10.633   0.819 -24.802  0.00  0.00    -0.015 C 
ATOM     10  C8  UNL     1      10.477   0.528 -26.114  0.00  0.00    +0.111 C 
ATOM     11  N3  UNL     1      11.644   0.563 -26.942  0.00  0.00    -0.216 N 
ATOM     12  N4  UNL     1      11.561   0.894 -28.303  0.00  0.00    -0.135 NA
ATOM     13  C9  UNL     1      10.423   0.914 -28.589  0.00  0.00    +0.022 C 
ATOM     14  C10 UNL     1       9.220   0.720 -28.140  0.00  0.00    +0.061 C 
ATOM     15  N5  UNL     1       9.204   0.339 -26.774  0.00  0.00    -0.286 N 
ATOM     16  C11 UNL     1       8.478  -0.930 -26.498  0.00  0.00    +0.019 C 
ATOM     17  C12 UNL     1       7.601  -0.910 -25.256  0.00  0.00    -0.032 C 
ATOM     18  C13 UNL     1       8.401  -0.961 -23.958  0.00  0.00    -0.011 C 
ATOM     19  C14 UNL     1       9.721   2.607 -23.267  0.00  0.00    +0.002 C 
ATOM     20  C15 UNL     1       9.146   3.605 -23.979  0.00  0.00    -0.078 C 
ATOM     21  C16 UNL     1       9.139   5.070 -23.675  0.00  0.00    -0.046 C 
ATOM     22  C17 UNL     1      10.507   2.876 -22.052  0.00  0.00    +0.053 C 
ATOM     23  N6  UNL     1      11.876   3.140 -22.243  0.00  0.00    -0.320 N 
ATOM     24  C18 UNL     1      12.436   3.844 -23.360  0.00  0.00    +0.108 C 
ATOM     25  O1  UNL     1      13.830   3.693 -23.237  0.00  0.00    -0.377 OA
ATOM     26  C19 UNL     1       9.964   2.816 -20.806  0.00  0.00    +0.063 C 
ATOM     27 CL1  UNL     1      11.058   3.133 -19.444  0.00  0.00    -0.084 Cl
ATOM     28  C20 UNL     1       8.550   2.559 -20.327  0.00  0.00    +0.114 C 
ATOM     29 CL2  UNL     1       7.275   3.524 -21.117  0.00  0.00    -0.109 Cl
ATOM     30  H   UNL     1       6.982   1.501 -22.660  0.00  0.00    +0.000 HD
ATOM     31  H   UNL     1      12.522   0.352 -26.549  0.00  0.00    +0.000 HD
ATOM     32  H   UNL     1      12.500   2.814 -21.554  0.00  0.00    +0.000 HD
ATOM     33  H   UNL     1      14.120   4.049 -22.383  0.00  0.00    +0.000 HD
ENDROOT
TORSDOF 0
ENDMDL
MODEL 9
REMARK VINA RESULT:    -4.081      3.352      5.603
REMARK INTER + INTRA:          -4.081
REMARK INTER:                  -4.081
REMARK INTRA:                   0.000
REMARK UNBOUND:                 0.000
REMARK  Name = /home/vital/Documents/PhD_2021/Malaria_codes/scripts/../data/pdbqt_ligands/ligand_140_temp.pdb
REMARK                            x       y       z     vdW  Elec       q    Type
REMARK                         _______ _______ _______ _____ _____    ______ ____
ROOT
ATOM      1  C1  UNL     1       2.858   3.834 -12.818  0.00  0.00    -0.046 C 
ATOM      2  C2  UNL     1       2.822   4.841 -13.924  0.00  0.00    -0.085 C 
ATOM      3  C3  UNL     1       1.749   5.026 -14.709  0.00  0.00    -0.041 C 
ATOM      4  C4  UNL     1       1.582   5.996 -15.850  0.00  0.00    +0.082 C 
ATOM      5  N1  UNL     1       0.402   5.929 -16.415  0.00  0.00    -0.185 NA
ATOM      6  N2  UNL     1       0.171   6.749 -17.478  0.00  0.00    -0.241 N 
ATOM      7  C5  UNL     1       0.066   6.146 -18.739  0.00  0.00    +0.034 C 
ATOM      8  C6  UNL     1       1.037   6.254 -19.676  0.00  0.00    +0.005 C 
ATOM      9  C7  UNL     1       0.969   5.607 -20.987  0.00  0.00    -0.015 C 
ATOM     10  C8  UNL     1       0.118   5.850 -22.010  0.00  0.00    +0.111 C 
ATOM     11  N3  UNL     1       0.507   5.403 -23.314  0.00  0.00    -0.216 N 
ATOM     12  N4  UNL     1       0.091   6.080 -24.470  0.00  0.00    -0.135 NA
ATOM     13  C9  UNL     1      -0.723   6.861 -24.143  0.00  0.00    +0.022 C 
ATOM     14  C10 UNL     1      -1.401   7.317 -23.134  0.00  0.00    +0.061 C 
ATOM     15  N5  UNL     1      -1.076   6.662 -21.920  0.00  0.00    -0.286 N 
ATOM     16  C11 UNL     1      -2.242   6.074 -21.206  0.00  0.00    +0.019 C 
ATOM     17  C12 UNL     1      -2.238   6.273 -19.699  0.00  0.00    -0.032 C 
ATOM     18  C13 UNL     1      -1.221   5.390 -18.982  0.00  0.00    -0.011 C 
ATOM     19  C14 UNL     1       2.243   7.066 -19.364  0.00  0.00    +0.002 C 
ATOM     20  C15 UNL     1       2.240   8.357 -19.772  0.00  0.00    -0.078 C 
ATOM     21  C16 UNL     1       3.332   9.370 -19.634  0.00  0.00    -0.046 C 
ATOM     22  C17 UNL     1       3.426   6.453 -18.738  0.00  0.00    +0.053 C 
ATOM     23  N6  UNL     1       4.364   5.878 -19.616  0.00  0.00    -0.320 N 
ATOM     24  C18 UNL     1       4.695   6.377 -20.920  0.00  0.00    +0.108 C 
ATOM     25  O1  UNL     1       5.509   5.389 -21.503  0.00  0.00    -0.377 OA
ATOM     26  C19 UNL     1       3.586   6.389 -17.389  0.00  0.00    +0.063 C 
ATOM     27 CL1  UNL     1       5.055   5.586 -16.798  0.00  0.00    -0.084 Cl
ATOM     28  C20 UNL     1       2.748   6.917 -16.243  0.00  0.00    +0.114 C 
ATOM     29 CL2  UNL     1       2.258   8.628 -16.362  0.00  0.00    -0.109 Cl
ATOM     30  H   UNL     1       0.082   7.724 -17.365  0.00  0.00    +0.000 HD
ATOM     31  H   UNL     1       1.079   4.606 -23.400  0.00  0.00    +0.000 HD
ATOM     32  H   UNL     1       4.830   5.066 -19.311  0.00  0.00    +0.000 HD
ATOM     33  H   UNL     1       6.290   5.242 -20.947  0.00  0.00    +0.000 HD
ENDROOT
TORSDOF 0
ENDMDL
