MODEL 1
REMARK VINA RESULT:    -4.839      0.000      0.000
REMARK INTER + INTRA:          -4.839
REMARK INTER:                  -4.839
REMARK INTRA:                   0.000
REMARK UNBOUND:                 0.000
REMARK  Name = /home/vital/Documents/PhD_2021/Malaria_codes/scripts/../data/pdbqt_ligands/ligand_362_temp.pdb
REMARK                            x       y       z     vdW  Elec       q    Type
REMARK                         _______ _______ _______ _____ _____    ______ ____
ROOT
ATOM      1  N   UNL     1      -2.137  -1.059 -18.334  0.00  0.00    -0.327 N 
ATOM      2  C   UNL     1      -3.132  -1.922 -18.946  0.00  0.00    +0.012 C 
ATOM      3  C   UNL     1      -4.098  -1.106 -19.746  0.00  0.00    -0.073 C 
ATOM      4  C   UNL     1      -4.268  -1.229 -21.075  0.00  0.00    -0.065 C 
ATOM      5  C   UNL     1      -5.256  -0.427 -21.894  0.00  0.00    +0.062 C 
ATOM      6  C   UNL     1      -6.248  -1.405 -22.558  0.00  0.00    +0.064 C 
ATOM      7  N   UNL     1      -7.382  -0.677 -23.121  0.00  0.00    -0.267 N 
ATOM      8  C   UNL     1      -7.165   0.045 -24.164  0.00  0.00    +0.129 C 
ATOM      9  C   UNL     1      -8.326   0.831 -24.759  0.00  0.00    +0.026 C 
ATOM     10  C   UNL     1      -8.396   2.178 -24.098  0.00  0.00    -0.066 C 
ATOM     11  C   UNL     1      -8.095   3.323 -24.717  0.00  0.00    +0.001 C 
ATOM     12 CL   UNL     1      -8.171   4.844 -23.935  0.00  0.00    -0.092 Cl
ATOM     13  N   UNL     1      -5.983   0.202 -24.833  0.00  0.00    -0.225 NA
ATOM     14  C   UNL     1      -4.875   0.401 -24.211  0.00  0.00    +0.086 C 
ATOM     15  N   UNL     1      -4.507   0.354 -22.886  0.00  0.00    -0.311 N 
ATOM     16  C   UNL     1      -3.514   1.323 -22.387  0.00  0.00    +0.037 C 
ATOM     17  C   UNL     1      -2.073   0.852 -22.625  0.00  0.00    +0.060 C 
ATOM     18  O   UNL     1      -1.692   1.035 -23.987  0.00  0.00    -0.393 OA
ATOM     19  H   UNL     1      -1.484  -1.624 -17.792  0.00  0.00    +0.000 HD
ATOM     20  H   UNL     1      -2.600  -0.390 -17.718  0.00  0.00    +0.000 HD
ATOM     21  H   UNL     1      -1.629  -0.556 -19.061  0.00  0.00    +0.000 HD
ATOM     22  H   UNL     1      -8.279  -0.737 -22.718  0.00  0.00    +0.000 HD
ATOM     23  H   UNL     1      -2.277   0.514 -24.559  0.00  0.00    +0.000 HD
ENDROOT
TORSDOF 0
ENDMDL
MODEL 2
REMARK VINA RESULT:    -4.534     13.258     14.544
REMARK INTER + INTRA:          -4.534
REMARK INTER:                  -4.534
REMARK INTRA:                   0.000
REMARK UNBOUND:                 0.000
REMARK  Name = /home/vital/Documents/PhD_2021/Malaria_codes/scripts/../data/pdbqt_ligands/ligand_362_temp.pdb
REMARK                            x       y       z     vdW  Elec       q    Type
REMARK                         _______ _______ _______ _____ _____    ______ ____
ROOT
ATOM      1  N   UNL     1       5.086  -3.248 -33.079  0.00  0.00    -0.327 N 
ATOM      2  C   UNL     1       5.224  -4.694 -33.076  0.00  0.00    +0.012 C 
ATOM      3  C   UNL     1       3.970  -5.330 -32.567  0.00  0.00    -0.073 C 
ATOM      4  C   UNL     1       3.197  -6.158 -33.293  0.00  0.00    -0.065 C 
ATOM      5  C   UNL     1       1.938  -6.827 -32.785  0.00  0.00    +0.062 C 
ATOM      6  C   UNL     1       2.132  -8.356 -32.859  0.00  0.00    +0.064 C 
ATOM      7  N   UNL     1       1.073  -9.041 -32.123  0.00  0.00    -0.267 N 
ATOM      8  C   UNL     1      -0.112  -9.017 -32.627  0.00  0.00    +0.129 C 
ATOM      9  C   UNL     1      -1.239  -9.705 -31.868  0.00  0.00    +0.026 C 
ATOM     10  C   UNL     1      -1.853  -8.726 -30.909  0.00  0.00    -0.066 C 
ATOM     11  C   UNL     1      -3.079  -8.216 -31.055  0.00  0.00    +0.001 C 
ATOM     12 CL   UNL     1      -3.750  -7.092 -29.952  0.00  0.00    -0.092 Cl
ATOM     13  N   UNL     1      -0.502  -8.432 -33.799  0.00  0.00    -0.225 NA
ATOM     14  C   UNL     1      -0.115  -7.250 -34.128  0.00  0.00    +0.086 C 
ATOM     15  N   UNL     1       0.811  -6.375 -33.609  0.00  0.00    -0.311 N 
ATOM     16  C   UNL     1       0.519  -4.930 -33.638  0.00  0.00    +0.037 C 
ATOM     17  C   UNL     1       0.914  -4.284 -34.972  0.00  0.00    +0.060 C 
ATOM     18  O   UNL     1      -0.041  -4.583 -35.989  0.00  0.00    -0.393 OA
ATOM     19  H   UNL     1       5.946  -2.825 -33.427  0.00  0.00    +0.000 HD
ATOM     20  H   UNL     1       4.908  -2.922 -32.129  0.00  0.00    +0.000 HD
ATOM     21  H   UNL     1       4.307  -2.982 -33.681  0.00  0.00    +0.000 HD
ATOM     22  H   UNL     1       1.257  -9.504 -31.274  0.00  0.00    +0.000 HD
ATOM     23  H   UNL     1      -0.084  -5.543 -36.120  0.00  0.00    +0.000 HD
ENDROOT
TORSDOF 0
ENDMDL
MODEL 3
REMARK VINA RESULT:    -4.160      4.646      7.842
REMARK INTER + INTRA:          -4.160
REMARK INTER:                  -4.160
REMARK INTRA:                   0.000
REMARK UNBOUND:                 0.000
REMARK  Name = /home/vital/Documents/PhD_2021/Malaria_codes/scripts/../data/pdbqt_ligands/ligand_362_temp.pdb
REMARK                            x       y       z     vdW  Elec       q    Type
REMARK                         _______ _______ _______ _____ _____    ______ ____
ROOT
ATOM      1  N   UNL     1      -5.935  -2.352 -23.395  0.00  0.00    -0.327 N 
ATOM      2  C   UNL     1      -5.806  -1.758 -22.076  0.00  0.00    +0.012 C 
ATOM      3  C   UNL     1      -4.458  -2.061 -21.505  0.00  0.00    -0.073 C 
ATOM      4  C   UNL     1      -3.545  -1.123 -21.190  0.00  0.00    -0.065 C 
ATOM      5  C   UNL     1      -2.186  -1.412 -20.591  0.00  0.00    +0.062 C 
ATOM      6  C   UNL     1      -2.097  -0.710 -19.220  0.00  0.00    +0.064 C 
ATOM      7  N   UNL     1      -0.931  -1.184 -18.479  0.00  0.00    -0.267 N 
ATOM      8  C   UNL     1       0.230  -0.826 -18.905  0.00  0.00    +0.129 C 
ATOM      9  C   UNL     1       1.463  -1.325 -18.162  0.00  0.00    +0.026 C 
ATOM     10  C   UNL     1       1.886  -2.642 -18.746  0.00  0.00    -0.066 C 
ATOM     11  C   UNL     1       2.998  -2.809 -19.467  0.00  0.00    +0.001 C 
ATOM     12 CL   UNL     1       3.450  -4.321 -20.131  0.00  0.00    -0.092 Cl
ATOM     13  N   UNL     1       0.508  -0.025 -19.976  0.00  0.00    -0.225 NA
ATOM     14  C   UNL     1      -0.088  -0.174 -21.106  0.00  0.00    +0.086 C 
ATOM     15  N   UNL     1      -1.159  -0.931 -21.523  0.00  0.00    -0.311 N 
ATOM     16  C   UNL     1      -1.137  -1.512 -22.878  0.00  0.00    +0.037 C 
ATOM     17  C   UNL     1      -1.641  -0.527 -23.941  0.00  0.00    +0.060 C 
ATOM     18  O   UNL     1      -0.646   0.447 -24.251  0.00  0.00    -0.393 OA
ATOM     19  H   UNL     1      -6.857  -2.140 -23.775  0.00  0.00    +0.000 HD
ATOM     20  H   UNL     1      -5.821  -3.363 -23.325  0.00  0.00    +0.000 HD
ATOM     21  H   UNL     1      -5.218  -1.971 -24.011  0.00  0.00    +0.000 HD
ATOM     22  H   UNL     1      -1.029  -1.757 -17.683  0.00  0.00    +0.000 HD
ATOM     23  H   UNL     1      -0.428   0.952 -23.452  0.00  0.00    +0.000 HD
ENDROOT
TORSDOF 0
ENDMDL
MODEL 4
REMARK VINA RESULT:    -4.043     13.460     14.609
REMARK INTER + INTRA:          -4.043
REMARK INTER:                  -4.043
REMARK INTRA:                   0.000
REMARK UNBOUND:                 0.000
REMARK  Name = /home/vital/Documents/PhD_2021/Malaria_codes/scripts/../data/pdbqt_ligands/ligand_362_temp.pdb
REMARK                            x       y       z     vdW  Elec       q    Type
REMARK                         _______ _______ _______ _____ _____    ______ ____
ROOT
ATOM      1  N   UNL     1       4.084   0.147 -32.090  0.00  0.00    -0.327 N 
ATOM      2  C   UNL     1       4.886  -1.020 -32.415  0.00  0.00    +0.012 C 
ATOM      3  C   UNL     1       4.103  -2.269 -32.158  0.00  0.00    -0.073 C 
ATOM      4  C   UNL     1       3.777  -3.162 -33.109  0.00  0.00    -0.065 C 
ATOM      5  C   UNL     1       3.006  -4.441 -32.862  0.00  0.00    +0.062 C 
ATOM      6  C   UNL     1       3.892  -5.635 -33.276  0.00  0.00    +0.064 C 
ATOM      7  N   UNL     1       3.316  -6.888 -32.797  0.00  0.00    -0.267 N 
ATOM      8  C   UNL     1       2.236  -7.301 -33.364  0.00  0.00    +0.129 C 
ATOM      9  C   UNL     1       1.603  -8.594 -32.868  0.00  0.00    +0.026 C 
ATOM     10  C   UNL     1       0.648  -8.277 -31.754  0.00  0.00    -0.066 C 
ATOM     11  C   UNL     1      -0.679  -8.380 -31.864  0.00  0.00    +0.001 C 
ATOM     12 CL   UNL     1      -1.746  -7.999 -30.580  0.00  0.00    -0.092 Cl
ATOM     13  N   UNL     1       1.561  -6.705 -34.392  0.00  0.00    -0.225 NA
ATOM     14  C   UNL     1       1.331  -5.440 -34.409  0.00  0.00    +0.086 C 
ATOM     15  N   UNL     1       1.760  -4.386 -33.636  0.00  0.00    -0.311 N 
ATOM     16  C   UNL     1       0.822  -3.285 -33.349  0.00  0.00    +0.037 C 
ATOM     17  C   UNL     1       0.802  -2.232 -34.465  0.00  0.00    +0.060 C 
ATOM     18  O   UNL     1       0.052  -2.691 -35.588  0.00  0.00    -0.393 OA
ATOM     19  H   UNL     1       4.626   0.992 -32.269  0.00  0.00    +0.000 HD
ATOM     20  H   UNL     1       3.820   0.114 -31.106  0.00  0.00    +0.000 HD
ATOM     21  H   UNL     1       3.244   0.153 -32.668  0.00  0.00    +0.000 HD
ATOM     22  H   UNL     1       3.737  -7.399 -32.067  0.00  0.00    +0.000 HD
ATOM     23  H   UNL     1       0.460  -3.497 -35.941  0.00  0.00    +0.000 HD
ENDROOT
TORSDOF 0
ENDMDL
MODEL 5
REMARK VINA RESULT:    -4.020      8.963     11.732
REMARK INTER + INTRA:          -4.020
REMARK INTER:                  -4.020
REMARK INTRA:                   0.000
REMARK UNBOUND:                 0.000
REMARK  Name = /home/vital/Documents/PhD_2021/Malaria_codes/scripts/../data/pdbqt_ligands/ligand_362_temp.pdb
REMARK                            x       y       z     vdW  Elec       q    Type
REMARK                         _______ _______ _______ _____ _____    ______ ____
ROOT
ATOM      1  N   UNL     1       9.019  -1.376 -25.106  0.00  0.00    -0.327 N 
ATOM      2  C   UNL     1       8.945  -1.099 -23.682  0.00  0.00    +0.012 C 
ATOM      3  C   UNL     1       7.545  -1.294 -23.192  0.00  0.00    -0.073 C 
ATOM      4  C   UNL     1       7.191  -2.206 -22.268  0.00  0.00    -0.065 C 
ATOM      5  C   UNL     1       5.784  -2.400 -21.746  0.00  0.00    +0.062 C 
ATOM      6  C   UNL     1       5.787  -2.143 -20.224  0.00  0.00    +0.064 C 
ATOM      7  N   UNL     1       4.420  -2.037 -19.721  0.00  0.00    -0.267 N 
ATOM      8  C   UNL     1       3.714  -3.113 -19.689  0.00  0.00    +0.129 C 
ATOM      9  C   UNL     1       2.278  -3.026 -19.190  0.00  0.00    +0.026 C 
ATOM     10  C   UNL     1       1.374  -2.717 -20.349  0.00  0.00    -0.066 C 
ATOM     11  C   UNL     1       0.503  -3.589 -20.861  0.00  0.00    +0.001 C 
ATOM     12 CL   UNL     1      -0.507  -3.214 -22.191  0.00  0.00    -0.092 Cl
ATOM     13  N   UNL     1       4.103  -4.370 -20.058  0.00  0.00    -0.225 NA
ATOM     14  C   UNL     1       4.755  -4.586 -21.145  0.00  0.00    +0.086 C 
ATOM     15  N   UNL     1       5.355  -3.765 -22.072  0.00  0.00    -0.311 N 
ATOM     16  C   UNL     1       5.315  -4.149 -23.495  0.00  0.00    +0.037 C 
ATOM     17  C   UNL     1       6.451  -5.110 -23.869  0.00  0.00    +0.060 C 
ATOM     18  O   UNL     1       6.172  -6.434 -23.417  0.00  0.00    -0.393 OA
ATOM     19  H   UNL     1       9.976  -1.240 -25.429  0.00  0.00    +0.000 HD
ATOM     20  H   UNL     1       8.398  -0.742 -25.608  0.00  0.00    +0.000 HD
ATOM     21  H   UNL     1       8.734  -2.339 -25.280  0.00  0.00    +0.000 HD
ATOM     22  H   UNL     1       4.052  -1.175 -19.419  0.00  0.00    +0.000 HD
ATOM     23  H   UNL     1       6.084  -6.433 -22.451  0.00  0.00    +0.000 HD
ENDROOT
TORSDOF 0
ENDMDL
MODEL 6
REMARK VINA RESULT:    -3.797     15.881     17.892
REMARK INTER + INTRA:          -3.797
REMARK INTER:                  -3.797
REMARK INTRA:                   0.000
REMARK UNBOUND:                 0.000
REMARK  Name = /home/vital/Documents/PhD_2021/Malaria_codes/scripts/../data/pdbqt_ligands/ligand_362_temp.pdb
REMARK                            x       y       z     vdW  Elec       q    Type
REMARK                         _______ _______ _______ _____ _____    ______ ____
ROOT
ATOM      1  N   UNL     1       4.489   3.423 -33.848  0.00  0.00    -0.327 N 
ATOM      2  C   UNL     1       5.795   4.013 -34.082  0.00  0.00    +0.012 C 
ATOM      3  C   UNL     1       6.686   3.776 -32.904  0.00  0.00    -0.073 C 
ATOM      4  C   UNL     1       7.829   3.069 -32.954  0.00  0.00    -0.065 C 
ATOM      5  C   UNL     1       8.752   2.840 -31.777  0.00  0.00    +0.062 C 
ATOM      6  C   UNL     1      10.133   3.442 -32.112  0.00  0.00    +0.064 C 
ATOM      7  N   UNL     1      10.968   3.503 -30.915  0.00  0.00    -0.267 N 
ATOM      8  C   UNL     1      11.403   2.389 -30.438  0.00  0.00    +0.129 C 
ATOM      9  C   UNL     1      12.258   2.423 -29.178  0.00  0.00    +0.026 C 
ATOM     10  C   UNL     1      11.362   2.347 -27.976  0.00  0.00    -0.066 C 
ATOM     11  C   UNL     1      11.292   1.284 -27.170  0.00  0.00    +0.001 C 
ATOM     12 CL   UNL     1      10.251   1.219 -25.813  0.00  0.00    -0.092 Cl
ATOM     13  N   UNL     1      11.190   1.135 -30.936  0.00  0.00    -0.225 NA
ATOM     14  C   UNL     1      10.026   0.749 -31.326  0.00  0.00    +0.086 C 
ATOM     15  N   UNL     1       8.829   1.396 -31.525  0.00  0.00    -0.311 N 
ATOM     16  C   UNL     1       7.576   0.689 -31.201  0.00  0.00    +0.037 C 
ATOM     17  C   UNL     1       7.091  -0.194 -32.359  0.00  0.00    +0.060 C 
ATOM     18  O   UNL     1       7.850  -1.399 -32.436  0.00  0.00    -0.393 OA
ATOM     19  H   UNL     1       3.891   3.589 -34.656  0.00  0.00    +0.000 HD
ATOM     20  H   UNL     1       4.068   3.846 -33.021  0.00  0.00    +0.000 HD
ATOM     21  H   UNL     1       4.591   2.418 -33.702  0.00  0.00    +0.000 HD
ATOM     22  H   UNL     1      11.189   4.363 -30.489  0.00  0.00    +0.000 HD
ATOM     23  H   UNL     1       8.783  -1.184 -32.591  0.00  0.00    +0.000 HD
ENDROOT
TORSDOF 0
ENDMDL
MODEL 7
REMARK VINA RESULT:    -3.757      4.125      4.758
REMARK INTER + INTRA:          -3.757
REMARK INTER:                  -3.757
REMARK INTRA:                   0.000
REMARK UNBOUND:                 0.000
REMARK  Name = /home/vital/Documents/PhD_2021/Malaria_codes/scripts/../data/pdbqt_ligands/ligand_362_temp.pdb
REMARK                            x       y       z     vdW  Elec       q    Type
REMARK                         _______ _______ _______ _____ _____    ______ ____
ROOT
ATOM      1  N   UNL     1      -1.847  -1.322 -18.305  0.00  0.00    -0.327 N 
ATOM      2  C   UNL     1      -3.248  -1.285 -18.685  0.00  0.00    +0.012 C 
ATOM      3  C   UNL     1      -3.376  -1.261 -20.175  0.00  0.00    -0.073 C 
ATOM      4  C   UNL     1      -3.983  -2.222 -20.895  0.00  0.00    -0.065 C 
ATOM      5  C   UNL     1      -4.140  -2.200 -22.400  0.00  0.00    +0.062 C 
ATOM      6  C   UNL     1      -5.647  -2.216 -22.735  0.00  0.00    +0.064 C 
ATOM      7  N   UNL     1      -5.859  -1.912 -24.147  0.00  0.00    -0.267 N 
ATOM      8  C   UNL     1      -5.506  -2.802 -25.007  0.00  0.00    +0.129 C 
ATOM      9  C   UNL     1      -5.697  -2.500 -26.488  0.00  0.00    +0.026 C 
ATOM     10  C   UNL     1      -4.468  -1.811 -27.009  0.00  0.00    -0.066 C 
ATOM     11  C   UNL     1      -3.606  -2.378 -27.857  0.00  0.00    +0.001 C 
ATOM     12 CL   UNL     1      -2.206  -1.573 -28.426  0.00  0.00    -0.092 Cl
ATOM     13  N   UNL     1      -4.964  -4.030 -24.752  0.00  0.00    -0.225 NA
ATOM     14  C   UNL     1      -4.019  -4.189 -23.893  0.00  0.00    +0.086 C 
ATOM     15  N   UNL     1      -3.442  -3.366 -22.954  0.00  0.00    -0.311 N 
ATOM     16  C   UNL     1      -1.994  -3.482 -22.699  0.00  0.00    +0.037 C 
ATOM     17  C   UNL     1      -1.669  -4.583 -21.681  0.00  0.00    +0.060 C 
ATOM     18  O   UNL     1      -1.753  -5.875 -22.279  0.00  0.00    -0.393 OA
ATOM     19  H   UNL     1      -1.771  -1.339 -17.288  0.00  0.00    +0.000 HD
ATOM     20  H   UNL     1      -1.374  -0.494 -18.667  0.00  0.00    +0.000 HD
ATOM     21  H   UNL     1      -1.411  -2.159 -18.692  0.00  0.00    +0.000 HD
ATOM     22  H   UNL     1      -6.256  -1.056 -24.431  0.00  0.00    +0.000 HD
ATOM     23  H   UNL     1      -2.655  -6.022 -22.605  0.00  0.00    +0.000 HD
ENDROOT
TORSDOF 0
ENDMDL
MODEL 8
REMARK VINA RESULT:    -3.501      4.489      6.175
REMARK INTER + INTRA:          -3.501
REMARK INTER:                  -3.501
REMARK INTRA:                   0.000
REMARK UNBOUND:                 0.000
REMARK  Name = /home/vital/Documents/PhD_2021/Malaria_codes/scripts/../data/pdbqt_ligands/ligand_362_temp.pdb
REMARK                            x       y       z     vdW  Elec       q    Type
REMARK                         _______ _______ _______ _____ _____    ______ ____
ROOT
ATOM      1  N   UNL     1       0.078  -5.525 -26.475  0.00  0.00    -0.327 N 
ATOM      2  C   UNL     1      -0.163  -6.038 -25.138  0.00  0.00    +0.012 C 
ATOM      3  C   UNL     1      -0.509  -4.916 -24.212  0.00  0.00    -0.073 C 
ATOM      4  C   UNL     1      -1.685  -4.807 -23.567  0.00  0.00    -0.065 C 
ATOM      5  C   UNL     1      -2.042  -3.690 -22.610  0.00  0.00    +0.062 C 
ATOM      6  C   UNL     1      -2.336  -4.307 -21.226  0.00  0.00    +0.064 C 
ATOM      7  N   UNL     1      -2.405  -3.264 -20.207  0.00  0.00    -0.267 N 
ATOM      8  C   UNL     1      -3.419  -2.472 -20.235  0.00  0.00    +0.129 C 
ATOM      9  C   UNL     1      -3.504  -1.361 -19.196  0.00  0.00    +0.026 C 
ATOM     10  C   UNL     1      -2.802  -0.143 -19.722  0.00  0.00    -0.066 C 
ATOM     11  C   UNL     1      -3.434   0.977 -20.085  0.00  0.00    +0.001 C 
ATOM     12 CL   UNL     1      -2.609   2.347 -20.694  0.00  0.00    -0.092 Cl
ATOM     13  N   UNL     1      -4.469  -2.501 -21.109  0.00  0.00    -0.225 NA
ATOM     14  C   UNL     1      -4.293  -2.654 -22.374  0.00  0.00    +0.086 C 
ATOM     15  N   UNL     1      -3.202  -2.973 -23.150  0.00  0.00    -0.311 N 
ATOM     16  C   UNL     1      -3.062  -2.341 -24.475  0.00  0.00    +0.037 C 
ATOM     17  C   UNL     1      -3.837  -3.095 -25.563  0.00  0.00    +0.060 C 
ATOM     18  O   UNL     1      -5.233  -2.815 -25.485  0.00  0.00    -0.393 OA
ATOM     19  H   UNL     1       0.313  -6.298 -27.098  0.00  0.00    +0.000 HD
ATOM     20  H   UNL     1       0.852  -4.862 -26.451  0.00  0.00    +0.000 HD
ATOM     21  H   UNL     1      -0.761  -5.057 -26.816  0.00  0.00    +0.000 HD
ATOM     22  H   UNL     1      -1.702  -3.170 -19.523  0.00  0.00    +0.000 HD
ATOM     23  H   UNL     1      -5.572  -3.100 -24.621  0.00  0.00    +0.000 HD
ENDROOT
TORSDOF 0
ENDMDL
MODEL 9
REMARK VINA RESULT:    -3.296     11.493     12.915
REMARK INTER + INTRA:          -3.296
REMARK INTER:                  -3.296
REMARK INTRA:                   0.000
REMARK UNBOUND:                 0.000
REMARK  Name = /home/vital/Documents/PhD_2021/Malaria_codes/scripts/../data/pdbqt_ligands/ligand_362_temp.pdb
REMARK                            x       y       z     vdW  Elec       q    Type
REMARK                         _______ _______ _______ _____ _____    ______ ____
ROOT
ATOM      1  N   UNL     1       5.816  -5.199 -33.305  0.00  0.00    -0.327 N 
ATOM      2  C   UNL     1       5.640  -4.239 -32.230  0.00  0.00    +0.012 C 
ATOM      3  C   UNL     1       4.653  -3.190 -32.634  0.00  0.00    -0.073 C 
ATOM      4  C   UNL     1       3.483  -2.975 -32.005  0.00  0.00    -0.065 C 
ATOM      5  C   UNL     1       2.485  -1.903 -32.387  0.00  0.00    +0.062 C 
ATOM      6  C   UNL     1       2.305  -0.951 -31.187  0.00  0.00    +0.064 C 
ATOM      7  N   UNL     1       1.580   0.250 -31.592  0.00  0.00    -0.267 N 
ATOM      8  C   UNL     1       0.330   0.124 -31.870  0.00  0.00    +0.129 C 
ATOM      9  C   UNL     1      -0.445   1.357 -32.316  0.00  0.00    +0.026 C 
ATOM     10  C   UNL     1      -0.341   1.487 -33.809  0.00  0.00    -0.066 C 
ATOM     11  C   UNL     1      -1.365   1.288 -34.642  0.00  0.00    +0.001 C 
ATOM     12 CL   UNL     1      -1.215   1.431 -36.341  0.00  0.00    -0.092 Cl
ATOM     13  N   UNL     1      -0.421  -1.017 -31.812  0.00  0.00    -0.225 NA
ATOM     14  C   UNL     1       0.008  -2.134 -32.284  0.00  0.00    +0.086 C 
ATOM     15  N   UNL     1       1.226  -2.558 -32.763  0.00  0.00    -0.311 N 
ATOM     16  C   UNL     1       1.257  -3.505 -33.893  0.00  0.00    +0.037 C 
ATOM     17  C   UNL     1       1.126  -4.963 -33.432  0.00  0.00    +0.060 C 
ATOM     18  O   UNL     1      -0.225  -5.276 -33.097  0.00  0.00    -0.393 OA
ATOM     19  H   UNL     1       6.490  -5.909 -33.020  0.00  0.00    +0.000 HD
ATOM     20  H   UNL     1       6.160  -4.720 -34.137  0.00  0.00    +0.000 HD
ATOM     21  H   UNL     1       4.922  -5.644 -33.514  0.00  0.00    +0.000 HD
ATOM     22  H   UNL     1       2.031   1.124 -31.651  0.00  0.00    +0.000 HD
ATOM     23  H   UNL     1      -0.518  -4.703 -32.372  0.00  0.00    +0.000 HD
ENDROOT
TORSDOF 0
ENDMDL
