MODEL 1
REMARK VINA RESULT:    -5.618      0.000      0.000
REMARK INTER + INTRA:          -5.618
REMARK INTER:                  -5.618
REMARK INTRA:                   0.000
REMARK UNBOUND:                 0.000
REMARK  Name = /home/vital/Documents/PhD_2021/Malaria_codes/scripts/../data/pdbqt_ligands/ligand_178_temp.pdb
REMARK                            x       y       z     vdW  Elec       q    Type
REMARK                         _______ _______ _______ _____ _____    ______ ____
ROOT
ATOM      1  C   UNL     1      -6.518  -1.993 -22.453  0.00  0.00    -0.114 C 
ATOM      2  C   UNL     1      -5.553  -1.526 -21.913  0.00  0.00    -0.070 C 
ATOM      3  C   UNL     1      -4.403  -0.970 -21.269  0.00  0.00    +0.025 A 
ATOM      4  C   UNL     1      -3.717  -1.707 -20.302  0.00  0.00    -0.046 A 
ATOM      5  C   UNL     1      -2.594  -1.166 -19.673  0.00  0.00    -0.056 A 
ATOM      6  C   UNL     1      -2.143   0.122 -20.003  0.00  0.00    -0.034 A 
ATOM      7  C   UNL     1      -0.919   0.702 -19.331  0.00  0.00    +0.021 C 
ATOM      8  N   UNL     1       0.270   0.711 -20.187  0.00  0.00    -0.309 N 
ATOM      9  C   UNL     1       0.862  -0.623 -20.414  0.00  0.00    +0.026 C 
ATOM     10  C   UNL     1       1.525  -1.282 -19.175  0.00  0.00    +0.093 C 
ATOM     11  O   UNL     1       0.541  -1.869 -18.315  0.00  0.00    -0.386 OA
ATOM     12  C   UNL     1       2.511  -2.363 -19.576  0.00  0.00    -0.018 A 
ATOM     13  C   UNL     1       2.070  -3.563 -20.157  0.00  0.00    -0.056 A 
ATOM     14  C   UNL     1       2.983  -4.552 -20.526  0.00  0.00    -0.061 A 
ATOM     15  C   UNL     1       4.347  -4.353 -20.318  0.00  0.00    -0.062 A 
ATOM     16  C   UNL     1       4.799  -3.167 -19.743  0.00  0.00    -0.061 A 
ATOM     17  C   UNL     1       3.886  -2.176 -19.373  0.00  0.00    -0.056 A 
ATOM     18  C   UNL     1      -2.838   0.853 -20.976  0.00  0.00    -0.056 A 
ATOM     19  C   UNL     1      -3.963   0.311 -21.605  0.00  0.00    -0.046 A 
ATOM     20  H   UNL     1       0.976   1.303 -19.749  0.00  0.00    +0.000 HD
ATOM     21  H   UNL     1      -0.027   1.059 -21.099  0.00  0.00    +0.000 HD
ATOM     22  H   UNL     1       0.077  -2.575 -18.791  0.00  0.00    +0.000 HD
ENDROOT
TORSDOF 0
ENDMDL
MODEL 2
REMARK VINA RESULT:    -5.403      7.110     10.379
REMARK INTER + INTRA:          -5.403
REMARK INTER:                  -5.403
REMARK INTRA:                   0.000
REMARK UNBOUND:                 0.000
REMARK  Name = /home/vital/Documents/PhD_2021/Malaria_codes/scripts/../data/pdbqt_ligands/ligand_178_temp.pdb
REMARK                            x       y       z     vdW  Elec       q    Type
REMARK                         _______ _______ _______ _____ _____    ______ ____
ROOT
ATOM      1  C   UNL     1       3.716  -4.397 -19.831  0.00  0.00    -0.114 C 
ATOM      2  C   UNL     1       4.318  -4.286 -20.863  0.00  0.00    -0.070 C 
ATOM      3  C   UNL     1       5.034  -4.155 -22.095  0.00  0.00    +0.025 A 
ATOM      4  C   UNL     1       5.095  -2.919 -22.740  0.00  0.00    -0.046 A 
ATOM      5  C   UNL     1       5.795  -2.789 -23.942  0.00  0.00    -0.056 A 
ATOM      6  C   UNL     1       6.441  -3.895 -24.514  0.00  0.00    -0.034 A 
ATOM      7  C   UNL     1       7.210  -3.751 -25.808  0.00  0.00    +0.021 C 
ATOM      8  N   UNL     1       8.665  -3.743 -25.628  0.00  0.00    -0.309 N 
ATOM      9  C   UNL     1       9.193  -2.505 -25.020  0.00  0.00    +0.026 C 
ATOM     10  C   UNL     1       9.104  -1.233 -25.905  0.00  0.00    +0.093 C 
ATOM     11  O   UNL     1       7.785  -0.678 -25.880  0.00  0.00    -0.386 OA
ATOM     12  C   UNL     1      10.079  -0.164 -25.448  0.00  0.00    -0.018 A 
ATOM     13  C   UNL     1       9.899   0.500 -24.223  0.00  0.00    -0.056 A 
ATOM     14  C   UNL     1      10.800   1.481 -23.808  0.00  0.00    -0.061 A 
ATOM     15  C   UNL     1      11.891   1.809 -24.609  0.00  0.00    -0.062 A 
ATOM     16  C   UNL     1      12.083   1.157 -25.826  0.00  0.00    -0.061 A 
ATOM     17  C   UNL     1      11.182   0.175 -26.244  0.00  0.00    -0.056 A 
ATOM     18  C   UNL     1       6.375  -5.132 -23.857  0.00  0.00    -0.056 A 
ATOM     19  C   UNL     1       5.674  -5.261 -22.654  0.00  0.00    -0.046 A 
ATOM     20  H   UNL     1       9.101  -3.862 -26.542  0.00  0.00    +0.000 HD
ATOM     21  H   UNL     1       8.884  -4.503 -24.984  0.00  0.00    +0.000 HD
ATOM     22  H   UNL     1       7.567  -0.403 -24.975  0.00  0.00    +0.000 HD
ENDROOT
TORSDOF 0
ENDMDL
MODEL 3
REMARK VINA RESULT:    -5.320      5.179     10.132
REMARK INTER + INTRA:          -5.320
REMARK INTER:                  -5.320
REMARK INTRA:                   0.000
REMARK UNBOUND:                 0.000
REMARK  Name = /home/vital/Documents/PhD_2021/Malaria_codes/scripts/../data/pdbqt_ligands/ligand_178_temp.pdb
REMARK                            x       y       z     vdW  Elec       q    Type
REMARK                         _______ _______ _______ _____ _____    ______ ____
ROOT
ATOM      1  C   UNL     1      -2.473  -1.307 -18.700  0.00  0.00    -0.114 C 
ATOM      2  C   UNL     1      -3.138  -1.388 -19.696  0.00  0.00    -0.070 C 
ATOM      3  C   UNL     1      -3.930  -1.485 -20.883  0.00  0.00    +0.025 A 
ATOM      4  C   UNL     1      -5.257  -1.050 -20.877  0.00  0.00    -0.046 A 
ATOM      5  C   UNL     1      -6.031  -1.144 -22.035  0.00  0.00    -0.056 A 
ATOM      6  C   UNL     1      -5.489  -1.675 -23.215  0.00  0.00    -0.034 A 
ATOM      7  C   UNL     1      -6.323  -1.764 -24.472  0.00  0.00    +0.021 C 
ATOM      8  N   UNL     1      -5.983  -0.751 -25.475  0.00  0.00    -0.309 N 
ATOM      9  C   UNL     1      -6.414   0.617 -25.124  0.00  0.00    +0.026 C 
ATOM     10  C   UNL     1      -7.948   0.857 -25.125  0.00  0.00    +0.093 C 
ATOM     11  O   UNL     1      -8.548   0.363 -23.923  0.00  0.00    -0.386 OA
ATOM     12  C   UNL     1      -8.284   2.331 -25.253  0.00  0.00    -0.018 A 
ATOM     13  C   UNL     1      -7.999   3.229 -24.212  0.00  0.00    -0.056 A 
ATOM     14  C   UNL     1      -8.309   4.584 -24.337  0.00  0.00    -0.061 A 
ATOM     15  C   UNL     1      -8.906   5.057 -25.504  0.00  0.00    -0.062 A 
ATOM     16  C   UNL     1      -9.193   4.177 -26.546  0.00  0.00    -0.061 A 
ATOM     17  C   UNL     1      -8.884   2.821 -26.422  0.00  0.00    -0.056 A 
ATOM     18  C   UNL     1      -4.155  -2.108 -23.212  0.00  0.00    -0.056 A 
ATOM     19  C   UNL     1      -3.380  -2.014 -22.051  0.00  0.00    -0.046 A 
ATOM     20  H   UNL     1      -6.427  -1.010 -26.356  0.00  0.00    +0.000 HD
ATOM     21  H   UNL     1      -4.965  -0.730 -25.537  0.00  0.00    +0.000 HD
ATOM     22  H   UNL     1      -8.192   0.847 -23.161  0.00  0.00    +0.000 HD
ENDROOT
TORSDOF 0
ENDMDL
MODEL 4
REMARK VINA RESULT:    -5.251      1.704      7.340
REMARK INTER + INTRA:          -5.251
REMARK INTER:                  -5.251
REMARK INTRA:                   0.000
REMARK UNBOUND:                 0.000
REMARK  Name = /home/vital/Documents/PhD_2021/Malaria_codes/scripts/../data/pdbqt_ligands/ligand_178_temp.pdb
REMARK                            x       y       z     vdW  Elec       q    Type
REMARK                         _______ _______ _______ _____ _____    ______ ____
ROOT
ATOM      1  C   UNL     1       4.970  -4.655 -21.394  0.00  0.00    -0.114 C 
ATOM      2  C   UNL     1       4.090  -3.940 -21.001  0.00  0.00    -0.070 C 
ATOM      3  C   UNL     1       3.041  -3.087 -20.532  0.00  0.00    +0.025 A 
ATOM      4  C   UNL     1       2.324  -2.299 -21.434  0.00  0.00    -0.046 A 
ATOM      5  C   UNL     1       1.300  -1.466 -20.978  0.00  0.00    -0.056 A 
ATOM      6  C   UNL     1       0.981  -1.410 -19.613  0.00  0.00    -0.034 A 
ATOM      7  C   UNL     1      -0.137  -0.519 -19.121  0.00  0.00    +0.021 C 
ATOM      8  N   UNL     1      -1.358  -1.250 -18.769  0.00  0.00    -0.309 N 
ATOM      9  C   UNL     1      -2.105  -1.774 -19.930  0.00  0.00    +0.026 C 
ATOM     10  C   UNL     1      -2.777  -0.705 -20.833  0.00  0.00    +0.093 C 
ATOM     11  O   UNL     1      -1.826  -0.107 -21.720  0.00  0.00    -0.386 OA
ATOM     12  C   UNL     1      -3.897  -1.299 -21.666  0.00  0.00    -0.018 A 
ATOM     13  C   UNL     1      -3.621  -2.208 -22.701  0.00  0.00    -0.056 A 
ATOM     14  C   UNL     1      -4.655  -2.753 -23.463  0.00  0.00    -0.061 A 
ATOM     15  C   UNL     1      -5.977  -2.397 -23.199  0.00  0.00    -0.062 A 
ATOM     16  C   UNL     1      -6.265  -1.498 -22.174  0.00  0.00    -0.061 A 
ATOM     17  C   UNL     1      -5.230  -0.951 -21.412  0.00  0.00    -0.056 A 
ATOM     18  C   UNL     1       1.706  -2.207 -18.715  0.00  0.00    -0.056 A 
ATOM     19  C   UNL     1       2.732  -3.040 -19.173  0.00  0.00    -0.046 A 
ATOM     20  H   UNL     1      -1.971  -0.619 -18.253  0.00  0.00    +0.000 HD
ATOM     21  H   UNL     1      -1.067  -2.057 -18.219  0.00  0.00    +0.000 HD
ATOM     22  H   UNL     1      -1.466  -0.785 -22.313  0.00  0.00    +0.000 HD
ENDROOT
TORSDOF 0
ENDMDL
MODEL 5
REMARK VINA RESULT:    -5.223      9.402     12.210
REMARK INTER + INTRA:          -5.223
REMARK INTER:                  -5.223
REMARK INTRA:                   0.000
REMARK UNBOUND:                 0.000
REMARK  Name = /home/vital/Documents/PhD_2021/Malaria_codes/scripts/../data/pdbqt_ligands/ligand_178_temp.pdb
REMARK                            x       y       z     vdW  Elec       q    Type
REMARK                         _______ _______ _______ _____ _____    ______ ____
ROOT
ATOM      1  C   UNL     1       5.625  -6.308 -26.465  0.00  0.00    -0.114 C 
ATOM      2  C   UNL     1       6.241  -5.410 -25.961  0.00  0.00    -0.070 C 
ATOM      3  C   UNL     1       6.977  -4.341 -25.358  0.00  0.00    +0.025 A 
ATOM      4  C   UNL     1       8.308  -4.118 -25.716  0.00  0.00    -0.046 A 
ATOM      5  C   UNL     1       9.026  -3.074 -25.130  0.00  0.00    -0.056 A 
ATOM      6  C   UNL     1       8.423  -2.240 -24.176  0.00  0.00    -0.034 A 
ATOM      7  C   UNL     1       9.197  -1.102 -23.552  0.00  0.00    +0.021 C 
ATOM      8  N   UNL     1       8.823   0.217 -24.072  0.00  0.00    -0.309 N 
ATOM      9  C   UNL     1       9.288   0.478 -25.449  0.00  0.00    +0.026 C 
ATOM     10  C   UNL     1      10.823   0.635 -25.619  0.00  0.00    +0.093 C 
ATOM     11  O   UNL     1      11.473  -0.641 -25.647  0.00  0.00    -0.386 OA
ATOM     12  C   UNL     1      11.172   1.373 -26.898  0.00  0.00    -0.018 A 
ATOM     13  C   UNL     1      10.948   0.786 -28.154  0.00  0.00    -0.056 A 
ATOM     14  C   UNL     1      11.269   1.470 -29.327  0.00  0.00    -0.061 A 
ATOM     15  C   UNL     1      11.817   2.750 -29.258  0.00  0.00    -0.062 A 
ATOM     16  C   UNL     1      12.044   3.345 -28.019  0.00  0.00    -0.061 A 
ATOM     17  C   UNL     1      11.723   2.661 -26.844  0.00  0.00    -0.056 A 
ATOM     18  C   UNL     1       7.085  -2.471 -23.825  0.00  0.00    -0.056 A 
ATOM     19  C   UNL     1       6.366  -3.517 -24.412  0.00  0.00    -0.046 A 
ATOM     20  H   UNL     1       9.223   0.927 -23.459  0.00  0.00    +0.000 HD
ATOM     21  H   UNL     1       7.804   0.244 -24.097  0.00  0.00    +0.000 HD
ATOM     22  H   UNL     1      11.158  -1.148 -26.412  0.00  0.00    +0.000 HD
ENDROOT
TORSDOF 0
ENDMDL
MODEL 6
REMARK VINA RESULT:    -5.223      4.188      6.417
REMARK INTER + INTRA:          -5.223
REMARK INTER:                  -5.223
REMARK INTRA:                   0.000
REMARK UNBOUND:                 0.000
REMARK  Name = /home/vital/Documents/PhD_2021/Malaria_codes/scripts/../data/pdbqt_ligands/ligand_178_temp.pdb
REMARK                            x       y       z     vdW  Elec       q    Type
REMARK                         _______ _______ _______ _____ _____    ______ ____
ROOT
ATOM      1  C   UNL     1      -1.541  -0.926 -19.726  0.00  0.00    -0.114 C 
ATOM      2  C   UNL     1      -0.501  -1.522 -19.781  0.00  0.00    -0.070 C 
ATOM      3  C   UNL     1       0.739  -2.233 -19.846  0.00  0.00    +0.025 A 
ATOM      4  C   UNL     1       0.886  -3.304 -20.729  0.00  0.00    -0.046 A 
ATOM      5  C   UNL     1       2.096  -3.998 -20.794  0.00  0.00    -0.056 A 
ATOM      6  C   UNL     1       3.174  -3.631 -19.974  0.00  0.00    -0.034 A 
ATOM      7  C   UNL     1       4.488  -4.375 -20.055  0.00  0.00    +0.021 C 
ATOM      8  N   UNL     1       5.539  -3.634 -20.758  0.00  0.00    -0.309 N 
ATOM      9  C   UNL     1       5.345  -3.547 -22.219  0.00  0.00    +0.026 C 
ATOM     10  C   UNL     1       5.502  -4.882 -22.996  0.00  0.00    +0.093 C 
ATOM     11  O   UNL     1       4.319  -5.682 -22.890  0.00  0.00    -0.386 OA
ATOM     12  C   UNL     1       5.784  -4.643 -24.467  0.00  0.00    -0.018 A 
ATOM     13  C   UNL     1       4.801  -4.100 -25.312  0.00  0.00    -0.056 A 
ATOM     14  C   UNL     1       5.068  -3.881 -26.664  0.00  0.00    -0.061 A 
ATOM     15  C   UNL     1       6.319  -4.201 -27.188  0.00  0.00    -0.062 A 
ATOM     16  C   UNL     1       7.303  -4.739 -26.361  0.00  0.00    -0.061 A 
ATOM     17  C   UNL     1       7.038  -4.959 -25.008  0.00  0.00    -0.056 A 
ATOM     18  C   UNL     1       3.017  -2.553 -19.091  0.00  0.00    -0.056 A 
ATOM     19  C   UNL     1       1.805  -1.859 -19.027  0.00  0.00    -0.046 A 
ATOM     20  H   UNL     1       6.431  -4.097 -20.580  0.00  0.00    +0.000 HD
ATOM     21  H   UNL     1       5.513  -2.678 -20.401  0.00  0.00    +0.000 HD
ATOM     22  H   UNL     1       3.573  -5.212 -23.293  0.00  0.00    +0.000 HD
ENDROOT
TORSDOF 0
ENDMDL
MODEL 7
REMARK VINA RESULT:    -4.999     13.257     14.768
REMARK INTER + INTRA:          -4.999
REMARK INTER:                  -4.999
REMARK INTRA:                   0.000
REMARK UNBOUND:                 0.000
REMARK  Name = /home/vital/Documents/PhD_2021/Malaria_codes/scripts/../data/pdbqt_ligands/ligand_178_temp.pdb
REMARK                            x       y       z     vdW  Elec       q    Type
REMARK                         _______ _______ _______ _____ _____    ______ ____
ROOT
ATOM      1  C   UNL     1       5.638   3.906 -34.377  0.00  0.00    -0.114 C 
ATOM      2  C   UNL     1       5.737   2.846 -33.824  0.00  0.00    -0.070 C 
ATOM      3  C   UNL     1       5.855   1.583 -33.163  0.00  0.00    +0.025 A 
ATOM      4  C   UNL     1       4.728   0.974 -32.608  0.00  0.00    -0.046 A 
ATOM      5  C   UNL     1       4.842  -0.260 -31.964  0.00  0.00    -0.056 A 
ATOM      6  C   UNL     1       6.086  -0.900 -31.865  0.00  0.00    -0.034 A 
ATOM      7  C   UNL     1       6.206  -2.242 -31.179  0.00  0.00    +0.021 C 
ATOM      8  N   UNL     1       6.370  -3.363 -32.109  0.00  0.00    -0.309 N 
ATOM      9  C   UNL     1       5.147  -3.707 -32.863  0.00  0.00    +0.026 C 
ATOM     10  C   UNL     1       3.994  -4.322 -32.025  0.00  0.00    +0.093 C 
ATOM     11  O   UNL     1       3.270  -3.307 -31.321  0.00  0.00    -0.386 OA
ATOM     12  C   UNL     1       3.016  -5.087 -32.896  0.00  0.00    -0.018 A 
ATOM     13  C   UNL     1       2.187  -4.416 -33.811  0.00  0.00    -0.056 A 
ATOM     14  C   UNL     1       1.290  -5.126 -34.610  0.00  0.00    -0.061 A 
ATOM     15  C   UNL     1       1.212  -6.513 -34.507  0.00  0.00    -0.062 A 
ATOM     16  C   UNL     1       2.029  -7.192 -33.604  0.00  0.00    -0.061 A 
ATOM     17  C   UNL     1       2.927  -6.483 -32.803  0.00  0.00    -0.056 A 
ATOM     18  C   UNL     1       7.212  -0.281 -32.426  0.00  0.00    -0.056 A 
ATOM     19  C   UNL     1       7.098   0.954 -33.071  0.00  0.00    -0.046 A 
ATOM     20  H   UNL     1       6.657  -4.183 -31.575  0.00  0.00    +0.000 HD
ATOM     21  H   UNL     1       7.067  -3.075 -32.796  0.00  0.00    +0.000 HD
ATOM     22  H   UNL     1       2.859  -2.702 -31.959  0.00  0.00    +0.000 HD
ENDROOT
TORSDOF 0
ENDMDL
MODEL 8
REMARK VINA RESULT:    -4.876      2.979      7.083
REMARK INTER + INTRA:          -4.876
REMARK INTER:                  -4.876
REMARK INTRA:                   0.000
REMARK UNBOUND:                 0.000
REMARK  Name = /home/vital/Documents/PhD_2021/Malaria_codes/scripts/../data/pdbqt_ligands/ligand_178_temp.pdb
REMARK                            x       y       z     vdW  Elec       q    Type
REMARK                         _______ _______ _______ _____ _____    ______ ____
ROOT
ATOM      1  C   UNL     1       3.029   1.842 -17.055  0.00  0.00    -0.114 C 
ATOM      2  C   UNL     1       2.900   0.809 -17.651  0.00  0.00    -0.070 C 
ATOM      3  C   UNL     1       2.747  -0.423 -18.362  0.00  0.00    +0.025 A 
ATOM      4  C   UNL     1       1.605  -1.203 -18.173  0.00  0.00    -0.046 A 
ATOM      5  C   UNL     1       1.454  -2.406 -18.867  0.00  0.00    -0.056 A 
ATOM      6  C   UNL     1       2.445  -2.844 -19.757  0.00  0.00    -0.034 A 
ATOM      7  C   UNL     1       2.275  -4.140 -20.518  0.00  0.00    +0.021 C 
ATOM      8  N   UNL     1       1.927  -3.950 -21.929  0.00  0.00    -0.309 N 
ATOM      9  C   UNL     1       0.545  -3.479 -22.154  0.00  0.00    +0.026 C 
ATOM     10  C   UNL     1      -0.573  -4.502 -21.820  0.00  0.00    +0.093 C 
ATOM     11  O   UNL     1      -0.823  -4.551 -20.410  0.00  0.00    -0.386 OA
ATOM     12  C   UNL     1      -1.874  -4.160 -22.522  0.00  0.00    -0.018 A 
ATOM     13  C   UNL     1      -2.610  -3.019 -22.161  0.00  0.00    -0.056 A 
ATOM     14  C   UNL     1      -3.804  -2.709 -22.811  0.00  0.00    -0.061 A 
ATOM     15  C   UNL     1      -4.276  -3.533 -23.831  0.00  0.00    -0.062 A 
ATOM     16  C   UNL     1      -3.556  -4.667 -24.201  0.00  0.00    -0.061 A 
ATOM     17  C   UNL     1      -2.360  -4.979 -23.549  0.00  0.00    -0.056 A 
ATOM     18  C   UNL     1       3.588  -2.053 -19.941  0.00  0.00    -0.056 A 
ATOM     19  C   UNL     1       3.739  -0.849 -19.246  0.00  0.00    -0.046 A 
ATOM     20  H   UNL     1       2.044  -4.841 -22.411  0.00  0.00    +0.000 HD
ATOM     21  H   UNL     1       2.546  -3.223 -22.288  0.00  0.00    +0.000 HD
ATOM     22  H   UNL     1      -1.139  -3.685 -20.108  0.00  0.00    +0.000 HD
ENDROOT
TORSDOF 0
ENDMDL
MODEL 9
REMARK VINA RESULT:    -4.798      5.044      9.594
REMARK INTER + INTRA:          -4.798
REMARK INTER:                  -4.798
REMARK INTRA:                   0.000
REMARK UNBOUND:                 0.000
REMARK  Name = /home/vital/Documents/PhD_2021/Malaria_codes/scripts/../data/pdbqt_ligands/ligand_178_temp.pdb
REMARK                            x       y       z     vdW  Elec       q    Type
REMARK                         _______ _______ _______ _____ _____    ______ ____
ROOT
ATOM      1  C   UNL     1      10.595  -0.114 -25.993  0.00  0.00    -0.114 C 
ATOM      2  C   UNL     1       9.798  -0.905 -25.572  0.00  0.00    -0.070 C 
ATOM      3  C   UNL     1       8.847  -1.849 -25.069  0.00  0.00    +0.025 A 
ATOM      4  C   UNL     1       8.789  -2.123 -23.702  0.00  0.00    -0.046 A 
ATOM      5  C   UNL     1       7.860  -3.043 -23.210  0.00  0.00    -0.056 A 
ATOM      6  C   UNL     1       6.980  -3.703 -24.081  0.00  0.00    -0.034 A 
ATOM      7  C   UNL     1       5.966  -4.689 -23.547  0.00  0.00    +0.021 C 
ATOM      8  N   UNL     1       4.598  -4.164 -23.513  0.00  0.00    -0.309 N 
ATOM      9  C   UNL     1       4.365  -3.151 -22.465  0.00  0.00    +0.026 C 
ATOM     10  C   UNL     1       4.402  -3.676 -21.005  0.00  0.00    +0.093 C 
ATOM     11  O   UNL     1       5.750  -3.833 -20.547  0.00  0.00    -0.386 OA
ATOM     12  C   UNL     1       3.684  -2.739 -20.053  0.00  0.00    -0.018 A 
ATOM     13  C   UNL     1       4.206  -1.467 -19.761  0.00  0.00    -0.056 A 
ATOM     14  C   UNL     1       3.539  -0.609 -18.887  0.00  0.00    -0.061 A 
ATOM     15  C   UNL     1       2.343  -1.009 -18.295  0.00  0.00    -0.062 A 
ATOM     16  C   UNL     1       1.812  -2.267 -18.576  0.00  0.00    -0.061 A 
ATOM     17  C   UNL     1       2.479  -3.128 -19.451  0.00  0.00    -0.056 A 
ATOM     18  C   UNL     1       7.046  -3.419 -25.453  0.00  0.00    -0.056 A 
ATOM     19  C   UNL     1       7.975  -2.498 -25.945  0.00  0.00    -0.046 A 
ATOM     20  H   UNL     1       3.960  -4.943 -23.353  0.00  0.00    +0.000 HD
ATOM     21  H   UNL     1       4.440  -3.702 -24.408  0.00  0.00    +0.000 HD
ATOM     22  H   UNL     1       6.193  -2.970 -20.544  0.00  0.00    +0.000 HD
ENDROOT
TORSDOF 0
ENDMDL
