MODEL 1
REMARK VINA RESULT:    -6.382      0.000      0.000
REMARK INTER + INTRA:          -6.382
REMARK INTER:                  -6.382
REMARK INTRA:                   0.000
REMARK UNBOUND:                 0.000
REMARK  Name = /home/vital/Documents/PhD_2021/Malaria_codes/scripts/../data/pdbqt_ligands/ligand_191_temp.pdb
REMARK                            x       y       z     vdW  Elec       q    Type
REMARK                         _______ _______ _______ _____ _____    ______ ____
ROOT
ATOM      1  C1  UNL     1       9.246  -2.693 -24.285  0.00  0.00    -0.042 C 
ATOM      2  C2  UNL     1       8.171  -3.013 -25.286  0.00  0.00    -0.055 C 
ATOM      3  C3  UNL     1       7.874  -2.169 -26.288  0.00  0.00    -0.066 C 
ATOM      4  C4  UNL     1       6.895  -2.438 -27.387  0.00  0.00    +0.035 C 
ATOM      5  N1  UNL     1       6.519  -3.855 -27.492  0.00  0.00    -0.278 N 
ATOM      6  C5  UNL     1       5.612  -4.079 -28.520  0.00  0.00    +0.221 A 
ATOM      7  N2  UNL     1       6.076  -3.836 -29.790  0.00  0.00    -0.216 NA
ATOM      8  C6  UNL     1       5.255  -3.961 -30.785  0.00  0.00    +0.088 A 
ATOM      9  C7  UNL     1       5.788  -3.781 -32.195  0.00  0.00    +0.088 C 
ATOM     10  O1  UNL     1       6.835  -2.821 -32.216  0.00  0.00    -0.389 OA
ATOM     11  C8  UNL     1       3.838  -4.330 -30.655  0.00  0.00    +0.076 A 
ATOM     12  C9  UNL     1       3.492  -4.687 -29.258  0.00  0.00    +0.127 A 
ATOM     13  N3  UNL     1       4.396  -4.468 -28.262  0.00  0.00    -0.205 NA
ATOM     14  C10 UNL     1       2.996  -3.697 -29.912  0.00  0.00    -0.079 C 
ATOM     15  C11 UNL     1       6.297  -4.528 -26.197  0.00  0.00    +0.121 C 
ATOM     16 CL1  UNL     1       6.117  -6.307 -26.487  0.00  0.00    -0.099 Cl
ATOM     17  C12 UNL     1       7.482  -4.356 -25.204  0.00  0.00    +0.087 C 
ATOM     18 CL2  UNL     1       6.897  -4.645 -23.524  0.00  0.00    -0.114 Cl
ATOM     19  H   UNL     1       6.497  -1.967 -31.905  0.00  0.00    +0.000 HD
ENDROOT
TORSDOF 0
ENDMDL
MODEL 2
REMARK VINA RESULT:    -6.013     12.718     14.118
REMARK INTER + INTRA:          -6.013
REMARK INTER:                  -6.013
REMARK INTRA:                   0.000
REMARK UNBOUND:                 0.000
REMARK  Name = /home/vital/Documents/PhD_2021/Malaria_codes/scripts/../data/pdbqt_ligands/ligand_191_temp.pdb
REMARK                            x       y       z     vdW  Elec       q    Type
REMARK                         _______ _______ _______ _____ _____    ______ ____
ROOT
ATOM      1  C1  UNL     1      -6.265  -1.502 -23.065  0.00  0.00    -0.042 C 
ATOM      2  C2  UNL     1      -5.192  -0.728 -22.350  0.00  0.00    -0.055 C 
ATOM      3  C3  UNL     1      -4.902   0.540 -22.685  0.00  0.00    -0.066 C 
ATOM      4  C4  UNL     1      -3.927   1.423 -21.974  0.00  0.00    +0.035 C 
ATOM      5  N1  UNL     1      -3.546   0.915 -20.649  0.00  0.00    -0.278 N 
ATOM      6  C5  UNL     1      -2.642   1.753 -20.009  0.00  0.00    +0.221 A 
ATOM      7  N2  UNL     1      -3.112   3.003 -19.685  0.00  0.00    -0.216 NA
ATOM      8  C6  UNL     1      -2.294   3.853 -19.148  0.00  0.00    +0.088 A 
ATOM      9  C7  UNL     1      -2.833   5.202 -18.708  0.00  0.00    +0.088 C 
ATOM     10  O1  UNL     1      -3.883   5.626 -19.565  0.00  0.00    -0.389 OA
ATOM     11  C8  UNL     1      -0.876   3.585 -18.872  0.00  0.00    +0.076 A 
ATOM     12  C9  UNL     1      -0.522   2.171 -19.146  0.00  0.00    +0.127 A 
ATOM     13  N3  UNL     1      -1.423   1.359 -19.769  0.00  0.00    -0.205 NA
ATOM     14  C10 UNL     1      -0.033   3.188 -19.763  0.00  0.00    -0.079 C 
ATOM     15  C11 UNL     1      -3.316  -0.543 -20.594  0.00  0.00    +0.121 C 
ATOM     16 CL1  UNL     1      -3.131  -1.039 -18.861  0.00  0.00    -0.099 Cl
ATOM     17  C12 UNL     1      -4.499  -1.373 -21.171  0.00  0.00    +0.087 C 
ATOM     18 CL2  UNL     1      -3.906  -3.013 -21.629  0.00  0.00    -0.114 Cl
ATOM     19  H   UNL     1      -3.547   5.711 -20.470  0.00  0.00    +0.000 HD
ENDROOT
TORSDOF 0
ENDMDL
MODEL 3
REMARK VINA RESULT:    -5.873     14.482     15.496
REMARK INTER + INTRA:          -5.873
REMARK INTER:                  -5.873
REMARK INTRA:                   0.000
REMARK UNBOUND:                 0.000
REMARK  Name = /home/vital/Documents/PhD_2021/Malaria_codes/scripts/../data/pdbqt_ligands/ligand_191_temp.pdb
REMARK                            x       y       z     vdW  Elec       q    Type
REMARK                         _______ _______ _______ _____ _____    ______ ____
ROOT
ATOM      1  C1  UNL     1       3.415  10.640 -17.379  0.00  0.00    -0.042 C 
ATOM      2  C2  UNL     1       2.757   9.368 -17.839  0.00  0.00    -0.055 C 
ATOM      3  C3  UNL     1       2.095   8.573 -16.983  0.00  0.00    -0.066 C 
ATOM      4  C4  UNL     1       1.327   7.345 -17.358  0.00  0.00    +0.035 C 
ATOM      5  N1  UNL     1       1.055   7.250 -18.799  0.00  0.00    -0.278 N 
ATOM      6  C5  UNL     1       0.340   6.104 -19.120  0.00  0.00    +0.221 A 
ATOM      7  N2  UNL     1      -0.933   6.030 -18.609  0.00  0.00    -0.216 NA
ATOM      8  C6  UNL     1      -1.624   4.954 -18.817  0.00  0.00    +0.088 A 
ATOM      9  C7  UNL     1      -3.061   4.907 -18.329  0.00  0.00    +0.088 C 
ATOM     10  O1  UNL     1      -3.211   5.662 -17.136  0.00  0.00    -0.389 OA
ATOM     11  C8  UNL     1      -1.137   3.780 -19.555  0.00  0.00    +0.076 A 
ATOM     12  C9  UNL     1       0.194   4.029 -20.162  0.00  0.00    +0.127 A 
ATOM     13  N3  UNL     1       0.880   5.162 -19.841  0.00  0.00    -0.205 NA
ATOM     14  C10 UNL     1      -0.054   3.145 -19.261  0.00  0.00    -0.079 C 
ATOM     15  C11 UNL     1       2.187   7.640 -19.663  0.00  0.00    +0.121 C 
ATOM     16 CL1  UNL     1       1.607   7.732 -21.377  0.00  0.00    -0.099 Cl
ATOM     17  C12 UNL     1       2.772   9.039 -19.314  0.00  0.00    +0.087 C 
ATOM     18 CL2  UNL     1       4.454   9.156 -19.953  0.00  0.00    -0.114 Cl
ATOM     19  H   UNL     1      -2.641   5.290 -16.445  0.00  0.00    +0.000 HD
ENDROOT
TORSDOF 0
ENDMDL
MODEL 4
REMARK VINA RESULT:    -5.832      2.298      3.122
REMARK INTER + INTRA:          -5.832
REMARK INTER:                  -5.832
REMARK INTRA:                   0.000
REMARK UNBOUND:                 0.000
REMARK  Name = /home/vital/Documents/PhD_2021/Malaria_codes/scripts/../data/pdbqt_ligands/ligand_191_temp.pdb
REMARK                            x       y       z     vdW  Elec       q    Type
REMARK                         _______ _______ _______ _____ _____    ______ ____
ROOT
ATOM      1  C1  UNL     1       6.841  -4.405 -23.687  0.00  0.00    -0.042 C 
ATOM      2  C2  UNL     1       6.628  -4.285 -25.171  0.00  0.00    -0.055 C 
ATOM      3  C3  UNL     1       6.170  -5.317 -25.899  0.00  0.00    -0.066 C 
ATOM      4  C4  UNL     1       5.832  -5.268 -27.356  0.00  0.00    +0.035 C 
ATOM      5  N1  UNL     1       5.709  -3.900 -27.875  0.00  0.00    -0.278 N 
ATOM      6  C5  UNL     1       5.394  -3.882 -29.227  0.00  0.00    +0.221 A 
ATOM      7  N2  UNL     1       4.166  -4.400 -29.562  0.00  0.00    -0.216 NA
ATOM      8  C6  UNL     1       3.844  -4.474 -30.815  0.00  0.00    +0.088 A 
ATOM      9  C7  UNL     1       2.454  -4.962 -31.181  0.00  0.00    +0.088 C 
ATOM     10  O1  UNL     1       1.998  -5.925 -30.243  0.00  0.00    -0.389 OA
ATOM     11  C8  UNL     1       4.712  -4.055 -31.925  0.00  0.00    +0.076 A 
ATOM     12  C9  UNL     1       5.950  -3.401 -31.435  0.00  0.00    +0.127 A 
ATOM     13  N3  UNL     1       6.242  -3.422 -30.104  0.00  0.00    -0.205 NA
ATOM     14  C10 UNL     1       5.910  -4.498 -32.106  0.00  0.00    -0.079 C 
ATOM     15  C11 UNL     1       6.736  -2.961 -27.379  0.00  0.00    +0.121 C 
ATOM     16 CL1  UNL     1       6.284  -1.281 -27.887  0.00  0.00    -0.099 Cl
ATOM     17  C12 UNL     1       6.850  -2.941 -25.827  0.00  0.00    +0.087 C 
ATOM     18 CL2  UNL     1       8.463  -2.288 -25.358  0.00  0.00    -0.114 Cl
ATOM     19  H   UNL     1       2.599  -6.686 -30.242  0.00  0.00    +0.000 HD
ENDROOT
TORSDOF 0
ENDMDL
MODEL 5
REMARK VINA RESULT:    -5.710      5.277      7.240
REMARK INTER + INTRA:          -5.710
REMARK INTER:                  -5.710
REMARK INTRA:                   0.000
REMARK UNBOUND:                 0.000
REMARK  Name = /home/vital/Documents/PhD_2021/Malaria_codes/scripts/../data/pdbqt_ligands/ligand_191_temp.pdb
REMARK                            x       y       z     vdW  Elec       q    Type
REMARK                         _______ _______ _______ _____ _____    ______ ____
ROOT
ATOM      1  C1  UNL     1       6.755  -4.422 -23.968  0.00  0.00    -0.042 C 
ATOM      2  C2  UNL     1       7.676  -3.240 -24.100  0.00  0.00    -0.055 C 
ATOM      3  C3  UNL     1       8.756  -3.279 -24.897  0.00  0.00    -0.066 C 
ATOM      4  C4  UNL     1       9.673  -2.130 -25.172  0.00  0.00    +0.035 C 
ATOM      5  N1  UNL     1       9.111  -0.833 -24.772  0.00  0.00    -0.278 N 
ATOM      6  C5  UNL     1       9.980   0.217 -25.038  0.00  0.00    +0.221 A 
ATOM      7  N2  UNL     1      10.250   0.447 -26.365  0.00  0.00    -0.216 NA
ATOM      8  C6  UNL     1      11.107   1.369 -26.674  0.00  0.00    +0.088 A 
ATOM      9  C7  UNL     1      11.339   1.685 -28.141  0.00  0.00    +0.088 C 
ATOM     10  O1  UNL     1      11.192   0.517 -28.935  0.00  0.00    -0.389 OA
ATOM     11  C8  UNL     1      11.838   2.188 -25.697  0.00  0.00    +0.076 A 
ATOM     12  C9  UNL     1      11.370   1.935 -24.312  0.00  0.00    +0.127 A 
ATOM     13  N3  UNL     1      10.512   0.905 -24.068  0.00  0.00    -0.205 NA
ATOM     14  C10 UNL     1      12.558   1.699 -24.746  0.00  0.00    -0.079 C 
ATOM     15  C11 UNL     1       8.398  -0.847 -23.478  0.00  0.00    +0.121 C 
ATOM     16 CL1  UNL     1       7.541   0.736 -23.268  0.00  0.00    -0.099 Cl
ATOM     17  C12 UNL     1       7.313  -1.957 -23.387  0.00  0.00    +0.087 C 
ATOM     18 CL2  UNL     1       6.955  -2.298 -21.653  0.00  0.00    -0.114 Cl
ATOM     19  H   UNL     1      11.843  -0.146 -28.657  0.00  0.00    +0.000 HD
ENDROOT
TORSDOF 0
ENDMDL
MODEL 6
REMARK VINA RESULT:    -5.651      4.445      7.573
REMARK INTER + INTRA:          -5.651
REMARK INTER:                  -5.651
REMARK INTRA:                   0.000
REMARK UNBOUND:                 0.000
REMARK  Name = /home/vital/Documents/PhD_2021/Malaria_codes/scripts/../data/pdbqt_ligands/ligand_191_temp.pdb
REMARK                            x       y       z     vdW  Elec       q    Type
REMARK                         _______ _______ _______ _____ _____    ______ ____
ROOT
ATOM      1  C1  UNL     1      -0.039  -9.127 -34.305  0.00  0.00    -0.042 C 
ATOM      2  C2  UNL     1       0.676  -8.235 -33.327  0.00  0.00    -0.055 C 
ATOM      3  C3  UNL     1       1.950  -7.858 -33.523  0.00  0.00    -0.066 C 
ATOM      4  C4  UNL     1       2.713  -6.899 -32.666  0.00  0.00    +0.035 C 
ATOM      5  N1  UNL     1       1.853  -6.117 -31.767  0.00  0.00    -0.278 N 
ATOM      6  C5  UNL     1       2.584  -5.234 -30.984  0.00  0.00    +0.221 A 
ATOM      7  N2  UNL     1       3.235  -4.232 -31.661  0.00  0.00    -0.216 NA
ATOM      8  C6  UNL     1       3.989  -3.418 -30.991  0.00  0.00    +0.088 A 
ATOM      9  C7  UNL     1       4.637  -2.257 -31.725  0.00  0.00    +0.088 C 
ATOM     10  O1  UNL     1       4.945  -2.618 -33.063  0.00  0.00    -0.389 OA
ATOM     11  C8  UNL     1       4.219  -3.497 -29.542  0.00  0.00    +0.076 A 
ATOM     12  C9  UNL     1       3.369  -4.534 -28.909  0.00  0.00    +0.127 A 
ATOM     13  N3  UNL     1       2.652  -5.389 -29.692  0.00  0.00    -0.205 NA
ATOM     14  C10 UNL     1       4.655  -4.550 -28.941  0.00  0.00    -0.079 C 
ATOM     15  C11 UNL     1       0.767  -6.890 -31.131  0.00  0.00    +0.121 C 
ATOM     16 CL1  UNL     1      -0.351  -5.739 -30.288  0.00  0.00    -0.099 Cl
ATOM     17  C12 UNL     1      -0.099  -7.685 -32.151  0.00  0.00    +0.087 C 
ATOM     18 CL2  UNL     1      -0.948  -9.024 -31.293  0.00  0.00    -0.114 Cl
ATOM     19  H   UNL     1       5.565  -3.364 -33.062  0.00  0.00    +0.000 HD
ENDROOT
TORSDOF 0
ENDMDL
MODEL 7
REMARK VINA RESULT:    -5.639     14.694     16.288
REMARK INTER + INTRA:          -5.639
REMARK INTER:                  -5.639
REMARK INTRA:                   0.000
REMARK UNBOUND:                 0.000
REMARK  Name = /home/vital/Documents/PhD_2021/Malaria_codes/scripts/../data/pdbqt_ligands/ligand_191_temp.pdb
REMARK                            x       y       z     vdW  Elec       q    Type
REMARK                         _______ _______ _______ _____ _____    ______ ____
ROOT
ATOM      1  C1  UNL     1      -2.906   4.798 -18.112  0.00  0.00    -0.042 C 
ATOM      2  C2  UNL     1      -1.494   4.864 -17.599  0.00  0.00    -0.055 C 
ATOM      3  C3  UNL     1      -1.230   5.088 -16.302  0.00  0.00    -0.066 C 
ATOM      4  C4  UNL     1       0.130   5.073 -15.678  0.00  0.00    +0.035 C 
ATOM      5  N1  UNL     1       1.150   4.449 -16.532  0.00  0.00    -0.278 N 
ATOM      6  C5  UNL     1       2.402   4.445 -15.931  0.00  0.00    +0.221 A 
ATOM      7  N2  UNL     1       2.516   3.688 -14.791  0.00  0.00    -0.216 NA
ATOM      8  C6  UNL     1       3.641   3.700 -14.146  0.00  0.00    +0.088 A 
ATOM      9  C7  UNL     1       3.796   2.794 -12.938  0.00  0.00    +0.088 C 
ATOM     10  O1  UNL     1       2.558   2.646 -12.259  0.00  0.00    -0.389 OA
ATOM     11  C8  UNL     1       4.817   4.489 -14.539  0.00  0.00    +0.076 A 
ATOM     12  C9  UNL     1       4.614   5.161 -15.846  0.00  0.00    +0.127 A 
ATOM     13  N3  UNL     1       3.381   5.149 -16.425  0.00  0.00    -0.205 NA
ATOM     14  C10 UNL     1       4.796   5.764 -14.724  0.00  0.00    -0.079 C 
ATOM     15  C11 UNL     1       1.056   4.807 -17.961  0.00  0.00    +0.121 C 
ATOM     16 CL1  UNL     1       2.192   3.754 -18.902  0.00  0.00    -0.099 Cl
ATOM     17  C12 UNL     1      -0.362   4.578 -18.559  0.00  0.00    +0.087 C 
ATOM     18 CL2  UNL     1      -0.549   5.580 -20.046  0.00  0.00    -0.114 Cl
ATOM     19  H   UNL     1       2.251   3.514 -11.954  0.00  0.00    +0.000 HD
ENDROOT
TORSDOF 0
ENDMDL
MODEL 8
REMARK VINA RESULT:    -5.542      4.687      6.601
REMARK INTER + INTRA:          -5.542
REMARK INTER:                  -5.542
REMARK INTRA:                   0.000
REMARK UNBOUND:                 0.000
REMARK  Name = /home/vital/Documents/PhD_2021/Malaria_codes/scripts/../data/pdbqt_ligands/ligand_191_temp.pdb
REMARK                            x       y       z     vdW  Elec       q    Type
REMARK                         _______ _______ _______ _____ _____    ______ ____
ROOT
ATOM      1  C1  UNL     1       2.298  -3.258 -19.322  0.00  0.00    -0.042 C 
ATOM      2  C2  UNL     1       3.459  -3.188 -20.276  0.00  0.00    -0.055 C 
ATOM      3  C3  UNL     1       4.118  -4.293 -20.659  0.00  0.00    -0.066 C 
ATOM      4  C4  UNL     1       5.217  -4.341 -21.673  0.00  0.00    +0.035 C 
ATOM      5  N1  UNL     1       5.300  -3.123 -22.492  0.00  0.00    -0.278 N 
ATOM      6  C5  UNL     1       6.325  -3.192 -23.426  0.00  0.00    +0.221 A 
ATOM      7  N2  UNL     1       6.183  -4.152 -24.399  0.00  0.00    -0.216 NA
ATOM      8  C6  UNL     1       7.140  -4.311 -25.258  0.00  0.00    +0.088 A 
ATOM      9  C7  UNL     1       6.946  -5.308 -26.387  0.00  0.00    +0.088 C 
ATOM     10  O1  UNL     1       6.149  -6.402 -25.957  0.00  0.00    -0.389 OA
ATOM     11  C8  UNL     1       8.393  -3.543 -25.262  0.00  0.00    +0.076 A 
ATOM     12  C9  UNL     1       8.374  -2.459 -24.249  0.00  0.00    +0.127 A 
ATOM     13  N3  UNL     1       7.357  -2.401 -23.343  0.00  0.00    -0.205 NA
ATOM     14  C10 UNL     1       9.185  -3.457 -24.249  0.00  0.00    -0.079 C 
ATOM     15  C11 UNL     1       5.116  -1.865 -21.740  0.00  0.00    +0.121 C 
ATOM     16 CL1  UNL     1       4.972  -0.497 -22.919  0.00  0.00    -0.099 Cl
ATOM     17  C12 UNL     1       3.820  -1.849 -20.878  0.00  0.00    +0.087 C 
ATOM     18 CL2  UNL     1       3.988  -0.614 -19.576  0.00  0.00    -0.114 Cl
ATOM     19  H   UNL     1       6.590  -6.854 -25.221  0.00  0.00    +0.000 HD
ENDROOT
TORSDOF 0
ENDMDL
MODEL 9
REMARK VINA RESULT:    -5.281     15.290     17.029
REMARK INTER + INTRA:          -5.281
REMARK INTER:                  -5.281
REMARK INTRA:                   0.000
REMARK UNBOUND:                 0.000
REMARK  Name = /home/vital/Documents/PhD_2021/Malaria_codes/scripts/../data/pdbqt_ligands/ligand_191_temp.pdb
REMARK                            x       y       z     vdW  Elec       q    Type
REMARK                         _______ _______ _______ _____ _____    ______ ____
ROOT
ATOM      1  C1  UNL     1      -7.462  -5.944 -31.888  0.00  0.00    -0.042 C 
ATOM      2  C2  UNL     1      -7.798  -7.358 -31.500  0.00  0.00    -0.055 C 
ATOM      3  C3  UNL     1      -6.894  -8.156 -30.909  0.00  0.00    -0.066 C 
ATOM      4  C4  UNL     1      -7.158  -9.537 -30.398  0.00  0.00    +0.035 C 
ATOM      5  N1  UNL     1      -8.590  -9.844 -30.277  0.00  0.00    -0.278 N 
ATOM      6  C5  UNL     1      -8.809 -11.129 -29.799  0.00  0.00    +0.221 A 
ATOM      7  N2  UNL     1      -8.379 -11.372 -28.517  0.00  0.00    -0.216 NA
ATOM      8  C6  UNL     1      -8.493 -12.572 -28.040  0.00  0.00    +0.088 A 
ATOM      9  C7  UNL     1      -8.103 -12.820 -26.594  0.00  0.00    +0.088 C 
ATOM     10  O1  UNL     1      -7.030 -11.972 -26.212  0.00  0.00    -0.389 OA
ATOM     11  C8  UNL     1      -9.039 -13.716 -28.785  0.00  0.00    +0.076 A 
ATOM     12  C9  UNL     1      -9.581 -13.303 -30.102  0.00  0.00    +0.127 A 
ATOM     13  N3  UNL     1      -9.363 -12.035 -30.554  0.00  0.00    -0.205 NA
ATOM     14  C10 UNL     1      -8.592 -14.107 -29.929  0.00  0.00    -0.079 C 
ATOM     15  C11 UNL     1      -9.418  -9.359 -31.399  0.00  0.00    +0.121 C 
ATOM     16 CL1  UNL     1     -11.165  -9.570 -30.967  0.00  0.00    -0.099 Cl
ATOM     17  C12 UNL     1      -9.215  -7.847 -31.703  0.00  0.00    +0.087 C 
ATOM     18 CL2  UNL     1      -9.747  -7.503 -33.390  0.00  0.00    -0.114 Cl
ATOM     19  H   UNL     1      -6.260 -12.153 -26.773  0.00  0.00    +0.000 HD
ENDROOT
TORSDOF 0
ENDMDL
