MODEL 1
REMARK VINA RESULT:    -4.942      0.000      0.000
REMARK INTER + INTRA:          -4.942
REMARK INTER:                  -4.942
REMARK INTRA:                   0.000
REMARK UNBOUND:                 0.000
REMARK  Name = /home/vital/Documents/PhD_2021/Malaria_codes/scripts/../data/pdbqt_ligands/ligand_373_temp.pdb
REMARK                            x       y       z     vdW  Elec       q    Type
REMARK                         _______ _______ _______ _____ _____    ______ ____
ROOT
ATOM      1  C1  UNL     1       3.383  10.766 -16.808  0.00  0.00    -0.050 C 
ATOM      2  C2  UNL     1       4.025   9.408 -16.569  0.00  0.00    +0.008 C 
ATOM      3  N1  UNL     1       3.033   8.388 -16.239  0.00  0.00    -0.329 N 
ATOM      4  C3  UNL     1       2.318   7.814 -17.311  0.00  0.00    +0.132 A 
ATOM      5  N2  UNL     1       2.620   8.189 -18.565  0.00  0.00    -0.199 NA
ATOM      6  C4  UNL     1       1.941   7.649 -19.591  0.00  0.00    +0.224 A 
ATOM      7  N3  UNL     1       2.253   8.055 -20.905  0.00  0.00    -0.271 N 
ATOM      8  C5  UNL     1       1.610   7.570 -22.035  0.00  0.00    +0.020 C 
ATOM      9  C6  UNL     1       1.911   7.949 -23.287  0.00  0.00    +0.073 C 
ATOM     10 CL1  UNL     1       1.043   7.280 -24.619  0.00  0.00    -0.081 Cl
ATOM     11  C7  UNL     1       2.971   8.923 -23.478  0.00  0.00    +0.058 C 
ATOM     12 CL2  UNL     1       3.408   9.458 -25.064  0.00  0.00    -0.082 Cl
ATOM     13  C8  UNL     1       3.631   9.423 -22.419  0.00  0.00    -0.047 C 
ATOM     14  C9  UNL     1       3.341   9.034 -20.990  0.00  0.00    +0.039 C 
ATOM     15  N4  UNL     1       0.970   6.740 -19.410  0.00  0.00    -0.214 NA
ATOM     16  C10 UNL     1       0.686   6.340 -18.169  0.00  0.00    +0.078 A 
ATOM     17  C11 UNL     1      -0.305   5.382 -17.990  0.00  0.00    -0.036 A 
ATOM     18  C12 UNL     1      -0.651   4.901 -16.725  0.00  0.00    -0.060 A 
ATOM     19  C13 UNL     1       0.009   5.381 -15.603  0.00  0.00    -0.061 A 
ATOM     20  C14 UNL     1       1.003   6.344 -15.758  0.00  0.00    -0.049 A 
ATOM     21  C15 UNL     1       1.344   6.840 -17.045  0.00  0.00    +0.040 A 
ATOM     22  H   UNL     1       2.870   8.113 -15.308  0.00  0.00    +0.000 HD
ENDROOT
TORSDOF 0
ENDMDL
MODEL 2
REMARK VINA RESULT:    -4.654      1.546      2.010
REMARK INTER + INTRA:          -4.654
REMARK INTER:                  -4.654
REMARK INTRA:                   0.000
REMARK UNBOUND:                 0.000
REMARK  Name = /home/vital/Documents/PhD_2021/Malaria_codes/scripts/../data/pdbqt_ligands/ligand_373_temp.pdb
REMARK                            x       y       z     vdW  Elec       q    Type
REMARK                         _______ _______ _______ _____ _____    ______ ____
ROOT
ATOM      1  C1  UNL     1       2.378   9.225 -17.117  0.00  0.00    -0.050 C 
ATOM      2  C2  UNL     1       2.535   7.717 -16.983  0.00  0.00    +0.008 C 
ATOM      3  N1  UNL     1       1.244   7.034 -16.991  0.00  0.00    -0.329 N 
ATOM      4  C3  UNL     1       0.638   6.816 -18.246  0.00  0.00    +0.132 A 
ATOM      5  N2  UNL     1       1.294   7.195 -19.356  0.00  0.00    -0.199 NA
ATOM      6  C4  UNL     1       0.722   6.994 -20.555  0.00  0.00    +0.224 A 
ATOM      7  N3  UNL     1       1.409   7.404 -21.716  0.00  0.00    -0.271 N 
ATOM      8  C5  UNL     1       0.908   7.254 -23.002  0.00  0.00    +0.020 C 
ATOM      9  C6  UNL     1       1.564   7.636 -24.109  0.00  0.00    +0.073 C 
ATOM     10 CL1  UNL     1       0.843   7.401 -25.658  0.00  0.00    -0.081 Cl
ATOM     11  C7  UNL     1       2.875   8.242 -23.961  0.00  0.00    +0.058 C 
ATOM     12 CL2  UNL     1       3.774   8.760 -25.345  0.00  0.00    -0.082 Cl
ATOM     13  C8  UNL     1       3.412   8.407 -22.739  0.00  0.00    -0.047 C 
ATOM     14  C9  UNL     1       2.726   7.995 -21.459  0.00  0.00    +0.039 C 
ATOM     15  N4  UNL     1      -0.486   6.423 -20.688  0.00  0.00    -0.214 NA
ATOM     16  C10 UNL     1      -1.129   6.017 -19.592  0.00  0.00    +0.078 A 
ATOM     17  C11 UNL     1      -2.369   5.406 -19.737  0.00  0.00    -0.036 A 
ATOM     18  C12 UNL     1      -3.099   4.940 -18.641  0.00  0.00    -0.060 A 
ATOM     19  C13 UNL     1      -2.582   5.082 -17.360  0.00  0.00    -0.061 A 
ATOM     20  C14 UNL     1      -1.343   5.694 -17.191  0.00  0.00    -0.049 A 
ATOM     21  C15 UNL     1      -0.609   6.177 -18.307  0.00  0.00    +0.040 A 
ATOM     22  H   UNL     1       0.815   6.738 -16.157  0.00  0.00    +0.000 HD
ENDROOT
TORSDOF 0
ENDMDL
MODEL 3
REMARK VINA RESULT:    -4.605     10.740     12.105
REMARK INTER + INTRA:          -4.605
REMARK INTER:                  -4.605
REMARK INTRA:                   0.000
REMARK UNBOUND:                 0.000
REMARK  Name = /home/vital/Documents/PhD_2021/Malaria_codes/scripts/../data/pdbqt_ligands/ligand_373_temp.pdb
REMARK                            x       y       z     vdW  Elec       q    Type
REMARK                         _______ _______ _______ _____ _____    ______ ____
ROOT
ATOM      1  C1  UNL     1       9.199  -0.031 -19.233  0.00  0.00    -0.050 C 
ATOM      2  C2  UNL     1       8.847   0.675 -20.534  0.00  0.00    +0.008 C 
ATOM      3  N1  UNL     1       9.000  -0.206 -21.689  0.00  0.00    -0.329 N 
ATOM      4  C3  UNL     1       7.954  -1.116 -21.949  0.00  0.00    +0.132 A 
ATOM      5  N2  UNL     1       6.863  -1.090 -21.165  0.00  0.00    -0.199 NA
ATOM      6  C4  UNL     1       5.865  -1.956 -21.404  0.00  0.00    +0.224 A 
ATOM      7  N3  UNL     1       4.727  -1.932 -20.571  0.00  0.00    -0.271 N 
ATOM      8  C5  UNL     1       3.643  -2.787 -20.722  0.00  0.00    +0.020 C 
ATOM      9  C6  UNL     1       2.556  -2.760 -19.935  0.00  0.00    +0.073 C 
ATOM     10 CL1  UNL     1       1.267  -3.872 -20.214  0.00  0.00    -0.081 Cl
ATOM     11  C7  UNL     1       2.502  -1.783 -18.862  0.00  0.00    +0.058 C 
ATOM     12 CL2  UNL     1       1.133  -1.697 -17.809  0.00  0.00    -0.082 Cl
ATOM     13  C8  UNL     1       3.522  -0.927 -18.673  0.00  0.00    -0.047 C 
ATOM     14  C9  UNL     1       4.768  -0.906 -19.525  0.00  0.00    +0.039 C 
ATOM     15  N4  UNL     1       5.914  -2.850 -22.404  0.00  0.00    -0.214 NA
ATOM     16  C10 UNL     1       6.980  -2.861 -23.205  0.00  0.00    +0.078 A 
ATOM     17  C11 UNL     1       7.015  -3.774 -24.254  0.00  0.00    -0.036 A 
ATOM     18  C12 UNL     1       8.089  -3.839 -25.145  0.00  0.00    -0.060 A 
ATOM     19  C13 UNL     1       9.161  -2.970 -24.994  0.00  0.00    -0.061 A 
ATOM     20  C14 UNL     1       9.149  -2.050 -23.949  0.00  0.00    -0.049 A 
ATOM     21  C15 UNL     1       8.060  -1.994 -23.038  0.00  0.00    +0.040 A 
ATOM     22  H   UNL     1       9.800  -0.167 -22.262  0.00  0.00    +0.000 HD
ENDROOT
TORSDOF 0
ENDMDL
MODEL 4
REMARK VINA RESULT:    -4.539      2.540      5.108
REMARK INTER + INTRA:          -4.539
REMARK INTER:                  -4.539
REMARK INTRA:                   0.000
REMARK UNBOUND:                 0.000
REMARK  Name = /home/vital/Documents/PhD_2021/Malaria_codes/scripts/../data/pdbqt_ligands/ligand_373_temp.pdb
REMARK                            x       y       z     vdW  Elec       q    Type
REMARK                         _______ _______ _______ _____ _____    ______ ____
ROOT
ATOM      1  C1  UNL     1       0.940   4.498 -15.263  0.00  0.00    -0.050 C 
ATOM      2  C2  UNL     1       0.309   5.881 -15.190  0.00  0.00    +0.008 C 
ATOM      3  N1  UNL     1       1.187   6.909 -15.743  0.00  0.00    -0.329 N 
ATOM      4  C3  UNL     1       1.216   7.044 -17.147  0.00  0.00    +0.132 A 
ATOM      5  N2  UNL     1       0.409   6.269 -17.889  0.00  0.00    -0.199 NA
ATOM      6  C4  UNL     1       0.434   6.389 -19.227  0.00  0.00    +0.224 A 
ATOM      7  N3  UNL     1      -0.407   5.565 -20.002  0.00  0.00    -0.271 N 
ATOM      8  C5  UNL     1      -0.455   5.599 -21.389  0.00  0.00    +0.020 C 
ATOM      9  C6  UNL     1      -1.262   4.821 -22.128  0.00  0.00    +0.073 C 
ATOM     10 CL1  UNL     1      -1.235   4.948 -23.848  0.00  0.00    -0.081 Cl
ATOM     11  C7  UNL     1      -2.138   3.887 -21.445  0.00  0.00    +0.058 C 
ATOM     12 CL2  UNL     1      -3.200   2.852 -22.336  0.00  0.00    -0.082 Cl
ATOM     13  C8  UNL     1      -2.137   3.815 -20.102  0.00  0.00    -0.047 C 
ATOM     14  C9  UNL     1      -1.257   4.665 -19.217  0.00  0.00    +0.039 C 
ATOM     15  N4  UNL     1       1.238   7.262 -19.854  0.00  0.00    -0.214 NA
ATOM     16  C10 UNL     1       2.021   8.056 -19.122  0.00  0.00    +0.078 A 
ATOM     17  C11 UNL     1       2.834   8.975 -19.776  0.00  0.00    -0.036 A 
ATOM     18  C12 UNL     1       3.671   9.851 -19.081  0.00  0.00    -0.060 A 
ATOM     19  C13 UNL     1       3.700   9.819 -17.694  0.00  0.00    -0.061 A 
ATOM     20  C14 UNL     1       2.896   8.905 -17.018  0.00  0.00    -0.049 A 
ATOM     21  C15 UNL     1       2.054   8.007 -17.728  0.00  0.00    +0.040 A 
ATOM     22  H   UNL     1       1.734   7.483 -15.161  0.00  0.00    +0.000 HD
ENDROOT
TORSDOF 0
ENDMDL
MODEL 5
REMARK VINA RESULT:    -4.446     12.102     13.025
REMARK INTER + INTRA:          -4.446
REMARK INTER:                  -4.446
REMARK INTRA:                   0.000
REMARK UNBOUND:                 0.000
REMARK  Name = /home/vital/Documents/PhD_2021/Malaria_codes/scripts/../data/pdbqt_ligands/ligand_373_temp.pdb
REMARK                            x       y       z     vdW  Elec       q    Type
REMARK                         _______ _______ _______ _____ _____    ______ ____
ROOT
ATOM      1  C1  UNL     1       6.491  -0.305 -21.277  0.00  0.00    -0.050 C 
ATOM      2  C2  UNL     1       7.357  -1.539 -21.069  0.00  0.00    +0.008 C 
ATOM      3  N1  UNL     1       7.025  -2.602 -22.013  0.00  0.00    -0.329 N 
ATOM      4  C3  UNL     1       7.560  -2.499 -23.313  0.00  0.00    +0.132 A 
ATOM      5  N2  UNL     1       8.379  -1.473 -23.598  0.00  0.00    -0.199 NA
ATOM      6  C4  UNL     1       8.889  -1.367 -24.836  0.00  0.00    +0.224 A 
ATOM      7  N3  UNL     1       9.739  -0.281 -25.132  0.00  0.00    -0.271 N 
ATOM      8  C5  UNL     1      10.313  -0.070 -26.378  0.00  0.00    +0.020 C 
ATOM      9  C6  UNL     1      11.129   0.959 -26.660  0.00  0.00    +0.073 C 
ATOM     10 CL1  UNL     1      11.785   1.124 -28.247  0.00  0.00    -0.081 Cl
ATOM     11  C7  UNL     1      11.434   1.909 -25.605  0.00  0.00    +0.058 C 
ATOM     12 CL2  UNL     1      12.475   3.258 -25.901  0.00  0.00    -0.082 Cl
ATOM     13  C8  UNL     1      10.909   1.750 -24.377  0.00  0.00    -0.047 C 
ATOM     14  C9  UNL     1       9.990   0.614 -23.999  0.00  0.00    +0.039 C 
ATOM     15  N4  UNL     1       8.614  -2.254 -25.804  0.00  0.00    -0.214 NA
ATOM     16  C10 UNL     1       7.826  -3.292 -25.521  0.00  0.00    +0.078 A 
ATOM     17  C11 UNL     1       7.563  -4.220 -26.522  0.00  0.00    -0.036 A 
ATOM     18  C12 UNL     1       6.759  -5.341 -26.301  0.00  0.00    -0.060 A 
ATOM     19  C13 UNL     1       6.202  -5.552 -25.047  0.00  0.00    -0.061 A 
ATOM     20  C14 UNL     1       6.450  -4.633 -24.031  0.00  0.00    -0.049 A 
ATOM     21  C15 UNL     1       7.258  -3.488 -24.262  0.00  0.00    +0.040 A 
ATOM     22  H   UNL     1       6.451  -3.358 -21.752  0.00  0.00    +0.000 HD
ENDROOT
TORSDOF 0
ENDMDL
MODEL 6
REMARK VINA RESULT:    -4.406     10.077     12.004
REMARK INTER + INTRA:          -4.406
REMARK INTER:                  -4.406
REMARK INTRA:                   0.000
REMARK UNBOUND:                 0.000
REMARK  Name = /home/vital/Documents/PhD_2021/Malaria_codes/scripts/../data/pdbqt_ligands/ligand_373_temp.pdb
REMARK                            x       y       z     vdW  Elec       q    Type
REMARK                         _______ _______ _______ _____ _____    ______ ____
ROOT
ATOM      1  C1  UNL     1      -1.627  -6.449 -22.289  0.00  0.00    -0.050 C 
ATOM      2  C2  UNL     1      -1.851  -5.298 -23.258  0.00  0.00    +0.008 C 
ATOM      3  N1  UNL     1      -2.713  -4.266 -22.687  0.00  0.00    -0.329 N 
ATOM      4  C3  UNL     1      -2.117  -3.347 -21.800  0.00  0.00    +0.132 A 
ATOM      5  N2  UNL     1      -0.795  -3.432 -21.570  0.00  0.00    -0.199 NA
ATOM      6  C4  UNL     1      -0.221  -2.562 -20.724  0.00  0.00    +0.224 A 
ATOM      7  N3  UNL     1       1.164  -2.663 -20.477  0.00  0.00    -0.271 N 
ATOM      8  C5  UNL     1       1.857  -1.824 -19.616  0.00  0.00    +0.020 C 
ATOM      9  C6  UNL     1       3.177  -1.913 -19.386  0.00  0.00    +0.073 C 
ATOM     10 CL1  UNL     1       3.934  -0.816 -18.292  0.00  0.00    -0.081 Cl
ATOM     11  C7  UNL     1       3.930  -2.945 -20.076  0.00  0.00    +0.058 C 
ATOM     12 CL2  UNL     1       5.633  -3.119 -19.824  0.00  0.00    -0.082 Cl
ATOM     13  C8  UNL     1       3.311  -3.783 -20.926  0.00  0.00    -0.047 C 
ATOM     14  C9  UNL     1       1.833  -3.730 -21.228  0.00  0.00    +0.039 C 
ATOM     15  N4  UNL     1      -0.919  -1.602 -20.097  0.00  0.00    -0.214 NA
ATOM     16  C10 UNL     1      -2.226  -1.492 -20.343  0.00  0.00    +0.078 A 
ATOM     17  C11 UNL     1      -2.939  -0.482 -19.708  0.00  0.00    -0.036 A 
ATOM     18  C12 UNL     1      -4.306  -0.292 -19.924  0.00  0.00    -0.060 A 
ATOM     19  C13 UNL     1      -4.987  -1.127 -20.799  0.00  0.00    -0.061 A 
ATOM     20  C14 UNL     1      -4.293  -2.148 -21.443  0.00  0.00    -0.049 A 
ATOM     21  C15 UNL     1      -2.905  -2.346 -21.213  0.00  0.00    +0.040 A 
ATOM     22  H   UNL     1      -3.670  -4.215 -22.912  0.00  0.00    +0.000 HD
ENDROOT
TORSDOF 0
ENDMDL
MODEL 7
REMARK VINA RESULT:    -4.365     11.138     12.960
REMARK INTER + INTRA:          -4.365
REMARK INTER:                  -4.365
REMARK INTRA:                   0.000
REMARK UNBOUND:                 0.000
REMARK  Name = /home/vital/Documents/PhD_2021/Malaria_codes/scripts/../data/pdbqt_ligands/ligand_373_temp.pdb
REMARK                            x       y       z     vdW  Elec       q    Type
REMARK                         _______ _______ _______ _____ _____    ______ ____
ROOT
ATOM      1  C1  UNL     1      -4.124  -3.422 -26.332  0.00  0.00    -0.050 C 
ATOM      2  C2  UNL     1      -5.018  -4.057 -25.277  0.00  0.00    +0.008 C 
ATOM      3  N1  UNL     1      -4.580  -3.728 -23.923  0.00  0.00    -0.329 N 
ATOM      4  C3  UNL     1      -4.949  -2.465 -23.415  0.00  0.00    +0.132 A 
ATOM      5  N2  UNL     1      -5.719  -1.663 -24.170  0.00  0.00    -0.199 NA
ATOM      6  C4  UNL     1      -6.073  -0.458 -23.694  0.00  0.00    +0.224 A 
ATOM      7  N3  UNL     1      -6.871   0.384 -24.495  0.00  0.00    -0.271 N 
ATOM      8  C5  UNL     1      -7.286   1.651 -24.106  0.00  0.00    +0.020 C 
ATOM      9  C6  UNL     1      -8.053   2.451 -24.864  0.00  0.00    +0.073 C 
ATOM     10 CL1  UNL     1      -8.507   4.009 -24.279  0.00  0.00    -0.081 Cl
ATOM     11  C7  UNL     1      -8.479   1.970 -26.166  0.00  0.00    +0.058 C 
ATOM     12 CL2  UNL     1      -9.465   2.951 -27.195  0.00  0.00    -0.082 Cl
ATOM     13  C8  UNL     1      -8.110   0.748 -26.592  0.00  0.00    -0.047 C 
ATOM     14  C9  UNL     1      -7.253  -0.197 -25.785  0.00  0.00    +0.039 C 
ATOM     15  N4  UNL     1      -5.687  -0.022 -22.485  0.00  0.00    -0.214 NA
ATOM     16  C10 UNL     1      -4.947  -0.825 -21.717  0.00  0.00    +0.078 A 
ATOM     17  C11 UNL     1      -4.570  -0.377 -20.456  0.00  0.00    -0.036 A 
ATOM     18  C12 UNL     1      -3.808  -1.163 -19.588  0.00  0.00    -0.060 A 
ATOM     19  C13 UNL     1      -3.412  -2.434 -19.980  0.00  0.00    -0.061 A 
ATOM     20  C14 UNL     1      -3.776  -2.902 -21.240  0.00  0.00    -0.049 A 
ATOM     21  C15 UNL     1      -4.540  -2.096 -22.125  0.00  0.00    +0.040 A 
ATOM     22  H   UNL     1      -4.048  -4.360 -23.388  0.00  0.00    +0.000 HD
ENDROOT
TORSDOF 0
ENDMDL
MODEL 8
REMARK VINA RESULT:    -3.963     12.403     14.010
REMARK INTER + INTRA:          -3.963
REMARK INTER:                  -3.963
REMARK INTRA:                   0.000
REMARK UNBOUND:                 0.000
REMARK  Name = /home/vital/Documents/PhD_2021/Malaria_codes/scripts/../data/pdbqt_ligands/ligand_373_temp.pdb
REMARK                            x       y       z     vdW  Elec       q    Type
REMARK                         _______ _______ _______ _____ _____    ______ ____
ROOT
ATOM      1  C1  UNL     1       0.775  -3.366 -21.687  0.00  0.00    -0.050 C 
ATOM      2  C2  UNL     1      -0.310  -4.292 -21.156  0.00  0.00    +0.008 C 
ATOM      3  N1  UNL     1      -1.634  -3.682 -21.242  0.00  0.00    -0.329 N 
ATOM      4  C3  UNL     1      -2.279  -3.715 -22.496  0.00  0.00    +0.132 A 
ATOM      5  N2  UNL     1      -1.674  -4.343 -23.518  0.00  0.00    -0.199 NA
ATOM      6  C4  UNL     1      -2.281  -4.376 -24.716  0.00  0.00    +0.224 A 
ATOM      7  N3  UNL     1      -1.637  -5.026 -25.789  0.00  0.00    -0.271 N 
ATOM      8  C5  UNL     1      -2.168  -5.112 -27.069  0.00  0.00    +0.020 C 
ATOM      9  C6  UNL     1      -1.561  -5.738 -28.090  0.00  0.00    +0.073 C 
ATOM     10 CL1  UNL     1      -2.314  -5.780 -29.641  0.00  0.00    -0.081 Cl
ATOM     11  C7  UNL     1      -0.274  -6.365 -27.849  0.00  0.00    +0.058 C 
ATOM     12 CL2  UNL     1       0.565  -7.185 -29.120  0.00  0.00    -0.082 Cl
ATOM     13  C8  UNL     1       0.285  -6.317 -26.626  0.00  0.00    -0.047 C 
ATOM     14  C9  UNL     1      -0.349  -5.633 -25.440  0.00  0.00    +0.039 C 
ATOM     15  N4  UNL     1      -3.476  -3.804 -24.932  0.00  0.00    -0.214 NA
ATOM     16  C10 UNL     1      -4.096  -3.205 -23.914  0.00  0.00    +0.078 A 
ATOM     17  C11 UNL     1      -5.344  -2.635 -24.137  0.00  0.00    -0.036 A 
ATOM     18  C12 UNL     1      -6.063  -2.002 -23.120  0.00  0.00    -0.060 A 
ATOM     19  C13 UNL     1      -5.530  -1.936 -21.841  0.00  0.00    -0.061 A 
ATOM     20  C14 UNL     1      -4.280  -2.497 -21.595  0.00  0.00    -0.049 A 
ATOM     21  C15 UNL     1      -3.546  -3.130 -22.633  0.00  0.00    +0.040 A 
ATOM     22  H   UNL     1      -2.058  -3.265 -20.458  0.00  0.00    +0.000 HD
ENDROOT
TORSDOF 0
ENDMDL
MODEL 9
REMARK VINA RESULT:    -3.363     14.502     17.468
REMARK INTER + INTRA:          -3.363
REMARK INTER:                  -3.363
REMARK INTRA:                   0.000
REMARK UNBOUND:                 0.000
REMARK  Name = /home/vital/Documents/PhD_2021/Malaria_codes/scripts/../data/pdbqt_ligands/ligand_373_temp.pdb
REMARK                            x       y       z     vdW  Elec       q    Type
REMARK                         _______ _______ _______ _____ _____    ______ ____
ROOT
ATOM      1  C1  UNL     1      -0.217   0.753 -30.368  0.00  0.00    -0.050 C 
ATOM      2  C2  UNL     1       0.724   1.068 -31.521  0.00  0.00    +0.008 C 
ATOM      3  N1  UNL     1       0.823  -0.045 -32.461  0.00  0.00    -0.329 N 
ATOM      4  C3  UNL     1      -0.216  -0.186 -33.404  0.00  0.00    +0.132 A 
ATOM      5  N2  UNL     1      -1.201   0.728 -33.424  0.00  0.00    -0.199 NA
ATOM      6  C4  UNL     1      -2.196   0.599 -34.317  0.00  0.00    +0.224 A 
ATOM      7  N3  UNL     1      -3.233   1.554 -34.326  0.00  0.00    -0.271 N 
ATOM      8  C5  UNL     1      -4.312   1.512 -35.198  0.00  0.00    +0.020 C 
ATOM      9  C6  UNL     1      -5.296   2.425 -35.214  0.00  0.00    +0.073 C 
ATOM     10 CL1  UNL     1      -6.592   2.272 -36.342  0.00  0.00    -0.081 Cl
ATOM     11  C7  UNL     1      -5.235   3.524 -34.267  0.00  0.00    +0.058 C 
ATOM     12 CL2  UNL     1      -6.471   4.733 -34.230  0.00  0.00    -0.082 Cl
ATOM     13  C8  UNL     1      -4.209   3.617 -33.402  0.00  0.00    -0.047 C 
ATOM     14  C9  UNL     1      -3.073   2.626 -33.339  0.00  0.00    +0.039 C 
ATOM     15  N4  UNL     1      -2.243  -0.413 -35.198  0.00  0.00    -0.214 NA
ATOM     16  C10 UNL     1      -1.253  -1.307 -35.205  0.00  0.00    +0.078 A 
ATOM     17  C11 UNL     1      -1.295  -2.339 -36.135  0.00  0.00    -0.036 A 
ATOM     18  C12 UNL     1      -0.290  -3.307 -36.215  0.00  0.00    -0.060 A 
ATOM     19  C13 UNL     1       0.792  -3.247 -35.349  0.00  0.00    -0.061 A 
ATOM     20  C14 UNL     1       0.854  -2.223 -34.407  0.00  0.00    -0.049 A 
ATOM     21  C15 UNL     1      -0.175  -1.248 -34.320  0.00  0.00    +0.040 A 
ATOM     22  H   UNL     1       1.582  -0.671 -32.438  0.00  0.00    +0.000 HD
ENDROOT
TORSDOF 0
ENDMDL
