MODEL 1
REMARK VINA RESULT:    -4.317      0.000      0.000
REMARK INTER + INTRA:          -4.317
REMARK INTER:                  -4.317
REMARK INTRA:                   0.000
REMARK UNBOUND:                 0.000
REMARK  Name = /home/vital/Documents/PhD_2021/Malaria_codes/scripts/../data/pdbqt_ligands/ligand_147_temp.pdb
REMARK                            x       y       z     vdW  Elec       q    Type
REMARK                         _______ _______ _______ _____ _____    ______ ____
ROOT
ATOM      1  C   UNL     1       2.903  -0.221 -18.729  0.00  0.00    -0.080 C 
ATOM      2  C   UNL     1       3.128   0.488 -17.406  0.00  0.00    -0.094 C 
ATOM      3  N   UNL     1       3.494   1.941 -17.628  0.00  0.00    +0.380 N 
ATOM      4  C   UNL     1       4.774   2.227 -18.383  0.00  0.00    -0.094 C 
ATOM      5  C   UNL     1       5.995   1.533 -17.812  0.00  0.00    -0.080 C 
ATOM      6  C   UNL     1       3.250   2.823 -16.404  0.00  0.00    -0.081 C 
ATOM      7  C   UNL     1       4.135   2.493 -15.194  0.00  0.00    -0.021 C 
ATOM      8  S   UNL     1       3.245   2.708 -13.615  0.00  0.00    -0.161 S 
ATOM      9  C   UNL     1       3.675   4.440 -13.165  0.00  0.00    +0.009 C 
ATOM     10  C   UNL     1       3.475   5.514 -14.245  0.00  0.00    +0.018 C 
ATOM     11  N   UNL     1       2.186   5.349 -14.919  0.00  0.00    -0.343 N 
ATOM     12  C   UNL     1       1.830   6.150 -16.022  0.00  0.00    +0.038 A 
ATOM     13  C   UNL     1       2.703   7.087 -16.577  0.00  0.00    -0.022 A 
ATOM     14  C   UNL     1       2.315   7.779 -17.708  0.00  0.00    +0.030 A 
ATOM     15  N   UNL     1       1.143   7.583 -18.339  0.00  0.00    -0.255 NA
ATOM     16  C   UNL     1       0.288   6.689 -17.829  0.00  0.00    +0.074 A 
ATOM     17  C   UNL     1      -0.918   6.498 -18.488  0.00  0.00    -0.017 A 
ATOM     18  C   UNL     1      -1.849   5.569 -18.036  0.00  0.00    +0.043 A 
ATOM     19 CL   UNL     1      -3.327   5.352 -18.887  0.00  0.00    -0.083 Cl
ATOM     20  C   UNL     1      -1.587   4.806 -16.907  0.00  0.00    -0.043 A 
ATOM     21  C   UNL     1      -0.380   4.983 -16.230  0.00  0.00    -0.049 A 
ATOM     22  C   UNL     1       0.578   5.930 -16.670  0.00  0.00    +0.021 A 
ATOM     23  H   UNL     1       2.808   2.241 -18.320  0.00  0.00    +0.000 HD
ATOM     24  H   UNL     1       1.556   4.665 -14.596  0.00  0.00    +0.000 HD
ENDROOT
TORSDOF 0
ENDMDL
MODEL 2
REMARK VINA RESULT:    -4.255      3.632      5.171
REMARK INTER + INTRA:          -4.255
REMARK INTER:                  -4.255
REMARK INTRA:                   0.000
REMARK UNBOUND:                 0.000
REMARK  Name = /home/vital/Documents/PhD_2021/Malaria_codes/scripts/../data/pdbqt_ligands/ligand_147_temp.pdb
REMARK                            x       y       z     vdW  Elec       q    Type
REMARK                         _______ _______ _______ _____ _____    ______ ____
ROOT
ATOM      1  C   UNL     1       5.950   2.654 -20.130  0.00  0.00    -0.080 C 
ATOM      2  C   UNL     1       4.523   2.945 -19.705  0.00  0.00    -0.094 C 
ATOM      3  N   UNL     1       4.484   4.046 -18.665  0.00  0.00    +0.380 N 
ATOM      4  C   UNL     1       5.179   3.782 -17.348  0.00  0.00    -0.094 C 
ATOM      5  C   UNL     1       4.744   2.500 -16.667  0.00  0.00    -0.080 C 
ATOM      6  C   UNL     1       3.122   4.731 -18.556  0.00  0.00    -0.081 C 
ATOM      7  C   UNL     1       1.992   3.825 -18.047  0.00  0.00    -0.021 C 
ATOM      8  S   UNL     1       0.398   4.199 -18.852  0.00  0.00    -0.161 S 
ATOM      9  C   UNL     1      -0.351   5.404 -17.679  0.00  0.00    +0.009 C 
ATOM     10  C   UNL     1       0.520   6.591 -17.245  0.00  0.00    +0.018 C 
ATOM     11  N   UNL     1       1.209   7.187 -18.390  0.00  0.00    -0.343 N 
ATOM     12  C   UNL     1       2.152   8.221 -18.221  0.00  0.00    +0.038 A 
ATOM     13  C   UNL     1       2.533   8.683 -16.960  0.00  0.00    -0.022 A 
ATOM     14  C   UNL     1       3.522   9.643 -16.868  0.00  0.00    +0.030 A 
ATOM     15  N   UNL     1       4.176  10.148 -17.931  0.00  0.00    -0.255 NA
ATOM     16  C   UNL     1       3.830   9.720 -19.151  0.00  0.00    +0.074 A 
ATOM     17  C   UNL     1       4.509  10.251 -20.238  0.00  0.00    -0.017 A 
ATOM     18  C   UNL     1       4.227   9.840 -21.536  0.00  0.00    +0.043 A 
ATOM     19 CL   UNL     1       5.100  10.510 -22.857  0.00  0.00    -0.083 Cl
ATOM     20  C   UNL     1       3.252   8.881 -21.772  0.00  0.00    -0.043 A 
ATOM     21  C   UNL     1       2.558   8.336 -20.693  0.00  0.00    -0.049 A 
ATOM     22  C   UNL     1       2.825   8.746 -19.363  0.00  0.00    +0.021 A 
ATOM     23  H   UNL     1       5.110   4.748 -19.060  0.00  0.00    +0.000 HD
ATOM     24  H   UNL     1       1.011   6.859 -19.297  0.00  0.00    +0.000 HD
ENDROOT
TORSDOF 0
ENDMDL
MODEL 3
REMARK VINA RESULT:    -4.249      6.614      9.626
REMARK INTER + INTRA:          -4.249
REMARK INTER:                  -4.249
REMARK INTRA:                   0.000
REMARK UNBOUND:                 0.000
REMARK  Name = /home/vital/Documents/PhD_2021/Malaria_codes/scripts/../data/pdbqt_ligands/ligand_147_temp.pdb
REMARK                            x       y       z     vdW  Elec       q    Type
REMARK                         _______ _______ _______ _____ _____    ______ ____
ROOT
ATOM      1  C   UNL     1      -3.367   9.572 -23.863  0.00  0.00    -0.080 C 
ATOM      2  C   UNL     1      -2.296   8.732 -24.535  0.00  0.00    -0.094 C 
ATOM      3  N   UNL     1      -0.968   9.461 -24.547  0.00  0.00    +0.380 N 
ATOM      4  C   UNL     1      -0.898  10.766 -25.310  0.00  0.00    -0.094 C 
ATOM      5  C   UNL     1      -1.375  10.667 -26.745  0.00  0.00    -0.080 C 
ATOM      6  C   UNL     1       0.232   8.533 -24.734  0.00  0.00    -0.081 C 
ATOM      7  C   UNL     1       0.286   7.829 -26.097  0.00  0.00    -0.021 C 
ATOM      8  S   UNL     1       0.944   6.131 -25.966  0.00  0.00    -0.161 S 
ATOM      9  C   UNL     1       2.738   6.389 -26.287  0.00  0.00    +0.009 C 
ATOM     10  C   UNL     1       3.442   7.488 -25.477  0.00  0.00    +0.018 C 
ATOM     11  N   UNL     1       3.068   7.425 -24.064  0.00  0.00    -0.343 N 
ATOM     12  C   UNL     1       3.503   8.402 -23.147  0.00  0.00    +0.038 A 
ATOM     13  C   UNL     1       4.247   9.515 -23.540  0.00  0.00    -0.022 A 
ATOM     14  C   UNL     1       4.569  10.474 -22.599  0.00  0.00    +0.030 A 
ATOM     15  N   UNL     1       4.179  10.420 -21.312  0.00  0.00    -0.255 NA
ATOM     16  C   UNL     1       3.462   9.364 -20.910  0.00  0.00    +0.074 A 
ATOM     17  C   UNL     1       3.068   9.319 -19.581  0.00  0.00    -0.017 A 
ATOM     18  C   UNL     1       2.300   8.268 -19.090  0.00  0.00    +0.043 A 
ATOM     19 CL   UNL     1       1.819   8.255 -17.439  0.00  0.00    -0.083 Cl
ATOM     20  C   UNL     1       1.908   7.235 -19.929  0.00  0.00    -0.043 A 
ATOM     21  C   UNL     1       2.294   7.261 -21.269  0.00  0.00    -0.049 A 
ATOM     22  C   UNL     1       3.082   8.319 -21.786  0.00  0.00    +0.021 A 
ATOM     23  H   UNL     1      -0.896   9.809 -23.591  0.00  0.00    +0.000 HD
ATOM     24  H   UNL     1       2.501   6.685 -23.748  0.00  0.00    +0.000 HD
ENDROOT
TORSDOF 0
ENDMDL
MODEL 4
REMARK VINA RESULT:    -4.245      3.565      4.995
REMARK INTER + INTRA:          -4.245
REMARK INTER:                  -4.245
REMARK INTRA:                   0.000
REMARK UNBOUND:                 0.000
REMARK  Name = /home/vital/Documents/PhD_2021/Malaria_codes/scripts/../data/pdbqt_ligands/ligand_147_temp.pdb
REMARK                            x       y       z     vdW  Elec       q    Type
REMARK                         _______ _______ _______ _____ _____    ______ ____
ROOT
ATOM      1  C   UNL     1       6.945   3.293 -19.190  0.00  0.00    -0.080 C 
ATOM      2  C   UNL     1       5.529   3.430 -18.661  0.00  0.00    -0.094 C 
ATOM      3  N   UNL     1       5.368   4.719 -17.880  0.00  0.00    +0.380 N 
ATOM      4  C   UNL     1       6.210   4.885 -16.633  0.00  0.00    -0.094 C 
ATOM      5  C   UNL     1       6.086   3.739 -15.649  0.00  0.00    -0.080 C 
ATOM      6  C   UNL     1       3.914   5.172 -17.748  0.00  0.00    -0.081 C 
ATOM      7  C   UNL     1       3.026   4.231 -16.923  0.00  0.00    -0.021 C 
ATOM      8  S   UNL     1       1.327   4.137 -17.584  0.00  0.00    -0.161 S 
ATOM      9  C   UNL     1       0.463   5.436 -16.607  0.00  0.00    +0.009 C 
ATOM     10  C   UNL     1       1.125   6.820 -16.544  0.00  0.00    +0.018 C 
ATOM     11  N   UNL     1       1.588   7.244 -17.866  0.00  0.00    -0.343 N 
ATOM     12  C   UNL     1       2.326   8.432 -18.037  0.00  0.00    +0.038 A 
ATOM     13  C   UNL     1       2.717   9.229 -16.960  0.00  0.00    -0.022 A 
ATOM     14  C   UNL     1       3.509  10.336 -17.196  0.00  0.00    +0.030 A 
ATOM     15  N   UNL     1       3.962  10.686 -18.414  0.00  0.00    -0.255 NA
ATOM     16  C   UNL     1       3.603   9.937 -19.464  0.00  0.00    +0.074 A 
ATOM     17  C   UNL     1       4.074  10.310 -20.714  0.00  0.00    -0.017 A 
ATOM     18  C   UNL     1       3.767   9.570 -21.852  0.00  0.00    +0.043 A 
ATOM     19 CL   UNL     1       4.381  10.056 -23.382  0.00  0.00    -0.083 Cl
ATOM     20  C   UNL     1       2.977   8.433 -21.757  0.00  0.00    -0.043 A 
ATOM     21  C   UNL     1       2.493   8.042 -20.509  0.00  0.00    -0.049 A 
ATOM     22  C   UNL     1       2.789   8.786 -19.339  0.00  0.00    +0.021 A 
ATOM     23  H   UNL     1       5.813   5.405 -18.488  0.00  0.00    +0.000 HD
ATOM     24  H   UNL     1       1.381   6.688 -18.652  0.00  0.00    +0.000 HD
ENDROOT
TORSDOF 0
ENDMDL
MODEL 5
REMARK VINA RESULT:    -4.043      9.196     12.032
REMARK INTER + INTRA:          -4.043
REMARK INTER:                  -4.043
REMARK INTRA:                   0.000
REMARK UNBOUND:                 0.000
REMARK  Name = /home/vital/Documents/PhD_2021/Malaria_codes/scripts/../data/pdbqt_ligands/ligand_147_temp.pdb
REMARK                            x       y       z     vdW  Elec       q    Type
REMARK                         _______ _______ _______ _____ _____    ______ ____
ROOT
ATOM      1  C   UNL     1      -1.926   4.369 -24.178  0.00  0.00    -0.080 C 
ATOM      2  C   UNL     1      -3.397   4.020 -24.307  0.00  0.00    -0.094 C 
ATOM      3  N   UNL     1      -3.573   2.587 -24.768  0.00  0.00    +0.380 N 
ATOM      4  C   UNL     1      -3.021   2.223 -26.129  0.00  0.00    -0.094 C 
ATOM      5  C   UNL     1      -3.502   3.122 -27.250  0.00  0.00    -0.080 C 
ATOM      6  C   UNL     1      -4.952   2.012 -24.449  0.00  0.00    -0.081 C 
ATOM      7  C   UNL     1      -6.112   2.689 -25.192  0.00  0.00    -0.021 C 
ATOM      8  S   UNL     1      -7.616   2.797 -24.163  0.00  0.00    -0.161 S 
ATOM      9  C   UNL     1      -8.514   1.261 -24.635  0.00  0.00    +0.009 C 
ATOM     10  C   UNL     1      -7.721  -0.053 -24.597  0.00  0.00    +0.018 C 
ATOM     11  N   UNL     1      -6.922  -0.153 -23.375  0.00  0.00    -0.343 N 
ATOM     12  C   UNL     1      -6.026  -1.220 -23.171  0.00  0.00    +0.038 A 
ATOM     13  C   UNL     1      -5.795  -2.196 -24.141  0.00  0.00    -0.022 A 
ATOM     14  C   UNL     1      -4.842  -3.168 -23.903  0.00  0.00    +0.030 A 
ATOM     15  N   UNL     1      -4.086  -3.218 -22.791  0.00  0.00    -0.255 NA
ATOM     16  C   UNL     1      -4.287  -2.292 -21.845  0.00  0.00    +0.074 A 
ATOM     17  C   UNL     1      -3.503  -2.356 -20.702  0.00  0.00    -0.017 A 
ATOM     18  C   UNL     1      -3.632  -1.417 -19.684  0.00  0.00    +0.043 A 
ATOM     19 CL   UNL     1      -2.633  -1.521 -18.289  0.00  0.00    -0.083 Cl
ATOM     20  C   UNL     1      -4.555  -0.386 -19.794  0.00  0.00    -0.043 A 
ATOM     21  C   UNL     1      -5.353  -0.305 -20.935  0.00  0.00    -0.049 A 
ATOM     22  C   UNL     1      -5.241  -1.256 -21.980  0.00  0.00    +0.021 A 
ATOM     23  H   UNL     1      -2.921   2.079 -24.170  0.00  0.00    +0.000 HD
ATOM     24  H   UNL     1      -7.013   0.541 -22.682  0.00  0.00    +0.000 HD
ENDROOT
TORSDOF 0
ENDMDL
MODEL 6
REMARK VINA RESULT:    -3.975     15.969     18.381
REMARK INTER + INTRA:          -3.975
REMARK INTER:                  -3.975
REMARK INTRA:                   0.000
REMARK UNBOUND:                 0.000
REMARK  Name = /home/vital/Documents/PhD_2021/Malaria_codes/scripts/../data/pdbqt_ligands/ligand_147_temp.pdb
REMARK                            x       y       z     vdW  Elec       q    Type
REMARK                         _______ _______ _______ _____ _____    ______ ____
ROOT
ATOM      1  C   UNL     1      -2.452  -4.106 -28.660  0.00  0.00    -0.080 C 
ATOM      2  C   UNL     1      -0.994  -4.234 -29.063  0.00  0.00    -0.094 C 
ATOM      3  N   UNL     1      -0.871  -4.713 -30.496  0.00  0.00    +0.380 N 
ATOM      4  C   UNL     1      -1.431  -6.080 -30.822  0.00  0.00    -0.094 C 
ATOM      5  C   UNL     1      -0.912  -7.188 -29.927  0.00  0.00    -0.080 C 
ATOM      6  C   UNL     1       0.484  -4.397 -31.127  0.00  0.00    -0.081 C 
ATOM      7  C   UNL     1       1.671  -5.128 -30.485  0.00  0.00    -0.021 C 
ATOM      8  S   UNL     1       3.174  -4.092 -30.448  0.00  0.00    -0.161 S 
ATOM      9  C   UNL     1       4.016  -4.581 -32.011  0.00  0.00    +0.009 C 
ATOM     10  C   UNL     1       3.172  -4.563 -33.294  0.00  0.00    +0.018 C 
ATOM     11  N   UNL     1       2.366  -3.345 -33.379  0.00  0.00    -0.343 N 
ATOM     12  C   UNL     1       1.429  -3.157 -34.414  0.00  0.00    +0.038 A 
ATOM     13  C   UNL     1       1.165  -4.141 -35.368  0.00  0.00    -0.022 A 
ATOM     14  C   UNL     1       0.175  -3.918 -36.306  0.00  0.00    +0.030 A 
ATOM     15  N   UNL     1      -0.586  -2.810 -36.341  0.00  0.00    -0.255 NA
ATOM     16  C   UNL     1      -0.354  -1.851 -35.436  0.00  0.00    +0.074 A 
ATOM     17  C   UNL     1      -1.144  -0.712 -35.485  0.00  0.00    -0.017 A 
ATOM     18  C   UNL     1      -0.983   0.319 -34.564  0.00  0.00    +0.043 A 
ATOM     19 CL   UNL     1      -1.991   1.709 -34.649  0.00  0.00    -0.083 Cl
ATOM     20  C   UNL     1      -0.022   0.225 -33.568  0.00  0.00    -0.043 A 
ATOM     21  C   UNL     1       0.783  -0.912 -33.502  0.00  0.00    -0.049 A 
ATOM     22  C   UNL     1       0.640  -1.969 -34.435  0.00  0.00    +0.021 A 
ATOM     23  H   UNL     1      -1.544  -4.123 -30.986  0.00  0.00    +0.000 HD
ATOM     24  H   UNL     1       2.480  -2.642 -32.699  0.00  0.00    +0.000 HD
ENDROOT
TORSDOF 0
ENDMDL
MODEL 7
REMARK VINA RESULT:    -3.822      3.529      5.065
REMARK INTER + INTRA:          -3.822
REMARK INTER:                  -3.822
REMARK INTRA:                   0.000
REMARK UNBOUND:                 0.000
REMARK  Name = /home/vital/Documents/PhD_2021/Malaria_codes/scripts/../data/pdbqt_ligands/ligand_147_temp.pdb
REMARK                            x       y       z     vdW  Elec       q    Type
REMARK                         _______ _______ _______ _____ _____    ______ ____
ROOT
ATOM      1  C   UNL     1       4.240   1.574 -20.806  0.00  0.00    -0.080 C 
ATOM      2  C   UNL     1       2.849   2.051 -20.433  0.00  0.00    -0.094 C 
ATOM      3  N   UNL     1       2.903   2.999 -19.251  0.00  0.00    +0.380 N 
ATOM      4  C   UNL     1       3.431   2.450 -17.944  0.00  0.00    -0.094 C 
ATOM      5  C   UNL     1       2.734   1.186 -17.480  0.00  0.00    -0.080 C 
ATOM      6  C   UNL     1       1.668   3.891 -19.131  0.00  0.00    -0.081 C 
ATOM      7  C   UNL     1       0.366   3.138 -18.827  0.00  0.00    -0.021 C 
ATOM      8  S   UNL     1      -1.071   3.885 -19.668  0.00  0.00    -0.161 S 
ATOM      9  C   UNL     1      -1.710   5.040 -18.385  0.00  0.00    +0.009 C 
ATOM     10  C   UNL     1      -0.695   5.991 -17.733  0.00  0.00    +0.018 C 
ATOM     11  N   UNL     1       0.178   6.600 -18.737  0.00  0.00    -0.343 N 
ATOM     12  C   UNL     1       1.259   7.423 -18.364  0.00  0.00    +0.038 A 
ATOM     13  C   UNL     1       1.602   7.645 -17.030  0.00  0.00    -0.022 A 
ATOM     14  C   UNL     1       2.724   8.398 -16.742  0.00  0.00    +0.030 A 
ATOM     15  N   UNL     1       3.540   8.914 -17.679  0.00  0.00    -0.255 NA
ATOM     16  C   UNL     1       3.234   8.715 -18.966  0.00  0.00    +0.074 A 
ATOM     17  C   UNL     1       4.081   9.254 -19.923  0.00  0.00    -0.017 A 
ATOM     18  C   UNL     1       3.847   9.070 -21.282  0.00  0.00    +0.043 A 
ATOM     19 CL   UNL     1       4.927   9.744 -22.437  0.00  0.00    -0.083 Cl
ATOM     20  C   UNL     1       2.752   8.335 -21.711  0.00  0.00    -0.043 A 
ATOM     21  C   UNL     1       1.887   7.784 -20.765  0.00  0.00    -0.049 A 
ATOM     22  C   UNL     1       2.105   7.966 -19.377  0.00  0.00    +0.021 A 
ATOM     23  H   UNL     1       3.668   3.625 -19.503  0.00  0.00    +0.000 HD
ATOM     24  H   UNL     1       0.006   6.432 -19.692  0.00  0.00    +0.000 HD
ENDROOT
TORSDOF 0
ENDMDL
MODEL 8
REMARK VINA RESULT:    -3.762     16.464     18.772
REMARK INTER + INTRA:          -3.762
REMARK INTER:                  -3.762
REMARK INTRA:                   0.000
REMARK UNBOUND:                 0.000
REMARK  Name = /home/vital/Documents/PhD_2021/Malaria_codes/scripts/../data/pdbqt_ligands/ligand_147_temp.pdb
REMARK                            x       y       z     vdW  Elec       q    Type
REMARK                         _______ _______ _______ _____ _____    ______ ____
ROOT
ATOM      1  C   UNL     1      -0.949  -1.424 -35.196  0.00  0.00    -0.080 C 
ATOM      2  C   UNL     1       0.355  -1.527 -34.425  0.00  0.00    -0.094 C 
ATOM      3  N   UNL     1       0.127  -2.145 -33.060  0.00  0.00    +0.380 N 
ATOM      4  C   UNL     1      -0.772  -1.396 -32.101  0.00  0.00    -0.094 C 
ATOM      5  C   UNL     1      -0.374   0.051 -31.883  0.00  0.00    -0.080 C 
ATOM      6  C   UNL     1       1.394  -2.732 -32.441  0.00  0.00    -0.081 C 
ATOM      7  C   UNL     1       2.477  -1.698 -32.103  0.00  0.00    -0.021 C 
ATOM      8  S   UNL     1       4.159  -2.350 -32.384  0.00  0.00    -0.161 S 
ATOM      9  C   UNL     1       4.597  -3.010 -30.722  0.00  0.00    +0.009 C 
ATOM     10  C   UNL     1       3.578  -3.941 -30.049  0.00  0.00    +0.018 C 
ATOM     11  N   UNL     1       3.064  -4.933 -30.995  0.00  0.00    -0.343 N 
ATOM     12  C   UNL     1       2.034  -5.824 -30.633  0.00  0.00    +0.038 A 
ATOM     13  C   UNL     1       1.401  -5.767 -29.391  0.00  0.00    -0.022 A 
ATOM     14  C   UNL     1       0.344  -6.620 -29.136  0.00  0.00    +0.030 A 
ATOM     15  N   UNL     1      -0.143  -7.496 -30.034  0.00  0.00    -0.255 NA
ATOM     16  C   UNL     1       0.445  -7.569 -31.234  0.00  0.00    +0.074 A 
ATOM     17  C   UNL     1      -0.065  -8.477 -32.150  0.00  0.00    -0.017 A 
ATOM     18  C   UNL     1       0.473  -8.596 -33.426  0.00  0.00    +0.043 A 
ATOM     19 CL   UNL     1      -0.195  -9.724 -34.538  0.00  0.00    -0.083 Cl
ATOM     20  C   UNL     1       1.542  -7.799 -33.813  0.00  0.00    -0.043 A 
ATOM     21  C   UNL     1       2.070  -6.880 -32.907  0.00  0.00    -0.049 A 
ATOM     22  C   UNL     1       1.539  -6.749 -31.600  0.00  0.00    +0.021 A 
ATOM     23  H   UNL     1      -0.468  -2.945 -33.274  0.00  0.00    +0.000 HD
ATOM     24  H   UNL     1       3.444  -4.978 -31.901  0.00  0.00    +0.000 HD
ENDROOT
TORSDOF 0
ENDMDL
MODEL 9
REMARK VINA RESULT:    -3.395     13.747     16.453
REMARK INTER + INTRA:          -3.395
REMARK INTER:                  -3.395
REMARK INTRA:                   0.000
REMARK UNBOUND:                 0.000
REMARK  Name = /home/vital/Documents/PhD_2021/Malaria_codes/scripts/../data/pdbqt_ligands/ligand_147_temp.pdb
REMARK                            x       y       z     vdW  Elec       q    Type
REMARK                         _______ _______ _______ _____ _____    ______ ____
ROOT
ATOM      1  C   UNL     1      -1.735  -5.653 -27.925  0.00  0.00    -0.080 C 
ATOM      2  C   UNL     1      -0.596  -4.704 -27.599  0.00  0.00    -0.094 C 
ATOM      3  N   UNL     1       0.682  -5.141 -28.286  0.00  0.00    +0.380 N 
ATOM      4  C   UNL     1       1.250  -6.490 -27.904  0.00  0.00    -0.094 C 
ATOM      5  C   UNL     1       1.450  -6.675 -26.413  0.00  0.00    -0.080 C 
ATOM      6  C   UNL     1       1.710  -4.019 -28.426  0.00  0.00    -0.081 C 
ATOM      7  C   UNL     1       2.271  -3.499 -27.095  0.00  0.00    -0.021 C 
ATOM      8  S   UNL     1       2.578  -1.700 -27.137  0.00  0.00    -0.161 S 
ATOM      9  C   UNL     1       4.345  -1.624 -27.647  0.00  0.00    +0.009 C 
ATOM     10  C   UNL     1       4.753  -2.443 -28.880  0.00  0.00    +0.018 C 
ATOM     11  N   UNL     1       3.787  -2.278 -29.967  0.00  0.00    -0.343 N 
ATOM     12  C   UNL     1       3.893  -3.019 -31.160  0.00  0.00    +0.038 A 
ATOM     13  C   UNL     1       4.871  -3.998 -31.346  0.00  0.00    -0.022 A 
ATOM     14  C   UNL     1       4.863  -4.742 -32.510  0.00  0.00    +0.030 A 
ATOM     15  N   UNL     1       3.940  -4.605 -33.479  0.00  0.00    -0.255 NA
ATOM     16  C   UNL     1       2.990  -3.675 -33.324  0.00  0.00    +0.074 A 
ATOM     17  C   UNL     1       2.046  -3.542 -34.332  0.00  0.00    -0.017 A 
ATOM     18  C   UNL     1       1.012  -2.617 -34.236  0.00  0.00    +0.043 A 
ATOM     19 CL   UNL     1      -0.147  -2.491 -35.499  0.00  0.00    -0.083 Cl
ATOM     20  C   UNL     1       0.902  -1.802 -33.118  0.00  0.00    -0.043 A 
ATOM     21  C   UNL     1       1.842  -1.920 -32.094  0.00  0.00    -0.049 A 
ATOM     22  C   UNL     1       2.907  -2.851 -32.177  0.00  0.00    +0.021 A 
ATOM     23  H   UNL     1       0.368  -5.342 -29.235  0.00  0.00    +0.000 HD
ATOM     24  H   UNL     1       3.048  -1.635 -29.862  0.00  0.00    +0.000 HD
ENDROOT
TORSDOF 0
ENDMDL
