MODEL 1
REMARK VINA RESULT:    -5.003      0.000      0.000
REMARK INTER + INTRA:          -5.003
REMARK INTER:                  -5.003
REMARK INTRA:                   0.000
REMARK UNBOUND:                 0.000
REMARK  Name = /home/vital/Documents/PhD_2021/Malaria_codes/scripts/../data/pdbqt_ligands/ligand_57_temp.pdb
REMARK                            x       y       z     vdW  Elec       q    Type
REMARK                         _______ _______ _______ _____ _____    ______ ____
ROOT
ATOM      1  N   UNL     1       3.560   2.013 -23.222  0.00  0.00    -0.195 NA
ATOM      2  C   UNL     1       2.530   1.578 -23.541  0.00  0.00    +0.078 C 
ATOM      3  C   UNL     1       1.230   0.977 -23.909  0.00  0.00    +0.086 C 
ATOM      4  N   UNL     1       1.111  -0.464 -23.609  0.00  0.00    -0.273 N 
ATOM      5  C   UNL     1       1.246  -0.744 -22.174  0.00  0.00    +0.164 C 
ATOM      6  C   UNL     1       0.953  -2.202 -21.942  0.00  0.00    +0.004 C 
ATOM      7  C   UNL     1       1.487  -2.882 -20.967  0.00  0.00    -0.120 C 
ATOM      8  C   UNL     1       2.038  -3.407 -19.913  0.00  0.00    -0.018 C 
ATOM      9  C   UNL     1       2.407  -2.591 -18.779  0.00  0.00    -0.036 C 
ATOM     10  C   UNL     1       1.632  -1.715 -18.116  0.00  0.00    +0.031 C 
ATOM     11  N   UNL     1       0.297  -1.491 -18.313  0.00  0.00    -0.235 N 
ATOM     12  C   UNL     1      -0.120  -0.615 -19.205  0.00  0.00    +0.171 C 
ATOM     13  C   UNL     1      -1.663  -0.481 -19.233  0.00  0.00    +0.065 C 
ATOM     14  N   UNL     1      -2.354  -1.377 -18.421  0.00  0.00    -0.355 N 
ATOM     15  C   UNL     1      -2.267   0.438 -20.005  0.00  0.00    -0.056 C 
ATOM     16  C   UNL     1      -3.750   0.660 -20.096  0.00  0.00    -0.013 C 
ATOM     17  C   UNL     1      -4.360  -0.205 -21.163  0.00  0.00    -0.069 C 
ATOM     18  C   UNL     1      -5.363  -1.059 -20.937  0.00  0.00    +0.001 C 
ATOM     19 CL   UNL     1      -6.012  -2.070 -22.158  0.00  0.00    -0.092 Cl
ATOM     20  N   UNL     1       0.717   0.121 -20.046  0.00  0.00    -0.245 N 
ATOM     21  O   UNL     1       0.318   0.050 -21.408  0.00  0.00    -0.249 OA
ATOM     22  H   UNL     1       4.401   2.367 -22.962  0.00  0.00    +0.000 HD
ATOM     23  H   UNL     1       1.843  -0.966 -24.111  0.00  0.00    +0.000 HD
ATOM     24  H   UNL     1       0.183  -0.771 -23.902  0.00  0.00    +0.000 HD
ATOM     25  H   UNL     1      -0.361  -1.992 -17.779  0.00  0.00    +0.000 HD
ATOM     26  H   UNL     1      -1.858  -2.030 -17.876  0.00  0.00    +0.000 HD
ATOM     27  H   UNL     1      -3.338  -1.357 -18.390  0.00  0.00    +0.000 HD
ATOM     28  H   UNL     1       1.496   0.632 -19.730  0.00  0.00    +0.000 HD
ENDROOT
TORSDOF 0
ENDMDL
MODEL 2
REMARK VINA RESULT:    -4.840      6.951      7.929
REMARK INTER + INTRA:          -4.840
REMARK INTER:                  -4.840
REMARK INTRA:                   0.000
REMARK UNBOUND:                 0.000
REMARK  Name = /home/vital/Documents/PhD_2021/Malaria_codes/scripts/../data/pdbqt_ligands/ligand_57_temp.pdb
REMARK                            x       y       z     vdW  Elec       q    Type
REMARK                         _______ _______ _______ _____ _____    ______ ____
ROOT
ATOM      1  N   UNL     1       7.102   2.630 -18.127  0.00  0.00    -0.195 NA
ATOM      2  C   UNL     1       5.978   2.487 -18.386  0.00  0.00    +0.078 C 
ATOM      3  C   UNL     1       4.534   2.306 -18.654  0.00  0.00    +0.086 C 
ATOM      4  N   UNL     1       3.748   1.830 -17.498  0.00  0.00    -0.273 N 
ATOM      5  C   UNL     1       3.791   2.772 -16.374  0.00  0.00    +0.164 C 
ATOM      6  C   UNL     1       2.842   2.290 -15.310  0.00  0.00    +0.004 C 
ATOM      7  C   UNL     1       3.022   2.532 -14.042  0.00  0.00    -0.120 C 
ATOM      8  C   UNL     1       3.296   2.910 -12.829  0.00  0.00    -0.018 C 
ATOM      9  C   UNL     1       4.059   4.110 -12.576  0.00  0.00    -0.036 C 
ATOM     10  C   UNL     1       3.831   5.343 -13.064  0.00  0.00    +0.031 C 
ATOM     11  N   UNL     1       2.763   5.738 -13.821  0.00  0.00    -0.235 N 
ATOM     12  C   UNL     1       2.782   5.626 -15.135  0.00  0.00    +0.171 C 
ATOM     13  C   UNL     1       1.496   6.174 -15.799  0.00  0.00    +0.065 C 
ATOM     14  N   UNL     1       0.493   6.573 -14.918  0.00  0.00    -0.355 N 
ATOM     15  C   UNL     1       1.378   6.241 -17.136  0.00  0.00    -0.056 C 
ATOM     16  C   UNL     1       0.183   6.767 -17.879  0.00  0.00    -0.013 C 
ATOM     17  C   UNL     1      -0.812   5.673 -18.144  0.00  0.00    -0.069 C 
ATOM     18  C   UNL     1      -2.092   5.731 -17.764  0.00  0.00    +0.001 C 
ATOM     19 CL   UNL     1      -3.199   4.451 -18.033  0.00  0.00    -0.092 Cl
ATOM     20  N   UNL     1       3.834   5.074 -15.868  0.00  0.00    -0.245 N 
ATOM     21  O   UNL     1       3.395   4.092 -16.796  0.00  0.00    -0.249 OA
ATOM     22  H   UNL     1       8.020   2.747 -17.916  0.00  0.00    +0.000 HD
ATOM     23  H   UNL     1       4.126   0.934 -17.190  0.00  0.00    +0.000 HD
ATOM     24  H   UNL     1       2.777   1.740 -17.795  0.00  0.00    +0.000 HD
ATOM     25  H   UNL     1       1.967   6.111 -13.378  0.00  0.00    +0.000 HD
ATOM     26  H   UNL     1       0.635   6.502 -13.947  0.00  0.00    +0.000 HD
ATOM     27  H   UNL     1      -0.357   6.927 -15.267  0.00  0.00    +0.000 HD
ATOM     28  H   UNL     1       4.776   5.337 -15.754  0.00  0.00    +0.000 HD
ENDROOT
TORSDOF 0
ENDMDL
MODEL 3
REMARK VINA RESULT:    -4.413      6.311      8.919
REMARK INTER + INTRA:          -4.413
REMARK INTER:                  -4.413
REMARK INTRA:                   0.000
REMARK UNBOUND:                 0.000
REMARK  Name = /home/vital/Documents/PhD_2021/Malaria_codes/scripts/../data/pdbqt_ligands/ligand_57_temp.pdb
REMARK                            x       y       z     vdW  Elec       q    Type
REMARK                         _______ _______ _______ _____ _____    ______ ____
ROOT
ATOM      1  N   UNL     1       1.589  -7.726 -25.872  0.00  0.00    -0.195 NA
ATOM      2  C   UNL     1       2.016  -6.733 -26.300  0.00  0.00    +0.078 C 
ATOM      3  C   UNL     1       2.554  -5.445 -26.789  0.00  0.00    +0.086 C 
ATOM      4  N   UNL     1       2.280  -4.290 -25.910  0.00  0.00    -0.273 N 
ATOM      5  C   UNL     1       2.880  -4.452 -24.580  0.00  0.00    +0.164 C 
ATOM      6  C   UNL     1       2.691  -3.172 -23.812  0.00  0.00    +0.004 C 
ATOM      7  C   UNL     1       2.590  -3.137 -22.513  0.00  0.00    -0.120 C 
ATOM      8  C   UNL     1       2.578  -3.253 -21.218  0.00  0.00    -0.018 C 
ATOM      9  C   UNL     1       3.239  -4.357 -20.561  0.00  0.00    -0.036 C 
ATOM     10  C   UNL     1       4.508  -4.768 -20.731  0.00  0.00    +0.031 C 
ATOM     11  N   UNL     1       5.471  -4.158 -21.487  0.00  0.00    -0.235 N 
ATOM     12  C   UNL     1       5.604  -4.432 -22.769  0.00  0.00    +0.171 C 
ATOM     13  C   UNL     1       6.783  -3.671 -23.423  0.00  0.00    +0.065 C 
ATOM     14  N   UNL     1       7.421  -2.743 -22.603  0.00  0.00    -0.355 N 
ATOM     15  C   UNL     1       7.138  -3.901 -24.698  0.00  0.00    -0.056 C 
ATOM     16  C   UNL     1       8.269  -3.229 -25.422  0.00  0.00    -0.013 C 
ATOM     17  C   UNL     1       7.807  -1.966 -26.092  0.00  0.00    -0.069 C 
ATOM     18  C   UNL     1       8.364  -0.771 -25.876  0.00  0.00    +0.001 C 
ATOM     19 CL   UNL     1       7.790   0.667 -26.613  0.00  0.00    -0.092 Cl
ATOM     20  N   UNL     1       4.783  -5.308 -23.482  0.00  0.00    -0.245 N 
ATOM     21  O   UNL     1       4.289  -4.734 -24.685  0.00  0.00    -0.249 OA
ATOM     22  H   UNL     1       1.241  -8.536 -25.522  0.00  0.00    +0.000 HD
ATOM     23  H   UNL     1       1.271  -4.189 -25.804  0.00  0.00    +0.000 HD
ATOM     24  H   UNL     1       2.692  -3.463 -26.341  0.00  0.00    +0.000 HD
ATOM     25  H   UNL     1       6.074  -3.504 -21.065  0.00  0.00    +0.000 HD
ATOM     26  H   UNL     1       7.118  -2.616 -21.676  0.00  0.00    +0.000 HD
ATOM     27  H   UNL     1       8.176  -2.215 -22.951  0.00  0.00    +0.000 HD
ATOM     28  H   UNL     1       4.569  -6.221 -23.184  0.00  0.00    +0.000 HD
ENDROOT
TORSDOF 0
ENDMDL
MODEL 4
REMARK VINA RESULT:    -4.262     11.385     13.175
REMARK INTER + INTRA:          -4.262
REMARK INTER:                  -4.262
REMARK INTRA:                   0.000
REMARK UNBOUND:                 0.000
REMARK  Name = /home/vital/Documents/PhD_2021/Malaria_codes/scripts/../data/pdbqt_ligands/ligand_57_temp.pdb
REMARK                            x       y       z     vdW  Elec       q    Type
REMARK                         _______ _______ _______ _____ _____    ______ ____
ROOT
ATOM      1  N   UNL     1       4.204   4.625 -28.839  0.00  0.00    -0.195 NA
ATOM      2  C   UNL     1       3.469   4.212 -29.639  0.00  0.00    +0.078 C 
ATOM      3  C   UNL     1       2.583   3.672 -30.694  0.00  0.00    +0.086 C 
ATOM      4  N   UNL     1       3.203   3.581 -32.031  0.00  0.00    -0.273 N 
ATOM      5  C   UNL     1       4.366   2.684 -32.042  0.00  0.00    +0.164 C 
ATOM      6  C   UNL     1       4.832   2.525 -33.464  0.00  0.00    +0.004 C 
ATOM      7  C   UNL     1       6.075   2.287 -33.775  0.00  0.00    -0.120 C 
ATOM      8  C   UNL     1       7.330   1.983 -33.926  0.00  0.00    -0.018 C 
ATOM      9  C   UNL     1       8.065   1.307 -32.882  0.00  0.00    -0.036 C 
ATOM     10  C   UNL     1       7.719   0.178 -32.238  0.00  0.00    +0.031 C 
ATOM     11  N   UNL     1       6.646  -0.624 -32.513  0.00  0.00    -0.235 N 
ATOM     12  C   UNL     1       5.467  -0.394 -31.968  0.00  0.00    +0.171 C 
ATOM     13  C   UNL     1       4.407  -1.447 -32.374  0.00  0.00    +0.065 C 
ATOM     14  N   UNL     1       4.821  -2.374 -33.327  0.00  0.00    -0.355 N 
ATOM     15  C   UNL     1       3.176  -1.437 -31.835  0.00  0.00    -0.056 C 
ATOM     16  C   UNL     1       2.081  -2.416 -32.148  0.00  0.00    -0.013 C 
ATOM     17  C   UNL     1       1.252  -1.946 -33.310  0.00  0.00    -0.069 C 
ATOM     18  C   UNL     1       1.051  -2.671 -34.414  0.00  0.00    +0.001 C 
ATOM     19 CL   UNL     1       0.141  -2.097 -35.748  0.00  0.00    -0.092 Cl
ATOM     20  N   UNL     1       5.183   0.675 -31.118  0.00  0.00    -0.245 N 
ATOM     21  O   UNL     1       4.019   1.390 -31.512  0.00  0.00    -0.249 OA
ATOM     22  H   UNL     1       4.804   4.963 -28.185  0.00  0.00    +0.000 HD
ATOM     23  H   UNL     1       3.504   4.512 -32.319  0.00  0.00    +0.000 HD
ATOM     24  H   UNL     1       2.508   3.201 -32.673  0.00  0.00    +0.000 HD
ATOM     25  H   UNL     1       6.755  -1.385 -33.128  0.00  0.00    +0.000 HD
ATOM     26  H   UNL     1       5.736  -2.333 -33.688  0.00  0.00    +0.000 HD
ATOM     27  H   UNL     1       4.199  -3.071 -33.640  0.00  0.00    +0.000 HD
ATOM     28  H   UNL     1       5.728   0.909 -30.332  0.00  0.00    +0.000 HD
ENDROOT
TORSDOF 0
ENDMDL
MODEL 5
REMARK VINA RESULT:    -4.191     11.390     13.643
REMARK INTER + INTRA:          -4.191
REMARK INTER:                  -4.191
REMARK INTRA:                   0.000
REMARK UNBOUND:                 0.000
REMARK  Name = /home/vital/Documents/PhD_2021/Malaria_codes/scripts/../data/pdbqt_ligands/ligand_57_temp.pdb
REMARK                            x       y       z     vdW  Elec       q    Type
REMARK                         _______ _______ _______ _____ _____    ______ ____
ROOT
ATOM      1  N   UNL     1       2.531  -6.440 -26.884  0.00  0.00    -0.195 NA
ATOM      2  C   UNL     1       1.473  -6.522 -27.358  0.00  0.00    +0.078 C 
ATOM      3  C   UNL     1       0.148  -6.597 -28.012  0.00  0.00    +0.086 C 
ATOM      4  N   UNL     1      -0.044  -5.646 -29.125  0.00  0.00    -0.273 N 
ATOM      5  C   UNL     1       0.912  -5.872 -30.217  0.00  0.00    +0.164 C 
ATOM      6  C   UNL     1       0.544  -4.974 -31.367  0.00  0.00    +0.004 C 
ATOM      7  C   UNL     1       1.422  -4.517 -32.214  0.00  0.00    -0.120 C 
ATOM      8  C   UNL     1       2.395  -4.200 -33.016  0.00  0.00    -0.018 C 
ATOM      9  C   UNL     1       3.557  -5.048 -33.151  0.00  0.00    -0.036 C 
ATOM     10  C   UNL     1       3.581  -6.367 -33.409  0.00  0.00    +0.031 C 
ATOM     11  N   UNL     1       2.508  -7.163 -33.703  0.00  0.00    -0.235 N 
ATOM     12  C   UNL     1       1.809  -7.741 -32.746  0.00  0.00    +0.171 C 
ATOM     13  C   UNL     1       0.670  -8.635 -33.297  0.00  0.00    +0.065 C 
ATOM     14  N   UNL     1       0.490  -8.587 -34.677  0.00  0.00    -0.355 N 
ATOM     15  C   UNL     1      -0.083  -9.386 -32.476  0.00  0.00    -0.056 C 
ATOM     16  C   UNL     1      -1.199 -10.295 -32.906  0.00  0.00    -0.013 C 
ATOM     17  C   UNL     1      -2.508  -9.558 -32.947  0.00  0.00    -0.069 C 
ATOM     18  C   UNL     1      -3.285  -9.495 -34.033  0.00  0.00    +0.001 C 
ATOM     19 CL   UNL     1      -4.752  -8.609 -34.073  0.00  0.00    -0.092 Cl
ATOM     20  N   UNL     1       2.048  -7.578 -31.381  0.00  0.00    -0.245 N 
ATOM     21  O   UNL     1       0.870  -7.243 -30.659  0.00  0.00    -0.249 OA
ATOM     22  H   UNL     1       3.395  -6.372 -26.496  0.00  0.00    +0.000 HD
ATOM     23  H   UNL     1       0.079  -4.698 -28.773  0.00  0.00    +0.000 HD
ATOM     24  H   UNL     1      -0.983  -5.785 -29.498  0.00  0.00    +0.000 HD
ATOM     25  H   UNL     1       2.254  -7.306 -34.643  0.00  0.00    +0.000 HD
ATOM     26  H   UNL     1       1.071  -8.018 -35.230  0.00  0.00    +0.000 HD
ATOM     27  H   UNL     1      -0.220  -9.124 -35.100  0.00  0.00    +0.000 HD
ATOM     28  H   UNL     1       2.933  -7.685 -30.965  0.00  0.00    +0.000 HD
ENDROOT
TORSDOF 0
ENDMDL
MODEL 6
REMARK VINA RESULT:    -4.161      7.635      9.843
REMARK INTER + INTRA:          -4.161
REMARK INTER:                  -4.161
REMARK INTRA:                   0.000
REMARK UNBOUND:                 0.000
REMARK  Name = /home/vital/Documents/PhD_2021/Malaria_codes/scripts/../data/pdbqt_ligands/ligand_57_temp.pdb
REMARK                            x       y       z     vdW  Elec       q    Type
REMARK                         _______ _______ _______ _____ _____    ______ ____
ROOT
ATOM      1  N   UNL     1       1.470  -1.480 -30.810  0.00  0.00    -0.195 NA
ATOM      2  C   UNL     1       2.242  -1.123 -30.018  0.00  0.00    +0.078 C 
ATOM      3  C   UNL     1       3.198  -0.707 -28.968  0.00  0.00    +0.086 C 
ATOM      4  N   UNL     1       2.775  -1.025 -27.589  0.00  0.00    -0.273 N 
ATOM      5  C   UNL     1       2.613  -2.469 -27.379  0.00  0.00    +0.164 C 
ATOM      6  C   UNL     1       2.341  -2.711 -25.919  0.00  0.00    +0.004 C 
ATOM      7  C   UNL     1       1.637  -3.721 -25.491  0.00  0.00    -0.120 C 
ATOM      8  C   UNL     1       0.978  -4.806 -25.213  0.00  0.00    -0.018 C 
ATOM      9  C   UNL     1       1.001  -5.942 -26.105  0.00  0.00    -0.036 C 
ATOM     10  C   UNL     1       2.081  -6.556 -26.620  0.00  0.00    +0.031 C 
ATOM     11  N   UNL     1       3.390  -6.296 -26.321  0.00  0.00    -0.235 N 
ATOM     12  C   UNL     1       4.066  -5.371 -26.975  0.00  0.00    +0.171 C 
ATOM     13  C   UNL     1       5.540  -5.272 -26.513  0.00  0.00    +0.065 C 
ATOM     14  N   UNL     1       5.878  -6.067 -25.421  0.00  0.00    -0.355 N 
ATOM     15  C   UNL     1       6.411  -4.459 -27.135  0.00  0.00    -0.056 C 
ATOM     16  C   UNL     1       7.861  -4.298 -26.777  0.00  0.00    -0.013 C 
ATOM     17  C   UNL     1       8.046  -3.219 -25.748  0.00  0.00    -0.069 C 
ATOM     18  C   UNL     1       8.659  -3.414 -24.577  0.00  0.00    +0.001 C 
ATOM     19 CL   UNL     1       8.818  -2.181 -23.397  0.00  0.00    -0.092 Cl
ATOM     20  N   UNL     1       3.531  -4.557 -27.974  0.00  0.00    -0.245 N 
ATOM     21  O   UNL     1       3.807  -3.179 -27.760  0.00  0.00    -0.249 OA
ATOM     22  H   UNL     1       0.840  -1.772 -31.457  0.00  0.00    +0.000 HD
ATOM     23  H   UNL     1       1.885  -0.564 -27.404  0.00  0.00    +0.000 HD
ATOM     24  H   UNL     1       3.502  -0.696 -26.955  0.00  0.00    +0.000 HD
ATOM     25  H   UNL     1       3.834  -6.807 -25.607  0.00  0.00    +0.000 HD
ATOM     26  H   UNL     1       5.198  -6.644 -25.004  0.00  0.00    +0.000 HD
ATOM     27  H   UNL     1       6.796  -6.053 -25.065  0.00  0.00    +0.000 HD
ATOM     28  H   UNL     1       3.020  -4.899 -28.742  0.00  0.00    +0.000 HD
ENDROOT
TORSDOF 0
ENDMDL
MODEL 7
REMARK VINA RESULT:    -4.155     12.064     13.972
REMARK INTER + INTRA:          -4.155
REMARK INTER:                  -4.155
REMARK INTRA:                   0.000
REMARK UNBOUND:                 0.000
REMARK  Name = /home/vital/Documents/PhD_2021/Malaria_codes/scripts/../data/pdbqt_ligands/ligand_57_temp.pdb
REMARK                            x       y       z     vdW  Elec       q    Type
REMARK                         _______ _______ _______ _____ _____    ______ ____
ROOT
ATOM      1  N   UNL     1       6.070  -4.615 -33.697  0.00  0.00    -0.195 NA
ATOM      2  C   UNL     1       5.337  -4.764 -32.807  0.00  0.00    +0.078 C 
ATOM      3  C   UNL     1       4.363  -4.917 -31.704  0.00  0.00    +0.086 C 
ATOM      4  N   UNL     1       3.274  -3.919 -31.701  0.00  0.00    -0.273 N 
ATOM      5  C   UNL     1       2.457  -3.988 -32.918  0.00  0.00    +0.164 C 
ATOM      6  C   UNL     1       1.285  -3.057 -32.760  0.00  0.00    +0.004 C 
ATOM      7  C   UNL     1       0.709  -2.470 -33.772  0.00  0.00    -0.120 C 
ATOM      8  C   UNL     1       0.197  -2.016 -34.877  0.00  0.00    -0.018 C 
ATOM      9  C   UNL     1       0.333  -2.745 -36.117  0.00  0.00    -0.036 C 
ATOM     10  C   UNL     1       0.040  -4.038 -36.342  0.00  0.00    +0.031 C 
ATOM     11  N   UNL     1      -0.549  -4.908 -35.465  0.00  0.00    -0.235 N 
ATOM     12  C   UNL     1       0.173  -5.606 -34.612  0.00  0.00    +0.171 C 
ATOM     13  C   UNL     1      -0.684  -6.562 -33.747  0.00  0.00    +0.065 C 
ATOM     14  N   UNL     1      -2.061  -6.445 -33.916  0.00  0.00    -0.355 N 
ATOM     15  C   UNL     1      -0.113  -7.429 -32.895  0.00  0.00    -0.056 C 
ATOM     16  C   UNL     1      -0.849  -8.407 -32.023  0.00  0.00    -0.013 C 
ATOM     17  C   UNL     1      -1.197  -7.791 -30.697  0.00  0.00    -0.069 C 
ATOM     18  C   UNL     1      -2.442  -7.730 -30.216  0.00  0.00    +0.001 C 
ATOM     19 CL   UNL     1      -2.824  -6.980 -28.723  0.00  0.00    -0.092 Cl
ATOM     20  N   UNL     1       1.559  -5.508 -34.481  0.00  0.00    -0.245 N 
ATOM     21  O   UNL     1       1.968  -5.327 -33.132  0.00  0.00    -0.249 OA
ATOM     22  H   UNL     1       6.668  -4.494 -34.424  0.00  0.00    +0.000 HD
ATOM     23  H   UNL     1       3.682  -2.987 -31.632  0.00  0.00    +0.000 HD
ATOM     24  H   UNL     1       2.669  -4.119 -30.905  0.00  0.00    +0.000 HD
ATOM     25  H   UNL     1      -1.528  -5.014 -35.473  0.00  0.00    +0.000 HD
ATOM     26  H   UNL     1      -2.425  -5.791 -34.556  0.00  0.00    +0.000 HD
ATOM     27  H   UNL     1      -2.672  -7.016 -33.395  0.00  0.00    +0.000 HD
ATOM     28  H   UNL     1       2.185  -5.560 -35.240  0.00  0.00    +0.000 HD
ENDROOT
TORSDOF 0
ENDMDL
MODEL 8
REMARK VINA RESULT:    -3.969      8.183     10.076
REMARK INTER + INTRA:          -3.969
REMARK INTER:                  -3.969
REMARK INTRA:                   0.000
REMARK UNBOUND:                 0.000
REMARK  Name = /home/vital/Documents/PhD_2021/Malaria_codes/scripts/../data/pdbqt_ligands/ligand_57_temp.pdb
REMARK                            x       y       z     vdW  Elec       q    Type
REMARK                         _______ _______ _______ _____ _____    ______ ____
ROOT
ATOM      1  N   UNL     1       7.553   6.229 -15.781  0.00  0.00    -0.195 NA
ATOM      2  C   UNL     1       6.439   6.056 -15.500  0.00  0.00    +0.078 C 
ATOM      3  C   UNL     1       5.006   5.890 -15.170  0.00  0.00    +0.086 C 
ATOM      4  N   UNL     1       4.204   7.126 -15.271  0.00  0.00    -0.273 N 
ATOM      5  C   UNL     1       4.201   7.674 -16.633  0.00  0.00    +0.164 C 
ATOM      6  C   UNL     1       3.238   8.830 -16.680  0.00  0.00    +0.004 C 
ATOM      7  C   UNL     1       3.383   9.836 -17.496  0.00  0.00    -0.120 C 
ATOM      8  C   UNL     1       3.620  10.730 -18.409  0.00  0.00    -0.018 C 
ATOM      9  C   UNL     1       4.352  10.396 -19.609  0.00  0.00    -0.036 C 
ATOM     10  C   UNL     1       4.109   9.382 -20.459  0.00  0.00    +0.031 C 
ATOM     11  N   UNL     1       3.050   8.517 -20.419  0.00  0.00    -0.235 N 
ATOM     12  C   UNL     1       3.102   7.411 -19.702  0.00  0.00    +0.171 C 
ATOM     13  C   UNL     1       1.820   6.554 -19.835  0.00  0.00    +0.065 C 
ATOM     14  N   UNL     1       0.789   7.132 -20.572  0.00  0.00    -0.355 N 
ATOM     15  C   UNL     1       1.732   5.342 -19.261  0.00  0.00    -0.056 C 
ATOM     16  C   UNL     1       0.544   4.426 -19.339  0.00  0.00    -0.013 C 
ATOM     17  C   UNL     1      -0.422   4.698 -18.220  0.00  0.00    -0.069 C 
ATOM     18  C   UNL     1      -1.710   4.993 -18.413  0.00  0.00    +0.001 C 
ATOM     19 CL   UNL     1      -2.784   5.347 -17.124  0.00  0.00    -0.092 Cl
ATOM     20  N   UNL     1       4.182   7.036 -18.902  0.00  0.00    -0.245 N 
ATOM     21  O   UNL     1       3.786   6.676 -17.586  0.00  0.00    -0.249 OA
ATOM     22  H   UNL     1       8.463   6.370 -16.011  0.00  0.00    +0.000 HD
ATOM     23  H   UNL     1       4.593   7.824 -14.638  0.00  0.00    +0.000 HD
ATOM     24  H   UNL     1       3.242   6.896 -15.023  0.00  0.00    +0.000 HD
ATOM     25  H   UNL     1       2.236   8.724 -20.933  0.00  0.00    +0.000 HD
ATOM     26  H   UNL     1       0.910   8.024 -20.970  0.00  0.00    +0.000 HD
ATOM     27  H   UNL     1      -0.060   6.649 -20.694  0.00  0.00    +0.000 HD
ATOM     28  H   UNL     1       5.115   7.022 -19.215  0.00  0.00    +0.000 HD
ENDROOT
TORSDOF 0
ENDMDL
MODEL 9
REMARK VINA RESULT:    -3.361     11.632     12.481
REMARK INTER + INTRA:          -3.361
REMARK INTER:                  -3.361
REMARK INTRA:                   0.000
REMARK UNBOUND:                 0.000
REMARK  Name = /home/vital/Documents/PhD_2021/Malaria_codes/scripts/../data/pdbqt_ligands/ligand_57_temp.pdb
REMARK                            x       y       z     vdW  Elec       q    Type
REMARK                         _______ _______ _______ _____ _____    ______ ____
ROOT
ATOM      1  N   UNL     1       6.344  -4.230 -30.228  0.00  0.00    -0.195 NA
ATOM      2  C   UNL     1       5.837  -3.720 -31.141  0.00  0.00    +0.078 C 
ATOM      3  C   UNL     1       5.156  -3.123 -32.311  0.00  0.00    +0.086 C 
ATOM      4  N   UNL     1       4.445  -4.091 -33.170  0.00  0.00    -0.273 N 
ATOM      5  C   UNL     1       3.376  -4.791 -32.448  0.00  0.00    +0.164 C 
ATOM      6  C   UNL     1       2.606  -5.631 -33.431  0.00  0.00    +0.004 C 
ATOM      7  C   UNL     1       2.004  -6.737 -33.094  0.00  0.00    -0.120 C 
ATOM      8  C   UNL     1       1.398  -7.774 -32.597  0.00  0.00    -0.018 C 
ATOM      9  C   UNL     1       1.010  -7.816 -31.206  0.00  0.00    -0.036 C 
ATOM     10  C   UNL     1       0.303  -6.896 -30.526  0.00  0.00    +0.031 C 
ATOM     11  N   UNL     1      -0.287  -5.774 -31.040  0.00  0.00    -0.235 N 
ATOM     12  C   UNL     1       0.380  -4.642 -31.145  0.00  0.00    +0.171 C 
ATOM     13  C   UNL     1      -0.488  -3.488 -31.706  0.00  0.00    +0.065 C 
ATOM     14  N   UNL     1      -1.767  -3.851 -32.119  0.00  0.00    -0.355 N 
ATOM     15  C   UNL     1      -0.011  -2.235 -31.785  0.00  0.00    -0.056 C 
ATOM     16  C   UNL     1      -0.770  -1.045 -32.299  0.00  0.00    -0.013 C 
ATOM     17  C   UNL     1      -0.591  -0.890 -33.783  0.00  0.00    -0.069 C 
ATOM     18  C   UNL     1      -1.609  -0.839 -34.647  0.00  0.00    +0.001 C 
ATOM     19 CL   UNL     1      -1.381  -0.710 -36.341  0.00  0.00    -0.092 Cl
ATOM     20  N   UNL     1       1.721  -4.478 -30.798  0.00  0.00    -0.245 N 
ATOM     21  O   UNL     1       2.477  -3.852 -31.826  0.00  0.00    -0.249 OA
ATOM     22  H   UNL     1       6.758  -4.645 -29.482  0.00  0.00    +0.000 HD
ATOM     23  H   UNL     1       5.114  -4.779 -33.514  0.00  0.00    +0.000 HD
ATOM     24  H   UNL     1       4.018  -3.574 -33.938  0.00  0.00    +0.000 HD
ATOM     25  H   UNL     1      -1.226  -5.814 -31.337  0.00  0.00    +0.000 HD
ATOM     26  H   UNL     1      -2.064  -4.786 -32.038  0.00  0.00    +0.000 HD
ATOM     27  H   UNL     1      -2.375  -3.173 -32.493  0.00  0.00    +0.000 HD
ATOM     28  H   UNL     1       2.102  -4.763 -29.936  0.00  0.00    +0.000 HD
ENDROOT
TORSDOF 0
ENDMDL
