MODEL 1
REMARK VINA RESULT:    -5.348      0.000      0.000
REMARK INTER + INTRA:          -5.348
REMARK INTER:                  -5.348
REMARK INTRA:                   0.000
REMARK UNBOUND:                 0.000
REMARK  Name = /home/vital/Documents/PhD_2021/Malaria_codes/scripts/../data/pdbqt_ligands/ligand_114_temp.pdb
REMARK                            x       y       z     vdW  Elec       q    Type
REMARK                         _______ _______ _______ _____ _____    ______ ____
ROOT
ATOM      1  N1  UNL     1       1.869   9.929 -24.731  0.00  0.00    -0.331 N 
ATOM      2  C1  UNL     1       2.036   8.790 -23.955  0.00  0.00    +0.160 C 
ATOM      3  C2  UNL     1       0.986   7.999 -23.658  0.00  0.00    -0.012 C 
ATOM      4  C3  UNL     1       1.049   6.790 -22.765  0.00  0.00    +0.041 C 
ATOM      5  N2  UNL     1       2.349   6.738 -22.087  0.00  0.00    -0.264 N 
ATOM      6  C4  UNL     1       2.344   7.349 -20.816  0.00  0.00    +0.135 A 
ATOM      7  C5  UNL     1       1.472   6.910 -19.829  0.00  0.00    +0.049 A 
ATOM      8  C6  UNL     1       1.469   7.497 -18.563  0.00  0.00    +0.048 A 
ATOM      9  N3  UNL     1       0.534   7.097 -17.591  0.00  0.00    -0.341 N 
ATOM     10  C7  UNL     1      -0.095   5.774 -17.720  0.00  0.00    +0.032 C 
ATOM     11  C8  UNL     1      -0.932   5.494 -16.465  0.00  0.00    +0.060 C 
ATOM     12  O1  UNL     1      -0.086   5.531 -15.313  0.00  0.00    -0.393 OA
ATOM     13  C9  UNL     1       2.325   8.606 -18.349  0.00  0.00    +0.022 A 
ATOM     14  C10 UNL     1       2.361   9.351 -17.145  0.00  0.00    -0.051 A 
ATOM     15  C11 UNL     1       3.238  10.420 -16.979  0.00  0.00    -0.061 A 
ATOM     16  C12 UNL     1       4.095  10.767 -18.012  0.00  0.00    -0.060 A 
ATOM     17  C13 UNL     1       4.060  10.049 -19.209  0.00  0.00    -0.036 A 
ATOM     18  C14 UNL     1       3.190   8.983 -19.402  0.00  0.00    +0.075 A 
ATOM     19  N4  UNL     1       3.203   8.367 -20.602  0.00  0.00    -0.231 NA
ATOM     20  C15 UNL     1       3.505   7.183 -22.887  0.00  0.00    +0.230 C 
ATOM     21 CL1  UNL     1       3.722   5.982 -24.216  0.00  0.00    -0.058 Cl
ATOM     22  O2  UNL     1       3.339   8.519 -23.375  0.00  0.00    -0.497 OA
ATOM     23 CL2  UNL     1       4.665   9.133 -24.219  0.00  0.00    +0.098 Cl
ATOM     24  H   UNL     1       0.992  10.127 -25.132  0.00  0.00    +0.000 HD
ATOM     25  H   UNL     1       2.628  10.538 -24.881  0.00  0.00    +0.000 HD
ATOM     26  H   UNL     1       0.305   7.690 -16.839  0.00  0.00    +0.000 HD
ATOM     27  H   UNL     1       0.606   4.858 -15.399  0.00  0.00    +0.000 HD
ENDROOT
TORSDOF 0
ENDMDL
MODEL 2
REMARK VINA RESULT:    -5.342      5.541      7.312
REMARK INTER + INTRA:          -5.342
REMARK INTER:                  -5.342
REMARK INTRA:                   0.000
REMARK UNBOUND:                 0.000
REMARK  Name = /home/vital/Documents/PhD_2021/Malaria_codes/scripts/../data/pdbqt_ligands/ligand_114_temp.pdb
REMARK                            x       y       z     vdW  Elec       q    Type
REMARK                         _______ _______ _______ _____ _____    ______ ____
ROOT
ATOM      1  N1  UNL     1       6.411   2.210 -16.074  0.00  0.00    -0.331 N 
ATOM      2  C1  UNL     1       5.210   2.485 -15.435  0.00  0.00    +0.160 C 
ATOM      3  C2  UNL     1       4.084   1.825 -15.771  0.00  0.00    -0.012 C 
ATOM      4  C3  UNL     1       2.722   2.103 -15.193  0.00  0.00    +0.041 C 
ATOM      5  N2  UNL     1       2.760   3.335 -14.399  0.00  0.00    -0.264 N 
ATOM      6  C4  UNL     1       2.394   4.485 -15.129  0.00  0.00    +0.135 A 
ATOM      7  C5  UNL     1       1.151   4.561 -15.743  0.00  0.00    +0.049 A 
ATOM      8  C6  UNL     1       0.772   5.699 -16.455  0.00  0.00    +0.048 A 
ATOM      9  N3  UNL     1      -0.459   5.741 -17.136  0.00  0.00    -0.341 N 
ATOM     10  C7  UNL     1      -1.529   4.824 -16.716  0.00  0.00    +0.032 C 
ATOM     11  C8  UNL     1      -2.814   5.174 -17.478  0.00  0.00    +0.060 C 
ATOM     12  O1  UNL     1      -3.179   6.526 -17.194  0.00  0.00    -0.393 OA
ATOM     13  C9  UNL     1       1.727   6.736 -16.597  0.00  0.00    +0.022 A 
ATOM     14  C10 UNL     1       1.511   7.906 -17.365  0.00  0.00    -0.051 A 
ATOM     15  C11 UNL     1       2.477   8.906 -17.454  0.00  0.00    -0.061 A 
ATOM     16  C12 UNL     1       3.679   8.755 -16.779  0.00  0.00    -0.060 A 
ATOM     17  C13 UNL     1       3.910   7.600 -16.030  0.00  0.00    -0.036 A 
ATOM     18  C14 UNL     1       2.966   6.586 -15.931  0.00  0.00    +0.075 A 
ATOM     19  N4  UNL     1       3.288   5.491 -15.211  0.00  0.00    -0.231 NA
ATOM     20  C15 UNL     1       3.998   3.564 -13.632  0.00  0.00    +0.230 C 
ATOM     21 CL1  UNL     1       4.074   2.288 -12.358  0.00  0.00    -0.058 Cl
ATOM     22  O2  UNL     1       5.157   3.570 -14.472  0.00  0.00    -0.497 OA
ATOM     23 CL2  UNL     1       6.604   3.923 -13.678  0.00  0.00    +0.098 Cl
ATOM     24  H   UNL     1       6.463   1.477 -16.729  0.00  0.00    +0.000 HD
ATOM     25  H   UNL     1       7.211   2.747 -15.872  0.00  0.00    +0.000 HD
ATOM     26  H   UNL     1      -0.601   6.371 -17.879  0.00  0.00    +0.000 HD
ATOM     27  H   UNL     1      -3.329   6.627 -16.242  0.00  0.00    +0.000 HD
ENDROOT
TORSDOF 0
ENDMDL
MODEL 3
REMARK VINA RESULT:    -5.207     14.633     15.728
REMARK INTER + INTRA:          -5.207
REMARK INTER:                  -5.207
REMARK INTRA:                   0.000
REMARK UNBOUND:                 0.000
REMARK  Name = /home/vital/Documents/PhD_2021/Malaria_codes/scripts/../data/pdbqt_ligands/ligand_114_temp.pdb
REMARK                            x       y       z     vdW  Elec       q    Type
REMARK                         _______ _______ _______ _____ _____    ______ ____
ROOT
ATOM      1  N1  UNL     1       4.392  -4.967 -33.659  0.00  0.00    -0.331 N 
ATOM      2  C1  UNL     1       4.616  -4.240 -32.498  0.00  0.00    +0.160 C 
ATOM      3  C2  UNL     1       5.766  -4.377 -31.811  0.00  0.00    -0.012 C 
ATOM      4  C3  UNL     1       6.073  -3.693 -30.506  0.00  0.00    +0.041 C 
ATOM      5  N2  UNL     1       4.861  -3.053 -29.982  0.00  0.00    -0.264 N 
ATOM      6  C4  UNL     1       4.140  -3.867 -29.083  0.00  0.00    +0.135 A 
ATOM      7  C5  UNL     1       4.747  -4.350 -27.932  0.00  0.00    +0.049 A 
ATOM      8  C6  UNL     1       4.039  -5.143 -27.028  0.00  0.00    +0.048 A 
ATOM      9  N3  UNL     1       4.680  -5.690 -25.901  0.00  0.00    -0.341 N 
ATOM     10  C7  UNL     1       5.915  -5.057 -25.416  0.00  0.00    +0.032 C 
ATOM     11  C8  UNL     1       6.325  -5.713 -24.090  0.00  0.00    +0.060 C 
ATOM     12  O1  UNL     1       5.274  -5.548 -23.135  0.00  0.00    -0.393 OA
ATOM     13  C9  UNL     1       2.711  -5.503 -27.367  0.00  0.00    +0.022 A 
ATOM     14  C10 UNL     1       1.909  -6.373 -26.589  0.00  0.00    -0.051 A 
ATOM     15  C11 UNL     1       0.600  -6.677 -26.957  0.00  0.00    -0.061 A 
ATOM     16  C12 UNL     1       0.069  -6.121 -28.110  0.00  0.00    -0.060 A 
ATOM     17  C13 UNL     1       0.854  -5.274 -28.894  0.00  0.00    -0.036 A 
ATOM     18  C14 UNL     1       2.164  -4.960 -28.552  0.00  0.00    +0.075 A 
ATOM     19  N4  UNL     1       2.859  -4.158 -29.385  0.00  0.00    -0.231 NA
ATOM     20  C15 UNL     1       3.968  -2.454 -30.990  0.00  0.00    +0.230 C 
ATOM     21 CL1  UNL     1       4.852  -1.058 -31.715  0.00  0.00    -0.058 Cl
ATOM     22  O2  UNL     1       3.549  -3.407 -31.972  0.00  0.00    -0.497 OA
ATOM     23 CL2  UNL     1       2.446  -2.818 -33.106  0.00  0.00    +0.098 Cl
ATOM     24  H   UNL     1       5.105  -5.536 -34.028  0.00  0.00    +0.000 HD
ATOM     25  H   UNL     1       3.519  -4.914 -34.113  0.00  0.00    +0.000 HD
ATOM     26  H   UNL     1       4.310  -6.481 -25.446  0.00  0.00    +0.000 HD
ATOM     27  H   UNL     1       5.112  -4.603 -22.993  0.00  0.00    +0.000 HD
ENDROOT
TORSDOF 0
ENDMDL
MODEL 4
REMARK VINA RESULT:    -5.092      3.161      6.180
REMARK INTER + INTRA:          -5.092
REMARK INTER:                  -5.092
REMARK INTRA:                   0.000
REMARK UNBOUND:                 0.000
REMARK  Name = /home/vital/Documents/PhD_2021/Malaria_codes/scripts/../data/pdbqt_ligands/ligand_114_temp.pdb
REMARK                            x       y       z     vdW  Elec       q    Type
REMARK                         _______ _______ _______ _____ _____    ______ ____
ROOT
ATOM      1  N1  UNL     1       1.758   3.221 -16.197  0.00  0.00    -0.331 N 
ATOM      2  C1  UNL     1       1.063   3.955 -17.149  0.00  0.00    +0.160 C 
ATOM      3  C2  UNL     1       1.120   3.620 -18.453  0.00  0.00    -0.012 C 
ATOM      4  C3  UNL     1       0.468   4.394 -19.566  0.00  0.00    +0.041 C 
ATOM      5  N2  UNL     1      -0.032   5.675 -19.056  0.00  0.00    -0.264 N 
ATOM      6  C4  UNL     1       0.885   6.737 -19.211  0.00  0.00    +0.135 A 
ATOM      7  C5  UNL     1       1.357   7.078 -20.471  0.00  0.00    +0.049 A 
ATOM      8  C6  UNL     1       2.252   8.135 -20.638  0.00  0.00    +0.048 A 
ATOM      9  N3  UNL     1       2.784   8.429 -21.908  0.00  0.00    -0.341 N 
ATOM     10  C7  UNL     1       2.058   7.968 -23.100  0.00  0.00    +0.032 C 
ATOM     11  C8  UNL     1       2.729   8.553 -24.350  0.00  0.00    +0.060 C 
ATOM     12  O1  UNL     1       2.706   9.980 -24.276  0.00  0.00    -0.393 OA
ATOM     13  C9  UNL     1       2.721   8.792 -19.473  0.00  0.00    +0.022 A 
ATOM     14  C10 UNL     1       3.696   9.819 -19.488  0.00  0.00    -0.051 A 
ATOM     15  C11 UNL     1       4.106  10.447 -18.314  0.00  0.00    -0.061 A 
ATOM     16  C12 UNL     1       3.554  10.059 -17.103  0.00  0.00    -0.060 A 
ATOM     17  C13 UNL     1       2.603   9.037 -17.074  0.00  0.00    -0.036 A 
ATOM     18  C14 UNL     1       2.182   8.391 -18.229  0.00  0.00    +0.075 A 
ATOM     19  N4  UNL     1       1.282   7.393 -18.102  0.00  0.00    -0.231 NA
ATOM     20  C15 UNL     1      -0.587   5.647 -17.691  0.00  0.00    +0.230 C 
ATOM     21 CL1  UNL     1      -2.090   4.651 -17.752  0.00  0.00    -0.058 Cl
ATOM     22  O2  UNL     1       0.359   5.155 -16.735  0.00  0.00    -0.497 OA
ATOM     23 CL2  UNL     1      -0.172   5.185 -15.134  0.00  0.00    +0.098 Cl
ATOM     24  H   UNL     1       2.240   2.404 -16.461  0.00  0.00    +0.000 HD
ATOM     25  H   UNL     1       1.768   3.517 -15.258  0.00  0.00    +0.000 HD
ATOM     26  H   UNL     1       3.625   8.933 -21.996  0.00  0.00    +0.000 HD
ATOM     27  H   UNL     1       1.787  10.286 -24.227  0.00  0.00    +0.000 HD
ENDROOT
TORSDOF 0
ENDMDL
MODEL 5
REMARK VINA RESULT:    -4.830     10.846     12.796
REMARK INTER + INTRA:          -4.830
REMARK INTER:                  -4.830
REMARK INTRA:                   0.000
REMARK UNBOUND:                 0.000
REMARK  Name = /home/vital/Documents/PhD_2021/Malaria_codes/scripts/../data/pdbqt_ligands/ligand_114_temp.pdb
REMARK                            x       y       z     vdW  Elec       q    Type
REMARK                         _______ _______ _______ _____ _____    ______ ____
ROOT
ATOM      1  N1  UNL     1       4.567  -6.136 -26.358  0.00  0.00    -0.331 N 
ATOM      2  C1  UNL     1       4.174  -4.928 -25.797  0.00  0.00    +0.160 C 
ATOM      3  C2  UNL     1       4.824  -4.420 -24.731  0.00  0.00    -0.012 C 
ATOM      4  C3  UNL     1       4.431  -3.162 -24.006  0.00  0.00    +0.041 C 
ATOM      5  N2  UNL     1       3.117  -2.707 -24.475  0.00  0.00    -0.264 N 
ATOM      6  C4  UNL     1       2.046  -3.180 -23.689  0.00  0.00    +0.135 A 
ATOM      7  C5  UNL     1       1.994  -2.900 -22.330  0.00  0.00    +0.049 A 
ATOM      8  C6  UNL     1       0.931  -3.350 -21.547  0.00  0.00    +0.048 A 
ATOM      9  N3  UNL     1       0.921  -3.126 -20.157  0.00  0.00    -0.341 N 
ATOM     10  C7  UNL     1       1.742  -2.034 -19.614  0.00  0.00    +0.032 C 
ATOM     11  C8  UNL     1       1.433  -1.875 -18.119  0.00  0.00    +0.060 C 
ATOM     12  O1  UNL     1       0.045  -1.582 -17.951  0.00  0.00    -0.393 OA
ATOM     13  C9  UNL     1      -0.045  -4.169 -22.168  0.00  0.00    +0.022 A 
ATOM     14  C10 UNL     1      -1.127  -4.767 -21.475  0.00  0.00    -0.051 A 
ATOM     15  C11 UNL     1      -2.072  -5.546 -22.139  0.00  0.00    -0.061 A 
ATOM     16  C12 UNL     1      -1.954  -5.744 -23.506  0.00  0.00    -0.060 A 
ATOM     17  C13 UNL     1      -0.884  -5.173 -24.197  0.00  0.00    -0.036 A 
ATOM     18  C14 UNL     1       0.075  -4.397 -23.558  0.00  0.00    +0.075 A 
ATOM     19  N4  UNL     1       1.091  -3.911 -24.300  0.00  0.00    -0.231 NA
ATOM     20  C15 UNL     1       2.850  -2.900 -25.912  0.00  0.00    +0.230 C 
ATOM     21 CL1  UNL     1       3.972  -1.810 -26.810  0.00  0.00    -0.058 Cl
ATOM     22  O2  UNL     1       2.984  -4.270 -26.305  0.00  0.00    -0.497 OA
ATOM     23 CL2  UNL     1       2.598  -4.585 -27.917  0.00  0.00    +0.098 Cl
ATOM     24  H   UNL     1       5.372  -6.595 -26.024  0.00  0.00    +0.000 HD
ATOM     25  H   UNL     1       4.040  -6.534 -27.089  0.00  0.00    +0.000 HD
ATOM     26  H   UNL     1       0.376  -3.689 -19.562  0.00  0.00    +0.000 HD
ATOM     27  H   UNL     1      -0.171  -0.760 -18.417  0.00  0.00    +0.000 HD
ENDROOT
TORSDOF 0
ENDMDL
MODEL 6
REMARK VINA RESULT:    -4.681      5.986      8.413
REMARK INTER + INTRA:          -4.681
REMARK INTER:                  -4.681
REMARK INTRA:                   0.000
REMARK UNBOUND:                 0.000
REMARK  Name = /home/vital/Documents/PhD_2021/Malaria_codes/scripts/../data/pdbqt_ligands/ligand_114_temp.pdb
REMARK                            x       y       z     vdW  Elec       q    Type
REMARK                         _______ _______ _______ _____ _____    ______ ____
ROOT
ATOM      1  N1  UNL     1      -1.388   5.809 -16.125  0.00  0.00    -0.331 N 
ATOM      2  C1  UNL     1      -1.585   5.330 -17.413  0.00  0.00    +0.160 C 
ATOM      3  C2  UNL     1      -2.795   4.889 -17.807  0.00  0.00    -0.012 C 
ATOM      4  C3  UNL     1      -3.092   4.282 -19.152  0.00  0.00    +0.041 C 
ATOM      5  N2  UNL     1      -1.838   4.029 -19.871  0.00  0.00    -0.264 N 
ATOM      6  C4  UNL     1      -1.339   2.722 -19.686  0.00  0.00    +0.135 A 
ATOM      7  C5  UNL     1      -2.112   1.621 -20.029  0.00  0.00    +0.049 A 
ATOM      8  C6  UNL     1      -1.623   0.325 -19.865  0.00  0.00    +0.048 A 
ATOM      9  N3  UNL     1      -2.437  -0.789 -20.145  0.00  0.00    -0.341 N 
ATOM     10  C7  UNL     1      -3.586  -0.613 -21.046  0.00  0.00    +0.032 C 
ATOM     11  C8  UNL     1      -4.207  -1.985 -21.336  0.00  0.00    +0.060 C 
ATOM     12  O1  UNL     1      -3.227  -2.831 -21.942  0.00  0.00    -0.393 OA
ATOM     13  C9  UNL     1      -0.349   0.172 -19.262  0.00  0.00    +0.022 A 
ATOM     14  C10 UNL     1       0.231  -1.083 -18.954  0.00  0.00    -0.051 A 
ATOM     15  C11 UNL     1       1.497  -1.177 -18.381  0.00  0.00    -0.061 A 
ATOM     16  C12 UNL     1       2.207  -0.019 -18.102  0.00  0.00    -0.060 A 
ATOM     17  C13 UNL     1       1.641   1.224 -18.387  0.00  0.00    -0.036 A 
ATOM     18  C14 UNL     1       0.377   1.345 -18.953  0.00  0.00    +0.075 A 
ATOM     19  N4  UNL     1      -0.103   2.588 -19.165  0.00  0.00    -0.231 NA
ATOM     20  C15 UNL     1      -0.778   5.035 -19.681  0.00  0.00    +0.230 C 
ATOM     21 CL1  UNL     1      -1.355   6.562 -20.450  0.00  0.00    -0.058 Cl
ATOM     22  O2  UNL     1      -0.442   5.209 -18.300  0.00  0.00    -0.497 OA
ATOM     23 CL2  UNL     1       0.833   6.275 -18.011  0.00  0.00    +0.098 Cl
ATOM     24  H   UNL     1      -2.153   5.897 -15.511  0.00  0.00    +0.000 HD
ATOM     25  H   UNL     1      -0.485   6.060 -15.825  0.00  0.00    +0.000 HD
ATOM     26  H   UNL     1      -2.241  -1.668 -19.747  0.00  0.00    +0.000 HD
ATOM     27  H   UNL     1      -2.922  -2.431 -22.771  0.00  0.00    +0.000 HD
ENDROOT
TORSDOF 0
ENDMDL
MODEL 7
REMARK VINA RESULT:    -4.556      7.281      8.894
REMARK INTER + INTRA:          -4.556
REMARK INTER:                  -4.556
REMARK INTRA:                   0.000
REMARK UNBOUND:                 0.000
REMARK  Name = /home/vital/Documents/PhD_2021/Malaria_codes/scripts/../data/pdbqt_ligands/ligand_114_temp.pdb
REMARK                            x       y       z     vdW  Elec       q    Type
REMARK                         _______ _______ _______ _____ _____    ______ ____
ROOT
ATOM      1  N1  UNL     1      -0.376  -1.345 -18.326  0.00  0.00    -0.331 N 
ATOM      2  C1  UNL     1       0.817  -0.723 -18.668  0.00  0.00    +0.160 C 
ATOM      3  C2  UNL     1       1.954  -1.435 -18.795  0.00  0.00    -0.012 C 
ATOM      4  C3  UNL     1       3.307  -0.846 -19.086  0.00  0.00    +0.041 C 
ATOM      5  N2  UNL     1       3.249   0.616 -18.976  0.00  0.00    -0.264 N 
ATOM      6  C4  UNL     1       3.606   1.097 -17.699  0.00  0.00    +0.135 A 
ATOM      7  C5  UNL     1       4.852   0.805 -17.162  0.00  0.00    +0.049 A 
ATOM      8  C6  UNL     1       5.222   1.289 -15.906  0.00  0.00    +0.048 A 
ATOM      9  N3  UNL     1       6.457   0.928 -15.335  0.00  0.00    -0.341 N 
ATOM     10  C7  UNL     1       7.535   0.466 -16.222  0.00  0.00    +0.032 C 
ATOM     11  C8  UNL     1       8.821   0.304 -15.401  0.00  0.00    +0.060 C 
ATOM     12  O1  UNL     1       9.167   1.559 -14.810  0.00  0.00    -0.393 OA
ATOM     13  C9  UNL     1       4.254   2.016 -15.169  0.00  0.00    +0.022 A 
ATOM     14  C10 UNL     1       4.462   2.489 -13.850  0.00  0.00    -0.051 A 
ATOM     15  C11 UNL     1       3.483   3.219 -13.178  0.00  0.00    -0.061 A 
ATOM     16  C12 UNL     1       2.279   3.488 -13.810  0.00  0.00    -0.060 A 
ATOM     17  C13 UNL     1       2.057   3.016 -15.104  0.00  0.00    -0.036 A 
ATOM     18  C14 UNL     1       3.013   2.280 -15.793  0.00  0.00    +0.075 A 
ATOM     19  N4  UNL     1       2.700   1.837 -17.029  0.00  0.00    -0.231 NA
ATOM     20  C15 UNL     1       2.003   1.243 -19.452  0.00  0.00    +0.230 C 
ATOM     21 CL1  UNL     1       1.933   0.993 -21.237  0.00  0.00    -0.058 Cl
ATOM     22  O2  UNL     1       0.849   0.724 -18.780  0.00  0.00    -0.497 OA
ATOM     23 CL2  UNL     1      -0.608   1.464 -19.203  0.00  0.00    +0.098 Cl
ATOM     24  H   UNL     1      -0.413  -2.325 -18.246  0.00  0.00    +0.000 HD
ATOM     25  H   UNL     1      -1.184  -0.806 -18.164  0.00  0.00    +0.000 HD
ATOM     26  H   UNL     1       6.596   0.985 -14.363  0.00  0.00    +0.000 HD
ATOM     27  H   UNL     1       9.309   2.216 -15.509  0.00  0.00    +0.000 HD
ENDROOT
TORSDOF 0
ENDMDL
MODEL 8
REMARK VINA RESULT:    -4.389     11.586     15.256
REMARK INTER + INTRA:          -4.389
REMARK INTER:                  -4.389
REMARK INTRA:                   0.000
REMARK UNBOUND:                 0.000
REMARK  Name = /home/vital/Documents/PhD_2021/Malaria_codes/scripts/../data/pdbqt_ligands/ligand_114_temp.pdb
REMARK                            x       y       z     vdW  Elec       q    Type
REMARK                         _______ _______ _______ _____ _____    ______ ____
ROOT
ATOM      1  N1  UNL     1       8.180   2.042 -25.324  0.00  0.00    -0.331 N 
ATOM      2  C1  UNL     1       9.303   1.854 -26.118  0.00  0.00    +0.160 C 
ATOM      3  C2  UNL     1      10.216   2.834 -26.262  0.00  0.00    -0.012 C 
ATOM      4  C3  UNL     1      11.423   2.757 -27.157  0.00  0.00    +0.041 C 
ATOM      5  N2  UNL     1      11.333   1.570 -28.014  0.00  0.00    -0.264 N 
ATOM      6  C4  UNL     1      10.746   1.829 -29.271  0.00  0.00    +0.135 A 
ATOM      7  C5  UNL     1      11.301   2.774 -30.123  0.00  0.00    +0.049 A 
ATOM      8  C6  UNL     1      10.738   3.027 -31.374  0.00  0.00    +0.048 A 
ATOM      9  N3  UNL     1      11.260   4.038 -32.203  0.00  0.00    -0.341 N 
ATOM     10  C7  UNL     1      12.645   4.481 -31.987  0.00  0.00    +0.032 C 
ATOM     11  C8  UNL     1      13.040   5.449 -33.110  0.00  0.00    +0.060 C 
ATOM     12  O1  UNL     1      12.923   4.786 -34.370  0.00  0.00    -0.393 OA
ATOM     13  C9  UNL     1       9.540   2.347 -31.708  0.00  0.00    +0.022 A 
ATOM     14  C10 UNL     1       8.814   2.573 -32.903  0.00  0.00    -0.051 A 
ATOM     15  C11 UNL     1       7.652   1.860 -33.192  0.00  0.00    -0.061 A 
ATOM     16  C12 UNL     1       7.191   0.912 -32.292  0.00  0.00    -0.060 A 
ATOM     17  C13 UNL     1       7.890   0.691 -31.103  0.00  0.00    -0.036 A 
ATOM     18  C14 UNL     1       9.047   1.392 -30.789  0.00  0.00    +0.075 A 
ATOM     19  N4  UNL     1       9.638   1.135 -29.604  0.00  0.00    -0.231 NA
ATOM     20  C15 UNL     1      10.743   0.373 -27.388  0.00  0.00    +0.230 C 
ATOM     21 CL1  UNL     1      11.889  -0.172 -26.105  0.00  0.00    -0.058 Cl
ATOM     22  O2  UNL     1       9.429   0.624 -26.879  0.00  0.00    -0.497 OA
ATOM     23 CL2  UNL     1       8.650  -0.726 -26.233  0.00  0.00    +0.098 Cl
ATOM     24  H   UNL     1       8.079   2.871 -24.802  0.00  0.00    +0.000 HD
ATOM     25  H   UNL     1       7.483   1.347 -25.284  0.00  0.00    +0.000 HD
ATOM     26  H   UNL     1      10.710   4.440 -32.913  0.00  0.00    +0.000 HD
ATOM     27  H   UNL     1      13.509   4.014 -34.386  0.00  0.00    +0.000 HD
ENDROOT
TORSDOF 0
ENDMDL
MODEL 9
REMARK VINA RESULT:    -4.252      1.375      1.464
REMARK INTER + INTRA:          -4.252
REMARK INTER:                  -4.252
REMARK INTRA:                   0.000
REMARK UNBOUND:                 0.000
REMARK  Name = /home/vital/Documents/PhD_2021/Malaria_codes/scripts/../data/pdbqt_ligands/ligand_114_temp.pdb
REMARK                            x       y       z     vdW  Elec       q    Type
REMARK                         _______ _______ _______ _____ _____    ______ ____
ROOT
ATOM      1  N1  UNL     1      -0.041   8.545 -24.550  0.00  0.00    -0.331 N 
ATOM      2  C1  UNL     1       0.542   7.582 -23.738  0.00  0.00    +0.160 C 
ATOM      3  C2  UNL     1      -0.219   6.774 -22.974  0.00  0.00    -0.012 C 
ATOM      4  C3  UNL     1       0.317   5.754 -22.006  0.00  0.00    +0.041 C 
ATOM      5  N2  UNL     1       1.764   5.932 -21.846  0.00  0.00    -0.264 N 
ATOM      6  C4  UNL     1       2.111   6.759 -20.757  0.00  0.00    +0.135 A 
ATOM      7  C5  UNL     1       1.704   6.434 -19.470  0.00  0.00    +0.049 A 
ATOM      8  C6  UNL     1       2.054   7.237 -18.384  0.00  0.00    +0.048 A 
ATOM      9  N3  UNL     1       1.577   6.943 -17.093  0.00  0.00    -0.341 N 
ATOM     10  C7  UNL     1       1.135   5.571 -16.801  0.00  0.00    +0.032 C 
ATOM     11  C8  UNL     1       0.830   5.454 -15.302  0.00  0.00    +0.060 C 
ATOM     12  O1  UNL     1       2.007   5.767 -14.553  0.00  0.00    -0.393 OA
ATOM     13  C9  UNL     1       2.767   8.433 -18.651  0.00  0.00    +0.022 A 
ATOM     14  C10 UNL     1       3.109   9.383 -17.658  0.00  0.00    -0.051 A 
ATOM     15  C11 UNL     1       3.830  10.533 -17.972  0.00  0.00    -0.061 A 
ATOM     16  C12 UNL     1       4.221  10.757 -19.283  0.00  0.00    -0.060 A 
ATOM     17  C13 UNL     1       3.877   9.835 -20.273  0.00  0.00    -0.036 A 
ATOM     18  C14 UNL     1       3.153   8.684 -19.988  0.00  0.00    +0.075 A 
ATOM     19  N4  UNL     1       2.839   7.866 -21.013  0.00  0.00    -0.231 NA
ATOM     20  C15 UNL     1       2.499   6.319 -23.063  0.00  0.00    +0.230 C 
ATOM     21 CL1  UNL     1       2.412   4.921 -24.201  0.00  0.00    -0.058 Cl
ATOM     22  O2  UNL     1       1.989   7.527 -23.639  0.00  0.00    -0.497 OA
ATOM     23 CL2  UNL     1       2.842   8.086 -24.983  0.00  0.00    +0.098 Cl
ATOM     24  H   UNL     1      -1.021   8.595 -24.628  0.00  0.00    +0.000 HD
ATOM     25  H   UNL     1       0.526   9.177 -25.048  0.00  0.00    +0.000 HD
ATOM     26  H   UNL     1       1.540   7.640 -16.400  0.00  0.00    +0.000 HD
ATOM     27  H   UNL     1       2.715   5.148 -14.789  0.00  0.00    +0.000 HD
ENDROOT
TORSDOF 0
ENDMDL
