MODEL 1
REMARK VINA RESULT:    -5.081      0.000      0.000
REMARK INTER + INTRA:          -5.081
REMARK INTER:                  -5.081
REMARK INTRA:                   0.000
REMARK UNBOUND:                 0.000
REMARK  Name = /home/vital/Documents/PhD_2021/Malaria_codes/scripts/../data/pdbqt_ligands/ligand_241_temp.pdb
REMARK                            x       y       z     vdW  Elec       q    Type
REMARK                         _______ _______ _______ _____ _____    ______ ____
ROOT
ATOM      1  C   UNL     1      -2.392   5.001 -17.562  0.00  0.00    -0.042 C 
ATOM      2  C   UNL     1      -1.079   4.958 -16.801  0.00  0.00    +0.045 C 
ATOM      3  O   UNL     1       0.041   4.849 -17.677  0.00  0.00    -0.376 OA
ATOM      4  C   UNL     1       0.196   3.552 -18.245  0.00  0.00    +0.067 C 
ATOM      5  C   UNL     1       1.513   3.536 -18.950  0.00  0.00    -0.042 C 
ATOM      6  C   UNL     1       2.542   2.694 -18.741  0.00  0.00    +0.041 C 
ATOM      7 CL   UNL     1       3.938   2.858 -19.785  0.00  0.00    -0.086 Cl
ATOM      8  C   UNL     1       2.628   1.584 -17.702  0.00  0.00    +0.101 C 
ATOM      9  N   UNL     1       3.905   1.634 -16.938  0.00  0.00    -0.317 N 
ATOM     10  C   UNL     1       2.346   0.213 -18.338  0.00  0.00    +0.154 A 
ATOM     11  N   UNL     1       1.066  -0.083 -18.627  0.00  0.00    -0.215 NA
ATOM     12  C   UNL     1       0.814  -1.283 -19.181  0.00  0.00    +0.130 A 
ATOM     13  N   UNL     1      -0.518  -1.609 -19.507  0.00  0.00    -0.326 N 
ATOM     14  C   UNL     1      -1.526  -0.635 -19.081  0.00  0.00    +0.034 C 
ATOM     15  C   UNL     1      -2.918  -1.174 -19.430  0.00  0.00    +0.060 C 
ATOM     16  O   UNL     1      -3.155  -2.394 -18.723  0.00  0.00    -0.393 OA
ATOM     17  C   UNL     1       1.842  -2.195 -19.480  0.00  0.00    +0.040 A 
ATOM     18  C   UNL     1       1.657  -3.455 -20.106  0.00  0.00    -0.049 A 
ATOM     19  C   UNL     1       2.738  -4.298 -20.355  0.00  0.00    -0.061 A 
ATOM     20  C   UNL     1       4.013  -3.894 -19.986  0.00  0.00    -0.060 A 
ATOM     21  C   UNL     1       4.197  -2.650 -19.378  0.00  0.00    -0.036 A 
ATOM     22  C   UNL     1       3.134  -1.791 -19.123  0.00  0.00    +0.076 A 
ATOM     23  N   UNL     1       3.391  -0.612 -18.549  0.00  0.00    -0.230 NA
ATOM     24  H   UNL     1       4.689   1.487 -17.575  0.00  0.00    +0.000 HD
ATOM     25  H   UNL     1       3.904   0.904 -16.226  0.00  0.00    +0.000 HD
ATOM     26  H   UNL     1       3.998   2.545 -16.491  0.00  0.00    +0.000 HD
ATOM     27  H   UNL     1      -0.755  -2.435 -19.987  0.00  0.00    +0.000 HD
ATOM     28  H   UNL     1      -2.486  -3.049 -18.976  0.00  0.00    +0.000 HD
ENDROOT
TORSDOF 0
ENDMDL
MODEL 2
REMARK VINA RESULT:    -5.001      3.703      5.991
REMARK INTER + INTRA:          -5.001
REMARK INTER:                  -5.001
REMARK INTRA:                   0.000
REMARK UNBOUND:                 0.000
REMARK  Name = /home/vital/Documents/PhD_2021/Malaria_codes/scripts/../data/pdbqt_ligands/ligand_241_temp.pdb
REMARK                            x       y       z     vdW  Elec       q    Type
REMARK                         _______ _______ _______ _____ _____    ______ ____
ROOT
ATOM      1  C   UNL     1       3.333   7.414 -18.448  0.00  0.00    -0.042 C 
ATOM      2  C   UNL     1       2.002   7.913 -18.981  0.00  0.00    +0.045 C 
ATOM      3  O   UNL     1       0.913   7.507 -18.158  0.00  0.00    -0.376 OA
ATOM      4  C   UNL     1       0.580   6.128 -18.291  0.00  0.00    +0.067 C 
ATOM      5  C   UNL     1      -0.697   5.910 -17.547  0.00  0.00    -0.042 C 
ATOM      6  C   UNL     1      -1.851   5.413 -18.031  0.00  0.00    +0.041 C 
ATOM      7 CL   UNL     1      -3.165   5.188 -16.897  0.00  0.00    -0.086 Cl
ATOM      8  C   UNL     1      -2.145   4.998 -19.465  0.00  0.00    +0.101 C 
ATOM      9  N   UNL     1      -3.427   5.573 -19.960  0.00  0.00    -0.317 N 
ATOM     10  C   UNL     1      -2.055   3.471 -19.624  0.00  0.00    +0.154 A 
ATOM     11  N   UNL     1      -0.827   2.925 -19.661  0.00  0.00    -0.215 NA
ATOM     12  C   UNL     1      -0.743   1.590 -19.804  0.00  0.00    +0.130 A 
ATOM     13  N   UNL     1       0.534   0.993 -19.829  0.00  0.00    -0.326 N 
ATOM     14  C   UNL     1       1.664   1.925 -19.825  0.00  0.00    +0.034 C 
ATOM     15  C   UNL     1       2.968   1.128 -19.943  0.00  0.00    +0.060 C 
ATOM     16  O   UNL     1       2.987   0.413 -21.181  0.00  0.00    -0.393 OA
ATOM     17  C   UNL     1      -1.888   0.776 -19.884  0.00  0.00    +0.040 A 
ATOM     18  C   UNL     1      -1.877  -0.639 -19.986  0.00  0.00    -0.049 A 
ATOM     19  C   UNL     1      -3.065  -1.361 -20.070  0.00  0.00    -0.061 A 
ATOM     20  C   UNL     1      -4.275  -0.683 -20.049  0.00  0.00    -0.060 A 
ATOM     21  C   UNL     1      -4.287   0.710 -19.939  0.00  0.00    -0.036 A 
ATOM     22  C   UNL     1      -3.115   1.451 -19.851  0.00  0.00    +0.076 A 
ATOM     23  N   UNL     1      -3.207   2.779 -19.736  0.00  0.00    -0.230 NA
ATOM     24  H   UNL     1      -4.200   5.216 -19.398  0.00  0.00    +0.000 HD
ATOM     25  H   UNL     1      -3.565   5.308 -20.935  0.00  0.00    +0.000 HD
ATOM     26  H   UNL     1      -3.394   6.589 -19.886  0.00  0.00    +0.000 HD
ATOM     27  H   UNL     1       0.657   0.016 -19.848  0.00  0.00    +0.000 HD
ATOM     28  H   UNL     1       2.235  -0.199 -21.213  0.00  0.00    +0.000 HD
ENDROOT
TORSDOF 0
ENDMDL
MODEL 3
REMARK VINA RESULT:    -4.902     11.073     13.029
REMARK INTER + INTRA:          -4.902
REMARK INTER:                  -4.902
REMARK INTRA:                   0.000
REMARK UNBOUND:                 0.000
REMARK  Name = /home/vital/Documents/PhD_2021/Malaria_codes/scripts/../data/pdbqt_ligands/ligand_241_temp.pdb
REMARK                            x       y       z     vdW  Elec       q    Type
REMARK                         _______ _______ _______ _____ _____    ______ ____
ROOT
ATOM      1  C   UNL     1      -0.530  -3.069 -34.233  0.00  0.00    -0.042 C 
ATOM      2  C   UNL     1       0.783  -2.356 -34.501  0.00  0.00    +0.045 C 
ATOM      3  O   UNL     1       1.889  -3.254 -34.489  0.00  0.00    -0.376 OA
ATOM      4  C   UNL     1       2.259  -3.687 -33.183  0.00  0.00    +0.067 C 
ATOM      5  C   UNL     1       3.546  -4.432 -33.315  0.00  0.00    -0.042 C 
ATOM      6  C   UNL     1       4.710  -4.173 -32.690  0.00  0.00    +0.041 C 
ATOM      7 CL   UNL     1       6.037  -5.278 -32.974  0.00  0.00    -0.086 Cl
ATOM      8  C   UNL     1       5.005  -3.025 -31.734  0.00  0.00    +0.101 C 
ATOM      9  N   UNL     1       6.267  -2.318 -32.087  0.00  0.00    -0.317 N 
ATOM     10  C   UNL     1       4.956  -3.501 -30.273  0.00  0.00    +0.154 A 
ATOM     11  N   UNL     1       3.743  -3.711 -29.731  0.00  0.00    -0.215 NA
ATOM     12  C   UNL     1       3.694  -4.124 -28.452  0.00  0.00    +0.130 A 
ATOM     13  N   UNL     1       2.434  -4.365 -27.868  0.00  0.00    -0.326 N 
ATOM     14  C   UNL     1       1.280  -4.010 -28.696  0.00  0.00    +0.034 C 
ATOM     15  C   UNL     1      -0.003  -4.249 -27.891  0.00  0.00    +0.060 C 
ATOM     16  O   UNL     1      -0.011  -3.408 -26.735  0.00  0.00    -0.393 OA
ATOM     17  C   UNL     1       4.861  -4.361 -27.702  0.00  0.00    +0.040 A 
ATOM     18  C   UNL     1       4.888  -4.842 -26.367  0.00  0.00    -0.049 A 
ATOM     19  C   UNL     1       6.095  -5.038 -25.701  0.00  0.00    -0.061 A 
ATOM     20  C   UNL     1       7.286  -4.761 -26.355  0.00  0.00    -0.060 A 
ATOM     21  C   UNL     1       7.261  -4.296 -27.673  0.00  0.00    -0.036 A 
ATOM     22  C   UNL     1       6.069  -4.096 -28.359  0.00  0.00    +0.076 A 
ATOM     23  N   UNL     1       6.125  -3.661 -29.621  0.00  0.00    -0.230 NA
ATOM     24  H   UNL     1       7.053  -2.963 -32.006  0.00  0.00    +0.000 HD
ATOM     25  H   UNL     1       6.406  -1.532 -31.452  0.00  0.00    +0.000 HD
ATOM     26  H   UNL     1       6.207  -1.974 -33.045  0.00  0.00    +0.000 HD
ATOM     27  H   UNL     1       2.338  -4.746 -26.966  0.00  0.00    +0.000 HD
ATOM     28  H   UNL     1       0.758  -3.613 -26.180  0.00  0.00    +0.000 HD
ENDROOT
TORSDOF 0
ENDMDL
MODEL 4
REMARK VINA RESULT:    -4.847      3.823      6.147
REMARK INTER + INTRA:          -4.847
REMARK INTER:                  -4.847
REMARK INTRA:                   0.000
REMARK UNBOUND:                 0.000
REMARK  Name = /home/vital/Documents/PhD_2021/Malaria_codes/scripts/../data/pdbqt_ligands/ligand_241_temp.pdb
REMARK                            x       y       z     vdW  Elec       q    Type
REMARK                         _______ _______ _______ _____ _____    ______ ____
ROOT
ATOM      1  C   UNL     1      -1.306   3.215 -22.963  0.00  0.00    -0.042 C 
ATOM      2  C   UNL     1      -2.139   3.972 -21.945  0.00  0.00    +0.045 C 
ATOM      3  O   UNL     1      -1.395   5.010 -21.312  0.00  0.00    -0.376 OA
ATOM      4  C   UNL     1      -0.452   4.533 -20.356  0.00  0.00    +0.067 C 
ATOM      5  C   UNL     1       0.082   5.726 -19.633  0.00  0.00    -0.042 C 
ATOM      6  C   UNL     1       0.057   5.958 -18.307  0.00  0.00    +0.041 C 
ATOM      7 CL   UNL     1       0.843   7.412 -17.733  0.00  0.00    -0.086 Cl
ATOM      8  C   UNL     1      -0.565   5.080 -17.231  0.00  0.00    +0.101 C 
ATOM      9  N   UNL     1      -1.429   5.863 -16.304  0.00  0.00    -0.317 N 
ATOM     10  C   UNL     1       0.509   4.246 -16.513  0.00  0.00    +0.154 A 
ATOM     11  N   UNL     1       1.007   3.182 -17.168  0.00  0.00    -0.215 NA
ATOM     12  C   UNL     1       1.944   2.448 -16.543  0.00  0.00    +0.130 A 
ATOM     13  N   UNL     1       2.492   1.338 -17.216  0.00  0.00    -0.326 N 
ATOM     14  C   UNL     1       1.876   1.019 -18.506  0.00  0.00    +0.034 C 
ATOM     15  C   UNL     1       2.521  -0.255 -19.064  0.00  0.00    +0.060 C 
ATOM     16  O   UNL     1       2.279  -1.349 -18.175  0.00  0.00    -0.393 OA
ATOM     17  C   UNL     1       2.420   2.783 -15.262  0.00  0.00    +0.040 A 
ATOM     18  C   UNL     1       3.439   2.086 -14.562  0.00  0.00    -0.049 A 
ATOM     19  C   UNL     1       3.838   2.487 -13.290  0.00  0.00    -0.061 A 
ATOM     20  C   UNL     1       3.231   3.587 -12.702  0.00  0.00    -0.060 A 
ATOM     21  C   UNL     1       2.234   4.280 -13.394  0.00  0.00    -0.036 A 
ATOM     22  C   UNL     1       1.821   3.900 -14.666  0.00  0.00    +0.076 A 
ATOM     23  N   UNL     1       0.871   4.620 -15.269  0.00  0.00    -0.230 NA
ATOM     24  H   UNL     1      -0.861   6.554 -15.812  0.00  0.00    +0.000 HD
ATOM     25  H   UNL     1      -1.860   5.233 -15.626  0.00  0.00    +0.000 HD
ATOM     26  H   UNL     1      -2.157   6.338 -16.837  0.00  0.00    +0.000 HD
ATOM     27  H   UNL     1       3.238   0.813 -16.845  0.00  0.00    +0.000 HD
ATOM     28  H   UNL     1       2.663  -1.150 -17.307  0.00  0.00    +0.000 HD
ENDROOT
TORSDOF 0
ENDMDL
MODEL 5
REMARK VINA RESULT:    -4.762      5.688      8.685
REMARK INTER + INTRA:          -4.762
REMARK INTER:                  -4.762
REMARK INTRA:                   0.000
REMARK UNBOUND:                 0.000
REMARK  Name = /home/vital/Documents/PhD_2021/Malaria_codes/scripts/../data/pdbqt_ligands/ligand_241_temp.pdb
REMARK                            x       y       z     vdW  Elec       q    Type
REMARK                         _______ _______ _______ _____ _____    ______ ____
ROOT
ATOM      1  C   UNL     1      -3.174   2.277 -23.178  0.00  0.00    -0.042 C 
ATOM      2  C   UNL     1      -2.850   1.780 -21.781  0.00  0.00    +0.045 C 
ATOM      3  O   UNL     1      -3.237   2.717 -20.779  0.00  0.00    -0.376 OA
ATOM      4  C   UNL     1      -2.379   3.851 -20.698  0.00  0.00    +0.067 C 
ATOM      5  C   UNL     1      -2.776   4.616 -19.478  0.00  0.00    -0.042 C 
ATOM      6  C   UNL     1      -1.998   4.951 -18.432  0.00  0.00    +0.041 C 
ATOM      7 CL   UNL     1      -2.720   5.934 -17.177  0.00  0.00    -0.086 Cl
ATOM      8  C   UNL     1      -0.534   4.589 -18.221  0.00  0.00    +0.101 C 
ATOM      9  N   UNL     1      -0.288   4.040 -16.859  0.00  0.00    -0.317 N 
ATOM     10  C   UNL     1       0.382   5.769 -18.582  0.00  0.00    +0.154 A 
ATOM     11  N   UNL     1       0.578   6.023 -19.888  0.00  0.00    -0.215 NA
ATOM     12  C   UNL     1       1.382   7.053 -20.209  0.00  0.00    +0.130 A 
ATOM     13  N   UNL     1       1.590   7.347 -21.572  0.00  0.00    -0.326 N 
ATOM     14  C   UNL     1       0.996   6.399 -22.517  0.00  0.00    +0.034 C 
ATOM     15  C   UNL     1       1.383   6.809 -23.943  0.00  0.00    +0.060 C 
ATOM     16  O   UNL     1       2.804   6.753 -24.092  0.00  0.00    -0.393 OA
ATOM     17  C   UNL     1       1.980   7.864 -19.227  0.00  0.00    +0.040 A 
ATOM     18  C   UNL     1       2.798   8.993 -19.491  0.00  0.00    -0.049 A 
ATOM     19  C   UNL     1       3.356   9.732 -18.450  0.00  0.00    -0.061 A 
ATOM     20  C   UNL     1       3.104   9.357 -17.138  0.00  0.00    -0.060 A 
ATOM     21  C   UNL     1       2.291   8.251 -16.878  0.00  0.00    -0.036 A 
ATOM     22  C   UNL     1       1.721   7.500 -17.900  0.00  0.00    +0.076 A 
ATOM     23  N   UNL     1       0.945   6.463 -17.572  0.00  0.00    -0.230 NA
ATOM     24  H   UNL     1      -0.508   4.751 -16.160  0.00  0.00    +0.000 HD
ATOM     25  H   UNL     1       0.692   3.770 -16.772  0.00  0.00    +0.000 HD
ATOM     26  H   UNL     1      -0.880   3.223 -16.709  0.00  0.00    +0.000 HD
ATOM     27  H   UNL     1       2.099   8.136 -21.867  0.00  0.00    +0.000 HD
ATOM     28  H   UNL     1       3.220   7.361 -23.461  0.00  0.00    +0.000 HD
ENDROOT
TORSDOF 0
ENDMDL
MODEL 6
REMARK VINA RESULT:    -4.504     14.729     15.902
REMARK INTER + INTRA:          -4.504
REMARK INTER:                  -4.504
REMARK INTRA:                   0.000
REMARK UNBOUND:                 0.000
REMARK  Name = /home/vital/Documents/PhD_2021/Malaria_codes/scripts/../data/pdbqt_ligands/ligand_241_temp.pdb
REMARK                            x       y       z     vdW  Elec       q    Type
REMARK                         _______ _______ _______ _____ _____    ______ ____
ROOT
ATOM      1  C   UNL     1      -4.548  -6.267 -34.934  0.00  0.00    -0.042 C 
ATOM      2  C   UNL     1      -4.522  -4.961 -34.161  0.00  0.00    +0.045 C 
ATOM      3  O   UNL     1      -3.684  -3.990 -34.783  0.00  0.00    -0.376 OA
ATOM      4  C   UNL     1      -2.293  -4.248 -34.618  0.00  0.00    +0.067 C 
ATOM      5  C   UNL     1      -1.560  -3.049 -35.124  0.00  0.00    -0.042 C 
ATOM      6  C   UNL     1      -0.683  -2.281 -34.451  0.00  0.00    +0.041 C 
ATOM      7 CL   UNL     1       0.091  -0.984 -35.335  0.00  0.00    -0.086 Cl
ATOM      8  C   UNL     1      -0.263  -2.424 -32.995  0.00  0.00    +0.101 C 
ATOM      9  N   UNL     1      -0.324  -1.126 -32.267  0.00  0.00    -0.317 N 
ATOM     10  C   UNL     1       1.100  -3.126 -32.883  0.00  0.00    +0.154 A 
ATOM     11  N   UNL     1       1.128  -4.457 -33.077  0.00  0.00    -0.215 NA
ATOM     12  C   UNL     1       2.317  -5.077 -32.977  0.00  0.00    +0.130 A 
ATOM     13  N   UNL     1       2.373  -6.469 -33.193  0.00  0.00    -0.326 N 
ATOM     14  C   UNL     1       1.079  -7.128 -33.382  0.00  0.00    +0.034 C 
ATOM     15  C   UNL     1       1.305  -8.639 -33.515  0.00  0.00    +0.060 C 
ATOM     16  O   UNL     1       1.890  -9.148 -32.314  0.00  0.00    -0.393 OA
ATOM     17  C   UNL     1       3.504  -4.371 -32.708  0.00  0.00    +0.040 A 
ATOM     18  C   UNL     1       4.798  -4.949 -32.636  0.00  0.00    -0.049 A 
ATOM     19  C   UNL     1       5.917  -4.168 -32.354  0.00  0.00    -0.061 A 
ATOM     20  C   UNL     1       5.760  -2.806 -32.144  0.00  0.00    -0.060 A 
ATOM     21  C   UNL     1       4.488  -2.235 -32.224  0.00  0.00    -0.036 A 
ATOM     22  C   UNL     1       3.357  -2.993 -32.507  0.00  0.00    +0.076 A 
ATOM     23  N   UNL     1       2.176  -2.373 -32.580  0.00  0.00    -0.230 NA
ATOM     24  H   UNL     1       0.333  -0.469 -32.688  0.00  0.00    +0.000 HD
ATOM     25  H   UNL     1      -0.078  -1.273 -31.288  0.00  0.00    +0.000 HD
ATOM     26  H   UNL     1      -1.269  -0.747 -32.327  0.00  0.00    +0.000 HD
ATOM     27  H   UNL     1       3.224  -6.964 -33.214  0.00  0.00    +0.000 HD
ATOM     28  H   UNL     1       2.742  -8.710 -32.159  0.00  0.00    +0.000 HD
ENDROOT
TORSDOF 0
ENDMDL
MODEL 7
REMARK VINA RESULT:    -4.449     14.038     15.335
REMARK INTER + INTRA:          -4.449
REMARK INTER:                  -4.449
REMARK INTRA:                   0.000
REMARK UNBOUND:                 0.000
REMARK  Name = /home/vital/Documents/PhD_2021/Malaria_codes/scripts/../data/pdbqt_ligands/ligand_241_temp.pdb
REMARK                            x       y       z     vdW  Elec       q    Type
REMARK                         _______ _______ _______ _____ _____    ______ ____
ROOT
ATOM      1  C   UNL     1       1.843   4.076 -32.173  0.00  0.00    -0.042 C 
ATOM      2  C   UNL     1       1.003   3.635 -33.358  0.00  0.00    +0.045 C 
ATOM      3  O   UNL     1       0.058   2.631 -32.996  0.00  0.00    -0.376 OA
ATOM      4  C   UNL     1       0.641   1.348 -32.785  0.00  0.00    +0.067 C 
ATOM      5  C   UNL     1      -0.481   0.374 -32.635  0.00  0.00    -0.042 C 
ATOM      6  C   UNL     1      -0.708  -0.733 -33.366  0.00  0.00    +0.041 C 
ATOM      7 CL   UNL     1      -2.063  -1.738 -32.901  0.00  0.00    -0.086 Cl
ATOM      8  C   UNL     1       0.101  -1.232 -34.555  0.00  0.00    +0.101 C 
ATOM      9  N   UNL     1      -0.769  -1.583 -35.712  0.00  0.00    -0.317 N 
ATOM     10  C   UNL     1       1.051  -2.365 -34.136  0.00  0.00    +0.154 A 
ATOM     11  N   UNL     1       2.161  -2.022 -33.457  0.00  0.00    -0.215 NA
ATOM     12  C   UNL     1       2.998  -3.009 -33.091  0.00  0.00    +0.130 A 
ATOM     13  N   UNL     1       4.159  -2.675 -32.366  0.00  0.00    -0.326 N 
ATOM     14  C   UNL     1       4.401  -1.241 -32.193  0.00  0.00    +0.034 C 
ATOM     15  C   UNL     1       5.737  -1.045 -31.465  0.00  0.00    +0.060 C 
ATOM     16  O   UNL     1       6.801  -1.583 -32.255  0.00  0.00    -0.393 OA
ATOM     17  C   UNL     1       2.724  -4.360 -33.374  0.00  0.00    +0.040 A 
ATOM     18  C   UNL     1       3.534  -5.456 -32.978  0.00  0.00    -0.049 A 
ATOM     19  C   UNL     1       3.185  -6.762 -33.314  0.00  0.00    -0.061 A 
ATOM     20  C   UNL     1       2.028  -6.991 -34.042  0.00  0.00    -0.060 A 
ATOM     21  C   UNL     1       1.225  -5.913 -34.424  0.00  0.00    -0.036 A 
ATOM     22  C   UNL     1       1.550  -4.602 -34.099  0.00  0.00    +0.076 A 
ATOM     23  N   UNL     1       0.726  -3.625 -34.489  0.00  0.00    -0.230 NA
ATOM     24  H   UNL     1      -1.391  -2.349 -35.450  0.00  0.00    +0.000 HD
ATOM     25  H   UNL     1      -0.188  -1.870 -36.500  0.00  0.00    +0.000 HD
ATOM     26  H   UNL     1      -1.325  -0.770 -35.978  0.00  0.00    +0.000 HD
ATOM     27  H   UNL     1       4.765  -3.359 -32.000  0.00  0.00    +0.000 HD
ATOM     28  H   UNL     1       6.650  -2.531 -32.398  0.00  0.00    +0.000 HD
ENDROOT
TORSDOF 0
ENDMDL
MODEL 8
REMARK VINA RESULT:    -4.120      7.697     10.948
REMARK INTER + INTRA:          -4.120
REMARK INTER:                  -4.120
REMARK INTRA:                   0.000
REMARK UNBOUND:                 0.000
REMARK  Name = /home/vital/Documents/PhD_2021/Malaria_codes/scripts/../data/pdbqt_ligands/ligand_241_temp.pdb
REMARK                            x       y       z     vdW  Elec       q    Type
REMARK                         _______ _______ _______ _____ _____    ______ ____
ROOT
ATOM      1  C   UNL     1      -8.391  -2.404 -30.137  0.00  0.00    -0.042 C 
ATOM      2  C   UNL     1      -6.971  -2.941 -30.158  0.00  0.00    +0.045 C 
ATOM      3  O   UNL     1      -6.786  -3.995 -29.217  0.00  0.00    -0.376 OA
ATOM      4  C   UNL     1      -6.719  -3.550 -27.866  0.00  0.00    +0.067 C 
ATOM      5  C   UNL     1      -6.308  -4.721 -27.036  0.00  0.00    -0.042 C 
ATOM      6  C   UNL     1      -5.241  -4.812 -26.220  0.00  0.00    +0.041 C 
ATOM      7 CL   UNL     1      -5.059  -6.290 -25.300  0.00  0.00    -0.086 Cl
ATOM      8  C   UNL     1      -4.170  -3.756 -25.984  0.00  0.00    +0.101 C 
ATOM      9  N   UNL     1      -2.797  -4.324 -26.087  0.00  0.00    -0.317 N 
ATOM     10  C   UNL     1      -4.425  -3.000 -24.670  0.00  0.00    +0.154 A 
ATOM     11  N   UNL     1      -5.407  -2.081 -24.666  0.00  0.00    -0.215 NA
ATOM     12  C   UNL     1      -5.632  -1.414 -23.520  0.00  0.00    +0.130 A 
ATOM     13  N   UNL     1      -6.667  -0.458 -23.487  0.00  0.00    -0.326 N 
ATOM     14  C   UNL     1      -7.320  -0.195 -24.772  0.00  0.00    +0.034 C 
ATOM     15  C   UNL     1      -8.353   0.922 -24.585  0.00  0.00    +0.060 C 
ATOM     16  O   UNL     1      -7.698   2.123 -24.167  0.00  0.00    -0.393 OA
ATOM     17  C   UNL     1      -4.895  -1.676 -22.350  0.00  0.00    +0.040 A 
ATOM     18  C   UNL     1      -5.108  -1.047 -21.095  0.00  0.00    -0.049 A 
ATOM     19  C   UNL     1      -4.319  -1.366 -19.992  0.00  0.00    -0.061 A 
ATOM     20  C   UNL     1      -3.314  -2.313 -20.125  0.00  0.00    -0.060 A 
ATOM     21  C   UNL     1      -3.111  -2.939 -21.358  0.00  0.00    -0.036 A 
ATOM     22  C   UNL     1      -3.887  -2.640 -22.472  0.00  0.00    +0.076 A 
ATOM     23  N   UNL     1      -3.640  -3.289 -23.613  0.00  0.00    -0.230 NA
ATOM     24  H   UNL     1      -2.665  -5.029 -25.362  0.00  0.00    +0.000 HD
ATOM     25  H   UNL     1      -2.111  -3.578 -25.966  0.00  0.00    +0.000 HD
ATOM     26  H   UNL     1      -2.675  -4.753 -27.004  0.00  0.00    +0.000 HD
ATOM     27  H   UNL     1      -6.932   0.002 -22.658  0.00  0.00    +0.000 HD
ATOM     28  H   UNL     1      -7.241   1.966 -23.326  0.00  0.00    +0.000 HD
ENDROOT
TORSDOF 0
ENDMDL
MODEL 9
REMARK VINA RESULT:    -4.010     13.068     14.929
REMARK INTER + INTRA:          -4.010
REMARK INTER:                  -4.010
REMARK INTRA:                   0.000
REMARK UNBOUND:                 0.000
REMARK  Name = /home/vital/Documents/PhD_2021/Malaria_codes/scripts/../data/pdbqt_ligands/ligand_241_temp.pdb
REMARK                            x       y       z     vdW  Elec       q    Type
REMARK                         _______ _______ _______ _____ _____    ______ ____
ROOT
ATOM      1  C   UNL     1       2.501  -0.034 -29.805  0.00  0.00    -0.042 C 
ATOM      2  C   UNL     1       2.966  -0.348 -31.216  0.00  0.00    +0.045 C 
ATOM      3  O   UNL     1       1.877  -0.675 -32.075  0.00  0.00    -0.376 OA
ATOM      4  C   UNL     1       1.336  -1.972 -31.842  0.00  0.00    +0.067 C 
ATOM      5  C   UNL     1       0.369  -2.251 -32.945  0.00  0.00    -0.042 C 
ATOM      6  C   UNL     1       0.384  -3.286 -33.806  0.00  0.00    +0.041 C 
ATOM      7 CL   UNL     1      -0.938  -3.400 -34.947  0.00  0.00    -0.086 Cl
ATOM      8  C   UNL     1       1.421  -4.397 -33.890  0.00  0.00    +0.101 C 
ATOM      9  N   UNL     1       1.893  -4.613 -35.286  0.00  0.00    -0.317 N 
ATOM     10  C   UNL     1       0.910  -5.678 -33.210  0.00  0.00    +0.154 A 
ATOM     11  N   UNL     1       0.911  -5.706 -31.865  0.00  0.00    -0.215 NA
ATOM     12  C   UNL     1       0.469  -6.825 -31.264  0.00  0.00    +0.130 A 
ATOM     13  N   UNL     1       0.446  -6.872 -29.856  0.00  0.00    -0.326 N 
ATOM     14  C   UNL     1       1.040  -5.716 -29.179  0.00  0.00    +0.034 C 
ATOM     15  C   UNL     1       1.015  -5.959 -27.666  0.00  0.00    +0.060 C 
ATOM     16  O   UNL     1       1.800  -7.111 -27.348  0.00  0.00    -0.393 OA
ATOM     17  C   UNL     1      -0.009  -7.925 -32.001  0.00  0.00    +0.040 A 
ATOM     18  C   UNL     1      -0.535  -9.117 -31.437  0.00  0.00    -0.049 A 
ATOM     19  C   UNL     1      -0.977 -10.159 -32.248  0.00  0.00    -0.061 A 
ATOM     20  C   UNL     1      -0.903 -10.025 -33.627  0.00  0.00    -0.060 A 
ATOM     21  C   UNL     1      -0.394  -8.849 -34.183  0.00  0.00    -0.036 A 
ATOM     22  C   UNL     1       0.050  -7.794 -33.394  0.00  0.00    +0.076 A 
ATOM     23  N   UNL     1       0.512  -6.696 -33.998  0.00  0.00    -0.230 NA
ATOM     24  H   UNL     1       1.110  -4.912 -35.868  0.00  0.00    +0.000 HD
ATOM     25  H   UNL     1       2.616  -5.333 -35.293  0.00  0.00    +0.000 HD
ATOM     26  H   UNL     1       2.277  -3.743 -35.653  0.00  0.00    +0.000 HD
ATOM     27  H   UNL     1       0.057  -7.629 -29.361  0.00  0.00    +0.000 HD
ATOM     28  H   UNL     1       1.435  -7.887 -27.802  0.00  0.00    +0.000 HD
ENDROOT
TORSDOF 0
ENDMDL
