MODEL 1
REMARK VINA RESULT:    -4.372      0.000      0.000
REMARK INTER + INTRA:          -4.372
REMARK INTER:                  -4.372
REMARK INTRA:                   0.000
REMARK UNBOUND:                 0.000
REMARK  Name = /home/vital/Documents/PhD_2021/Malaria_codes/scripts/../data/pdbqt_ligands/ligand_123_temp.pdb
REMARK                            x       y       z     vdW  Elec       q    Type
REMARK                         _______ _______ _______ _____ _____    ______ ____
ROOT
ATOM      1 CL   UNL     1       2.641   8.760 -20.130  0.00  0.00    -0.083 Cl
ATOM      2  C   UNL     1       2.834   7.891 -18.656  0.00  0.00    +0.044 A 
ATOM      3  C   UNL     1       3.953   7.076 -18.480  0.00  0.00    -0.022 A 
ATOM      4  C   UNL     1       4.105   6.387 -17.284  0.00  0.00    +0.032 A 
ATOM      5  C   UNL     1       3.176   6.639 -16.263  0.00  0.00    -0.020 A 
ATOM      6  C   UNL     1       1.933   7.187 -16.518  0.00  0.00    +0.031 A 
ATOM      7  C   UNL     1       1.816   7.927 -17.694  0.00  0.00    -0.022 A 
ATOM      8  N   UNL     1       0.835   6.928 -15.710  0.00  0.00    -0.337 N 
ATOM      9  C   UNL     1       0.416   5.605 -15.179  0.00  0.00    +0.046 C 
ATOM     10  C   UNL     1      -0.819   5.091 -15.908  0.00  0.00    -0.064 C 
ATOM     11  C   UNL     1      -1.109   4.939 -17.215  0.00  0.00    -0.043 C 
ATOM     12  C   UNL     1      -0.270   5.238 -18.420  0.00  0.00    +0.151 C 
ATOM     13 CL   UNL     1      -1.033   6.628 -19.256  0.00  0.00    -0.086 Cl
ATOM     14  O   UNL     1      -0.283   4.167 -19.357  0.00  0.00    -0.356 OA
ATOM     15  C   UNL     1       0.452   2.982 -19.055  0.00  0.00    +0.065 C 
ATOM     16  C   UNL     1       1.787   3.143 -18.303  0.00  0.00    +0.034 C 
ATOM     17  N   UNL     1       1.533   3.201 -16.877  0.00  0.00    -0.330 N 
ATOM     18  C   UNL     1       2.258   3.848 -15.909  0.00  0.00    +0.094 C 
ATOM     19  N   UNL     1       3.505   4.069 -15.771  0.00  0.00    -0.255 N 
ATOM     20  C   UNL     1       4.534   4.035 -16.779  0.00  0.00    +0.104 C 
ATOM     21  N   UNL     1       5.077   5.377 -17.118  0.00  0.00    -0.325 N 
ATOM     22  C   UNL     1       1.412   4.482 -14.780  0.00  0.00    +0.025 C 
ATOM     23  H   UNL     1       0.277   7.701 -15.463  0.00  0.00    +0.000 HD
ATOM     24  H   UNL     1       0.739   2.713 -16.563  0.00  0.00    +0.000 HD
ATOM     25  H   UNL     1       3.804   4.292 -14.860  0.00  0.00    +0.000 HD
ATOM     26  H   UNL     1       6.041   5.548 -17.220  0.00  0.00    +0.000 HD
ENDROOT
TORSDOF 0
ENDMDL
MODEL 2
REMARK VINA RESULT:    -4.349     17.866     19.684
REMARK INTER + INTRA:          -4.349
REMARK INTER:                  -4.349
REMARK INTRA:                   0.000
REMARK UNBOUND:                 0.000
REMARK  Name = /home/vital/Documents/PhD_2021/Malaria_codes/scripts/../data/pdbqt_ligands/ligand_123_temp.pdb
REMARK                            x       y       z     vdW  Elec       q    Type
REMARK                         _______ _______ _______ _____ _____    ______ ____
ROOT
ATOM      1 CL   UNL     1       3.654  -2.562 -32.799  0.00  0.00    -0.083 Cl
ATOM      2  C   UNL     1       2.782  -3.860 -33.522  0.00  0.00    +0.044 A 
ATOM      3  C   UNL     1       1.783  -3.581 -34.455  0.00  0.00    -0.022 A 
ATOM      4  C   UNL     1       1.093  -4.635 -35.039  0.00  0.00    +0.032 A 
ATOM      5  C   UNL     1       1.517  -5.938 -34.743  0.00  0.00    -0.020 A 
ATOM      6  C   UNL     1       2.275  -6.229 -33.623  0.00  0.00    +0.031 A 
ATOM      7  C   UNL     1       3.010  -5.172 -33.087  0.00  0.00    -0.022 A 
ATOM      8  N   UNL     1       2.226  -7.468 -33.003  0.00  0.00    -0.337 N 
ATOM      9  C   UNL     1       1.005  -8.253 -32.683  0.00  0.00    +0.046 C 
ATOM     10  C   UNL     1       0.710  -8.219 -31.189  0.00  0.00    -0.064 C 
ATOM     11  C   UNL     1       0.598  -7.208 -30.304  0.00  0.00    -0.043 C 
ATOM     12  C   UNL     1       0.727  -5.732 -30.521  0.00  0.00    +0.151 C 
ATOM     13 CL   UNL     1       2.221  -5.210 -29.678  0.00  0.00    -0.086 Cl
ATOM     14  O   UNL     1      -0.335  -5.008 -29.911  0.00  0.00    -0.356 OA
ATOM     15  C   UNL     1      -1.629  -5.051 -30.511  0.00  0.00    +0.065 C 
ATOM     16  C   UNL     1      -1.698  -5.093 -32.050  0.00  0.00    +0.034 C 
ATOM     17  N   UNL     1      -1.580  -6.465 -32.501  0.00  0.00    -0.330 N 
ATOM     18  C   UNL     1      -1.061  -6.931 -33.683  0.00  0.00    +0.094 C 
ATOM     19  N   UNL     1      -1.063  -6.463 -34.868  0.00  0.00    -0.255 N 
ATOM     20  C   UNL     1      -1.292  -5.105 -35.290  0.00  0.00    +0.104 C 
ATOM     21  N   UNL     1      -0.072  -4.432 -35.810  0.00  0.00    -0.325 N 
ATOM     22  C   UNL     1      -0.272  -8.257 -33.566  0.00  0.00    +0.025 C 
ATOM     23  H   UNL     1       3.088  -7.869 -32.748  0.00  0.00    +0.000 HD
ATOM     24  H   UNL     1      -1.915  -7.151 -31.880  0.00  0.00    +0.000 HD
ATOM     25  H   UNL     1      -0.886  -7.113 -35.586  0.00  0.00    +0.000 HD
ATOM     26  H   UNL     1      -0.078  -3.887 -36.629  0.00  0.00    +0.000 HD
ENDROOT
TORSDOF 0
ENDMDL
MODEL 3
REMARK VINA RESULT:    -4.280      8.090     10.681
REMARK INTER + INTRA:          -4.280
REMARK INTER:                  -4.280
REMARK INTRA:                   0.000
REMARK UNBOUND:                 0.000
REMARK  Name = /home/vital/Documents/PhD_2021/Malaria_codes/scripts/../data/pdbqt_ligands/ligand_123_temp.pdb
REMARK                            x       y       z     vdW  Elec       q    Type
REMARK                         _______ _______ _______ _____ _____    ______ ____
ROOT
ATOM      1 CL   UNL     1      -1.396  -5.887 -23.038  0.00  0.00    -0.083 Cl
ATOM      2  C   UNL     1      -2.436  -4.630 -22.487  0.00  0.00    +0.044 A 
ATOM      3  C   UNL     1      -3.231  -3.943 -23.406  0.00  0.00    -0.022 A 
ATOM      4  C   UNL     1      -4.073  -2.938 -22.951  0.00  0.00    +0.032 A 
ATOM      5  C   UNL     1      -4.165  -2.740 -21.565  0.00  0.00    -0.020 A 
ATOM      6  C   UNL     1      -3.189  -3.185 -20.692  0.00  0.00    +0.031 A 
ATOM      7  C   UNL     1      -2.393  -4.237 -21.143  0.00  0.00    -0.022 A 
ATOM      8  N   UNL     1      -2.942  -2.553 -19.482  0.00  0.00    -0.337 N 
ATOM      9  C   UNL     1      -2.830  -1.090 -19.251  0.00  0.00    +0.046 C 
ATOM     10  C   UNL     1      -1.380  -0.684 -19.015  0.00  0.00    -0.064 C 
ATOM     11  C   UNL     1      -0.245  -0.917 -19.703  0.00  0.00    -0.043 C 
ATOM     12  C   UNL     1      -0.039  -1.680 -20.976  0.00  0.00    +0.151 C 
ATOM     13 CL   UNL     1       0.884  -3.158 -20.557  0.00  0.00    -0.086 Cl
ATOM     14  O   UNL     1       0.773  -0.964 -21.900  0.00  0.00    -0.356 OA
ATOM     15  C   UNL     1       0.213   0.157 -22.582  0.00  0.00    +0.065 C 
ATOM     16  C   UNL     1      -1.273   0.079 -22.981  0.00  0.00    +0.034 C 
ATOM     17  N   UNL     1      -2.095   0.504 -21.865  0.00  0.00    -0.330 N 
ATOM     18  C   UNL     1      -3.371   0.111 -21.549  0.00  0.00    +0.094 C 
ATOM     19  N   UNL     1      -4.376  -0.206 -22.265  0.00  0.00    -0.255 N 
ATOM     20  C   UNL     1      -4.394  -0.617 -23.645  0.00  0.00    +0.104 C 
ATOM     21  N   UNL     1      -4.730  -2.053 -23.833  0.00  0.00    -0.325 N 
ATOM     22  C   UNL     1      -3.650  -0.028 -20.033  0.00  0.00    +0.025 C 
ATOM     23  H   UNL     1      -2.830  -3.135 -18.695  0.00  0.00    +0.000 HD
ATOM     24  H   UNL     1      -1.685   1.159 -21.256  0.00  0.00    +0.000 HD
ATOM     25  H   UNL     1      -5.252  -0.166 -21.817  0.00  0.00    +0.000 HD
ATOM     26  H   UNL     1      -5.362  -2.363 -24.521  0.00  0.00    +0.000 HD
ENDROOT
TORSDOF 0
ENDMDL
MODEL 4
REMARK VINA RESULT:    -4.219     16.875     19.415
REMARK INTER + INTRA:          -4.219
REMARK INTER:                  -4.219
REMARK INTRA:                   0.000
REMARK UNBOUND:                 0.000
REMARK  Name = /home/vital/Documents/PhD_2021/Malaria_codes/scripts/../data/pdbqt_ligands/ligand_123_temp.pdb
REMARK                            x       y       z     vdW  Elec       q    Type
REMARK                         _______ _______ _______ _____ _____    ______ ____
ROOT
ATOM      1 CL   UNL     1       0.155  -1.153 -34.816  0.00  0.00    -0.083 Cl
ATOM      2  C   UNL     1      -0.011  -2.852 -34.587  0.00  0.00    +0.044 A 
ATOM      3  C   UNL     1      -1.105  -3.346 -33.876  0.00  0.00    -0.022 A 
ATOM      4  C   UNL     1      -1.235  -4.718 -33.705  0.00  0.00    +0.032 A 
ATOM      5  C   UNL     1      -0.312  -5.548 -34.358  0.00  0.00    -0.020 A 
ATOM      6  C   UNL     1       0.915  -5.084 -34.795  0.00  0.00    +0.031 A 
ATOM      7  C   UNL     1       1.008  -3.710 -35.020  0.00  0.00    -0.022 A 
ATOM      8  N   UNL     1       2.020  -5.914 -34.900  0.00  0.00    -0.337 N 
ATOM      9  C   UNL     1       2.479  -6.913 -33.901  0.00  0.00    +0.046 C 
ATOM     10  C   UNL     1       3.726  -6.427 -33.174  0.00  0.00    -0.064 C 
ATOM     11  C   UNL     1       4.018  -5.278 -32.533  0.00  0.00    -0.043 C 
ATOM     12  C   UNL     1       3.169  -4.063 -32.316  0.00  0.00    +0.151 C 
ATOM     13 CL   UNL     1       3.890  -2.741 -33.289  0.00  0.00    -0.086 Cl
ATOM     14  O   UNL     1       3.210  -3.618 -30.966  0.00  0.00    -0.356 OA
ATOM     15  C   UNL     1       2.511  -4.367 -29.973  0.00  0.00    +0.065 C 
ATOM     16  C   UNL     1       1.173  -5.014 -30.381  0.00  0.00    +0.034 C 
ATOM     17  N   UNL     1       1.428  -6.301 -30.996  0.00  0.00    -0.330 N 
ATOM     18  C   UNL     1       0.686  -6.950 -31.951  0.00  0.00    +0.094 C 
ATOM     19  N   UNL     1      -0.566  -7.007 -32.176  0.00  0.00    -0.255 N 
ATOM     20  C   UNL     1      -1.596  -6.105 -31.725  0.00  0.00    +0.104 C 
ATOM     21  N   UNL     1      -2.177  -5.277 -32.814  0.00  0.00    -0.325 N 
ATOM     22  C   UNL     1       1.517  -7.732 -32.997  0.00  0.00    +0.025 C 
ATOM     23  H   UNL     1       2.557  -5.833 -35.722  0.00  0.00    +0.000 HD
ATOM     24  H   UNL     1       2.237  -6.770 -30.690  0.00  0.00    +0.000 HD
ATOM     25  H   UNL     1      -0.870  -7.763 -32.729  0.00  0.00    +0.000 HD
ATOM     26  H   UNL     1      -3.146  -5.129 -32.907  0.00  0.00    +0.000 HD
ENDROOT
TORSDOF 0
ENDMDL
MODEL 5
REMARK VINA RESULT:    -4.104     18.110     20.117
REMARK INTER + INTRA:          -4.104
REMARK INTER:                  -4.104
REMARK INTRA:                   0.000
REMARK UNBOUND:                 0.000
REMARK  Name = /home/vital/Documents/PhD_2021/Malaria_codes/scripts/../data/pdbqt_ligands/ligand_123_temp.pdb
REMARK                            x       y       z     vdW  Elec       q    Type
REMARK                         _______ _______ _______ _____ _____    ______ ____
ROOT
ATOM      1 CL   UNL     1       3.295  -4.955 -33.407  0.00  0.00    -0.083 Cl
ATOM      2  C   UNL     1       2.364  -6.348 -33.009  0.00  0.00    +0.044 A 
ATOM      3  C   UNL     1       2.089  -7.296 -33.995  0.00  0.00    -0.022 A 
ATOM      4  C   UNL     1       1.345  -8.421 -33.662  0.00  0.00    +0.032 A 
ATOM      5  C   UNL     1       1.003  -8.602 -32.314  0.00  0.00    -0.020 A 
ATOM      6  C   UNL     1       1.000  -7.556 -31.409  0.00  0.00    +0.031 A 
ATOM      7  C   UNL     1       1.800  -6.461 -31.731  0.00  0.00    -0.022 A 
ATOM      8  N   UNL     1       0.167  -7.547 -30.300  0.00  0.00    -0.337 N 
ATOM      9  C   UNL     1      -1.276  -7.902 -30.269  0.00  0.00    +0.046 C 
ATOM     10  C   UNL     1      -2.141  -6.658 -30.120  0.00  0.00    -0.064 C 
ATOM     11  C   UNL     1      -2.185  -5.491 -30.792  0.00  0.00    -0.043 C 
ATOM     12  C   UNL     1      -1.362  -5.028 -31.956  0.00  0.00    +0.151 C 
ATOM     13 CL   UNL     1      -0.316  -3.700 -31.360  0.00  0.00    -0.086 Cl
ATOM     14  O   UNL     1      -2.165  -4.459 -32.983  0.00  0.00    -0.356 OA
ATOM     15  C   UNL     1      -2.954  -5.325 -33.798  0.00  0.00    +0.065 C 
ATOM     16  C   UNL     1      -2.362  -6.703 -34.153  0.00  0.00    +0.034 C 
ATOM     17  N   UNL     1      -2.654  -7.642 -33.089  0.00  0.00    -0.330 N 
ATOM     18  C   UNL     1      -1.928  -8.738 -32.697  0.00  0.00    +0.094 C 
ATOM     19  N   UNL     1      -1.220  -9.577 -33.343  0.00  0.00    -0.255 N 
ATOM     20  C   UNL     1      -0.644  -9.434 -34.655  0.00  0.00    +0.104 C 
ATOM     21  N   UNL     1       0.837  -9.300 -34.642  0.00  0.00    -0.325 N 
ATOM     22  C   UNL     1      -1.913  -8.995 -31.171  0.00  0.00    +0.025 C 
ATOM     23  H   UNL     1       0.573  -7.276 -29.445  0.00  0.00    +0.000 HD
ATOM     24  H   UNL     1      -3.480  -7.471 -32.581  0.00  0.00    +0.000 HD
ATOM     25  H   UNL     1      -1.044 -10.432 -32.887  0.00  0.00    +0.000 HD
ATOM     26  H   UNL     1       1.418  -9.788 -35.269  0.00  0.00    +0.000 HD
ENDROOT
TORSDOF 0
ENDMDL
MODEL 6
REMARK VINA RESULT:    -4.007      2.023      3.161
REMARK INTER + INTRA:          -4.007
REMARK INTER:                  -4.007
REMARK INTRA:                   0.000
REMARK UNBOUND:                 0.000
REMARK  Name = /home/vital/Documents/PhD_2021/Malaria_codes/scripts/../data/pdbqt_ligands/ligand_123_temp.pdb
REMARK                            x       y       z     vdW  Elec       q    Type
REMARK                         _______ _______ _______ _____ _____    ______ ____
ROOT
ATOM      1 CL   UNL     1       0.234   6.567 -20.298  0.00  0.00    -0.083 Cl
ATOM      2  C   UNL     1       0.830   6.794 -18.699  0.00  0.00    +0.044 A 
ATOM      3  C   UNL     1       1.875   7.691 -18.475  0.00  0.00    -0.022 A 
ATOM      4  C   UNL     1       2.342   7.874 -17.180  0.00  0.00    +0.032 A 
ATOM      5  C   UNL     1       1.658   7.226 -16.141  0.00  0.00    -0.020 A 
ATOM      6  C   UNL     1       0.846   6.130 -16.366  0.00  0.00    +0.031 A 
ATOM      7  C   UNL     1       0.336   5.997 -17.658  0.00  0.00    -0.022 A 
ATOM      8  N   UNL     1       0.635   5.160 -15.398  0.00  0.00    -0.337 N 
ATOM      9  C   UNL     1       1.667   4.527 -14.536  0.00  0.00    +0.046 C 
ATOM     10  C   UNL     1       1.948   3.097 -14.980  0.00  0.00    -0.064 C 
ATOM     11  C   UNL     1       2.255   2.557 -16.176  0.00  0.00    -0.043 C 
ATOM     12  C   UNL     1       2.431   3.223 -17.507  0.00  0.00    +0.151 C 
ATOM     13 CL   UNL     1       1.066   2.691 -18.541  0.00  0.00    -0.086 Cl
ATOM     14  O   UNL     1       3.612   2.786 -18.169  0.00  0.00    -0.356 OA
ATOM     15  C   UNL     1       4.876   3.248 -17.695  0.00  0.00    +0.065 C 
ATOM     16  C   UNL     1       4.951   4.691 -17.161  0.00  0.00    +0.034 C 
ATOM     17  N   UNL     1       4.561   4.710 -15.766  0.00  0.00    -0.330 N 
ATOM     18  C   UNL     1       3.969   5.728 -15.060  0.00  0.00    +0.094 C 
ATOM     19  N   UNL     1       4.080   6.995 -15.123  0.00  0.00    -0.255 N 
ATOM     20  C   UNL     1       4.584   7.794 -16.211  0.00  0.00    +0.104 C 
ATOM     21  N   UNL     1       3.532   8.582 -16.906  0.00  0.00    -0.325 N 
ATOM     22  C   UNL     1       2.927   5.270 -14.013  0.00  0.00    +0.025 C 
ATOM     23  H   UNL     1      -0.293   4.859 -15.269  0.00  0.00    +0.000 HD
ATOM     24  H   UNL     1       4.742   3.887 -15.258  0.00  0.00    +0.000 HD
ATOM     25  H   UNL     1       3.781   7.492 -14.327  0.00  0.00    +0.000 HD
ATOM     26  H   UNL     1       3.657   9.526 -17.155  0.00  0.00    +0.000 HD
ENDROOT
TORSDOF 0
ENDMDL
MODEL 7
REMARK VINA RESULT:    -3.816      6.963      8.815
REMARK INTER + INTRA:          -3.816
REMARK INTER:                  -3.816
REMARK INTRA:                   0.000
REMARK UNBOUND:                 0.000
REMARK  Name = /home/vital/Documents/PhD_2021/Malaria_codes/scripts/../data/pdbqt_ligands/ligand_123_temp.pdb
REMARK                            x       y       z     vdW  Elec       q    Type
REMARK                         _______ _______ _______ _____ _____    ______ ____
ROOT
ATOM      1 CL   UNL     1      -4.870  -2.393 -21.552  0.00  0.00    -0.083 Cl
ATOM      2  C   UNL     1      -3.751  -1.278 -20.866  0.00  0.00    +0.044 A 
ATOM      3  C   UNL     1      -3.624  -0.003 -21.419  0.00  0.00    -0.022 A 
ATOM      4  C   UNL     1      -2.726   0.892 -20.853  0.00  0.00    +0.032 A 
ATOM      5  C   UNL     1      -2.071   0.503 -19.676  0.00  0.00    -0.020 A 
ATOM      6  C   UNL     1      -1.956  -0.823 -19.301  0.00  0.00    +0.031 A 
ATOM      7  C   UNL     1      -2.904  -1.697 -19.832  0.00  0.00    -0.022 A 
ATOM      8  N   UNL     1      -0.897  -1.280 -18.530  0.00  0.00    -0.337 N 
ATOM      9  C   UNL     1       0.541  -0.951 -18.713  0.00  0.00    +0.046 C 
ATOM     10  C   UNL     1       1.302  -2.135 -19.295  0.00  0.00    -0.064 C 
ATOM     11  C   UNL     1       1.087  -2.918 -20.370  0.00  0.00    -0.043 C 
ATOM     12  C   UNL     1      -0.018  -2.868 -21.382  0.00  0.00    +0.151 C 
ATOM     13 CL   UNL     1      -1.016  -4.337 -21.138  0.00  0.00    -0.086 Cl
ATOM     14  O   UNL     1       0.475  -2.951 -22.713  0.00  0.00    -0.356 OA
ATOM     15  C   UNL     1       1.133  -1.815 -23.274  0.00  0.00    +0.065 C 
ATOM     16  C   UNL     1       0.602  -0.422 -22.886  0.00  0.00    +0.034 C 
ATOM     17  N   UNL     1       1.212  -0.004 -21.640  0.00  0.00    -0.330 N 
ATOM     18  C   UNL     1       0.696   0.822 -20.674  0.00  0.00    +0.094 C 
ATOM     19  N   UNL     1      -0.062   1.845 -20.732  0.00  0.00    -0.255 N 
ATOM     20  C   UNL     1      -0.932   2.251 -21.805  0.00  0.00    +0.104 C 
ATOM     21  N   UNL     1      -2.377   2.105 -21.486  0.00  0.00    -0.325 N 
ATOM     22  C   UNL     1       1.052   0.425 -19.222  0.00  0.00    +0.025 C 
ATOM     23  H   UNL     1      -1.121  -1.885 -17.787  0.00  0.00    +0.000 HD
ATOM     24  H   UNL     1       2.113  -0.359 -21.463  0.00  0.00    +0.000 HD
ATOM     25  H   UNL     1      -0.052   2.432 -19.942  0.00  0.00    +0.000 HD
ATOM     26  H   UNL     1      -3.039   2.801 -21.700  0.00  0.00    +0.000 HD
ENDROOT
TORSDOF 0
ENDMDL
MODEL 8
REMARK VINA RESULT:    -3.610      2.766      4.848
REMARK INTER + INTRA:          -3.610
REMARK INTER:                  -3.610
REMARK INTRA:                   0.000
REMARK UNBOUND:                 0.000
REMARK  Name = /home/vital/Documents/PhD_2021/Malaria_codes/scripts/../data/pdbqt_ligands/ligand_123_temp.pdb
REMARK                            x       y       z     vdW  Elec       q    Type
REMARK                         _______ _______ _______ _____ _____    ______ ____
ROOT
ATOM      1 CL   UNL     1       2.817   3.234 -13.544  0.00  0.00    -0.083 Cl
ATOM      2  C   UNL     1       2.198   4.532 -14.491  0.00  0.00    +0.044 A 
ATOM      3  C   UNL     1       0.833   4.583 -14.778  0.00  0.00    -0.022 A 
ATOM      4  C   UNL     1       0.341   5.638 -15.534  0.00  0.00    +0.032 A 
ATOM      5  C   UNL     1       1.231   6.667 -15.877  0.00  0.00    -0.020 A 
ATOM      6  C   UNL     1       2.602   6.487 -15.867  0.00  0.00    +0.031 A 
ATOM      7  C   UNL     1       3.083   5.461 -15.053  0.00  0.00    -0.022 A 
ATOM      8  N   UNL     1       3.445   7.211 -16.697  0.00  0.00    -0.337 N 
ATOM      9  C   UNL     1       3.245   7.485 -18.144  0.00  0.00    +0.046 C 
ATOM     10  C   UNL     1       4.191   6.648 -18.995  0.00  0.00    -0.064 C 
ATOM     11  C   UNL     1       4.465   5.328 -19.026  0.00  0.00    -0.043 C 
ATOM     12  C   UNL     1       3.895   4.216 -18.199  0.00  0.00    +0.151 C 
ATOM     13 CL   UNL     1       5.213   3.627 -17.137  0.00  0.00    -0.086 Cl
ATOM     14  O   UNL     1       3.512   3.102 -18.997  0.00  0.00    -0.356 OA
ATOM     15  C   UNL     1       2.335   3.201 -19.797  0.00  0.00    +0.065 C 
ATOM     16  C   UNL     1       1.149   4.000 -19.222  0.00  0.00    +0.034 C 
ATOM     17  N   UNL     1       1.323   5.406 -19.524  0.00  0.00    -0.330 N 
ATOM     18  C   UNL     1       0.881   6.491 -18.810  0.00  0.00    +0.094 C 
ATOM     19  N   UNL     1      -0.166   6.694 -18.113  0.00  0.00    -0.255 N 
ATOM     20  C   UNL     1      -1.057   5.720 -17.537  0.00  0.00    +0.104 C 
ATOM     21  N   UNL     1      -0.971   5.640 -16.055  0.00  0.00    -0.325 N 
ATOM     22  C   UNL     1       1.851   7.697 -18.796  0.00  0.00    +0.025 C 
ATOM     23  H   UNL     1       4.260   7.580 -16.287  0.00  0.00    +0.000 HD
ATOM     24  H   UNL     1       1.824   5.609 -20.346  0.00  0.00    +0.000 HD
ATOM     25  H   UNL     1      -0.395   7.637 -17.946  0.00  0.00    +0.000 HD
ATOM     26  H   UNL     1      -1.769   5.593 -15.480  0.00  0.00    +0.000 HD
ENDROOT
TORSDOF 0
ENDMDL
MODEL 9
REMARK VINA RESULT:    -3.509     10.525     12.510
REMARK INTER + INTRA:          -3.509
REMARK INTER:                  -3.509
REMARK INTRA:                   0.000
REMARK UNBOUND:                 0.000
REMARK  Name = /home/vital/Documents/PhD_2021/Malaria_codes/scripts/../data/pdbqt_ligands/ligand_123_temp.pdb
REMARK                            x       y       z     vdW  Elec       q    Type
REMARK                         _______ _______ _______ _____ _____    ______ ____
ROOT
ATOM      1 CL   UNL     1      -2.927  -2.295 -20.973  0.00  0.00    -0.083 Cl
ATOM      2  C   UNL     1      -4.212  -2.283 -22.120  0.00  0.00    +0.044 A 
ATOM      3  C   UNL     1      -4.144  -3.118 -23.236  0.00  0.00    -0.022 A 
ATOM      4  C   UNL     1      -5.190  -3.109 -24.150  0.00  0.00    +0.032 A 
ATOM      5  C   UNL     1      -6.320  -2.337 -23.842  0.00  0.00    -0.020 A 
ATOM      6  C   UNL     1      -6.276  -1.301 -22.928  0.00  0.00    +0.031 A 
ATOM      7  C   UNL     1      -5.256  -1.360 -21.979  0.00  0.00    -0.022 A 
ATOM      8  N   UNL     1      -7.128  -0.209 -23.012  0.00  0.00    -0.337 N 
ATOM      9  C   UNL     1      -7.467   0.560 -24.238  0.00  0.00    +0.046 C 
ATOM     10  C   UNL     1      -6.780   1.919 -24.237  0.00  0.00    -0.064 C 
ATOM     11  C   UNL     1      -5.498   2.293 -24.054  0.00  0.00    -0.043 C 
ATOM     12  C   UNL     1      -4.288   1.452 -23.785  0.00  0.00    +0.151 C 
ATOM     13 CL   UNL     1      -3.770   1.806 -22.105  0.00  0.00    -0.086 Cl
ATOM     14  O   UNL     1      -3.191   1.817 -24.614  0.00  0.00    -0.356 OA
ATOM     15  C   UNL     1      -3.221   1.453 -25.994  0.00  0.00    +0.065 C 
ATOM     16  C   UNL     1      -3.863   0.100 -26.358  0.00  0.00    +0.034 C 
ATOM     17  N   UNL     1      -5.295   0.268 -26.499  0.00  0.00    -0.330 N 
ATOM     18  C   UNL     1      -6.287  -0.653 -26.275  0.00  0.00    +0.094 C 
ATOM     19  N   UNL     1      -6.343  -1.915 -26.445  0.00  0.00    -0.255 N 
ATOM     20  C   UNL     1      -5.253  -2.847 -26.579  0.00  0.00    +0.104 C 
ATOM     21  N   UNL     1      -5.093  -3.746 -25.406  0.00  0.00    -0.325 N 
ATOM     22  C   UNL     1      -7.579  -0.077 -25.650  0.00  0.00    +0.025 C 
ATOM     23  H   UNL     1      -7.551   0.087 -22.174  0.00  0.00    +0.000 HD
ATOM     24  H   UNL     1      -5.596   1.158 -26.792  0.00  0.00    +0.000 HD
ATOM     25  H   UNL     1      -7.247  -2.302 -26.489  0.00  0.00    +0.000 HD
ATOM     26  H   UNL     1      -4.933  -4.713 -25.498  0.00  0.00    +0.000 HD
ENDROOT
TORSDOF 0
ENDMDL
