MODEL 1
REMARK VINA RESULT:    -5.889      0.000      0.000
REMARK INTER + INTRA:          -5.889
REMARK INTER:                  -5.889
REMARK INTRA:                   0.000
REMARK UNBOUND:                 0.000
REMARK  Name = /home/vital/Documents/PhD_2021/Malaria_codes/scripts/../data/pdbqt_ligands/ligand_352_temp.pdb
REMARK                            x       y       z     vdW  Elec       q    Type
REMARK                         _______ _______ _______ _____ _____    ______ ____
ROOT
ATOM      1  C   UNL     1      -2.252  -6.357 -22.842  0.00  0.00    -0.046 C 
ATOM      2  C   UNL     1      -1.415  -5.165 -23.322  0.00  0.00    +0.030 C 
ATOM      3  N   UNL     1      -0.420  -4.836 -22.291  0.00  0.00    -0.306 N 
ATOM      4  C   UNL     1       0.226  -3.546 -22.534  0.00  0.00    +0.022 C 
ATOM      5  C   UNL     1       1.187  -3.221 -21.413  0.00  0.00    -0.033 A 
ATOM      6  C   UNL     1       0.903  -2.200 -20.497  0.00  0.00    -0.057 A 
ATOM      7  C   UNL     1       1.790  -1.915 -19.458  0.00  0.00    -0.061 A 
ATOM      8  C   UNL     1       2.970  -2.648 -19.324  0.00  0.00    -0.050 A 
ATOM      9  C   UNL     1       3.279  -3.672 -20.230  0.00  0.00    +0.055 A 
ATOM     10  C   UNL     1       4.538  -4.486 -20.071  0.00  0.00    +0.417 C 
ATOM     11  F   UNL     1       5.050  -4.923 -21.255  0.00  0.00    -0.166 F 
ATOM     12  F   UNL     1       5.547  -3.797 -19.466  0.00  0.00    -0.166 F 
ATOM     13  F   UNL     1       4.344  -5.600 -19.312  0.00  0.00    -0.166 F 
ATOM     14  C   UNL     1       2.375  -3.955 -21.267  0.00  0.00    -0.046 A 
ATOM     15  C   UNL     1      -0.783  -5.484 -24.665  0.00  0.00    -0.028 A 
ATOM     16  C   UNL     1      -1.263  -4.869 -25.835  0.00  0.00    -0.057 A 
ATOM     17  C   UNL     1      -0.696  -5.158 -27.080  0.00  0.00    -0.059 A 
ATOM     18  C   UNL     1       0.357  -6.067 -27.170  0.00  0.00    -0.026 A 
ATOM     19  C   UNL     1       0.833  -6.679 -26.017  0.00  0.00    +0.124 A 
ATOM     20  F   UNL     1       1.845  -7.553 -26.106  0.00  0.00    -0.205 F 
ATOM     21  C   UNL     1       0.275  -6.399 -24.775  0.00  0.00    -0.022 A 
ATOM     22  H   UNL     1       0.294  -5.564 -22.281  0.00  0.00    +0.000 HD
ATOM     23  H   UNL     1      -0.905  -4.778 -21.396  0.00  0.00    +0.000 HD
ENDROOT
TORSDOF 0
ENDMDL
MODEL 2
REMARK VINA RESULT:    -5.779      9.539     12.657
REMARK INTER + INTRA:          -5.779
REMARK INTER:                  -5.779
REMARK INTRA:                   0.000
REMARK UNBOUND:                 0.000
REMARK  Name = /home/vital/Documents/PhD_2021/Malaria_codes/scripts/../data/pdbqt_ligands/ligand_352_temp.pdb
REMARK                            x       y       z     vdW  Elec       q    Type
REMARK                         _______ _______ _______ _____ _____    ______ ____
ROOT
ATOM      1  C   UNL     1       1.379  -5.912 -31.657  0.00  0.00    -0.046 C 
ATOM      2  C   UNL     1       2.001  -5.169 -32.845  0.00  0.00    +0.030 C 
ATOM      3  N   UNL     1       1.112  -4.066 -33.236  0.00  0.00    -0.306 N 
ATOM      4  C   UNL     1       1.480  -3.487 -34.529  0.00  0.00    +0.022 C 
ATOM      5  C   UNL     1       0.497  -2.407 -34.919  0.00  0.00    -0.033 A 
ATOM      6  C   UNL     1      -0.408  -2.605 -35.970  0.00  0.00    -0.057 A 
ATOM      7  C   UNL     1      -1.320  -1.608 -36.316  0.00  0.00    -0.061 A 
ATOM      8  C   UNL     1      -1.339  -0.402 -35.614  0.00  0.00    -0.050 A 
ATOM      9  C   UNL     1      -0.441  -0.178 -34.560  0.00  0.00    +0.055 A 
ATOM     10  C   UNL     1      -0.478   1.112 -33.779  0.00  0.00    +0.417 C 
ATOM     11  F   UNL     1       0.742   1.489 -33.304  0.00  0.00    -0.166 F 
ATOM     12  F   UNL     1      -0.930   2.168 -34.513  0.00  0.00    -0.166 F 
ATOM     13  F   UNL     1      -1.297   1.038 -32.693  0.00  0.00    -0.166 F 
ATOM     14  C   UNL     1       0.467  -1.192 -34.216  0.00  0.00    -0.046 A 
ATOM     15  C   UNL     1       3.399  -4.695 -32.485  0.00  0.00    -0.028 A 
ATOM     16  C   UNL     1       4.524  -5.327 -33.042  0.00  0.00    -0.057 A 
ATOM     17  C   UNL     1       5.817  -4.905 -32.714  0.00  0.00    -0.059 A 
ATOM     18  C   UNL     1       5.999  -3.849 -31.824  0.00  0.00    -0.026 A 
ATOM     19  C   UNL     1       4.890  -3.222 -31.270  0.00  0.00    +0.124 A 
ATOM     20  F   UNL     1       5.066  -2.207 -30.414  0.00  0.00    -0.205 F 
ATOM     21  C   UNL     1       3.601  -3.634 -31.588  0.00  0.00    -0.022 A 
ATOM     22  H   UNL     1       1.160  -3.338 -32.524  0.00  0.00    +0.000 HD
ATOM     23  H   UNL     1       0.167  -4.442 -33.321  0.00  0.00    +0.000 HD
ENDROOT
TORSDOF 0
ENDMDL
MODEL 3
REMARK VINA RESULT:    -5.537      2.189      2.706
REMARK INTER + INTRA:          -5.537
REMARK INTER:                  -5.537
REMARK INTRA:                   0.000
REMARK UNBOUND:                 0.000
REMARK  Name = /home/vital/Documents/PhD_2021/Malaria_codes/scripts/../data/pdbqt_ligands/ligand_352_temp.pdb
REMARK                            x       y       z     vdW  Elec       q    Type
REMARK                         _______ _______ _______ _____ _____    ______ ____
ROOT
ATOM      1  C   UNL     1      -3.118  -3.507 -19.803  0.00  0.00    -0.046 C 
ATOM      2  C   UNL     1      -2.199  -3.056 -20.944  0.00  0.00    +0.030 C 
ATOM      3  N   UNL     1      -0.819  -2.985 -20.444  0.00  0.00    -0.306 N 
ATOM      4  C   UNL     1       0.075  -2.295 -21.376  0.00  0.00    +0.022 C 
ATOM      5  C   UNL     1       1.463  -2.185 -20.788  0.00  0.00    -0.033 A 
ATOM      6  C   UNL     1       1.969  -0.948 -20.365  0.00  0.00    -0.057 A 
ATOM      7  C   UNL     1       3.246  -0.858 -19.812  0.00  0.00    -0.061 A 
ATOM      8  C   UNL     1       4.032  -2.003 -19.674  0.00  0.00    -0.050 A 
ATOM      9  C   UNL     1       3.551  -3.252 -20.093  0.00  0.00    +0.055 A 
ATOM     10  C   UNL     1       4.385  -4.495 -19.918  0.00  0.00    +0.417 C 
ATOM     11  F   UNL     1       4.163  -5.432 -20.882  0.00  0.00    -0.166 F 
ATOM     12  F   UNL     1       5.726  -4.248 -19.946  0.00  0.00    -0.166 F 
ATOM     13  F   UNL     1       4.148  -5.118 -18.730  0.00  0.00    -0.166 F 
ATOM     14  C   UNL     1       2.260  -3.331 -20.641  0.00  0.00    -0.046 A 
ATOM     15  C   UNL     1      -2.345  -3.997 -22.128  0.00  0.00    -0.028 A 
ATOM     16  C   UNL     1      -3.020  -3.574 -23.286  0.00  0.00    -0.057 A 
ATOM     17  C   UNL     1      -3.168  -4.431 -24.381  0.00  0.00    -0.059 A 
ATOM     18  C   UNL     1      -2.644  -5.722 -24.330  0.00  0.00    -0.026 A 
ATOM     19  C   UNL     1      -1.978  -6.145 -23.187  0.00  0.00    +0.124 A 
ATOM     20  F   UNL     1      -1.476  -7.386 -23.138  0.00  0.00    -0.205 F 
ATOM     21  C   UNL     1      -1.827  -5.301 -22.092  0.00  0.00    -0.022 A 
ATOM     22  H   UNL     1      -0.472  -3.933 -20.299  0.00  0.00    +0.000 HD
ATOM     23  H   UNL     1      -0.829  -2.455 -19.573  0.00  0.00    +0.000 HD
ENDROOT
TORSDOF 0
ENDMDL
MODEL 4
REMARK VINA RESULT:    -5.453      2.927      7.351
REMARK INTER + INTRA:          -5.453
REMARK INTER:                  -5.453
REMARK INTRA:                   0.000
REMARK UNBOUND:                 0.000
REMARK  Name = /home/vital/Documents/PhD_2021/Malaria_codes/scripts/../data/pdbqt_ligands/ligand_352_temp.pdb
REMARK                            x       y       z     vdW  Elec       q    Type
REMARK                         _______ _______ _______ _____ _____    ______ ____
ROOT
ATOM      1  C   UNL     1       4.873  -4.185 -20.255  0.00  0.00    -0.046 C 
ATOM      2  C   UNL     1       3.945  -3.205 -20.984  0.00  0.00    +0.030 C 
ATOM      3  N   UNL     1       2.920  -3.969 -21.708  0.00  0.00    -0.306 N 
ATOM      4  C   UNL     1       2.172  -3.138 -22.653  0.00  0.00    +0.022 C 
ATOM      5  C   UNL     1       1.179  -3.981 -23.421  0.00  0.00    -0.033 A 
ATOM      6  C   UNL     1       1.373  -4.258 -24.781  0.00  0.00    -0.057 A 
ATOM      7  C   UNL     1       0.458  -5.047 -25.479  0.00  0.00    -0.061 A 
ATOM      8  C   UNL     1      -0.659  -5.569 -24.826  0.00  0.00    -0.050 A 
ATOM      9  C   UNL     1      -0.877  -5.303 -23.466  0.00  0.00    +0.055 A 
ATOM     10  C   UNL     1      -2.067  -5.890 -22.749  0.00  0.00    +0.417 C 
ATOM     11  F   UNL     1      -2.532  -5.098 -21.742  0.00  0.00    -0.166 F 
ATOM     12  F   UNL     1      -3.133  -6.106 -23.570  0.00  0.00    -0.166 F 
ATOM     13  F   UNL     1      -1.788  -7.095 -22.179  0.00  0.00    -0.166 F 
ATOM     14  C   UNL     1       0.055  -4.515 -22.772  0.00  0.00    -0.046 A 
ATOM     15  C   UNL     1       3.351  -2.220 -19.991  0.00  0.00    -0.028 A 
ATOM     16  C   UNL     1       3.788  -0.884 -19.975  0.00  0.00    -0.057 A 
ATOM     17  C   UNL     1       3.254   0.032 -19.062  0.00  0.00    -0.059 A 
ATOM     18  C   UNL     1       2.280  -0.378 -18.154  0.00  0.00    -0.026 A 
ATOM     19  C   UNL     1       1.847  -1.698 -18.165  0.00  0.00    +0.124 A 
ATOM     20  F   UNL     1       0.911  -2.092 -17.291  0.00  0.00    -0.205 F 
ATOM     21  C   UNL     1       2.372  -2.617 -19.068  0.00  0.00    -0.022 A 
ATOM     22  H   UNL     1       2.267  -4.365 -21.031  0.00  0.00    +0.000 HD
ATOM     23  H   UNL     1       3.392  -4.699 -22.240  0.00  0.00    +0.000 HD
ENDROOT
TORSDOF 0
ENDMDL
MODEL 5
REMARK VINA RESULT:    -5.347     10.763     13.390
REMARK INTER + INTRA:          -5.347
REMARK INTER:                  -5.347
REMARK INTRA:                   0.000
REMARK UNBOUND:                 0.000
REMARK  Name = /home/vital/Documents/PhD_2021/Malaria_codes/scripts/../data/pdbqt_ligands/ligand_352_temp.pdb
REMARK                            x       y       z     vdW  Elec       q    Type
REMARK                         _______ _______ _______ _____ _____    ______ ____
ROOT
ATOM      1  C   UNL     1       2.314   4.240 -16.594  0.00  0.00    -0.046 C 
ATOM      2  C   UNL     1       1.534   5.547 -16.781  0.00  0.00    +0.030 C 
ATOM      3  N   UNL     1       2.385   6.512 -17.492  0.00  0.00    -0.306 N 
ATOM      4  C   UNL     1       1.833   7.867 -17.461  0.00  0.00    +0.022 C 
ATOM      5  C   UNL     1       2.776   8.833 -18.142  0.00  0.00    -0.033 A 
ATOM      6  C   UNL     1       3.494   9.780 -17.401  0.00  0.00    -0.057 A 
ATOM      7  C   UNL     1       4.371  10.659 -18.037  0.00  0.00    -0.061 A 
ATOM      8  C   UNL     1       4.540  10.601 -19.420  0.00  0.00    -0.050 A 
ATOM      9  C   UNL     1       3.830   9.664 -20.186  0.00  0.00    +0.055 A 
ATOM     10  C   UNL     1       4.033   9.578 -21.677  0.00  0.00    +0.417 C 
ATOM     11  F   UNL     1       2.917   9.179 -22.350  0.00  0.00    -0.166 F 
ATOM     12  F   UNL     1       4.395  10.767 -22.238  0.00  0.00    -0.166 F 
ATOM     13  F   UNL     1       5.012   8.694 -22.019  0.00  0.00    -0.166 F 
ATOM     14  C   UNL     1       2.957   8.779 -19.534  0.00  0.00    -0.046 A 
ATOM     15  C   UNL     1       0.228   5.271 -17.506  0.00  0.00    -0.028 A 
ATOM     16  C   UNL     1      -0.991   5.325 -16.809  0.00  0.00    -0.057 A 
ATOM     17  C   UNL     1      -2.201   5.067 -17.463  0.00  0.00    -0.059 A 
ATOM     18  C   UNL     1      -2.204   4.750 -18.820  0.00  0.00    -0.026 A 
ATOM     19  C   UNL     1      -1.001   4.693 -19.512  0.00  0.00    +0.124 A 
ATOM     20  F   UNL     1      -1.006   4.387 -20.816  0.00  0.00    -0.205 F 
ATOM     21  C   UNL     1       0.206   4.947 -18.872  0.00  0.00    -0.022 A 
ATOM     22  H   UNL     1       2.474   6.216 -18.464  0.00  0.00    +0.000 HD
ATOM     23  H   UNL     1       3.291   6.533 -17.024  0.00  0.00    +0.000 HD
ENDROOT
TORSDOF 0
ENDMDL
MODEL 6
REMARK VINA RESULT:    -5.058     10.155     11.185
REMARK INTER + INTRA:          -5.058
REMARK INTER:                  -5.058
REMARK INTRA:                   0.000
REMARK UNBOUND:                 0.000
REMARK  Name = /home/vital/Documents/PhD_2021/Malaria_codes/scripts/../data/pdbqt_ligands/ligand_352_temp.pdb
REMARK                            x       y       z     vdW  Elec       q    Type
REMARK                         _______ _______ _______ _____ _____    ______ ____
ROOT
ATOM      1  C   UNL     1       1.369   6.534 -19.728  0.00  0.00    -0.046 C 
ATOM      2  C   UNL     1       1.031   5.076 -19.397  0.00  0.00    +0.030 C 
ATOM      3  N   UNL     1       1.849   4.646 -18.253  0.00  0.00    -0.306 N 
ATOM      4  C   UNL     1       1.803   3.197 -18.051  0.00  0.00    +0.022 C 
ATOM      5  C   UNL     1       2.712   2.797 -16.911  0.00  0.00    -0.033 A 
ATOM      6  C   UNL     1       3.901   2.097 -17.152  0.00  0.00    -0.057 A 
ATOM      7  C   UNL     1       4.740   1.743 -16.095  0.00  0.00    -0.061 A 
ATOM      8  C   UNL     1       4.400   2.085 -14.786  0.00  0.00    -0.050 A 
ATOM      9  C   UNL     1       3.213   2.782 -14.518  0.00  0.00    +0.055 A 
ATOM     10  C   UNL     1       2.856   3.181 -13.108  0.00  0.00    +0.417 C 
ATOM     11  F   UNL     1       1.513   3.217 -12.882  0.00  0.00    -0.166 F 
ATOM     12  F   UNL     1       3.364   2.333 -12.168  0.00  0.00    -0.166 F 
ATOM     13  F   UNL     1       3.324   4.418 -12.783  0.00  0.00    -0.166 F 
ATOM     14  C   UNL     1       2.380   3.140 -15.591  0.00  0.00    -0.046 A 
ATOM     15  C   UNL     1      -0.459   4.935 -19.137  0.00  0.00    -0.028 A 
ATOM     16  C   UNL     1      -1.283   4.300 -20.082  0.00  0.00    -0.057 A 
ATOM     17  C   UNL     1      -2.658   4.170 -19.860  0.00  0.00    -0.059 A 
ATOM     18  C   UNL     1      -3.224   4.675 -18.691  0.00  0.00    -0.026 A 
ATOM     19  C   UNL     1      -2.414   5.306 -17.756  0.00  0.00    +0.124 A 
ATOM     20  F   UNL     1      -2.960   5.793 -16.633  0.00  0.00    -0.205 F 
ATOM     21  C   UNL     1      -1.046   5.442 -17.968  0.00  0.00    -0.022 A 
ATOM     22  H   UNL     1       1.502   5.106 -17.411  0.00  0.00    +0.000 HD
ATOM     23  H   UNL     1       2.816   4.903 -18.447  0.00  0.00    +0.000 HD
ENDROOT
TORSDOF 0
ENDMDL
MODEL 7
REMARK VINA RESULT:    -5.017      3.122      6.860
REMARK INTER + INTRA:          -5.017
REMARK INTER:                  -5.017
REMARK INTRA:                   0.000
REMARK UNBOUND:                 0.000
REMARK  Name = /home/vital/Documents/PhD_2021/Malaria_codes/scripts/../data/pdbqt_ligands/ligand_352_temp.pdb
REMARK                            x       y       z     vdW  Elec       q    Type
REMARK                         _______ _______ _______ _____ _____    ______ ____
ROOT
ATOM      1  C   UNL     1       5.762  -5.400 -24.489  0.00  0.00    -0.046 C 
ATOM      2  C   UNL     1       4.886  -4.215 -24.062  0.00  0.00    +0.030 C 
ATOM      3  N   UNL     1       3.473  -4.577 -24.246  0.00  0.00    -0.306 N 
ATOM      4  C   UNL     1       2.585  -3.418 -24.136  0.00  0.00    +0.022 C 
ATOM      5  C   UNL     1       1.154  -3.828 -24.401  0.00  0.00    -0.033 A 
ATOM      6  C   UNL     1       0.500  -3.432 -25.575  0.00  0.00    -0.057 A 
ATOM      7  C   UNL     1      -0.817  -3.825 -25.817  0.00  0.00    -0.061 A 
ATOM      8  C   UNL     1      -1.493  -4.618 -24.890  0.00  0.00    -0.050 A 
ATOM      9  C   UNL     1      -0.862  -5.024 -23.705  0.00  0.00    +0.055 A 
ATOM     10  C   UNL     1      -1.579  -5.906 -22.715  0.00  0.00    +0.417 C 
ATOM     11  F   UNL     1      -1.197  -5.688 -21.425  0.00  0.00    -0.166 F 
ATOM     12  F   UNL     1      -2.932  -5.738 -22.731  0.00  0.00    -0.166 F 
ATOM     13  F   UNL     1      -1.367  -7.231 -22.950  0.00  0.00    -0.166 F 
ATOM     14  C   UNL     1       0.466  -4.629 -23.476  0.00  0.00    -0.046 A 
ATOM     15  C   UNL     1       5.209  -3.823 -22.630  0.00  0.00    -0.028 A 
ATOM     16  C   UNL     1       5.920  -2.640 -22.366  0.00  0.00    -0.057 A 
ATOM     17  C   UNL     1       6.231  -2.271 -21.053  0.00  0.00    -0.059 A 
ATOM     18  C   UNL     1       5.836  -3.080 -19.990  0.00  0.00    -0.026 A 
ATOM     19  C   UNL     1       5.134  -4.252 -20.247  0.00  0.00    +0.124 A 
ATOM     20  F   UNL     1       4.756  -5.031 -19.224  0.00  0.00    -0.205 F 
ATOM     21  C   UNL     1       4.822  -4.629 -21.548  0.00  0.00    -0.022 A 
ATOM     22  H   UNL     1       3.213  -5.258 -23.532  0.00  0.00    +0.000 HD
ATOM     23  H   UNL     1       3.369  -4.962 -25.184  0.00  0.00    +0.000 HD
ENDROOT
TORSDOF 0
ENDMDL
MODEL 8
REMARK VINA RESULT:    -4.935      4.083      8.821
REMARK INTER + INTRA:          -4.935
REMARK INTER:                  -4.935
REMARK INTRA:                   0.000
REMARK UNBOUND:                 0.000
REMARK  Name = /home/vital/Documents/PhD_2021/Malaria_codes/scripts/../data/pdbqt_ligands/ligand_352_temp.pdb
REMARK                            x       y       z     vdW  Elec       q    Type
REMARK                         _______ _______ _______ _____ _____    ______ ____
ROOT
ATOM      1  C   UNL     1       2.617   3.058 -19.130  0.00  0.00    -0.046 C 
ATOM      2  C   UNL     1       2.219   1.873 -18.242  0.00  0.00    +0.030 C 
ATOM      3  N   UNL     1       2.378   0.629 -19.008  0.00  0.00    -0.306 N 
ATOM      4  C   UNL     1       1.755  -0.516 -18.343  0.00  0.00    +0.022 C 
ATOM      5  C   UNL     1       1.884  -1.755 -19.200  0.00  0.00    -0.033 A 
ATOM      6  C   UNL     1       0.765  -2.309 -19.834  0.00  0.00    -0.057 A 
ATOM      7  C   UNL     1       0.895  -3.445 -20.634  0.00  0.00    -0.061 A 
ATOM      8  C   UNL     1       2.145  -4.039 -20.809  0.00  0.00    -0.050 A 
ATOM      9  C   UNL     1       3.281  -3.505 -20.182  0.00  0.00    +0.055 A 
ATOM     10  C   UNL     1       4.638  -4.126 -20.393  0.00  0.00    +0.417 C 
ATOM     11  F   UNL     1       5.463  -3.996 -19.316  0.00  0.00    -0.166 F 
ATOM     12  F   UNL     1       4.581  -5.463 -20.653  0.00  0.00    -0.166 F 
ATOM     13  F   UNL     1       5.306  -3.572 -21.444  0.00  0.00    -0.166 F 
ATOM     14  C   UNL     1       3.138  -2.357 -19.386  0.00  0.00    -0.046 A 
ATOM     15  C   UNL     1       3.042   1.884 -16.965  0.00  0.00    -0.028 A 
ATOM     16  C   UNL     1       2.446   2.247 -15.745  0.00  0.00    -0.057 A 
ATOM     17  C   UNL     1       3.193   2.268 -14.562  0.00  0.00    -0.059 A 
ATOM     18  C   UNL     1       4.544   1.929 -14.587  0.00  0.00    -0.026 A 
ATOM     19  C   UNL     1       5.138   1.572 -15.791  0.00  0.00    +0.124 A 
ATOM     20  F   UNL     1       6.438   1.248 -15.814  0.00  0.00    -0.205 F 
ATOM     21  C   UNL     1       4.405   1.549 -16.972  0.00  0.00    -0.022 A 
ATOM     22  H   UNL     1       3.374   0.440 -19.123  0.00  0.00    +0.000 HD
ATOM     23  H   UNL     1       1.916   0.756 -19.908  0.00  0.00    +0.000 HD
ENDROOT
TORSDOF 0
ENDMDL
MODEL 9
REMARK VINA RESULT:    -4.903     10.584     12.340
REMARK INTER + INTRA:          -4.903
REMARK INTER:                  -4.903
REMARK INTRA:                   0.000
REMARK UNBOUND:                 0.000
REMARK  Name = /home/vital/Documents/PhD_2021/Malaria_codes/scripts/../data/pdbqt_ligands/ligand_352_temp.pdb
REMARK                            x       y       z     vdW  Elec       q    Type
REMARK                         _______ _______ _______ _____ _____    ______ ____
ROOT
ATOM      1  C   UNL     1      -2.689   4.083 -22.676  0.00  0.00    -0.046 C 
ATOM      2  C   UNL     1      -3.103   5.101 -21.606  0.00  0.00    +0.030 C 
ATOM      3  N   UNL     1      -2.036   5.196 -20.600  0.00  0.00    -0.306 N 
ATOM      4  C   UNL     1      -2.464   5.921 -19.403  0.00  0.00    +0.022 C 
ATOM      5  C   UNL     1      -1.358   5.931 -18.372  0.00  0.00    -0.033 A 
ATOM      6  C   UNL     1      -1.466   5.180 -17.195  0.00  0.00    -0.057 A 
ATOM      7  C   UNL     1      -0.435   5.185 -16.254  0.00  0.00    -0.061 A 
ATOM      8  C   UNL     1       0.715   5.941 -16.481  0.00  0.00    -0.050 A 
ATOM      9  C   UNL     1       0.846   6.705 -17.650  0.00  0.00    +0.055 A 
ATOM     10  C   UNL     1       2.101   7.499 -17.913  0.00  0.00    +0.417 C 
ATOM     11  F   UNL     1       1.878   8.633 -18.634  0.00  0.00    -0.166 F 
ATOM     12  F   UNL     1       2.725   7.906 -16.771  0.00  0.00    -0.166 F 
ATOM     13  F   UNL     1       3.030   6.788 -18.610  0.00  0.00    -0.166 F 
ATOM     14  C   UNL     1      -0.194   6.685 -18.592  0.00  0.00    -0.046 A 
ATOM     15  C   UNL     1      -3.415   6.437 -22.256  0.00  0.00    -0.028 A 
ATOM     16  C   UNL     1      -4.746   6.879 -22.358  0.00  0.00    -0.057 A 
ATOM     17  C   UNL     1      -5.049   8.104 -22.961  0.00  0.00    -0.059 A 
ATOM     18  C   UNL     1      -4.026   8.901 -23.470  0.00  0.00    -0.026 A 
ATOM     19  C   UNL     1      -2.709   8.467 -23.374  0.00  0.00    +0.124 A 
ATOM     20  F   UNL     1      -1.726   9.234 -23.865  0.00  0.00    -0.205 F 
ATOM     21  C   UNL     1      -2.397   7.251 -22.778  0.00  0.00    -0.022 A 
ATOM     22  H   UNL     1      -1.239   5.683 -21.011  0.00  0.00    +0.000 HD
ATOM     23  H   UNL     1      -1.787   4.248 -20.318  0.00  0.00    +0.000 HD
ENDROOT
TORSDOF 0
ENDMDL
