MODEL 1
REMARK VINA RESULT:    -7.076      0.000      0.000
REMARK INTER + INTRA:          -7.076
REMARK INTER:                  -7.076
REMARK INTRA:                   0.000
REMARK UNBOUND:                 0.000
REMARK  Name = /home/vital/Documents/PhD_2021/Malaria_codes/scripts/../data/pdbqt_ligands/ligand_127_temp.pdb
REMARK                            x       y       z     vdW  Elec       q    Type
REMARK                         _______ _______ _______ _____ _____    ______ ____
ROOT
ATOM      1  C   UNL     1       8.211  -2.264 -23.015  0.00  0.00    -0.047 C 
ATOM      2  C   UNL     1       9.284  -2.763 -23.928  0.00  0.00    -0.090 C 
ATOM      3  C   UNL     1       9.143  -3.250 -25.173  0.00  0.00    -0.074 C 
ATOM      4  C   UNL     1       7.877  -3.383 -25.971  0.00  0.00    +0.015 C 
ATOM      5  N   UNL     1       7.584  -4.800 -26.135  0.00  0.00    -0.300 N 
ATOM      6  C   UNL     1       6.238  -5.114 -26.604  0.00  0.00    +0.086 C 
ATOM      7  C   UNL     1       5.780  -4.521 -27.995  0.00  0.00    -0.045 C 
ATOM      8  C   UNL     1       5.484  -3.183 -28.184  0.00  0.00    -0.058 C 
ATOM      9  C   UNL     1       4.079  -3.549 -27.647  0.00  0.00    +0.075 C 
ATOM     10  C   UNL     1       4.332  -4.817 -28.520  0.00  0.00    -0.004 C 
ATOM     11  N   UNL     1       4.094  -3.817 -26.178  0.00  0.00    -0.264 N 
ATOM     12  C   UNL     1       5.081  -4.526 -25.673  0.00  0.00    +0.116 C 
ATOM     13  N   UNL     1       5.209  -4.834 -24.327  0.00  0.00    -0.302 N 
ATOM     14  C   UNL     1       4.397  -4.487 -23.232  0.00  0.00    +0.034 A 
ATOM     15  C   UNL     1       3.146  -3.874 -23.343  0.00  0.00    -0.039 A 
ATOM     16  C   UNL     1       2.382  -3.576 -22.210  0.00  0.00    -0.040 A 
ATOM     17  C   UNL     1       2.871  -3.871 -20.940  0.00  0.00    +0.062 A 
ATOM     18 CL   UNL     1       1.891  -3.498 -19.566  0.00  0.00    -0.082 Cl
ATOM     19  C   UNL     1       4.147  -4.432 -20.781  0.00  0.00    +0.045 A 
ATOM     20  N   UNL     1       4.625  -4.854 -19.525  0.00  0.00    -0.357 N 
ATOM     21  C   UNL     1       4.871  -4.770 -21.935  0.00  0.00    -0.018 A 
ATOM     22  H   UNL     1       7.717  -5.255 -25.232  0.00  0.00    +0.000 HD
ATOM     23  H   UNL     1       8.218  -5.135 -26.861  0.00  0.00    +0.000 HD
ATOM     24  H   UNL     1       3.378  -3.469 -25.598  0.00  0.00    +0.000 HD
ATOM     25  H   UNL     1       5.993  -5.385 -24.102  0.00  0.00    +0.000 HD
ATOM     26  H   UNL     1       4.128  -4.623 -18.707  0.00  0.00    +0.000 HD
ATOM     27  H   UNL     1       5.455  -5.379 -19.466  0.00  0.00    +0.000 HD
ENDROOT
TORSDOF 0
ENDMDL
MODEL 2
REMARK VINA RESULT:    -6.898      7.470     10.406
REMARK INTER + INTRA:          -6.898
REMARK INTER:                  -6.898
REMARK INTRA:                   0.000
REMARK UNBOUND:                 0.000
REMARK  Name = /home/vital/Documents/PhD_2021/Malaria_codes/scripts/../data/pdbqt_ligands/ligand_127_temp.pdb
REMARK                            x       y       z     vdW  Elec       q    Type
REMARK                         _______ _______ _______ _____ _____    ______ ____
ROOT
ATOM      1  C   UNL     1       0.500  -1.513 -34.364  0.00  0.00    -0.047 C 
ATOM      2  C   UNL     1      -0.072  -2.209 -35.556  0.00  0.00    -0.090 C 
ATOM      3  C   UNL     1      -0.200  -3.533 -35.751  0.00  0.00    -0.074 C 
ATOM      4  C   UNL     1       0.166  -4.641 -34.806  0.00  0.00    +0.015 C 
ATOM      5  N   UNL     1       1.290  -5.375 -35.372  0.00  0.00    -0.300 N 
ATOM      6  C   UNL     1       1.978  -6.277 -34.454  0.00  0.00    +0.086 C 
ATOM      7  C   UNL     1       1.138  -7.433 -33.781  0.00  0.00    -0.045 C 
ATOM      8  C   UNL     1       0.205  -7.206 -32.784  0.00  0.00    -0.058 C 
ATOM      9  C   UNL     1       1.415  -7.246 -31.819  0.00  0.00    +0.075 C 
ATOM     10  C   UNL     1       1.838  -8.407 -32.771  0.00  0.00    -0.004 C 
ATOM     11  N   UNL     1       2.268  -6.026 -31.941  0.00  0.00    -0.264 N 
ATOM     12  C   UNL     1       2.534  -5.556 -33.141  0.00  0.00    +0.116 C 
ATOM     13  N   UNL     1       3.305  -4.430 -33.383  0.00  0.00    -0.302 N 
ATOM     14  C   UNL     1       3.942  -3.552 -32.485  0.00  0.00    +0.034 A 
ATOM     15  C   UNL     1       4.056  -3.779 -31.111  0.00  0.00    -0.039 A 
ATOM     16  C   UNL     1       4.722  -2.872 -30.281  0.00  0.00    -0.040 A 
ATOM     17  C   UNL     1       5.272  -1.709 -30.815  0.00  0.00    +0.062 A 
ATOM     18 CL   UNL     1       6.098  -0.620 -29.757  0.00  0.00    -0.082 Cl
ATOM     19  C   UNL     1       5.128  -1.414 -32.179  0.00  0.00    +0.045 A 
ATOM     20  N   UNL     1       5.771  -0.312 -32.775  0.00  0.00    -0.357 N 
ATOM     21  C   UNL     1       4.502  -2.365 -33.000  0.00  0.00    -0.018 A 
ATOM     22  H   UNL     1       1.969  -4.695 -35.713  0.00  0.00    +0.000 HD
ATOM     23  H   UNL     1       0.898  -5.967 -36.105  0.00  0.00    +0.000 HD
ATOM     24  H   UNL     1       2.625  -5.582 -31.138  0.00  0.00    +0.000 HD
ATOM     25  H   UNL     1       3.428  -4.208 -34.334  0.00  0.00    +0.000 HD
ATOM     26  H   UNL     1       6.214   0.363 -32.212  0.00  0.00    +0.000 HD
ATOM     27  H   UNL     1       5.777  -0.217 -33.755  0.00  0.00    +0.000 HD
ENDROOT
TORSDOF 0
ENDMDL
MODEL 3
REMARK VINA RESULT:    -6.821     11.950     13.964
REMARK INTER + INTRA:          -6.821
REMARK INTER:                  -6.821
REMARK INTRA:                   0.000
REMARK UNBOUND:                 0.000
REMARK  Name = /home/vital/Documents/PhD_2021/Malaria_codes/scripts/../data/pdbqt_ligands/ligand_127_temp.pdb
REMARK                            x       y       z     vdW  Elec       q    Type
REMARK                         _______ _______ _______ _____ _____    ______ ____
ROOT
ATOM      1  C   UNL     1       1.022   3.155 -17.598  0.00  0.00    -0.047 C 
ATOM      2  C   UNL     1      -0.128   3.851 -18.252  0.00  0.00    -0.090 C 
ATOM      3  C   UNL     1      -0.192   5.132 -18.652  0.00  0.00    -0.074 C 
ATOM      4  C   UNL     1       0.885   6.176 -18.574  0.00  0.00    +0.015 C 
ATOM      5  N   UNL     1       0.476   7.187 -17.609  0.00  0.00    -0.300 N 
ATOM      6  C   UNL     1       1.528   8.100 -17.171  0.00  0.00    +0.086 C 
ATOM      7  C   UNL     1       2.259   8.970 -18.269  0.00  0.00    -0.045 C 
ATOM      8  C   UNL     1       3.160   8.441 -19.175  0.00  0.00    -0.058 C 
ATOM      9  C   UNL     1       4.205   8.619 -18.046  0.00  0.00    +0.075 C 
ATOM     10  C   UNL     1       3.410   9.945 -17.839  0.00  0.00    -0.004 C 
ATOM     11  N   UNL     1       4.015   7.625 -16.947  0.00  0.00    -0.264 N 
ATOM     12  C   UNL     1       2.793   7.363 -16.533  0.00  0.00    +0.116 C 
ATOM     13  N   UNL     1       2.489   6.458 -15.528  0.00  0.00    -0.302 N 
ATOM     14  C   UNL     1       3.332   5.634 -14.759  0.00  0.00    +0.034 A 
ATOM     15  C   UNL     1       4.726   5.718 -14.758  0.00  0.00    -0.039 A 
ATOM     16  C   UNL     1       5.501   4.879 -13.950  0.00  0.00    -0.040 A 
ATOM     17  C   UNL     1       4.888   3.926 -13.141  0.00  0.00    +0.062 A 
ATOM     18 CL   UNL     1       5.881   2.918 -12.148  0.00  0.00    -0.082 Cl
ATOM     19  C   UNL     1       3.494   3.768 -13.157  0.00  0.00    +0.045 A 
ATOM     20  N   UNL     1       2.832   2.901 -12.268  0.00  0.00    -0.357 N 
ATOM     21  C   UNL     1       2.736   4.657 -13.936  0.00  0.00    -0.018 A 
ATOM     22  H   UNL     1       0.113   6.707 -16.785  0.00  0.00    +0.000 HD
ATOM     23  H   UNL     1      -0.216   7.766 -18.086  0.00  0.00    +0.000 HD
ATOM     24  H   UNL     1       4.790   7.175 -16.539  0.00  0.00    +0.000 HD
ATOM     25  H   UNL     1       1.530   6.378 -15.319  0.00  0.00    +0.000 HD
ATOM     26  H   UNL     1       3.351   2.272 -11.716  0.00  0.00    +0.000 HD
ATOM     27  H   UNL     1       1.850   2.923 -12.198  0.00  0.00    +0.000 HD
ENDROOT
TORSDOF 0
ENDMDL
MODEL 4
REMARK VINA RESULT:    -6.464      3.444      6.516
REMARK INTER + INTRA:          -6.464
REMARK INTER:                  -6.464
REMARK INTRA:                   0.000
REMARK UNBOUND:                 0.000
REMARK  Name = /home/vital/Documents/PhD_2021/Malaria_codes/scripts/../data/pdbqt_ligands/ligand_127_temp.pdb
REMARK                            x       y       z     vdW  Elec       q    Type
REMARK                         _______ _______ _______ _____ _____    ______ ____
ROOT
ATOM      1  C   UNL     1       6.368  -2.088 -28.046  0.00  0.00    -0.047 C 
ATOM      2  C   UNL     1       5.792  -3.438 -28.330  0.00  0.00    -0.090 C 
ATOM      3  C   UNL     1       5.332  -4.337 -27.443  0.00  0.00    -0.074 C 
ATOM      4  C   UNL     1       5.250  -4.198 -25.950  0.00  0.00    +0.015 C 
ATOM      5  N   UNL     1       6.195  -5.130 -25.349  0.00  0.00    -0.300 N 
ATOM      6  C   UNL     1       6.481  -4.911 -23.934  0.00  0.00    +0.086 C 
ATOM      7  C   UNL     1       5.273  -4.967 -22.917  0.00  0.00    -0.045 C 
ATOM      8  C   UNL     1       4.315  -3.974 -22.828  0.00  0.00    -0.058 C 
ATOM      9  C   UNL     1       5.327  -3.256 -21.903  0.00  0.00    +0.075 C 
ATOM     10  C   UNL     1       5.538  -4.714 -21.392  0.00  0.00    -0.004 C 
ATOM     11  N   UNL     1       6.490  -2.710 -22.664  0.00  0.00    -0.264 N 
ATOM     12  C   UNL     1       7.033  -3.448 -23.609  0.00  0.00    +0.116 C 
ATOM     13  N   UNL     1       8.108  -3.050 -24.387  0.00  0.00    -0.302 N 
ATOM     14  C   UNL     1       8.836  -1.845 -24.387  0.00  0.00    +0.034 A 
ATOM     15  C   UNL     1       8.699  -0.844 -23.423  0.00  0.00    -0.039 A 
ATOM     16  C   UNL     1       9.472   0.321 -23.473  0.00  0.00    -0.040 A 
ATOM     17  C   UNL     1      10.385   0.509 -24.508  0.00  0.00    +0.062 A 
ATOM     18 CL   UNL     1      11.330   1.956 -24.527  0.00  0.00    -0.082 Cl
ATOM     19  C   UNL     1      10.512  -0.444 -25.529  0.00  0.00    +0.045 A 
ATOM     20  N   UNL     1      11.505  -0.347 -26.521  0.00  0.00    -0.357 N 
ATOM     21  C   UNL     1       9.764  -1.628 -25.427  0.00  0.00    -0.018 A 
ATOM     22  H   UNL     1       7.074  -5.060 -25.862  0.00  0.00    +0.000 HD
ATOM     23  H   UNL     1       5.757  -6.049 -25.407  0.00  0.00    +0.000 HD
ATOM     24  H   UNL     1       6.845  -1.813 -22.463  0.00  0.00    +0.000 HD
ATOM     25  H   UNL     1       8.413  -3.716 -25.045  0.00  0.00    +0.000 HD
ATOM     26  H   UNL     1      12.038   0.477 -26.605  0.00  0.00    +0.000 HD
ATOM     27  H   UNL     1      11.668  -1.102 -27.131  0.00  0.00    +0.000 HD
ENDROOT
TORSDOF 0
ENDMDL
MODEL 5
REMARK VINA RESULT:    -6.459      3.718      5.984
REMARK INTER + INTRA:          -6.459
REMARK INTER:                  -6.459
REMARK INTRA:                   0.000
REMARK UNBOUND:                 0.000
REMARK  Name = /home/vital/Documents/PhD_2021/Malaria_codes/scripts/../data/pdbqt_ligands/ligand_127_temp.pdb
REMARK                            x       y       z     vdW  Elec       q    Type
REMARK                         _______ _______ _______ _____ _____    ______ ____
ROOT
ATOM      1  C   UNL     1       6.101   0.033 -29.220  0.00  0.00    -0.047 C 
ATOM      2  C   UNL     1       6.387   0.397 -30.641  0.00  0.00    -0.090 C 
ATOM      3  C   UNL     1       5.955  -0.227 -31.751  0.00  0.00    -0.074 C 
ATOM      4  C   UNL     1       5.051  -1.423 -31.842  0.00  0.00    +0.015 C 
ATOM      5  N   UNL     1       5.824  -2.545 -32.355  0.00  0.00    -0.300 N 
ATOM      6  C   UNL     1       5.201  -3.857 -32.211  0.00  0.00    +0.086 C 
ATOM      7  C   UNL     1       3.794  -4.089 -32.893  0.00  0.00    -0.045 C 
ATOM      8  C   UNL     1       2.623  -3.531 -32.413  0.00  0.00    -0.058 C 
ATOM      9  C   UNL     1       2.586  -4.745 -31.455  0.00  0.00    +0.075 C 
ATOM     10  C   UNL     1       3.083  -5.478 -32.739  0.00  0.00    -0.004 C 
ATOM     11  N   UNL     1       3.620  -4.643 -30.382  0.00  0.00    -0.264 N 
ATOM     12  C   UNL     1       4.828  -4.228 -30.703  0.00  0.00    +0.116 C 
ATOM     13  N   UNL     1       5.868  -4.084 -29.798  0.00  0.00    -0.302 N 
ATOM     14  C   UNL     1       5.904  -4.307 -28.409  0.00  0.00    +0.034 A 
ATOM     15  C   UNL     1       4.876  -4.916 -27.683  0.00  0.00    -0.039 A 
ATOM     16  C   UNL     1       4.989  -5.126 -26.305  0.00  0.00    -0.040 A 
ATOM     17  C   UNL     1       6.132  -4.709 -25.626  0.00  0.00    +0.062 A 
ATOM     18 CL   UNL     1       6.238  -4.998 -23.925  0.00  0.00    -0.082 Cl
ATOM     19  C   UNL     1       7.160  -4.041 -26.306  0.00  0.00    +0.045 A 
ATOM     20  N   UNL     1       8.378  -3.713 -25.679  0.00  0.00    -0.357 N 
ATOM     21  C   UNL     1       7.047  -3.890 -27.697  0.00  0.00    -0.018 A 
ATOM     22  H   UNL     1       6.716  -2.565 -31.861  0.00  0.00    +0.000 HD
ATOM     23  H   UNL     1       5.914  -2.387 -33.359  0.00  0.00    +0.000 HD
ATOM     24  H   UNL     1       3.403  -4.880 -29.451  0.00  0.00    +0.000 HD
ATOM     25  H   UNL     1       6.717  -3.777 -30.189  0.00  0.00    +0.000 HD
ATOM     26  H   UNL     1       8.473  -3.813 -24.705  0.00  0.00    +0.000 HD
ATOM     27  H   UNL     1       9.135  -3.383 -26.216  0.00  0.00    +0.000 HD
ENDROOT
TORSDOF 0
ENDMDL
MODEL 6
REMARK VINA RESULT:    -6.457      8.912     12.627
REMARK INTER + INTRA:          -6.457
REMARK INTER:                  -6.457
REMARK INTRA:                   0.000
REMARK UNBOUND:                 0.000
REMARK  Name = /home/vital/Documents/PhD_2021/Malaria_codes/scripts/../data/pdbqt_ligands/ligand_127_temp.pdb
REMARK                            x       y       z     vdW  Elec       q    Type
REMARK                         _______ _______ _______ _____ _____    ______ ____
ROOT
ATOM      1  C   UNL     1       0.023   4.106 -17.597  0.00  0.00    -0.047 C 
ATOM      2  C   UNL     1      -0.605   4.891 -16.491  0.00  0.00    -0.090 C 
ATOM      3  C   UNL     1      -0.026   5.319 -15.356  0.00  0.00    -0.074 C 
ATOM      4  C   UNL     1       1.404   5.145 -14.931  0.00  0.00    +0.015 C 
ATOM      5  N   UNL     1       1.436   4.248 -13.784  0.00  0.00    -0.300 N 
ATOM      6  C   UNL     1       2.752   3.717 -13.439  0.00  0.00    +0.086 C 
ATOM      7  C   UNL     1       3.896   4.746 -13.082  0.00  0.00    -0.045 C 
ATOM      8  C   UNL     1       4.518   5.541 -14.029  0.00  0.00    -0.058 C 
ATOM      9  C   UNL     1       5.423   4.311 -14.283  0.00  0.00    +0.075 C 
ATOM     10  C   UNL     1       5.328   4.213 -12.729  0.00  0.00    -0.004 C 
ATOM     11  N   UNL     1       4.696   3.221 -14.999  0.00  0.00    -0.264 N 
ATOM     12  C   UNL     1       3.463   2.935 -14.635  0.00  0.00    +0.116 C 
ATOM     13  N   UNL     1       2.685   1.952 -15.227  0.00  0.00    -0.302 N 
ATOM     14  C   UNL     1       2.973   1.082 -16.296  0.00  0.00    +0.034 A 
ATOM     15  C   UNL     1       4.238   0.934 -16.870  0.00  0.00    -0.039 A 
ATOM     16  C   UNL     1       4.457   0.034 -17.918  0.00  0.00    -0.040 A 
ATOM     17  C   UNL     1       3.401  -0.722 -18.421  0.00  0.00    +0.062 A 
ATOM     18 CL   UNL     1       3.715  -1.833 -19.707  0.00  0.00    -0.082 Cl
ATOM     19  C   UNL     1       2.103  -0.561 -17.914  0.00  0.00    +0.045 A 
ATOM     20  N   UNL     1       1.038  -1.390 -18.313  0.00  0.00    -0.357 N 
ATOM     21  C   UNL     1       1.920   0.310 -16.828  0.00  0.00    -0.018 A 
ATOM     22  H   UNL     1       0.822   3.459 -13.985  0.00  0.00    +0.000 HD
ATOM     23  H   UNL     1       1.141   4.806 -12.983  0.00  0.00    +0.000 HD
ATOM     24  H   UNL     1       5.130   2.725 -15.731  0.00  0.00    +0.000 HD
ATOM     25  H   UNL     1       1.787   1.845 -14.838  0.00  0.00    +0.000 HD
ATOM     26  H   UNL     1       1.151  -2.005 -19.073  0.00  0.00    +0.000 HD
ATOM     27  H   UNL     1       0.179  -1.354 -17.832  0.00  0.00    +0.000 HD
ENDROOT
TORSDOF 0
ENDMDL
MODEL 7
REMARK VINA RESULT:    -6.449      8.327     11.133
REMARK INTER + INTRA:          -6.449
REMARK INTER:                  -6.449
REMARK INTRA:                   0.000
REMARK UNBOUND:                 0.000
REMARK  Name = /home/vital/Documents/PhD_2021/Malaria_codes/scripts/../data/pdbqt_ligands/ligand_127_temp.pdb
REMARK                            x       y       z     vdW  Elec       q    Type
REMARK                         _______ _______ _______ _____ _____    ______ ____
ROOT
ATOM      1  C   UNL     1      -3.214   1.545 -21.403  0.00  0.00    -0.047 C 
ATOM      2  C   UNL     1      -2.678   1.158 -20.063  0.00  0.00    -0.090 C 
ATOM      3  C   UNL     1      -2.216  -0.044 -19.679  0.00  0.00    -0.074 C 
ATOM      4  C   UNL     1      -2.092  -1.290 -20.509  0.00  0.00    +0.015 C 
ATOM      5  N   UNL     1      -3.042  -2.273 -20.007  0.00  0.00    -0.300 N 
ATOM      6  C   UNL     1      -3.284  -3.416 -20.882  0.00  0.00    +0.086 C 
ATOM      7  C   UNL     1      -2.052  -4.323 -21.277  0.00  0.00    -0.045 C 
ATOM      8  C   UNL     1      -1.068  -3.915 -22.160  0.00  0.00    -0.058 C 
ATOM      9  C   UNL     1      -2.037  -4.399 -23.265  0.00  0.00    +0.075 C 
ATOM     10  C   UNL     1      -2.270  -5.546 -22.234  0.00  0.00    -0.004 C 
ATOM     11  N   UNL     1      -3.207  -3.484 -23.422  0.00  0.00    -0.264 N 
ATOM     12  C   UNL     1      -3.792  -3.012 -22.341  0.00  0.00    +0.116 C 
ATOM     13  N   UNL     1      -4.879  -2.151 -22.358  0.00  0.00    -0.302 N 
ATOM     14  C   UNL     1      -5.577  -1.586 -23.441  0.00  0.00    +0.034 A 
ATOM     15  C   UNL     1      -5.391  -1.955 -24.775  0.00  0.00    -0.039 A 
ATOM     16  C   UNL     1      -6.137  -1.365 -25.801  0.00  0.00    -0.040 A 
ATOM     17  C   UNL     1      -7.073  -0.377 -25.504  0.00  0.00    +0.062 A 
ATOM     18 CL   UNL     1      -7.984   0.318 -26.799  0.00  0.00    -0.082 Cl
ATOM     19  C   UNL     1      -7.249   0.065 -24.185  0.00  0.00    +0.045 A 
ATOM     20  N   UNL     1      -8.267   0.972 -23.832  0.00  0.00    -0.357 N 
ATOM     21  C   UNL     1      -6.527  -0.580 -23.168  0.00  0.00    -0.018 A 
ATOM     22  H   UNL     1      -3.932  -1.800 -19.854  0.00  0.00    +0.000 HD
ATOM     23  H   UNL     1      -2.627  -2.654 -19.157  0.00  0.00    +0.000 HD
ATOM     24  H   UNL     1      -3.535  -3.238 -24.318  0.00  0.00    +0.000 HD
ATOM     25  H   UNL     1      -5.216  -1.894 -21.469  0.00  0.00    +0.000 HD
ATOM     26  H   UNL     1      -8.781   1.431 -24.534  0.00  0.00    +0.000 HD
ATOM     27  H   UNL     1      -8.463   1.146 -22.883  0.00  0.00    +0.000 HD
ENDROOT
TORSDOF 0
ENDMDL
MODEL 8
REMARK VINA RESULT:    -6.364     11.058     13.360
REMARK INTER + INTRA:          -6.364
REMARK INTER:                  -6.364
REMARK INTRA:                   0.000
REMARK UNBOUND:                 0.000
REMARK  Name = /home/vital/Documents/PhD_2021/Malaria_codes/scripts/../data/pdbqt_ligands/ligand_127_temp.pdb
REMARK                            x       y       z     vdW  Elec       q    Type
REMARK                         _______ _______ _______ _____ _____    ______ ____
ROOT
ATOM      1  C   UNL     1       1.856   8.052 -19.132  0.00  0.00    -0.047 C 
ATOM      2  C   UNL     1       2.360   8.889 -18.000  0.00  0.00    -0.090 C 
ATOM      3  C   UNL     1       2.826   8.469 -16.812  0.00  0.00    -0.074 C 
ATOM      4  C   UNL     1       2.988   7.055 -16.335  0.00  0.00    +0.015 C 
ATOM      5  N   UNL     1       2.036   6.821 -15.257  0.00  0.00    -0.300 N 
ATOM      6  C   UNL     1       1.831   5.423 -14.891  0.00  0.00    +0.086 C 
ATOM      7  C   UNL     1       3.085   4.591 -14.408  0.00  0.00    -0.045 C 
ATOM      8  C   UNL     1       4.087   4.172 -15.264  0.00  0.00    -0.058 C 
ATOM      9  C   UNL     1       3.154   2.974 -15.566  0.00  0.00    +0.075 C 
ATOM     10  C   UNL     1       2.907   3.080 -14.029  0.00  0.00    -0.004 C 
ATOM     11  N   UNL     1       1.978   3.377 -16.393  0.00  0.00    -0.264 N 
ATOM     12  C   UNL     1       1.358   4.503 -16.108  0.00  0.00    +0.116 C 
ATOM     13  N   UNL     1       0.262   4.986 -16.806  0.00  0.00    -0.302 N 
ATOM     14  C   UNL     1      -0.414   4.457 -17.922  0.00  0.00    +0.034 A 
ATOM     15  C   UNL     1      -0.186   3.182 -18.446  0.00  0.00    -0.039 A 
ATOM     16  C   UNL     1      -0.911   2.712 -19.546  0.00  0.00    -0.040 A 
ATOM     17  C   UNL     1      -1.867   3.524 -20.152  0.00  0.00    +0.062 A 
ATOM     18 CL   UNL     1      -2.750   2.901 -21.501  0.00  0.00    -0.082 Cl
ATOM     19  C   UNL     1      -2.084   4.832 -19.694  0.00  0.00    +0.045 A 
ATOM     20  N   UNL     1      -3.121   5.637 -20.202  0.00  0.00    -0.357 N 
ATOM     21  C   UNL     1      -1.382   5.261 -18.557  0.00  0.00    -0.018 A 
ATOM     22  H   UNL     1       1.136   7.206 -15.544  0.00  0.00    +0.000 HD
ATOM     23  H   UNL     1       2.432   7.271 -14.432  0.00  0.00    +0.000 HD
ATOM     24  H   UNL     1       1.671   2.811 -17.138  0.00  0.00    +0.000 HD
ATOM     25  H   UNL     1      -0.102   5.836 -16.468  0.00  0.00    +0.000 HD
ATOM     26  H   UNL     1      -3.622   5.349 -20.999  0.00  0.00    +0.000 HD
ATOM     27  H   UNL     1      -3.346   6.488 -19.760  0.00  0.00    +0.000 HD
ENDROOT
TORSDOF 0
ENDMDL
MODEL 9
REMARK VINA RESULT:    -6.114      7.829     11.339
REMARK INTER + INTRA:          -6.114
REMARK INTER:                  -6.114
REMARK INTRA:                   0.000
REMARK UNBOUND:                 0.000
REMARK  Name = /home/vital/Documents/PhD_2021/Malaria_codes/scripts/../data/pdbqt_ligands/ligand_127_temp.pdb
REMARK                            x       y       z     vdW  Elec       q    Type
REMARK                         _______ _______ _______ _____ _____    ______ ____
ROOT
ATOM      1  C   UNL     1      -5.397  -1.000 -26.259  0.00  0.00    -0.047 C 
ATOM      2  C   UNL     1      -6.639  -0.402 -25.681  0.00  0.00    -0.090 C 
ATOM      3  C   UNL     1      -6.864  -0.051 -24.403  0.00  0.00    -0.074 C 
ATOM      4  C   UNL     1      -5.914  -0.141 -23.243  0.00  0.00    +0.015 C 
ATOM      5  N   UNL     1      -6.409  -1.152 -22.320  0.00  0.00    -0.300 N 
ATOM      6  C   UNL     1      -5.459  -1.598 -21.306  0.00  0.00    +0.086 C 
ATOM      7  C   UNL     1      -4.866  -0.516 -20.319  0.00  0.00    -0.045 C 
ATOM      8  C   UNL     1      -3.936   0.431 -20.708  0.00  0.00    -0.058 C 
ATOM      9  C   UNL     1      -2.887  -0.677 -20.447  0.00  0.00    +0.075 C 
ATOM     10  C   UNL     1      -3.825  -0.953 -19.231  0.00  0.00    -0.004 C 
ATOM     11  N   UNL     1      -2.928  -1.743 -21.492  0.00  0.00    -0.264 N 
ATOM     12  C   UNL     1      -4.098  -2.177 -21.910  0.00  0.00    +0.116 C 
ATOM     13  N   UNL     1      -4.265  -3.154 -22.879  0.00  0.00    -0.302 N 
ATOM     14  C   UNL     1      -3.311  -3.871 -23.624  0.00  0.00    +0.034 A 
ATOM     15  C   UNL     1      -1.936  -3.841 -23.377  0.00  0.00    -0.039 A 
ATOM     16  C   UNL     1      -1.046  -4.597 -24.145  0.00  0.00    -0.040 A 
ATOM     17  C   UNL     1      -1.520  -5.385 -25.191  0.00  0.00    +0.062 A 
ATOM     18 CL   UNL     1      -0.388  -6.315 -26.109  0.00  0.00    -0.082 Cl
ATOM     19  C   UNL     1      -2.885  -5.398 -25.511  0.00  0.00    +0.045 A 
ATOM     20  N   UNL     1      -3.417  -6.271 -26.480  0.00  0.00    -0.357 N 
ATOM     21  C   UNL     1      -3.765  -4.672 -24.692  0.00  0.00    -0.018 A 
ATOM     22  H   UNL     1      -6.690  -1.967 -22.867  0.00  0.00    +0.000 HD
ATOM     23  H   UNL     1      -7.177  -0.715 -21.811  0.00  0.00    +0.000 HD
ATOM     24  H   UNL     1      -2.094  -2.114 -21.863  0.00  0.00    +0.000 HD
ATOM     25  H   UNL     1      -5.202  -3.384 -23.077  0.00  0.00    +0.000 HD
ATOM     26  H   UNL     1      -2.812  -6.786 -27.062  0.00  0.00    +0.000 HD
ATOM     27  H   UNL     1      -4.392  -6.365 -26.575  0.00  0.00    +0.000 HD
ENDROOT
TORSDOF 0
ENDMDL
