MODEL 1
REMARK VINA RESULT:    -4.390      0.000      0.000
REMARK INTER + INTRA:          -4.390
REMARK INTER:                  -4.390
REMARK INTRA:                   0.000
REMARK UNBOUND:                 0.000
REMARK  Name = /home/vital/Documents/PhD_2021/Malaria_codes/scripts/../data/pdbqt_ligands/ligand_71_temp.pdb
REMARK                            x       y       z     vdW  Elec       q    Type
REMARK                         _______ _______ _______ _____ _____    ______ ____
ROOT
ATOM      1  C   UNL     1       1.676   3.732 -13.666  0.00  0.00    -0.079 C 
ATOM      2  C   UNL     1       1.922   3.293 -14.910  0.00  0.00    +0.054 C 
ATOM      3 CL   UNL     1       0.923   3.914 -16.193  0.00  0.00    -0.083 Cl
ATOM      4  C   UNL     1       2.989   2.364 -15.256  0.00  0.00    +0.076 C 
ATOM      5 CL   UNL     1       4.532   2.598 -14.470  0.00  0.00    -0.080 Cl
ATOM      6  C   UNL     1       2.894   1.353 -16.138  0.00  0.00    +0.045 C 
ATOM      7  N   UNL     1       1.819   0.928 -16.890  0.00  0.00    -0.272 N 
ATOM      8  O   UNL     1       2.097   0.216 -18.056  0.00  0.00    -0.274 OA
ATOM      9  C   UNL     1       1.207  -0.904 -18.078  0.00  0.00    +0.075 C 
ATOM     10  C   UNL     1       1.497  -1.748 -19.316  0.00  0.00    -0.026 C 
ATOM     11  C   UNL     1       2.911  -2.346 -19.284  0.00  0.00    -0.033 C 
ATOM     12  C   UNL     1       3.192  -3.291 -20.470  0.00  0.00    +0.033 C 
ATOM     13  C   UNL     1       4.558  -3.985 -20.294  0.00  0.00    -0.034 C 
ATOM     14  C   UNL     1       4.871  -5.037 -21.373  0.00  0.00    -0.039 C 
ATOM     15  C   UNL     1       5.371  -4.457 -22.706  0.00  0.00    -0.004 C 
ATOM     16  N   UNL     1       4.597  -4.897 -23.876  0.00  0.00    -0.314 N 
ATOM     17  C   UNL     1       3.494  -3.969 -24.214  0.00  0.00    +0.021 C 
ATOM     18  C   UNL     1       2.243  -4.064 -23.323  0.00  0.00    +0.082 C 
ATOM     19  O   UNL     1       2.000  -2.934 -22.466  0.00  0.00    -0.298 OA
ATOM     20  N   UNL     1       3.211  -2.571 -21.747  0.00  0.00    -0.198 NA
ATOM     21  H   UNL     1       0.894   1.121 -16.615  0.00  0.00    +0.000 HD
ATOM     22  H   UNL     1       4.200  -5.815 -23.678  0.00  0.00    +0.000 HD
ATOM     23  H   UNL     1       5.233  -4.923 -24.673  0.00  0.00    +0.000 HD
ATOM     24  H   UNL     1       4.032  -2.842 -22.287  0.00  0.00    +0.000 HD
ENDROOT
TORSDOF 0
ENDMDL
MODEL 2
REMARK VINA RESULT:    -4.292      3.864      9.445
REMARK INTER + INTRA:          -4.292
REMARK INTER:                  -4.292
REMARK INTRA:                   0.000
REMARK UNBOUND:                 0.000
REMARK  Name = /home/vital/Documents/PhD_2021/Malaria_codes/scripts/../data/pdbqt_ligands/ligand_71_temp.pdb
REMARK                            x       y       z     vdW  Elec       q    Type
REMARK                         _______ _______ _______ _____ _____    ______ ____
ROOT
ATOM      1  C   UNL     1       4.953  -4.789 -22.076  0.00  0.00    -0.079 C 
ATOM      2  C   UNL     1       4.988  -4.090 -20.931  0.00  0.00    +0.054 C 
ATOM      3 CL   UNL     1       4.425  -4.884 -19.487  0.00  0.00    -0.083 Cl
ATOM      4  C   UNL     1       5.496  -2.730 -20.815  0.00  0.00    +0.076 C 
ATOM      5 CL   UNL     1       6.951  -2.348 -21.705  0.00  0.00    -0.080 Cl
ATOM      6  C   UNL     1       4.953  -1.749 -20.072  0.00  0.00    +0.045 C 
ATOM      7  N   UNL     1       3.820  -1.754 -19.286  0.00  0.00    -0.272 N 
ATOM      8  O   UNL     1       3.752  -0.815 -18.258  0.00  0.00    -0.274 OA
ATOM      9  C   UNL     1       2.439  -0.248 -18.303  0.00  0.00    +0.075 C 
ATOM     10  C   UNL     1       2.322   0.825 -17.222  0.00  0.00    -0.026 C 
ATOM     11  C   UNL     1       3.285   1.994 -17.467  0.00  0.00    -0.033 C 
ATOM     12  C   UNL     1       3.111   3.141 -16.451  0.00  0.00    +0.033 C 
ATOM     13  C   UNL     1       3.983   4.349 -16.847  0.00  0.00    -0.034 C 
ATOM     14  C   UNL     1       3.784   5.587 -15.953  0.00  0.00    -0.039 C 
ATOM     15  C   UNL     1       4.525   5.530 -14.608  0.00  0.00    -0.004 C 
ATOM     16  N   UNL     1       3.659   5.746 -13.440  0.00  0.00    -0.314 N 
ATOM     17  C   UNL     1       3.131   4.482 -12.877  0.00  0.00    +0.021 C 
ATOM     18  C   UNL     1       1.966   3.841 -13.651  0.00  0.00    +0.082 C 
ATOM     19  O   UNL     1       2.268   2.604 -14.322  0.00  0.00    -0.298 OA
ATOM     20  N   UNL     1       3.492   2.731 -15.097  0.00  0.00    -0.198 NA
ATOM     21  H   UNL     1       3.090  -2.395 -19.444  0.00  0.00    +0.000 HD
ATOM     22  H   UNL     1       2.871   6.330 -13.721  0.00  0.00    +0.000 HD
ATOM     23  H   UNL     1       4.223   6.193 -12.718  0.00  0.00    +0.000 HD
ATOM     24  H   UNL     1       4.099   3.435 -14.678  0.00  0.00    +0.000 HD
ENDROOT
TORSDOF 0
ENDMDL
MODEL 3
REMARK VINA RESULT:    -4.090      8.284     11.110
REMARK INTER + INTRA:          -4.090
REMARK INTER:                  -4.090
REMARK INTRA:                   0.000
REMARK UNBOUND:                 0.000
REMARK  Name = /home/vital/Documents/PhD_2021/Malaria_codes/scripts/../data/pdbqt_ligands/ligand_71_temp.pdb
REMARK                            x       y       z     vdW  Elec       q    Type
REMARK                         _______ _______ _______ _____ _____    ______ ____
ROOT
ATOM      1  C   UNL     1      12.650   2.997 -30.182  0.00  0.00    -0.079 C 
ATOM      2  C   UNL     1      11.614   2.669 -29.394  0.00  0.00    +0.054 C 
ATOM      3 CL   UNL     1      11.107   3.836 -28.206  0.00  0.00    -0.083 Cl
ATOM      4  C   UNL     1      10.870   1.420 -29.495  0.00  0.00    +0.076 C 
ATOM      5 CL   UNL     1      10.509   0.839 -31.102  0.00  0.00    -0.080 Cl
ATOM      6  C   UNL     1      10.425   0.686 -28.459  0.00  0.00    +0.045 C 
ATOM      7  N   UNL     1      10.566   0.888 -27.103  0.00  0.00    -0.272 N 
ATOM      8  O   UNL     1       9.621   0.292 -26.267  0.00  0.00    -0.274 OA
ATOM      9  C   UNL     1      10.344  -0.304 -25.186  0.00  0.00    +0.075 C 
ATOM     10  C   UNL     1       9.359  -1.013 -24.259  0.00  0.00    -0.026 C 
ATOM     11  C   UNL     1       8.639  -2.171 -24.963  0.00  0.00    -0.033 C 
ATOM     12  C   UNL     1       7.720  -2.972 -24.019  0.00  0.00    +0.033 C 
ATOM     13  C   UNL     1       7.159  -4.215 -24.738  0.00  0.00    -0.034 C 
ATOM     14  C   UNL     1       6.322  -5.139 -23.836  0.00  0.00    -0.039 C 
ATOM     15  C   UNL     1       4.880  -4.664 -23.596  0.00  0.00    -0.004 C 
ATOM     16  N   UNL     1       4.518  -4.552 -22.175  0.00  0.00    -0.314 N 
ATOM     17  C   UNL     1       4.751  -3.196 -21.630  0.00  0.00    +0.021 C 
ATOM     18  C   UNL     1       6.215  -2.849 -21.306  0.00  0.00    +0.082 C 
ATOM     19  O   UNL     1       6.822  -1.857 -22.152  0.00  0.00    -0.298 OA
ATOM     20  N   UNL     1       6.586  -2.168 -23.553  0.00  0.00    -0.198 NA
ATOM     21  H   UNL     1      11.303   1.430 -26.739  0.00  0.00    +0.000 HD
ATOM     22  H   UNL     1       5.077  -5.218 -21.642  0.00  0.00    +0.000 HD
ATOM     23  H   UNL     1       3.520  -4.748 -22.097  0.00  0.00    +0.000 HD
ATOM     24  H   UNL     1       5.720  -2.697 -23.651  0.00  0.00    +0.000 HD
ENDROOT
TORSDOF 0
ENDMDL
MODEL 4
REMARK VINA RESULT:    -4.077      8.881     12.068
REMARK INTER + INTRA:          -4.077
REMARK INTER:                  -4.077
REMARK INTRA:                   0.000
REMARK UNBOUND:                 0.000
REMARK  Name = /home/vital/Documents/PhD_2021/Malaria_codes/scripts/../data/pdbqt_ligands/ligand_71_temp.pdb
REMARK                            x       y       z     vdW  Elec       q    Type
REMARK                         _______ _______ _______ _____ _____    ______ ____
ROOT
ATOM      1  C   UNL     1      -2.129  -4.511 -21.579  0.00  0.00    -0.079 C 
ATOM      2  C   UNL     1      -2.138  -5.287 -22.674  0.00  0.00    +0.054 C 
ATOM      3 CL   UNL     1      -1.511  -6.903 -22.520  0.00  0.00    -0.083 Cl
ATOM      4  C   UNL     1      -2.669  -4.875 -23.967  0.00  0.00    +0.076 C 
ATOM      5 CL   UNL     1      -4.161  -3.965 -23.958  0.00  0.00    -0.080 Cl
ATOM      6  C   UNL     1      -2.120  -5.147 -25.164  0.00  0.00    +0.045 C 
ATOM      7  N   UNL     1      -0.962  -5.825 -25.476  0.00  0.00    -0.272 N 
ATOM      8  O   UNL     1      -0.877  -6.394 -26.747  0.00  0.00    -0.274 OA
ATOM      9  C   UNL     1       0.422  -6.077 -27.255  0.00  0.00    +0.075 C 
ATOM     10  C   UNL     1       0.555  -6.639 -28.669  0.00  0.00    -0.026 C 
ATOM     11  C   UNL     1      -0.439  -5.990 -29.641  0.00  0.00    -0.033 C 
ATOM     12  C   UNL     1      -0.253  -6.461 -31.097  0.00  0.00    +0.033 C 
ATOM     13  C   UNL     1      -1.162  -5.654 -32.046  0.00  0.00    -0.034 C 
ATOM     14  C   UNL     1      -0.957  -5.976 -33.537  0.00  0.00    -0.039 C 
ATOM     15  C   UNL     1      -1.650  -7.262 -34.014  0.00  0.00    -0.004 C 
ATOM     16  N   UNL     1      -0.749  -8.214 -34.679  0.00  0.00    -0.314 N 
ATOM     17  C   UNL     1      -0.177  -9.210 -33.744  0.00  0.00    +0.021 C 
ATOM     18  C   UNL     1       0.974  -8.707 -32.854  0.00  0.00    +0.082 C 
ATOM     19  O   UNL     1       0.673  -8.594 -31.452  0.00  0.00    -0.298 OA
ATOM     20  N   UNL     1      -0.579  -7.881 -31.256  0.00  0.00    -0.198 NA
ATOM     21  H   UNL     1      -0.224  -5.905 -24.828  0.00  0.00    +0.000 HD
ATOM     22  H   UNL     1       0.017  -7.694 -35.108  0.00  0.00    +0.000 HD
ATOM     23  H   UNL     1      -1.296  -8.722 -35.373  0.00  0.00    +0.000 HD
ATOM     24  H   UNL     1      -1.186  -8.011 -32.065  0.00  0.00    +0.000 HD
ENDROOT
TORSDOF 0
ENDMDL
MODEL 5
REMARK VINA RESULT:    -3.955      8.315     11.353
REMARK INTER + INTRA:          -3.955
REMARK INTER:                  -3.955
REMARK INTRA:                   0.000
REMARK UNBOUND:                 0.000
REMARK  Name = /home/vital/Documents/PhD_2021/Malaria_codes/scripts/../data/pdbqt_ligands/ligand_71_temp.pdb
REMARK                            x       y       z     vdW  Elec       q    Type
REMARK                         _______ _______ _______ _____ _____    ______ ____
ROOT
ATOM      1  C   UNL     1      -0.770  -3.452 -21.461  0.00  0.00    -0.079 C 
ATOM      2  C   UNL     1      -0.257  -4.219 -22.435  0.00  0.00    +0.054 C 
ATOM      3 CL   UNL     1       1.423  -3.995 -22.833  0.00  0.00    -0.083 Cl
ATOM      4  C   UNL     1      -1.004  -5.244 -23.152  0.00  0.00    +0.076 C 
ATOM      5 CL   UNL     1      -2.078  -6.248 -22.207  0.00  0.00    -0.080 Cl
ATOM      6  C   UNL     1      -0.926  -5.495 -24.471  0.00  0.00    +0.045 C 
ATOM      7  N   UNL     1      -0.185  -4.871 -25.451  0.00  0.00    -0.272 N 
ATOM      8  O   UNL     1       0.104  -5.607 -26.600  0.00  0.00    -0.274 OA
ATOM      9  C   UNL     1      -0.143  -4.745 -27.715  0.00  0.00    +0.075 C 
ATOM     10  C   UNL     1       0.114  -5.516 -29.008  0.00  0.00    -0.026 C 
ATOM     11  C   UNL     1      -0.854  -6.696 -29.175  0.00  0.00    -0.033 C 
ATOM     12  C   UNL     1      -0.687  -7.425 -30.523  0.00  0.00    +0.033 C 
ATOM     13  C   UNL     1      -1.791  -8.487 -30.703  0.00  0.00    -0.034 C 
ATOM     14  C   UNL     1      -1.773  -9.185 -32.074  0.00  0.00    -0.039 C 
ATOM     15  C   UNL     1      -0.723 -10.299 -32.211  0.00  0.00    -0.004 C 
ATOM     16  N   UNL     1       0.174 -10.134 -33.364  0.00  0.00    -0.314 N 
ATOM     17  C   UNL     1       1.413  -9.399 -33.026  0.00  0.00    +0.021 C 
ATOM     18  C   UNL     1       1.270  -7.873 -32.892  0.00  0.00    +0.082 C 
ATOM     19  O   UNL     1       1.422  -7.347 -31.561  0.00  0.00    -0.298 OA
ATOM     20  N   UNL     1       0.610  -8.101 -30.619  0.00  0.00    -0.198 NA
ATOM     21  H   UNL     1       0.128  -3.944 -25.344  0.00  0.00    +0.000 HD
ATOM     22  H   UNL     1      -0.322  -9.619 -34.092  0.00  0.00    +0.000 HD
ATOM     23  H   UNL     1       0.444 -11.066 -33.678  0.00  0.00    +0.000 HD
ATOM     24  H   UNL     1       0.482  -9.055 -30.955  0.00  0.00    +0.000 HD
ENDROOT
TORSDOF 0
ENDMDL
MODEL 6
REMARK VINA RESULT:    -3.817      9.263     10.613
REMARK INTER + INTRA:          -3.817
REMARK INTER:                  -3.817
REMARK INTRA:                   0.000
REMARK UNBOUND:                 0.000
REMARK  Name = /home/vital/Documents/PhD_2021/Malaria_codes/scripts/../data/pdbqt_ligands/ligand_71_temp.pdb
REMARK                            x       y       z     vdW  Elec       q    Type
REMARK                         _______ _______ _______ _____ _____    ______ ____
ROOT
ATOM      1  C   UNL     1      -9.464   5.445 -25.509  0.00  0.00    -0.079 C 
ATOM      2  C   UNL     1      -8.449   4.569 -25.553  0.00  0.00    +0.054 C 
ATOM      3 CL   UNL     1      -8.067   3.859 -27.096  0.00  0.00    -0.083 Cl
ATOM      4  C   UNL     1      -7.629   4.204 -24.405  0.00  0.00    +0.076 C 
ATOM      5 CL   UNL     1      -7.160   5.494 -23.324  0.00  0.00    -0.080 Cl
ATOM      6  C   UNL     1      -7.190   2.966 -24.115  0.00  0.00    +0.045 C 
ATOM      7  N   UNL     1      -7.406   1.772 -24.769  0.00  0.00    -0.272 N 
ATOM      8  O   UNL     1      -6.468   0.759 -24.574  0.00  0.00    -0.274 OA
ATOM      9  C   UNL     1      -7.204  -0.447 -24.345  0.00  0.00    +0.075 C 
ATOM     10  C   UNL     1      -6.223  -1.587 -24.079  0.00  0.00    -0.026 C 
ATOM     11  C   UNL     1      -5.405  -1.354 -22.802  0.00  0.00    -0.033 C 
ATOM     12  C   UNL     1      -4.485  -2.541 -22.451  0.00  0.00    +0.033 C 
ATOM     13  C   UNL     1      -3.819  -2.320 -21.079  0.00  0.00    -0.034 C 
ATOM     14  C   UNL     1      -2.972  -3.510 -20.593  0.00  0.00    -0.039 C 
ATOM     15  C   UNL     1      -1.574  -3.599 -21.223  0.00  0.00    -0.004 C 
ATOM     16  N   UNL     1      -1.285  -4.897 -21.852  0.00  0.00    -0.314 N 
ATOM     17  C   UNL     1      -1.623  -4.922 -23.293  0.00  0.00    +0.021 C 
ATOM     18  C   UNL     1      -3.118  -5.069 -23.626  0.00  0.00    +0.082 C 
ATOM     19  O   UNL     1      -3.743  -3.913 -24.212  0.00  0.00    -0.298 OA
ATOM     20  N   UNL     1      -3.423  -2.718 -23.446  0.00  0.00    -0.198 NA
ATOM     21  H   UNL     1      -8.190   1.640 -25.350  0.00  0.00    +0.000 HD
ATOM     22  H   UNL     1      -1.828  -5.618 -21.377  0.00  0.00    +0.000 HD
ATOM     23  H   UNL     1      -0.282  -5.062 -21.768  0.00  0.00    +0.000 HD
ATOM     24  H   UNL     1      -2.524  -2.833 -22.980  0.00  0.00    +0.000 HD
ENDROOT
TORSDOF 0
ENDMDL
MODEL 7
REMARK VINA RESULT:    -3.768      7.887     12.464
REMARK INTER + INTRA:          -3.768
REMARK INTER:                  -3.768
REMARK INTRA:                   0.000
REMARK UNBOUND:                 0.000
REMARK  Name = /home/vital/Documents/PhD_2021/Malaria_codes/scripts/../data/pdbqt_ligands/ligand_71_temp.pdb
REMARK                            x       y       z     vdW  Elec       q    Type
REMARK                         _______ _______ _______ _____ _____    ______ ____
ROOT
ATOM      1  C   UNL     1       0.888  -8.486 -32.491  0.00  0.00    -0.079 C 
ATOM      2  C   UNL     1       0.814  -7.537 -31.546  0.00  0.00    +0.054 C 
ATOM      3 CL   UNL     1       2.158  -6.440 -31.401  0.00  0.00    -0.083 Cl
ATOM      4  C   UNL     1      -0.330  -7.347 -30.663  0.00  0.00    +0.076 C 
ATOM      5 CL   UNL     1      -1.917  -7.500 -31.377  0.00  0.00    -0.080 Cl
ATOM      6  C   UNL     1      -0.269  -7.049 -29.353  0.00  0.00    +0.045 C 
ATOM      7  N   UNL     1       0.824  -6.879 -28.531  0.00  0.00    -0.272 N 
ATOM      8  O   UNL     1       0.647  -6.106 -27.384  0.00  0.00    -0.274 OA
ATOM      9  C   UNL     1       1.273  -6.813 -26.309  0.00  0.00    +0.075 C 
ATOM     10  C   UNL     1       1.071  -6.031 -25.013  0.00  0.00    -0.026 C 
ATOM     11  C   UNL     1      -0.412  -5.927 -24.631  0.00  0.00    -0.033 C 
ATOM     12  C   UNL     1      -0.637  -5.237 -23.271  0.00  0.00    +0.033 C 
ATOM     13  C   UNL     1      -2.123  -5.312 -22.866  0.00  0.00    -0.034 C 
ATOM     14  C   UNL     1      -2.422  -4.750 -21.465  0.00  0.00    -0.039 C 
ATOM     15  C   UNL     1      -2.512  -3.218 -21.396  0.00  0.00    -0.004 C 
ATOM     16  N   UNL     1      -1.625  -2.612 -20.392  0.00  0.00    -0.314 N 
ATOM     17  C   UNL     1      -0.309  -2.224 -20.949  0.00  0.00    +0.021 C 
ATOM     18  C   UNL     1       0.689  -3.375 -21.169  0.00  0.00    +0.082 C 
ATOM     19  O   UNL     1       0.981  -3.692 -22.542  0.00  0.00    -0.298 OA
ATOM     20  N   UNL     1      -0.249  -3.824 -23.307  0.00  0.00    -0.198 NA
ATOM     21  H   UNL     1       1.695  -7.287 -28.745  0.00  0.00    +0.000 HD
ATOM     22  H   UNL     1      -1.475  -3.286 -19.641  0.00  0.00    +0.000 HD
ATOM     23  H   UNL     1      -2.078  -1.764 -20.053  0.00  0.00    +0.000 HD
ATOM     24  H   UNL     1      -0.982  -3.250 -22.891  0.00  0.00    +0.000 HD
ENDROOT
TORSDOF 0
ENDMDL
MODEL 8
REMARK VINA RESULT:    -3.737      8.291     11.150
REMARK INTER + INTRA:          -3.737
REMARK INTER:                  -3.737
REMARK INTRA:                   0.000
REMARK UNBOUND:                 0.000
REMARK  Name = /home/vital/Documents/PhD_2021/Malaria_codes/scripts/../data/pdbqt_ligands/ligand_71_temp.pdb
REMARK                            x       y       z     vdW  Elec       q    Type
REMARK                         _______ _______ _______ _____ _____    ______ ____
ROOT
ATOM      1  C   UNL     1      -2.251  -4.436 -21.628  0.00  0.00    -0.079 C 
ATOM      2  C   UNL     1      -2.262  -4.753 -22.932  0.00  0.00    +0.054 C 
ATOM      3 CL   UNL     1      -2.989  -6.269 -23.384  0.00  0.00    -0.083 Cl
ATOM      4  C   UNL     1      -1.740  -3.897 -23.988  0.00  0.00    +0.076 C 
ATOM      5 CL   UNL     1      -2.076  -2.187 -23.863  0.00  0.00    -0.080 Cl
ATOM      6  C   UNL     1      -1.037  -4.310 -25.058  0.00  0.00    +0.045 C 
ATOM      7  N   UNL     1      -0.620  -5.576 -25.411  0.00  0.00    -0.272 N 
ATOM      8  O   UNL     1      -0.361  -5.809 -26.762  0.00  0.00    -0.274 OA
ATOM      9  C   UNL     1       0.874  -6.528 -26.827  0.00  0.00    +0.075 C 
ATOM     10  C   UNL     1       1.231  -6.774 -28.292  0.00  0.00    -0.026 C 
ATOM     11  C   UNL     1       1.476  -5.462 -29.050  0.00  0.00    -0.033 C 
ATOM     12  C   UNL     1       1.945  -5.684 -30.502  0.00  0.00    +0.033 C 
ATOM     13  C   UNL     1       2.333  -4.343 -31.155  0.00  0.00    -0.034 C 
ATOM     14  C   UNL     1       2.925  -4.480 -32.569  0.00  0.00    -0.039 C 
ATOM     15  C   UNL     1       1.884  -4.685 -33.681  0.00  0.00    -0.004 C 
ATOM     16  N   UNL     1       2.125  -5.874 -34.512  0.00  0.00    -0.314 N 
ATOM     17  C   UNL     1       1.412  -7.073 -34.017  0.00  0.00    +0.021 C 
ATOM     18  C   UNL     1       2.044  -7.771 -32.799  0.00  0.00    +0.082 C 
ATOM     19  O   UNL     1       1.298  -7.677 -31.572  0.00  0.00    -0.298 OA
ATOM     20  N   UNL     1       0.899  -6.301 -31.323  0.00  0.00    -0.198 NA
ATOM     21  H   UNL     1      -0.509  -6.285 -24.738  0.00  0.00    +0.000 HD
ATOM     22  H   UNL     1       3.126  -6.069 -34.519  0.00  0.00    +0.000 HD
ATOM     23  H   UNL     1       1.773  -5.670 -35.448  0.00  0.00    +0.000 HD
ATOM     24  H   UNL     1       0.807  -5.799 -32.205  0.00  0.00    +0.000 HD
ENDROOT
TORSDOF 0
ENDMDL
MODEL 9
REMARK VINA RESULT:    -3.605     14.843     16.950
REMARK INTER + INTRA:          -3.605
REMARK INTER:                  -3.605
REMARK INTRA:                   0.000
REMARK UNBOUND:                 0.000
REMARK  Name = /home/vital/Documents/PhD_2021/Malaria_codes/scripts/../data/pdbqt_ligands/ligand_71_temp.pdb
REMARK                            x       y       z     vdW  Elec       q    Type
REMARK                         _______ _______ _______ _____ _____    ______ ____
ROOT
ATOM      1  C   UNL     1      -6.596   3.505 -36.341  0.00  0.00    -0.079 C 
ATOM      2  C   UNL     1      -5.713   2.832 -35.587  0.00  0.00    +0.054 C 
ATOM      3 CL   UNL     1      -4.551   3.764 -34.686  0.00  0.00    -0.083 Cl
ATOM      4  C   UNL     1      -5.689   1.382 -35.449  0.00  0.00    +0.076 C 
ATOM      5 CL   UNL     1      -7.231   0.575 -35.295  0.00  0.00    -0.080 Cl
ATOM      6  C   UNL     1      -4.585   0.615 -35.414  0.00  0.00    +0.045 C 
ATOM      7  N   UNL     1      -3.256   0.966 -35.520  0.00  0.00    -0.272 N 
ATOM      8  O   UNL     1      -2.319   0.095 -34.966  0.00  0.00    -0.274 OA
ATOM      9  C   UNL     1      -1.268  -0.048 -35.926  0.00  0.00    +0.075 C 
ATOM     10  C   UNL     1      -0.231  -1.031 -35.388  0.00  0.00    -0.026 C 
ATOM     11  C   UNL     1      -0.815  -2.438 -35.204  0.00  0.00    -0.033 C 
ATOM     12  C   UNL     1       0.239  -3.475 -34.765  0.00  0.00    +0.033 C 
ATOM     13  C   UNL     1      -0.369  -4.892 -34.759  0.00  0.00    -0.034 C 
ATOM     14  C   UNL     1       0.644  -6.008 -34.446  0.00  0.00    -0.039 C 
ATOM     15  C   UNL     1       0.971  -6.175 -32.954  0.00  0.00    -0.004 C 
ATOM     16  N   UNL     1       2.408  -6.113 -32.648  0.00  0.00    -0.314 N 
ATOM     17  C   UNL     1       2.862  -4.747 -32.302  0.00  0.00    +0.021 C 
ATOM     18  C   UNL     1       3.052  -3.785 -33.488  0.00  0.00    +0.082 C 
ATOM     19  O   UNL     1       2.109  -2.701 -33.567  0.00  0.00    -0.298 OA
ATOM     20  N   UNL     1       0.750  -3.195 -33.420  0.00  0.00    -0.198 NA
ATOM     21  H   UNL     1      -2.980   1.797 -35.969  0.00  0.00    +0.000 HD
ATOM     22  H   UNL     1       2.930  -6.433 -33.464  0.00  0.00    +0.000 HD
ATOM     23  H   UNL     1       2.575  -6.708 -31.836  0.00  0.00    +0.000 HD
ATOM     24  H   UNL     1       0.747  -4.049 -32.862  0.00  0.00    +0.000 HD
ENDROOT
TORSDOF 0
ENDMDL
