MODEL 1
REMARK VINA RESULT:    -5.755      0.000      0.000
REMARK INTER + INTRA:          -5.755
REMARK INTER:                  -5.755
REMARK INTRA:                   0.000
REMARK UNBOUND:                 0.000
REMARK  Name = /home/vital/Documents/PhD_2021/Malaria_codes/scripts/../data/pdbqt_ligands/ligand_15_temp.pdb
REMARK                            x       y       z     vdW  Elec       q    Type
REMARK                         _______ _______ _______ _____ _____    ______ ____
ROOT
ATOM      1  C1  UNL     1      -0.407  -5.879 -30.459  0.00  0.00    -0.060 C 
ATOM      2  C2  UNL     1       0.889  -6.674 -30.510  0.00  0.00    -0.012 C 
ATOM      3  C3  UNL     1       1.062  -7.380 -31.832  0.00  0.00    +0.056 A 
ATOM      4  N1  UNL     1       0.439  -8.578 -31.918  0.00  0.00    -0.219 NA
ATOM      5  C4  UNL     1       0.531  -9.237 -33.072  0.00  0.00    +0.214 A 
ATOM      6  N2  UNL     1      -0.095 -10.464 -33.158  0.00  0.00    -0.327 N 
ATOM      7  N3  UNL     1       1.218  -8.822 -34.132  0.00  0.00    -0.199 NA
ATOM      8  C5  UNL     1       1.833  -7.634 -34.040  0.00  0.00    +0.129 A 
ATOM      9  N4  UNL     1       2.546  -7.226 -35.183  0.00  0.00    -0.343 N 
ATOM     10  C6  UNL     1       1.786  -6.836 -32.892  0.00  0.00    +0.043 A 
ATOM     11  C7  UNL     1       2.457  -5.533 -32.822  0.00  0.00    -0.011 A 
ATOM     12  C8  UNL     1       1.783  -4.359 -33.192  0.00  0.00    -0.052 A 
ATOM     13  C9  UNL     1       2.433  -3.123 -33.150  0.00  0.00    -0.041 A 
ATOM     14  C10 UNL     1       3.765  -3.045 -32.736  0.00  0.00    +0.066 A 
ATOM     15 CL1  UNL     1       4.522  -1.491 -32.730  0.00  0.00    -0.081 Cl
ATOM     16  C11 UNL     1       4.456  -4.202 -32.338  0.00  0.00    +0.084 A 
ATOM     17  N5  UNL     1       5.804  -4.197 -31.966  0.00  0.00    -0.239 NA
ATOM     18  C12 UNL     1       6.182  -3.848 -30.782  0.00  0.00    +0.084 C 
ATOM     19  N6  UNL     1       5.553  -3.489 -29.602  0.00  0.00    -0.327 N 
ATOM     20  C13 UNL     1       6.369  -3.128 -28.447  0.00  0.00    +0.001 C 
ATOM     21  C14 UNL     1       4.179  -3.854 -29.299  0.00  0.00    +0.001 C 
ATOM     22  C15 UNL     1       3.795  -5.437 -32.407  0.00  0.00    -0.027 A 
ATOM     23  H   UNL     1      -0.613 -10.807 -32.394  0.00  0.00    +0.000 HD
ATOM     24  H   UNL     1      -0.023 -10.997 -33.983  0.00  0.00    +0.000 HD
ATOM     25  H   UNL     1       2.568  -7.802 -35.982  0.00  0.00    +0.000 HD
ATOM     26  H   UNL     1       3.022  -6.364 -35.185  0.00  0.00    +0.000 HD
ENDROOT
TORSDOF 0
ENDMDL
MODEL 2
REMARK VINA RESULT:    -4.955     15.233     18.841
REMARK INTER + INTRA:          -4.955
REMARK INTER:                  -4.955
REMARK INTRA:                   0.000
REMARK UNBOUND:                 0.000
REMARK  Name = /home/vital/Documents/PhD_2021/Malaria_codes/scripts/../data/pdbqt_ligands/ligand_15_temp.pdb
REMARK                            x       y       z     vdW  Elec       q    Type
REMARK                         _______ _______ _______ _____ _____    ______ ____
ROOT
ATOM      1  C1  UNL     1       3.356   2.456 -17.577  0.00  0.00    -0.060 C 
ATOM      2  C2  UNL     1       1.951   2.297 -17.013  0.00  0.00    -0.012 C 
ATOM      3  C3  UNL     1       1.707   3.225 -15.848  0.00  0.00    +0.056 A 
ATOM      4  N1  UNL     1       2.133   2.754 -14.653  0.00  0.00    -0.219 NA
ATOM      5  C4  UNL     1       1.971   3.541 -13.590  0.00  0.00    +0.214 A 
ATOM      6  N2  UNL     1       2.396   3.058 -12.369  0.00  0.00    -0.327 N 
ATOM      7  N3  UNL     1       1.391   4.736 -13.611  0.00  0.00    -0.199 NA
ATOM      8  C5  UNL     1       0.969   5.196 -14.798  0.00  0.00    +0.129 A 
ATOM      9  N4  UNL     1       0.364   6.467 -14.781  0.00  0.00    -0.343 N 
ATOM     10  C6  UNL     1       1.110   4.476 -15.989  0.00  0.00    +0.043 A 
ATOM     11  C7  UNL     1       0.653   5.008 -17.278  0.00  0.00    -0.011 A 
ATOM     12  C8  UNL     1       1.515   5.762 -18.089  0.00  0.00    -0.052 A 
ATOM     13  C9  UNL     1       1.069   6.290 -19.303  0.00  0.00    -0.041 A 
ATOM     14  C10 UNL     1      -0.245   6.069 -19.723  0.00  0.00    +0.066 A 
ATOM     15 CL1  UNL     1      -0.745   6.770 -21.222  0.00  0.00    -0.081 Cl
ATOM     16  C11 UNL     1      -1.122   5.299 -18.941  0.00  0.00    +0.084 A 
ATOM     17  N5  UNL     1      -2.463   5.088 -19.280  0.00  0.00    -0.239 NA
ATOM     18  C12 UNL     1      -2.815   4.191 -20.140  0.00  0.00    +0.084 C 
ATOM     19  N6  UNL     1      -2.171   3.209 -20.873  0.00  0.00    -0.327 N 
ATOM     20  C13 UNL     1      -2.952   2.384 -21.789  0.00  0.00    +0.001 C 
ATOM     21  C14 UNL     1      -0.882   2.657 -20.490  0.00  0.00    +0.001 C 
ATOM     22  C15 UNL     1      -0.665   4.795 -17.715  0.00  0.00    -0.027 A 
ATOM     23  H   UNL     1       2.831   2.176 -12.313  0.00  0.00    +0.000 HD
ATOM     24  H   UNL     1       2.265   3.595 -11.555  0.00  0.00    +0.000 HD
ATOM     25  H   UNL     1       0.274   6.958 -13.932  0.00  0.00    +0.000 HD
ATOM     26  H   UNL     1       0.031   6.865 -15.617  0.00  0.00    +0.000 HD
ENDROOT
TORSDOF 0
ENDMDL
MODEL 3
REMARK VINA RESULT:    -4.869     12.187     14.476
REMARK INTER + INTRA:          -4.869
REMARK INTER:                  -4.869
REMARK INTRA:                   0.000
REMARK UNBOUND:                 0.000
REMARK  Name = /home/vital/Documents/PhD_2021/Malaria_codes/scripts/../data/pdbqt_ligands/ligand_15_temp.pdb
REMARK                            x       y       z     vdW  Elec       q    Type
REMARK                         _______ _______ _______ _____ _____    ______ ____
ROOT
ATOM      1  C1  UNL     1      -4.320   2.788 -25.847  0.00  0.00    -0.060 C 
ATOM      2  C2  UNL     1      -4.753   2.642 -24.396  0.00  0.00    -0.012 C 
ATOM      3  C3  UNL     1      -6.254   2.683 -24.251  0.00  0.00    +0.056 A 
ATOM      4  N1  UNL     1      -6.780   3.928 -24.180  0.00  0.00    -0.219 NA
ATOM      5  C4  UNL     1      -8.105   4.031 -24.081  0.00  0.00    +0.214 A 
ATOM      6  N2  UNL     1      -8.642   5.299 -23.999  0.00  0.00    -0.327 N 
ATOM      7  N3  UNL     1      -8.943   3.002 -24.011  0.00  0.00    -0.199 NA
ATOM      8  C5  UNL     1      -8.415   1.771 -24.081  0.00  0.00    +0.129 A 
ATOM      9  N4  UNL     1      -9.335   0.707 -24.009  0.00  0.00    -0.343 N 
ATOM     10  C6  UNL     1      -7.044   1.535 -24.216  0.00  0.00    +0.043 A 
ATOM     11  C7  UNL     1      -6.492   0.178 -24.305  0.00  0.00    -0.011 A 
ATOM     12  C8  UNL     1      -6.325  -0.448 -25.549  0.00  0.00    -0.052 A 
ATOM     13  C9  UNL     1      -5.826  -1.751 -25.628  0.00  0.00    -0.041 A 
ATOM     14  C10 UNL     1      -5.484  -2.443 -24.464  0.00  0.00    +0.066 A 
ATOM     15 CL1  UNL     1      -4.896  -4.060 -24.626  0.00  0.00    -0.081 Cl
ATOM     16  C11 UNL     1      -5.620  -1.830 -23.206  0.00  0.00    +0.084 A 
ATOM     17  N5  UNL     1      -5.348  -2.489 -22.003  0.00  0.00    -0.239 NA
ATOM     18  C12 UNL     1      -4.144  -2.613 -21.552  0.00  0.00    +0.084 C 
ATOM     19  N6  UNL     1      -2.888  -2.173 -21.934  0.00  0.00    -0.327 N 
ATOM     20  C13 UNL     1      -1.730  -2.564 -21.137  0.00  0.00    +0.001 C 
ATOM     21  C14 UNL     1      -2.686  -1.020 -22.796  0.00  0.00    +0.001 C 
ATOM     22  C15 UNL     1      -6.143  -0.531 -23.143  0.00  0.00    -0.027 A 
ATOM     23  H   UNL     1      -8.053   6.087 -24.046  0.00  0.00    +0.000 HD
ATOM     24  H   UNL     1      -9.614   5.416 -23.892  0.00  0.00    +0.000 HD
ATOM     25  H   UNL     1     -10.297   0.894 -23.914  0.00  0.00    +0.000 HD
ATOM     26  H   UNL     1      -9.016  -0.223 -24.053  0.00  0.00    +0.000 HD
ENDROOT
TORSDOF 0
ENDMDL
MODEL 4
REMARK VINA RESULT:    -4.523     16.697     19.636
REMARK INTER + INTRA:          -4.523
REMARK INTER:                  -4.523
REMARK INTRA:                   0.000
REMARK UNBOUND:                 0.000
REMARK  Name = /home/vital/Documents/PhD_2021/Malaria_codes/scripts/../data/pdbqt_ligands/ligand_15_temp.pdb
REMARK                            x       y       z     vdW  Elec       q    Type
REMARK                         _______ _______ _______ _____ _____    ______ ____
ROOT
ATOM      1  C1  UNL     1       5.537   6.292 -14.532  0.00  0.00    -0.060 C 
ATOM      2  C2  UNL     1       4.868   5.273 -15.444  0.00  0.00    -0.012 C 
ATOM      3  C3  UNL     1       3.408   5.096 -15.110  0.00  0.00    +0.056 A 
ATOM      4  N1  UNL     1       3.160   4.218 -14.110  0.00  0.00    -0.219 NA
ATOM      5  C4  UNL     1       1.890   4.040 -13.749  0.00  0.00    +0.214 A 
ATOM      6  N2  UNL     1       1.635   3.137 -12.737  0.00  0.00    -0.327 N 
ATOM      7  N3  UNL     1       0.847   4.633 -14.322  0.00  0.00    -0.199 NA
ATOM      8  C5  UNL     1       1.100   5.501 -15.312  0.00  0.00    +0.129 A 
ATOM      9  N4  UNL     1      -0.029   6.113 -15.890  0.00  0.00    -0.343 N 
ATOM     10  C6  UNL     1       2.392   5.794 -15.760  0.00  0.00    +0.043 A 
ATOM     11  C7  UNL     1       2.642   6.760 -16.836  0.00  0.00    -0.011 A 
ATOM     12  C8  UNL     1       2.856   8.116 -16.548  0.00  0.00    -0.052 A 
ATOM     13  C9  UNL     1       3.066   9.037 -17.577  0.00  0.00    -0.041 A 
ATOM     14  C10 UNL     1       3.069   8.613 -18.908  0.00  0.00    +0.066 A 
ATOM     15 CL1  UNL     1       3.310   9.804 -20.138  0.00  0.00    -0.081 Cl
ATOM     16  C11 UNL     1       2.880   7.256 -19.223  0.00  0.00    +0.084 A 
ATOM     17  N5  UNL     1       2.818   6.779 -20.537  0.00  0.00    -0.239 NA
ATOM     18  C12 UNL     1       3.883   6.550 -21.229  0.00  0.00    +0.084 C 
ATOM     19  N6  UNL     1       5.248   6.588 -20.998  0.00  0.00    -0.327 N 
ATOM     20  C13 UNL     1       6.159   6.269 -22.092  0.00  0.00    +0.001 C 
ATOM     21  C14 UNL     1       5.824   6.498 -19.667  0.00  0.00    +0.001 C 
ATOM     22  C15 UNL     1       2.648   6.349 -18.180  0.00  0.00    -0.027 A 
ATOM     23  H   UNL     1       2.381   2.677 -12.289  0.00  0.00    +0.000 HD
ATOM     24  H   UNL     1       0.707   2.953 -12.464  0.00  0.00    +0.000 HD
ATOM     25  H   UNL     1      -0.931   5.893 -15.561  0.00  0.00    +0.000 HD
ATOM     26  H   UNL     1       0.083   6.761 -16.623  0.00  0.00    +0.000 HD
ENDROOT
TORSDOF 0
ENDMDL
MODEL 5
REMARK VINA RESULT:    -4.322      4.187      5.471
REMARK INTER + INTRA:          -4.322
REMARK INTER:                  -4.322
REMARK INTRA:                   0.000
REMARK UNBOUND:                 0.000
REMARK  Name = /home/vital/Documents/PhD_2021/Malaria_codes/scripts/../data/pdbqt_ligands/ligand_15_temp.pdb
REMARK                            x       y       z     vdW  Elec       q    Type
REMARK                         _______ _______ _______ _____ _____    ______ ____
ROOT
ATOM      1  C1  UNL     1      -2.141  -6.865 -34.892  0.00  0.00    -0.060 C 
ATOM      2  C2  UNL     1      -1.616  -6.268 -33.595  0.00  0.00    -0.012 C 
ATOM      3  C3  UNL     1      -0.120  -6.422 -33.472  0.00  0.00    +0.056 A 
ATOM      4  N1  UNL     1       0.284  -7.613 -32.972  0.00  0.00    -0.219 NA
ATOM      5  C4  UNL     1       1.596  -7.821 -32.867  0.00  0.00    +0.214 A 
ATOM      6  N2  UNL     1       2.011  -9.031 -32.348  0.00  0.00    -0.327 N 
ATOM      7  N3  UNL     1       2.534  -6.933 -33.182  0.00  0.00    -0.199 NA
ATOM      8  C5  UNL     1       2.126  -5.755 -33.675  0.00  0.00    +0.129 A 
ATOM      9  N4  UNL     1       3.148  -4.843 -34.002  0.00  0.00    -0.343 N 
ATOM     10  C6  UNL     1       0.779  -5.431 -33.861  0.00  0.00    +0.043 A 
ATOM     11  C7  UNL     1       0.359  -4.139 -34.416  0.00  0.00    -0.011 A 
ATOM     12  C8  UNL     1       0.184  -3.976 -35.799  0.00  0.00    -0.052 A 
ATOM     13  C9  UNL     1      -0.189  -2.737 -36.327  0.00  0.00    -0.041 A 
ATOM     14  C10 UNL     1      -0.395  -1.646 -35.479  0.00  0.00    +0.066 A 
ATOM     15 CL1  UNL     1      -0.831  -0.135 -36.194  0.00  0.00    -0.081 Cl
ATOM     16  C11 UNL     1      -0.250  -1.789 -34.088  0.00  0.00    +0.084 A 
ATOM     17  N5  UNL     1      -0.389  -0.723 -33.193  0.00  0.00    -0.239 NA
ATOM     18  C12 UNL     1      -1.547  -0.315 -32.795  0.00  0.00    +0.084 C 
ATOM     19  N6  UNL     1      -2.860  -0.718 -32.973  0.00  0.00    -0.327 N 
ATOM     20  C13 UNL     1      -3.928   0.053 -32.347  0.00  0.00    +0.001 C 
ATOM     21  C14 UNL     1      -3.222  -2.071 -33.365  0.00  0.00    +0.001 C 
ATOM     22  C15 UNL     1       0.146  -3.032 -33.577  0.00  0.00    -0.027 A 
ATOM     23  H   UNL     1       1.346  -9.715 -32.102  0.00  0.00    +0.000 HD
ATOM     24  H   UNL     1       2.971  -9.211 -32.223  0.00  0.00    +0.000 HD
ATOM     25  H   UNL     1       4.091  -5.091 -33.863  0.00  0.00    +0.000 HD
ATOM     26  H   UNL     1       2.920  -3.959 -34.368  0.00  0.00    +0.000 HD
ENDROOT
TORSDOF 0
ENDMDL
MODEL 6
REMARK VINA RESULT:    -4.214     16.314     17.865
REMARK INTER + INTRA:          -4.214
REMARK INTER:                  -4.214
REMARK INTRA:                   0.000
REMARK UNBOUND:                 0.000
REMARK  Name = /home/vital/Documents/PhD_2021/Malaria_codes/scripts/../data/pdbqt_ligands/ligand_15_temp.pdb
REMARK                            x       y       z     vdW  Elec       q    Type
REMARK                         _______ _______ _______ _____ _____    ______ ____
ROOT
ATOM      1  C1  UNL     1       1.834   3.132 -17.189  0.00  0.00    -0.060 C 
ATOM      2  C2  UNL     1       1.695   3.520 -18.654  0.00  0.00    -0.012 C 
ATOM      3  C3  UNL     1       0.282   3.924 -18.995  0.00  0.00    +0.056 A 
ATOM      4  N1  UNL     1      -0.543   2.893 -19.292  0.00  0.00    -0.219 NA
ATOM      5  C4  UNL     1      -1.812   3.184 -19.574  0.00  0.00    +0.214 A 
ATOM      6  N2  UNL     1      -2.653   2.135 -19.887  0.00  0.00    -0.327 N 
ATOM      7  N3  UNL     1      -2.318   4.413 -19.620  0.00  0.00    -0.199 NA
ATOM      8  C5  UNL     1      -1.495   5.429 -19.326  0.00  0.00    +0.129 A 
ATOM      9  N4  UNL     1      -2.067   6.714 -19.381  0.00  0.00    -0.343 N 
ATOM     10  C6  UNL     1      -0.150   5.249 -18.986  0.00  0.00    +0.043 A 
ATOM     11  C7  UNL     1       0.727   6.378 -18.654  0.00  0.00    -0.011 A 
ATOM     12  C8  UNL     1       0.856   6.820 -17.329  0.00  0.00    -0.052 A 
ATOM     13  C9  UNL     1       1.670   7.913 -17.020  0.00  0.00    -0.041 A 
ATOM     14  C10 UNL     1       2.368   8.575 -18.033  0.00  0.00    +0.066 A 
ATOM     15 CL1  UNL     1       3.339   9.935 -17.592  0.00  0.00    -0.081 Cl
ATOM     16  C11 UNL     1       2.275   8.138 -19.365  0.00  0.00    +0.084 A 
ATOM     17  N5  UNL     1       2.905   8.792 -20.430  0.00  0.00    -0.239 NA
ATOM     18  C12 UNL     1       4.153   8.604 -20.701  0.00  0.00    +0.084 C 
ATOM     19  N6  UNL     1       5.165   7.791 -20.219  0.00  0.00    -0.327 N 
ATOM     20  C13 UNL     1       6.498   7.899 -20.803  0.00  0.00    +0.001 C 
ATOM     21  C14 UNL     1       4.906   6.559 -19.492  0.00  0.00    +0.001 C 
ATOM     22  C15 UNL     1       1.436   7.054 -19.661  0.00  0.00    -0.027 A 
ATOM     23  H   UNL     1      -2.315   1.210 -19.864  0.00  0.00    +0.000 HD
ATOM     24  H   UNL     1      -3.590   2.311 -20.133  0.00  0.00    +0.000 HD
ATOM     25  H   UNL     1      -3.016   6.820 -19.623  0.00  0.00    +0.000 HD
ATOM     26  H   UNL     1      -1.519   7.506 -19.177  0.00  0.00    +0.000 HD
ENDROOT
TORSDOF 0
ENDMDL
MODEL 7
REMARK VINA RESULT:    -4.101      1.816      2.055
REMARK INTER + INTRA:          -4.101
REMARK INTER:                  -4.101
REMARK INTRA:                   0.000
REMARK UNBOUND:                 0.000
REMARK  Name = /home/vital/Documents/PhD_2021/Malaria_codes/scripts/../data/pdbqt_ligands/ligand_15_temp.pdb
REMARK                            x       y       z     vdW  Elec       q    Type
REMARK                         _______ _______ _______ _____ _____    ______ ____
ROOT
ATOM      1  C1  UNL     1       0.472  -5.739 -29.764  0.00  0.00    -0.060 C 
ATOM      2  C2  UNL     1       1.848  -5.912 -30.391  0.00  0.00    -0.012 C 
ATOM      3  C3  UNL     1       1.758  -6.353 -31.831  0.00  0.00    +0.056 A 
ATOM      4  N1  UNL     1       1.620  -7.688 -32.004  0.00  0.00    -0.219 NA
ATOM      5  C4  UNL     1       1.505  -8.136 -33.254  0.00  0.00    +0.214 A 
ATOM      6  N2  UNL     1       1.375  -9.498 -33.433  0.00  0.00    -0.327 N 
ATOM      7  N3  UNL     1       1.552  -7.374 -34.342  0.00  0.00    -0.199 NA
ATOM      8  C5  UNL     1       1.690  -6.052 -34.162  0.00  0.00    +0.129 A 
ATOM      9  N4  UNL     1       1.731  -5.278 -35.338  0.00  0.00    -0.343 N 
ATOM     10  C6  UNL     1       1.790  -5.459 -32.900  0.00  0.00    +0.043 A 
ATOM     11  C7  UNL     1       1.926  -4.008 -32.730  0.00  0.00    -0.011 A 
ATOM     12  C8  UNL     1       0.792  -3.193 -32.592  0.00  0.00    -0.052 A 
ATOM     13  C9  UNL     1       0.924  -1.808 -32.458  0.00  0.00    -0.041 A 
ATOM     14  C10 UNL     1       2.192  -1.221 -32.458  0.00  0.00    +0.066 A 
ATOM     15 CL1  UNL     1       2.288   0.498 -32.315  0.00  0.00    -0.081 Cl
ATOM     16  C11 UNL     1       3.345  -2.017 -32.572  0.00  0.00    +0.084 A 
ATOM     17  N5  UNL     1       4.637  -1.484 -32.634  0.00  0.00    -0.239 NA
ATOM     18  C12 UNL     1       5.276  -1.123 -31.572  0.00  0.00    +0.084 C 
ATOM     19  N6  UNL     1       5.046  -1.172 -30.208  0.00  0.00    -0.327 N 
ATOM     20  C13 UNL     1       6.046  -0.615 -29.302  0.00  0.00    +0.001 C 
ATOM     21  C14 UNL     1       4.111  -2.104 -29.599  0.00  0.00    +0.001 C 
ATOM     22  C15 UNL     1       3.194  -3.402 -32.728  0.00  0.00    -0.027 A 
ATOM     23  H   UNL     1       1.337 -10.096 -32.652  0.00  0.00    +0.000 HD
ATOM     24  H   UNL     1       1.320  -9.872 -34.342  0.00  0.00    +0.000 HD
ATOM     25  H   UNL     1       1.659  -5.714 -36.217  0.00  0.00    +0.000 HD
ATOM     26  H   UNL     1       1.831  -4.300 -35.279  0.00  0.00    +0.000 HD
ENDROOT
TORSDOF 0
ENDMDL
MODEL 8
REMARK VINA RESULT:    -3.974     14.488     17.673
REMARK INTER + INTRA:          -3.974
REMARK INTER:                  -3.974
REMARK INTRA:                   0.000
REMARK UNBOUND:                 0.000
REMARK  Name = /home/vital/Documents/PhD_2021/Malaria_codes/scripts/../data/pdbqt_ligands/ligand_15_temp.pdb
REMARK                            x       y       z     vdW  Elec       q    Type
REMARK                         _______ _______ _______ _____ _____    ______ ____
ROOT
ATOM      1  C1  UNL     1       1.852   6.320 -19.738  0.00  0.00    -0.060 C 
ATOM      2  C2  UNL     1       1.161   5.009 -19.393  0.00  0.00    -0.012 C 
ATOM      3  C3  UNL     1       0.206   5.165 -18.235  0.00  0.00    +0.056 A 
ATOM      4  N1  UNL     1       0.781   5.070 -17.014  0.00  0.00    -0.219 NA
ATOM      5  C4  UNL     1      -0.006   5.229 -15.951  0.00  0.00    +0.214 A 
ATOM      6  N2  UNL     1       0.576   5.122 -14.704  0.00  0.00    -0.327 N 
ATOM      7  N3  UNL     1      -1.318   5.438 -16.001  0.00  0.00    -0.199 NA
ATOM      8  C5  UNL     1      -1.881   5.530 -17.215  0.00  0.00    +0.129 A 
ATOM      9  N4  UNL     1      -3.271   5.757 -17.228  0.00  0.00    -0.343 N 
ATOM     10  C6  UNL     1      -1.155   5.411 -18.404  0.00  0.00    +0.043 A 
ATOM     11  C7  UNL     1      -1.793   5.530 -19.721  0.00  0.00    -0.011 A 
ATOM     12  C8  UNL     1      -1.888   6.774 -20.361  0.00  0.00    -0.052 A 
ATOM     13  C9  UNL     1      -2.520   6.889 -21.602  0.00  0.00    -0.041 A 
ATOM     14  C10 UNL     1      -3.063   5.760 -22.219  0.00  0.00    +0.066 A 
ATOM     15 CL1  UNL     1      -3.855   5.970 -23.741  0.00  0.00    -0.081 Cl
ATOM     16  C11 UNL     1      -2.962   4.497 -21.610  0.00  0.00    +0.084 A 
ATOM     17  N5  UNL     1      -3.532   3.340 -22.150  0.00  0.00    -0.239 NA
ATOM     18  C12 UNL     1      -2.954   2.672 -23.092  0.00  0.00    +0.084 C 
ATOM     19  N6  UNL     1      -1.748   2.745 -23.768  0.00  0.00    -0.327 N 
ATOM     20  C13 UNL     1      -1.470   1.778 -24.825  0.00  0.00    +0.001 C 
ATOM     21  C14 UNL     1      -0.581   3.422 -23.226  0.00  0.00    +0.001 C 
ATOM     22  C15 UNL     1      -2.344   4.404 -20.355  0.00  0.00    -0.027 A 
ATOM     23  H   UNL     1       1.545   4.967 -14.625  0.00  0.00    +0.000 HD
ATOM     24  H   UNL     1       0.022   5.201 -13.894  0.00  0.00    +0.000 HD
ATOM     25  H   UNL     1      -3.764   5.838 -16.380  0.00  0.00    +0.000 HD
ATOM     26  H   UNL     1      -3.749   5.834 -18.085  0.00  0.00    +0.000 HD
ENDROOT
TORSDOF 0
ENDMDL
MODEL 9
REMARK VINA RESULT:    -3.902     17.383     19.956
REMARK INTER + INTRA:          -3.902
REMARK INTER:                  -3.902
REMARK INTRA:                   0.000
REMARK UNBOUND:                 0.000
REMARK  Name = /home/vital/Documents/PhD_2021/Malaria_codes/scripts/../data/pdbqt_ligands/ligand_15_temp.pdb
REMARK                            x       y       z     vdW  Elec       q    Type
REMARK                         _______ _______ _______ _____ _____    ______ ____
ROOT
ATOM      1  C1  UNL     1       2.185   6.143 -21.121  0.00  0.00    -0.060 C 
ATOM      2  C2  UNL     1       3.479   6.419 -20.369  0.00  0.00    -0.012 C 
ATOM      3  C3  UNL     1       3.611   7.875 -19.996  0.00  0.00    +0.056 A 
ATOM      4  N1  UNL     1       4.125   8.662 -20.970  0.00  0.00    -0.219 NA
ATOM      5  C4  UNL     1       4.239   9.964 -20.711  0.00  0.00    +0.214 A 
ATOM      6  N2  UNL     1       4.772  10.767 -21.698  0.00  0.00    -0.327 N 
ATOM      7  N3  UNL     1       3.920  10.540 -19.556  0.00  0.00    -0.199 NA
ATOM      8  C5  UNL     1       3.413   9.753 -18.595  0.00  0.00    +0.129 A 
ATOM      9  N4  UNL     1       3.083  10.400 -17.388  0.00  0.00    -0.343 N 
ATOM     10  C6  UNL     1       3.217   8.378 -18.758  0.00  0.00    +0.043 A 
ATOM     11  C7  UNL     1       2.647   7.542 -17.695  0.00  0.00    -0.011 A 
ATOM     12  C8  UNL     1       1.262   7.334 -17.612  0.00  0.00    -0.052 A 
ATOM     13  C9  UNL     1       0.720   6.560 -16.583  0.00  0.00    -0.041 A 
ATOM     14  C10 UNL     1       1.556   5.982 -15.625  0.00  0.00    +0.066 A 
ATOM     15 CL1  UNL     1       0.824   5.057 -14.362  0.00  0.00    -0.081 Cl
ATOM     16  C11 UNL     1       2.949   6.156 -15.698  0.00  0.00    +0.084 A 
ATOM     17  N5  UNL     1       3.833   5.650 -14.739  0.00  0.00    -0.239 NA
ATOM     18  C12 UNL     1       4.221   4.419 -14.754  0.00  0.00    +0.084 C 
ATOM     19  N6  UNL     1       4.041   3.328 -15.588  0.00  0.00    -0.327 N 
ATOM     20  C13 UNL     1       4.654   2.054 -15.228  0.00  0.00    +0.001 C 
ATOM     21  C14 UNL     1       3.660   3.459 -16.984  0.00  0.00    +0.001 C 
ATOM     22  C15 UNL     1       3.475   6.954 -16.724  0.00  0.00    -0.027 A 
ATOM     23  H   UNL     1       5.021  10.377 -22.568  0.00  0.00    +0.000 HD
ATOM     24  H   UNL     1       4.903  11.729 -21.534  0.00  0.00    +0.000 HD
ATOM     25  H   UNL     1       3.228  11.369 -17.293  0.00  0.00    +0.000 HD
ATOM     26  H   UNL     1       2.706   9.883 -16.640  0.00  0.00    +0.000 HD
ENDROOT
TORSDOF 0
ENDMDL
