MODEL 1
REMARK VINA RESULT:    -2.789      0.000      0.000
REMARK INTER + INTRA:          -2.789
REMARK INTER:                  -2.789
REMARK INTRA:                   0.000
REMARK UNBOUND:                 0.000
REMARK  Name = /home/vital/Documents/PhD_2021/Malaria_codes/scripts/../data/pdbqt_ligands/ligand_378_temp.pdb
REMARK                            x       y       z     vdW  Elec       q    Type
REMARK                         _______ _______ _______ _____ _____    ______ ____
ROOT
ATOM      1  C1  UNL     1       0.231  -8.113 -31.113  0.00  0.00    -0.023 C 
ATOM      2  C2  UNL     1       0.550  -8.693 -32.476  0.00  0.00    +0.059 C 
ATOM      3  C3  UNL     1       1.525  -7.910 -33.330  0.00  0.00    +0.129 C 
ATOM      4  F1  UNL     1       1.764  -8.489 -34.538  0.00  0.00    -0.243 F 
ATOM      5  N1  UNL     1       0.044  -9.796 -32.938  0.00  0.00    -0.180 NA
ATOM      6  C4  UNL     1      -0.816 -10.478 -32.174  0.00  0.00    +0.205 C 
ATOM      7  N2  UNL     1      -1.558 -11.046 -31.489  0.00  0.00    -0.169 NA
ENDROOT
TORSDOF 0
ENDMDL
MODEL 2
REMARK VINA RESULT:    -2.750     21.619     22.082
REMARK INTER + INTRA:          -2.750
REMARK INTER:                  -2.750
REMARK INTRA:                   0.000
REMARK UNBOUND:                 0.000
REMARK  Name = /home/vital/Documents/PhD_2021/Malaria_codes/scripts/../data/pdbqt_ligands/ligand_378_temp.pdb
REMARK                            x       y       z     vdW  Elec       q    Type
REMARK                         _______ _______ _______ _____ _____    ______ ____
ROOT
ATOM      1  C1  UNL     1      -0.063   6.245 -17.933  0.00  0.00    -0.023 C 
ATOM      2  C2  UNL     1      -1.045   5.594 -16.980  0.00  0.00    +0.059 C 
ATOM      3  C3  UNL     1      -2.449   5.375 -17.504  0.00  0.00    +0.129 C 
ATOM      4  F1  UNL     1      -3.274   4.788 -16.595  0.00  0.00    -0.243 F 
ATOM      5  N1  UNL     1      -0.753   5.225 -15.770  0.00  0.00    -0.180 NA
ATOM      6  C4  UNL     1       0.490   5.424 -15.319  0.00  0.00    +0.205 C 
ATOM      7  N2  UNL     1       1.575   5.610 -14.957  0.00  0.00    -0.169 NA
ENDROOT
TORSDOF 0
ENDMDL
MODEL 3
REMARK VINA RESULT:    -2.635     12.169     12.932
REMARK INTER + INTRA:          -2.635
REMARK INTER:                  -2.635
REMARK INTRA:                   0.000
REMARK UNBOUND:                 0.000
REMARK  Name = /home/vital/Documents/PhD_2021/Malaria_codes/scripts/../data/pdbqt_ligands/ligand_378_temp.pdb
REMARK                            x       y       z     vdW  Elec       q    Type
REMARK                         _______ _______ _______ _____ _____    ______ ____
ROOT
ATOM      1  C1  UNL     1       5.870  -3.007 -22.005  0.00  0.00    -0.023 C 
ATOM      2  C2  UNL     1       5.242  -4.327 -21.605  0.00  0.00    +0.059 C 
ATOM      3  C3  UNL     1       4.512  -4.352 -20.279  0.00  0.00    +0.129 C 
ATOM      4  F1  UNL     1       3.974  -5.567 -19.986  0.00  0.00    -0.243 F 
ATOM      5  N1  UNL     1       5.295  -5.408 -22.323  0.00  0.00    -0.180 NA
ATOM      6  C4  UNL     1       5.942  -5.372 -23.492  0.00  0.00    +0.205 C 
ATOM      7  N2  UNL     1       6.510  -5.310 -24.501  0.00  0.00    -0.169 NA
ENDROOT
TORSDOF 0
ENDMDL
MODEL 4
REMARK VINA RESULT:    -2.607     22.185     22.731
REMARK INTER + INTRA:          -2.607
REMARK INTER:                  -2.607
REMARK INTRA:                   0.000
REMARK UNBOUND:                 0.000
REMARK  Name = /home/vital/Documents/PhD_2021/Malaria_codes/scripts/../data/pdbqt_ligands/ligand_378_temp.pdb
REMARK                            x       y       z     vdW  Elec       q    Type
REMARK                         _______ _______ _______ _____ _____    ______ ____
ROOT
ATOM      1  C1  UNL     1       2.243   5.771 -15.217  0.00  0.00    -0.023 C 
ATOM      2  C2  UNL     1       0.948   4.988 -15.143  0.00  0.00    +0.059 C 
ATOM      3  C3  UNL     1      -0.124   5.362 -16.145  0.00  0.00    +0.129 C 
ATOM      4  F1  UNL     1      -1.257   4.619 -16.019  0.00  0.00    -0.243 F 
ATOM      5  N1  UNL     1       0.716   4.039 -14.287  0.00  0.00    -0.180 NA
ATOM      6  C4  UNL     1       1.671   3.719 -13.407  0.00  0.00    +0.205 C 
ATOM      7  N2  UNL     1       2.517   3.464 -12.658  0.00  0.00    -0.169 NA
ENDROOT
TORSDOF 0
ENDMDL
MODEL 5
REMARK VINA RESULT:    -2.456     16.684     17.405
REMARK INTER + INTRA:          -2.456
REMARK INTER:                  -2.456
REMARK INTRA:                   0.000
REMARK UNBOUND:                 0.000
REMARK  Name = /home/vital/Documents/PhD_2021/Malaria_codes/scripts/../data/pdbqt_ligands/ligand_378_temp.pdb
REMARK                            x       y       z     vdW  Elec       q    Type
REMARK                         _______ _______ _______ _____ _____    ______ ____
ROOT
ATOM      1  C1  UNL     1      -6.399   3.038 -24.400  0.00  0.00    -0.023 C 
ATOM      2  C2  UNL     1      -7.849   2.606 -24.314  0.00  0.00    +0.059 C 
ATOM      3  C3  UNL     1      -8.107   1.115 -24.288  0.00  0.00    +0.129 C 
ATOM      4  F1  UNL     1      -9.429   0.802 -24.210  0.00  0.00    -0.243 F 
ATOM      5  N1  UNL     1      -8.853   3.427 -24.264  0.00  0.00    -0.180 NA
ATOM      6  C4  UNL     1      -8.612   4.742 -24.289  0.00  0.00    +0.205 C 
ATOM      7  N2  UNL     1      -8.370   5.875 -24.311  0.00  0.00    -0.169 NA
ENDROOT
TORSDOF 0
ENDMDL
MODEL 6
REMARK VINA RESULT:    -2.285     14.413     15.173
REMARK INTER + INTRA:          -2.285
REMARK INTER:                  -2.285
REMARK INTRA:                   0.000
REMARK UNBOUND:                 0.000
REMARK  Name = /home/vital/Documents/PhD_2021/Malaria_codes/scripts/../data/pdbqt_ligands/ligand_378_temp.pdb
REMARK                            x       y       z     vdW  Elec       q    Type
REMARK                         _______ _______ _______ _____ _____    ______ ____
ROOT
ATOM      1  C1  UNL     1      -3.225  -3.018 -21.246  0.00  0.00    -0.023 C 
ATOM      2  C2  UNL     1      -4.345  -2.008 -21.100  0.00  0.00    +0.059 C 
ATOM      3  C3  UNL     1      -5.391  -1.999 -22.195  0.00  0.00    +0.129 C 
ATOM      4  F1  UNL     1      -6.365  -1.069 -21.998  0.00  0.00    -0.243 F 
ATOM      5  N1  UNL     1      -4.452  -1.174 -20.111  0.00  0.00    -0.180 NA
ATOM      6  C4  UNL     1      -3.522  -1.192 -19.150  0.00  0.00    +0.205 C 
ATOM      7  N2  UNL     1      -2.701  -1.232 -18.334  0.00  0.00    -0.169 NA
ENDROOT
TORSDOF 0
ENDMDL
MODEL 7
REMARK VINA RESULT:    -2.205     14.634     15.412
REMARK INTER + INTRA:          -2.205
REMARK INTER:                  -2.205
REMARK INTRA:                   0.000
REMARK UNBOUND:                 0.000
REMARK  Name = /home/vital/Documents/PhD_2021/Malaria_codes/scripts/../data/pdbqt_ligands/ligand_378_temp.pdb
REMARK                            x       y       z     vdW  Elec       q    Type
REMARK                         _______ _______ _______ _____ _____    ______ ____
ROOT
ATOM      1  C1  UNL     1       5.679  -2.520 -21.852  0.00  0.00    -0.023 C 
ATOM      2  C2  UNL     1       5.587  -3.323 -20.570  0.00  0.00    +0.059 C 
ATOM      3  C3  UNL     1       4.566  -4.441 -20.546  0.00  0.00    +0.129 C 
ATOM      4  F1  UNL     1       4.539  -5.117 -19.366  0.00  0.00    -0.243 F 
ATOM      5  N1  UNL     1       6.317  -3.106 -19.519  0.00  0.00    -0.180 NA
ATOM      6  C4  UNL     1       7.215  -2.116 -19.552  0.00  0.00    +0.205 C 
ATOM      7  N2  UNL     1       7.984  -1.251 -19.611  0.00  0.00    -0.169 NA
ENDROOT
TORSDOF 0
ENDMDL
MODEL 8
REMARK VINA RESULT:    -2.128     22.588     22.835
REMARK INTER + INTRA:          -2.128
REMARK INTER:                  -2.128
REMARK INTRA:                   0.000
REMARK UNBOUND:                 0.000
REMARK  Name = /home/vital/Documents/PhD_2021/Malaria_codes/scripts/../data/pdbqt_ligands/ligand_378_temp.pdb
REMARK                            x       y       z     vdW  Elec       q    Type
REMARK                         _______ _______ _______ _____ _____    ______ ____
ROOT
ATOM      1  C1  UNL     1       3.297   5.882 -15.338  0.00  0.00    -0.023 C 
ATOM      2  C2  UNL     1       2.036   6.470 -15.939  0.00  0.00    +0.059 C 
ATOM      3  C3  UNL     1       2.207   7.724 -16.771  0.00  0.00    +0.129 C 
ATOM      4  F1  UNL     1       1.035   8.194 -17.278  0.00  0.00    -0.243 F 
ATOM      5  N1  UNL     1       0.849   5.967 -15.782  0.00  0.00    -0.180 NA
ATOM      6  C4  UNL     1       0.712   4.860 -15.046  0.00  0.00    +0.205 C 
ATOM      7  N2  UNL     1       0.625   3.900 -14.402  0.00  0.00    -0.169 NA
ENDROOT
TORSDOF 0
ENDMDL
MODEL 9
REMARK VINA RESULT:    -1.879     16.050     16.745
REMARK INTER + INTRA:          -1.879
REMARK INTER:                  -1.879
REMARK INTRA:                   0.000
REMARK UNBOUND:                 0.000
REMARK  Name = /home/vital/Documents/PhD_2021/Malaria_codes/scripts/../data/pdbqt_ligands/ligand_378_temp.pdb
REMARK                            x       y       z     vdW  Elec       q    Type
REMARK                         _______ _______ _______ _____ _____    ______ ____
ROOT
ATOM      1  C1  UNL     1      -8.445   1.578 -24.431  0.00  0.00    -0.023 C 
ATOM      2  C2  UNL     1      -7.125   2.295 -24.228  0.00  0.00    +0.059 C 
ATOM      3  C3  UNL     1      -5.890   1.423 -24.147  0.00  0.00    +0.129 C 
ATOM      4  F1  UNL     1      -4.744   2.134 -23.965  0.00  0.00    -0.243 F 
ATOM      5  N1  UNL     1      -7.003   3.583 -24.124  0.00  0.00    -0.180 NA
ATOM      6  C4  UNL     1      -8.102   4.342 -24.198  0.00  0.00    +0.205 C 
ATOM      7  N2  UNL     1      -9.071   4.972 -24.266  0.00  0.00    -0.169 NA
ENDROOT
TORSDOF 0
ENDMDL
