MODEL 1
REMARK VINA RESULT:    -4.986      0.000      0.000
REMARK INTER + INTRA:          -4.986
REMARK INTER:                  -4.986
REMARK INTRA:                   0.000
REMARK UNBOUND:                 0.000
REMARK  Name = /home/vital/Documents/PhD_2021/Malaria_codes/scripts/../data/pdbqt_ligands/ligand_135_temp.pdb
REMARK                            x       y       z     vdW  Elec       q    Type
REMARK                         _______ _______ _______ _____ _____    ______ ____
ROOT
ATOM      1  C1  UNL     1       2.807   9.149 -17.123  0.00  0.00    -0.082 C 
ATOM      2  C2  UNL     1       2.424   8.658 -18.313  0.00  0.00    -0.002 C 
ATOM      3  C3  UNL     1       3.070   9.207 -19.565  0.00  0.00    -0.027 C 
ATOM      4  N1  UNL     1       1.433   7.727 -18.540  0.00  0.00    -0.316 N 
ATOM      5  C4  UNL     1       0.814   6.775 -17.708  0.00  0.00    +0.074 A 
ATOM      6  C5  UNL     1       1.387   6.277 -16.534  0.00  0.00    -0.023 A 
ATOM      7  C6  UNL     1       0.701   5.349 -15.734  0.00  0.00    +0.061 A 
ATOM      8  C7  UNL     1       1.282   4.798 -14.478  0.00  0.00    +0.339 C 
ATOM      9  O1  UNL     1       0.720   3.957 -13.792  0.00  0.00    -0.245 OA
ATOM     10  O2  UNL     1       2.489   5.357 -14.217  0.00  0.00    -0.464 OA
ATOM     11  C8  UNL     1       3.106   4.874 -13.022  0.00  0.00    +0.082 C 
ATOM     12  C9  UNL     1      -0.573   4.907 -16.117  0.00  0.00    -0.044 A 
ATOM     13  C10 UNL     1      -1.158   5.380 -17.292  0.00  0.00    -0.018 A 
ATOM     14  C11 UNL     1      -0.463   6.302 -18.072  0.00  0.00    +0.138 A 
ATOM     15  O3  UNL     1      -1.014   6.773 -19.239  0.00  0.00    -0.505 OA
ATOM     16  H   UNL     1       1.093   7.727 -19.464  0.00  0.00    +0.000 HD
ATOM     17  H   UNL     1      -0.545   7.393 -19.761  0.00  0.00    +0.000 HD
ENDROOT
TORSDOF 0
ENDMDL
MODEL 2
REMARK VINA RESULT:    -4.797      9.500     11.750
REMARK INTER + INTRA:          -4.797
REMARK INTER:                  -4.797
REMARK INTRA:                   0.000
REMARK UNBOUND:                 0.000
REMARK  Name = /home/vital/Documents/PhD_2021/Malaria_codes/scripts/../data/pdbqt_ligands/ligand_135_temp.pdb
REMARK                            x       y       z     vdW  Elec       q    Type
REMARK                         _______ _______ _______ _____ _____    ______ ____
ROOT
ATOM      1  C1  UNL     1      -1.323  -4.881 -21.702  0.00  0.00    -0.082 C 
ATOM      2  C2  UNL     1      -0.597  -3.926 -21.099  0.00  0.00    -0.002 C 
ATOM      3  C3  UNL     1       0.908  -4.069 -21.072  0.00  0.00    -0.027 C 
ATOM      4  N1  UNL     1      -1.081  -2.825 -20.425  0.00  0.00    -0.316 N 
ATOM      5  C4  UNL     1      -2.323  -2.162 -20.453  0.00  0.00    +0.074 A 
ATOM      6  C5  UNL     1      -3.223  -2.242 -21.520  0.00  0.00    -0.023 A 
ATOM      7  C6  UNL     1      -4.460  -1.579 -21.471  0.00  0.00    +0.061 A 
ATOM      8  C7  UNL     1      -5.442  -1.641 -22.589  0.00  0.00    +0.339 C 
ATOM      9  O1  UNL     1      -6.503  -1.035 -22.584  0.00  0.00    -0.245 OA
ATOM     10  O2  UNL     1      -4.996  -2.451 -23.580  0.00  0.00    -0.464 OA
ATOM     11  C8  UNL     1      -5.891  -2.559 -24.688  0.00  0.00    +0.082 C 
ATOM     12  C9  UNL     1      -4.798  -0.818 -20.343  0.00  0.00    -0.044 A 
ATOM     13  C10 UNL     1      -3.909  -0.714 -19.273  0.00  0.00    -0.018 A 
ATOM     14  C11 UNL     1      -2.687  -1.381 -19.338  0.00  0.00    +0.138 A 
ATOM     15  O3  UNL     1      -1.791  -1.283 -18.302  0.00  0.00    -0.505 OA
ATOM     16  H   UNL     1      -0.432  -2.424 -19.803  0.00  0.00    +0.000 HD
ATOM     17  H   UNL     1      -0.970  -1.733 -18.349  0.00  0.00    +0.000 HD
ENDROOT
TORSDOF 0
ENDMDL
MODEL 3
REMARK VINA RESULT:    -4.540      7.328      8.980
REMARK INTER + INTRA:          -4.540
REMARK INTER:                  -4.540
REMARK INTRA:                   0.000
REMARK UNBOUND:                 0.000
REMARK  Name = /home/vital/Documents/PhD_2021/Malaria_codes/scripts/../data/pdbqt_ligands/ligand_135_temp.pdb
REMARK                            x       y       z     vdW  Elec       q    Type
REMARK                         _______ _______ _______ _____ _____    ______ ____
ROOT
ATOM      1  C1  UNL     1       1.168  -1.003 -20.255  0.00  0.00    -0.082 C 
ATOM      2  C2  UNL     1       0.630  -1.305 -19.062  0.00  0.00    -0.002 C 
ATOM      3  C3  UNL     1       1.539  -1.807 -17.963  0.00  0.00    -0.027 C 
ATOM      4  N1  UNL     1      -0.707  -1.269 -18.728  0.00  0.00    -0.316 N 
ATOM      5  C4  UNL     1      -1.814  -0.613 -19.302  0.00  0.00    +0.074 A 
ATOM      6  C5  UNL     1      -1.710   0.516 -20.121  0.00  0.00    -0.023 A 
ATOM      7  C6  UNL     1      -2.854   1.105 -20.684  0.00  0.00    +0.061 A 
ATOM      8  C7  UNL     1      -2.781   2.307 -21.560  0.00  0.00    +0.339 C 
ATOM      9  O1  UNL     1      -3.767   2.860 -22.023  0.00  0.00    -0.245 OA
ATOM     10  O2  UNL     1      -1.493   2.680 -21.763  0.00  0.00    -0.464 OA
ATOM     11  C8  UNL     1      -1.347   3.830 -22.598  0.00  0.00    +0.082 C 
ATOM     12  C9  UNL     1      -4.119   0.562 -20.418  0.00  0.00    -0.044 A 
ATOM     13  C10 UNL     1      -4.246  -0.554 -19.593  0.00  0.00    -0.018 A 
ATOM     14  C11 UNL     1      -3.100  -1.127 -19.044  0.00  0.00    +0.138 A 
ATOM     15  O3  UNL     1      -3.202  -2.220 -18.219  0.00  0.00    -0.505 OA
ATOM     16  H   UNL     1      -0.933  -1.807 -17.935  0.00  0.00    +0.000 HD
ATOM     17  H   UNL     1      -2.430  -2.603 -17.852  0.00  0.00    +0.000 HD
ENDROOT
TORSDOF 0
ENDMDL
MODEL 4
REMARK VINA RESULT:    -4.463      2.655      5.503
REMARK INTER + INTRA:          -4.463
REMARK INTER:                  -4.463
REMARK INTRA:                   0.000
REMARK UNBOUND:                 0.000
REMARK  Name = /home/vital/Documents/PhD_2021/Malaria_codes/scripts/../data/pdbqt_ligands/ligand_135_temp.pdb
REMARK                            x       y       z     vdW  Elec       q    Type
REMARK                         _______ _______ _______ _____ _____    ______ ____
ROOT
ATOM      1  C1  UNL     1       1.907   7.301 -19.028  0.00  0.00    -0.082 C 
ATOM      2  C2  UNL     1       1.354   7.613 -17.845  0.00  0.00    -0.002 C 
ATOM      3  C3  UNL     1       2.056   8.619 -16.961  0.00  0.00    -0.027 C 
ATOM      4  N1  UNL     1       0.218   7.060 -17.294  0.00  0.00    -0.316 N 
ATOM      5  C4  UNL     1      -0.864   6.353 -17.854  0.00  0.00    +0.074 A 
ATOM      6  C5  UNL     1      -1.226   6.426 -19.203  0.00  0.00    -0.023 A 
ATOM      7  C6  UNL     1      -2.300   5.671 -19.703  0.00  0.00    +0.061 A 
ATOM      8  C7  UNL     1      -2.713   5.725 -21.132  0.00  0.00    +0.339 C 
ATOM      9  O1  UNL     1      -3.672   5.111 -21.576  0.00  0.00    -0.245 OA
ATOM     10  O2  UNL     1      -1.888   6.530 -21.845  0.00  0.00    -0.464 OA
ATOM     11  C8  UNL     1      -2.225   6.629 -23.229  0.00  0.00    +0.082 C 
ATOM     12  C9  UNL     1      -3.026   4.838 -18.840  0.00  0.00    -0.044 A 
ATOM     13  C10 UNL     1      -2.690   4.761 -17.489  0.00  0.00    -0.018 A 
ATOM     14  C11 UNL     1      -1.621   5.516 -17.011  0.00  0.00    +0.138 A 
ATOM     15  O3  UNL     1      -1.279   5.465 -15.681  0.00  0.00    -0.505 OA
ATOM     16  H   UNL     1       0.149   7.183 -16.320  0.00  0.00    +0.000 HD
ATOM     17  H   UNL     1      -0.560   5.973 -15.363  0.00  0.00    +0.000 HD
ENDROOT
TORSDOF 0
ENDMDL
MODEL 5
REMARK VINA RESULT:    -4.412      1.540      4.298
REMARK INTER + INTRA:          -4.412
REMARK INTER:                  -4.412
REMARK INTRA:                   0.000
REMARK UNBOUND:                 0.000
REMARK  Name = /home/vital/Documents/PhD_2021/Malaria_codes/scripts/../data/pdbqt_ligands/ligand_135_temp.pdb
REMARK                            x       y       z     vdW  Elec       q    Type
REMARK                         _______ _______ _______ _____ _____    ______ ____
ROOT
ATOM      1  C1  UNL     1       2.717   8.437 -19.299  0.00  0.00    -0.082 C 
ATOM      2  C2  UNL     1       2.721   8.807 -18.009  0.00  0.00    -0.002 C 
ATOM      3  C3  UNL     1       3.462  10.066 -17.619  0.00  0.00    -0.027 C 
ATOM      4  N1  UNL     1       2.163   8.119 -16.952  0.00  0.00    -0.316 N 
ATOM      5  C4  UNL     1       1.173   7.120 -16.884  0.00  0.00    +0.074 A 
ATOM      6  C5  UNL     1       0.219   6.901 -17.882  0.00  0.00    -0.023 A 
ATOM      7  C6  UNL     1      -0.724   5.866 -17.764  0.00  0.00    +0.061 A 
ATOM      8  C7  UNL     1      -1.755   5.605 -18.806  0.00  0.00    +0.339 C 
ATOM      9  O1  UNL     1      -2.610   4.739 -18.701  0.00  0.00    -0.245 OA
ATOM     10  O2  UNL     1      -1.601   6.445 -19.859  0.00  0.00    -0.464 OA
ATOM     11  C8  UNL     1      -2.558   6.250 -20.902  0.00  0.00    +0.082 C 
ATOM     12  C9  UNL     1      -0.716   5.045 -16.628  0.00  0.00    -0.044 A 
ATOM     13  C10 UNL     1       0.218   5.254 -15.614  0.00  0.00    -0.018 A 
ATOM     14  C11 UNL     1       1.147   6.284 -15.750  0.00  0.00    +0.138 A 
ATOM     15  O3  UNL     1       2.069   6.517 -14.758  0.00  0.00    -0.505 OA
ATOM     16  H   UNL     1       2.527   8.377 -16.075  0.00  0.00    +0.000 HD
ATOM     17  H   UNL     1       2.693   7.210 -14.853  0.00  0.00    +0.000 HD
ENDROOT
TORSDOF 0
ENDMDL
MODEL 6
REMARK VINA RESULT:    -4.395     11.802     13.152
REMARK INTER + INTRA:          -4.395
REMARK INTER:                  -4.395
REMARK INTRA:                   0.000
REMARK UNBOUND:                 0.000
REMARK  Name = /home/vital/Documents/PhD_2021/Malaria_codes/scripts/../data/pdbqt_ligands/ligand_135_temp.pdb
REMARK                            x       y       z     vdW  Elec       q    Type
REMARK                         _______ _______ _______ _____ _____    ______ ____
ROOT
ATOM      1  C1  UNL     1       2.460  -3.928 -20.490  0.00  0.00    -0.082 C 
ATOM      2  C2  UNL     1       1.391  -3.212 -20.107  0.00  0.00    -0.002 C 
ATOM      3  C3  UNL     1       1.592  -2.079 -19.126  0.00  0.00    -0.027 C 
ATOM      4  N1  UNL     1       0.078  -3.434 -20.465  0.00  0.00    -0.316 N 
ATOM      5  C4  UNL     1      -0.510  -4.141 -21.532  0.00  0.00    +0.074 A 
ATOM      6  C5  UNL     1       0.149  -4.432 -22.730  0.00  0.00    -0.023 A 
ATOM      7  C6  UNL     1      -0.488  -5.168 -23.743  0.00  0.00    +0.061 A 
ATOM      8  C7  UNL     1       0.183  -5.494 -25.031  0.00  0.00    +0.339 C 
ATOM      9  O1  UNL     1      -0.368  -6.094 -25.942  0.00  0.00    -0.245 OA
ATOM     10  O2  UNL     1       1.462  -5.044 -25.039  0.00  0.00    -0.464 OA
ATOM     11  C8  UNL     1       2.170  -5.324 -26.248  0.00  0.00    +0.082 C 
ATOM     12  C9  UNL     1      -1.805  -5.611 -23.558  0.00  0.00    -0.044 A 
ATOM     13  C10 UNL     1      -2.486  -5.320 -22.376  0.00  0.00    -0.018 A 
ATOM     14  C11 UNL     1      -1.837  -4.591 -21.381  0.00  0.00    +0.138 A 
ATOM     15  O3  UNL     1      -2.492  -4.283 -20.213  0.00  0.00    -0.505 OA
ATOM     16  H   UNL     1      -0.575  -3.018 -19.857  0.00  0.00    +0.000 HD
ATOM     17  H   UNL     1      -2.053  -3.793 -19.546  0.00  0.00    +0.000 HD
ENDROOT
TORSDOF 0
ENDMDL
MODEL 7
REMARK VINA RESULT:    -4.296     10.280     11.448
REMARK INTER + INTRA:          -4.296
REMARK INTER:                  -4.296
REMARK INTRA:                   0.000
REMARK UNBOUND:                 0.000
REMARK  Name = /home/vital/Documents/PhD_2021/Malaria_codes/scripts/../data/pdbqt_ligands/ligand_135_temp.pdb
REMARK                            x       y       z     vdW  Elec       q    Type
REMARK                         _______ _______ _______ _____ _____    ______ ____
ROOT
ATOM      1  C1  UNL     1      -0.360  -3.731 -22.759  0.00  0.00    -0.082 C 
ATOM      2  C2  UNL     1      -0.855  -3.783 -21.512  0.00  0.00    -0.002 C 
ATOM      3  C3  UNL     1      -2.247  -4.337 -21.308  0.00  0.00    -0.027 C 
ATOM      4  N1  UNL     1      -0.249  -3.319 -20.364  0.00  0.00    -0.316 N 
ATOM      5  C4  UNL     1       1.092  -3.024 -20.049  0.00  0.00    +0.074 A 
ATOM      6  C5  UNL     1       2.188  -3.553 -20.737  0.00  0.00    -0.023 A 
ATOM      7  C6  UNL     1       3.500  -3.193 -20.389  0.00  0.00    +0.061 A 
ATOM      8  C7  UNL     1       4.690  -3.739 -21.099  0.00  0.00    +0.339 C 
ATOM      9  O1  UNL     1       5.840  -3.473 -20.783  0.00  0.00    -0.245 OA
ATOM     10  O2  UNL     1       4.315  -4.546 -22.123  0.00  0.00    -0.464 OA
ATOM     11  C8  UNL     1       5.409  -5.105 -22.851  0.00  0.00    +0.082 C 
ATOM     12  C9  UNL     1       3.719  -2.298 -19.333  0.00  0.00    -0.044 A 
ATOM     13  C10 UNL     1       2.641  -1.769 -18.625  0.00  0.00    -0.018 A 
ATOM     14  C11 UNL     1       1.346  -2.135 -18.986  0.00  0.00    +0.138 A 
ATOM     15  O3  UNL     1       0.269  -1.636 -18.294  0.00  0.00    -0.505 OA
ATOM     16  H   UNL     1      -0.874  -3.164 -19.620  0.00  0.00    +0.000 HD
ATOM     17  H   UNL     1      -0.600  -1.883 -18.539  0.00  0.00    +0.000 HD
ENDROOT
TORSDOF 0
ENDMDL
MODEL 8
REMARK VINA RESULT:    -4.263     11.877     13.860
REMARK INTER + INTRA:          -4.263
REMARK INTER:                  -4.263
REMARK INTRA:                   0.000
REMARK UNBOUND:                 0.000
REMARK  Name = /home/vital/Documents/PhD_2021/Malaria_codes/scripts/../data/pdbqt_ligands/ligand_135_temp.pdb
REMARK                            x       y       z     vdW  Elec       q    Type
REMARK                         _______ _______ _______ _____ _____    ______ ____
ROOT
ATOM      1  C1  UNL     1      -3.772  -1.026 -22.351  0.00  0.00    -0.082 C 
ATOM      2  C2  UNL     1      -3.483  -1.637 -21.191  0.00  0.00    -0.002 C 
ATOM      3  C3  UNL     1      -3.801  -0.923 -19.897  0.00  0.00    -0.027 C 
ATOM      4  N1  UNL     1      -2.852  -2.853 -21.034  0.00  0.00    -0.316 N 
ATOM      5  C4  UNL     1      -2.662  -3.945 -21.903  0.00  0.00    +0.074 A 
ATOM      6  C5  UNL     1      -3.463  -4.199 -23.021  0.00  0.00    -0.023 A 
ATOM      7  C6  UNL     1      -3.199  -5.291 -23.864  0.00  0.00    +0.061 A 
ATOM      8  C7  UNL     1      -4.032  -5.592 -25.061  0.00  0.00    +0.339 C 
ATOM      9  O1  UNL     1      -3.846  -6.561 -25.781  0.00  0.00    -0.245 OA
ATOM     10  O2  UNL     1      -4.994  -4.652 -25.230  0.00  0.00    -0.464 OA
ATOM     11  C8  UNL     1      -5.833  -4.877 -26.364  0.00  0.00    +0.082 C 
ATOM     12  C9  UNL     1      -2.125  -6.145 -23.580  0.00  0.00    -0.044 A 
ATOM     13  C10 UNL     1      -1.321  -5.918 -22.463  0.00  0.00    -0.018 A 
ATOM     14  C11 UNL     1      -1.596  -4.828 -21.640  0.00  0.00    +0.138 A 
ATOM     15  O3  UNL     1      -0.826  -4.592 -20.527  0.00  0.00    -0.505 OA
ATOM     16  H   UNL     1      -2.459  -2.984 -20.142  0.00  0.00    +0.000 HD
ATOM     17  H   UNL     1      -1.013  -3.858 -19.975  0.00  0.00    +0.000 HD
ENDROOT
TORSDOF 0
ENDMDL
MODEL 9
REMARK VINA RESULT:    -4.156      2.895      4.985
REMARK INTER + INTRA:          -4.156
REMARK INTER:                  -4.156
REMARK INTRA:                   0.000
REMARK UNBOUND:                 0.000
REMARK  Name = /home/vital/Documents/PhD_2021/Malaria_codes/scripts/../data/pdbqt_ligands/ligand_135_temp.pdb
REMARK                            x       y       z     vdW  Elec       q    Type
REMARK                         _______ _______ _______ _____ _____    ______ ____
ROOT
ATOM      1  C1  UNL     1       2.666   6.907 -22.334  0.00  0.00    -0.082 C 
ATOM      2  C2  UNL     1       2.856   8.228 -22.479  0.00  0.00    -0.002 C 
ATOM      3  C3  UNL     1       2.756   8.826 -23.864  0.00  0.00    -0.027 C 
ATOM      4  N1  UNL     1       3.206   9.124 -21.492  0.00  0.00    -0.316 N 
ATOM      5  C4  UNL     1       3.114   9.075 -20.087  0.00  0.00    +0.074 A 
ATOM      6  C5  UNL     1       2.234   8.240 -19.394  0.00  0.00    -0.023 A 
ATOM      7  C6  UNL     1       2.215   8.220 -17.989  0.00  0.00    +0.061 A 
ATOM      8  C7  UNL     1       1.290   7.344 -17.218  0.00  0.00    +0.339 C 
ATOM      9  O1  UNL     1       1.227   7.344 -15.998  0.00  0.00    -0.245 OA
ATOM     10  O2  UNL     1       0.555   6.564 -18.050  0.00  0.00    -0.464 OA
ATOM     11  C8  UNL     1      -0.356   5.694 -17.377  0.00  0.00    +0.082 C 
ATOM     12  C9  UNL     1       3.082   9.053 -17.270  0.00  0.00    -0.044 A 
ATOM     13  C10 UNL     1       3.958   9.905 -17.942  0.00  0.00    -0.018 A 
ATOM     14  C11 UNL     1       3.965   9.909 -19.335  0.00  0.00    +0.138 A 
ATOM     15  O3  UNL     1       4.811  10.749 -20.019  0.00  0.00    -0.505 OA
ATOM     16  H   UNL     1       3.595   9.961 -21.835  0.00  0.00    +0.000 HD
ATOM     17  H   UNL     1       4.814  10.749 -20.955  0.00  0.00    +0.000 HD
ENDROOT
TORSDOF 0
ENDMDL
