MODEL 1
REMARK VINA RESULT:    -7.881      0.000      0.000
REMARK INTER + INTRA:          -7.881
REMARK INTER:                  -7.881
REMARK INTRA:                   0.000
REMARK UNBOUND:                 0.000
REMARK  Name = /home/vital/Documents/PhD_2021/Malaria_codes/scripts/../data/pdbqt_ligands/ligand_115_temp.pdb
REMARK                            x       y       z     vdW  Elec       q    Type
REMARK                         _______ _______ _______ _____ _____    ______ ____
ROOT
ATOM      1  C   UNL     1      -5.015  -1.018 -25.781  0.00  0.00    -0.078 C 
ATOM      2  C   UNL     1      -5.225  -1.510 -24.549  0.00  0.00    +0.060 C 
ATOM      3 CL   UNL     1      -5.650  -3.196 -24.439  0.00  0.00    -0.082 Cl
ATOM      4  C   UNL     1      -5.132  -0.730 -23.327  0.00  0.00    +0.102 C 
ATOM      5 CL   UNL     1      -5.045  -1.477 -21.774  0.00  0.00    -0.073 Cl
ATOM      6  C   UNL     1      -5.050   0.568 -23.291  0.00  0.00    -0.083 C 
ATOM      7  C   UNL     1      -4.971   1.864 -23.269  0.00  0.00    +0.041 C 
ATOM      8  N   UNL     1      -3.856   2.486 -22.809  0.00  0.00    -0.283 N 
ATOM      9  C   UNL     1      -3.620   3.854 -22.746  0.00  0.00    +0.222 A 
ATOM     10  N   UNL     1      -2.441   4.219 -22.232  0.00  0.00    -0.199 NA
ATOM     11  C   UNL     1      -2.183   5.533 -22.149  0.00  0.00    +0.132 A 
ATOM     12  N   UNL     1      -0.943   5.852 -21.555  0.00  0.00    -0.328 N 
ATOM     13  C   UNL     1      -1.121   6.300 -20.165  0.00  0.00    +0.012 C 
ATOM     14  C   UNL     1       0.198   6.845 -19.613  0.00  0.00    -0.025 C 
ATOM     15  C   UNL     1       1.314   5.803 -19.479  0.00  0.00    -0.003 C 
ATOM     16  N   UNL     1       0.981   4.629 -18.672  0.00  0.00    -0.316 N 
ATOM     17  C   UNL     1       0.660   4.893 -17.266  0.00  0.00    -0.004 C 
ATOM     18  C   UNL     1       1.827   5.462 -16.452  0.00  0.00    -0.037 C 
ATOM     19  C   UNL     1       1.483   5.661 -14.972  0.00  0.00    -0.034 C 
ATOM     20  C   UNL     1       1.266   4.370 -14.232  0.00  0.00    -0.086 C 
ATOM     21  C   UNL     1       2.128   3.746 -13.411  0.00  0.00    -0.060 C 
ATOM     22  C   UNL     1       3.521   4.159 -13.044  0.00  0.00    +0.101 C 
ATOM     23  O   UNL     1       4.397   3.075 -13.373  0.00  0.00    -0.233 OA
ATOM     24  O   UNL     1       5.733   3.509 -12.983  0.00  0.00    -0.250 OA
ATOM     25  C   UNL     1      -3.064   6.516 -22.618  0.00  0.00    +0.040 A 
ATOM     26  C   UNL     1      -2.812   7.911 -22.627  0.00  0.00    -0.049 A 
ATOM     27  C   UNL     1      -3.764   8.805 -23.112  0.00  0.00    -0.061 A 
ATOM     28  C   UNL     1      -4.969   8.313 -23.598  0.00  0.00    -0.060 A 
ATOM     29  C   UNL     1      -5.204   6.935 -23.605  0.00  0.00    -0.036 A 
ATOM     30  C   UNL     1      -4.266   6.025 -23.129  0.00  0.00    +0.078 A 
ATOM     31  N   UNL     1      -4.546   4.720 -23.186  0.00  0.00    -0.214 NA
ATOM     32  H   UNL     1      -3.132   1.902 -22.484  0.00  0.00    +0.000 HD
ATOM     33  H   UNL     1      -0.073   5.785 -22.011  0.00  0.00    +0.000 HD
ATOM     34  H   UNL     1       1.781   3.995 -18.697  0.00  0.00    +0.000 HD
ATOM     35  H   UNL     1       0.132   4.242 -19.082  0.00  0.00    +0.000 HD
ATOM     36  H   UNL     1       6.373   2.808 -13.185  0.00  0.00    +0.000 HD
ENDROOT
TORSDOF 0
ENDMDL
MODEL 2
REMARK VINA RESULT:    -7.827     13.171     16.952
REMARK INTER + INTRA:          -7.827
REMARK INTER:                  -7.827
REMARK INTRA:                   0.000
REMARK UNBOUND:                 0.000
REMARK  Name = /home/vital/Documents/PhD_2021/Malaria_codes/scripts/../data/pdbqt_ligands/ligand_115_temp.pdb
REMARK                            x       y       z     vdW  Elec       q    Type
REMARK                         _______ _______ _______ _____ _____    ______ ____
ROOT
ATOM      1  C   UNL     1       6.563  -0.105 -23.046  0.00  0.00    -0.078 C 
ATOM      2  C   UNL     1       6.702  -1.440 -23.011  0.00  0.00    +0.060 C 
ATOM      3 CL   UNL     1       6.838  -2.174 -21.436  0.00  0.00    -0.082 Cl
ATOM      4  C   UNL     1       6.759  -2.290 -24.187  0.00  0.00    +0.102 C 
ATOM      5 CL   UNL     1       6.567  -4.002 -24.084  0.00  0.00    -0.073 Cl
ATOM      6  C   UNL     1       6.898  -1.850 -25.404  0.00  0.00    -0.083 C 
ATOM      7  C   UNL     1       7.041  -1.397 -26.612  0.00  0.00    +0.041 C 
ATOM      8  N   UNL     1       6.053  -1.544 -27.531  0.00  0.00    -0.283 N 
ATOM      9  C   UNL     1       6.053  -1.096 -28.847  0.00  0.00    +0.222 A 
ATOM     10  N   UNL     1       4.959  -1.383 -29.561  0.00  0.00    -0.199 NA
ATOM     11  C   UNL     1       4.929  -0.972 -30.837  0.00  0.00    +0.132 A 
ATOM     12  N   UNL     1       3.769  -1.348 -31.548  0.00  0.00    -0.328 N 
ATOM     13  C   UNL     1       4.038  -2.488 -32.437  0.00  0.00    +0.012 C 
ATOM     14  C   UNL     1       2.838  -2.740 -33.353  0.00  0.00    -0.025 C 
ATOM     15  C   UNL     1       1.564  -3.185 -32.627  0.00  0.00    -0.003 C 
ATOM     16  N   UNL     1       1.703  -4.379 -31.793  0.00  0.00    -0.316 N 
ATOM     17  C   UNL     1       2.083  -5.608 -32.495  0.00  0.00    -0.004 C 
ATOM     18  C   UNL     1       1.040  -6.101 -33.504  0.00  0.00    -0.037 C 
ATOM     19  C   UNL     1       1.432  -7.424 -34.172  0.00  0.00    -0.034 C 
ATOM     20  C   UNL     1       1.438  -8.590 -33.223  0.00  0.00    -0.086 C 
ATOM     21  C   UNL     1       0.493  -9.538 -33.091  0.00  0.00    -0.060 C 
ATOM     22  C   UNL     1      -0.805  -9.660 -33.830  0.00  0.00    +0.101 C 
ATOM     23  O   UNL     1      -1.856  -9.704 -32.858  0.00  0.00    -0.233 OA
ATOM     24  O   UNL     1      -3.094  -9.843 -33.615  0.00  0.00    -0.250 OA
ATOM     25  C   UNL     1       5.958  -0.224 -31.424  0.00  0.00    +0.040 A 
ATOM     26  C   UNL     1       5.946   0.303 -32.740  0.00  0.00    -0.049 A 
ATOM     27  C   UNL     1       7.029   1.030 -33.227  0.00  0.00    -0.061 A 
ATOM     28  C   UNL     1       8.126   1.245 -32.404  0.00  0.00    -0.060 A 
ATOM     29  C   UNL     1       8.125   0.740 -31.100  0.00  0.00    -0.036 A 
ATOM     30  C   UNL     1       7.052   0.015 -30.592  0.00  0.00    +0.078 A 
ATOM     31  N   UNL     1       7.107  -0.419 -29.329  0.00  0.00    -0.214 NA
ATOM     32  H   UNL     1       5.246  -2.022 -27.233  0.00  0.00    +0.000 HD
ATOM     33  H   UNL     1       2.894  -0.905 -31.461  0.00  0.00    +0.000 HD
ATOM     34  H   UNL     1       0.808  -4.545 -31.332  0.00  0.00    +0.000 HD
ATOM     35  H   UNL     1       2.469  -4.179 -31.150  0.00  0.00    +0.000 HD
ATOM     36  H   UNL     1      -3.846  -9.877 -33.003  0.00  0.00    +0.000 HD
ENDROOT
TORSDOF 0
ENDMDL
MODEL 3
REMARK VINA RESULT:    -7.724     13.040     16.378
REMARK INTER + INTRA:          -7.724
REMARK INTER:                  -7.724
REMARK INTRA:                   0.000
REMARK UNBOUND:                 0.000
REMARK  Name = /home/vital/Documents/PhD_2021/Malaria_codes/scripts/../data/pdbqt_ligands/ligand_115_temp.pdb
REMARK                            x       y       z     vdW  Elec       q    Type
REMARK                         _______ _______ _______ _____ _____    ______ ____
ROOT
ATOM      1  C   UNL     1      12.976   1.708 -24.230  0.00  0.00    -0.078 C 
ATOM      2  C   UNL     1      12.232   2.523 -24.994  0.00  0.00    +0.060 C 
ATOM      3 CL   UNL     1      13.046   3.889 -25.709  0.00  0.00    -0.082 Cl
ATOM      4  C   UNL     1      10.812   2.345 -25.245  0.00  0.00    +0.102 C 
ATOM      5 CL   UNL     1       9.997   3.190 -26.510  0.00  0.00    -0.073 Cl
ATOM      6  C   UNL     1      10.052   1.512 -24.596  0.00  0.00    -0.083 C 
ATOM      7  C   UNL     1       9.305   0.679 -23.938  0.00  0.00    +0.041 C 
ATOM      8  N   UNL     1       8.739  -0.387 -24.559  0.00  0.00    -0.283 N 
ATOM      9  C   UNL     1       7.939  -1.369 -23.985  0.00  0.00    +0.222 A 
ATOM     10  N   UNL     1       7.484  -2.311 -24.818  0.00  0.00    -0.199 NA
ATOM     11  C   UNL     1       6.703  -3.270 -24.299  0.00  0.00    +0.132 A 
ATOM     12  N   UNL     1       6.218  -4.206 -25.238  0.00  0.00    -0.328 N 
ATOM     13  C   UNL     1       4.815  -3.934 -25.582  0.00  0.00    +0.012 C 
ATOM     14  C   UNL     1       4.246  -5.076 -26.426  0.00  0.00    -0.025 C 
ATOM     15  C   UNL     1       4.894  -5.235 -27.805  0.00  0.00    -0.003 C 
ATOM     16  N   UNL     1       4.866  -4.042 -28.652  0.00  0.00    -0.316 N 
ATOM     17  C   UNL     1       3.533  -3.548 -29.011  0.00  0.00    -0.004 C 
ATOM     18  C   UNL     1       2.718  -4.516 -29.876  0.00  0.00    -0.037 C 
ATOM     19  C   UNL     1       1.359  -3.944 -30.295  0.00  0.00    -0.034 C 
ATOM     20  C   UNL     1       1.469  -2.785 -31.248  0.00  0.00    -0.086 C 
ATOM     21  C   UNL     1       1.286  -2.805 -32.580  0.00  0.00    -0.060 C 
ATOM     22  C   UNL     1       0.953  -3.978 -33.451  0.00  0.00    +0.101 C 
ATOM     23  O   UNL     1       1.965  -4.070 -34.461  0.00  0.00    -0.233 OA
ATOM     24  O   UNL     1       1.594  -5.207 -35.295  0.00  0.00    -0.250 OA
ATOM     25  C   UNL     1       6.393  -3.348 -22.935  0.00  0.00    +0.040 A 
ATOM     26  C   UNL     1       5.639  -4.379 -22.319  0.00  0.00    -0.049 A 
ATOM     27  C   UNL     1       5.383  -4.356 -20.951  0.00  0.00    -0.061 A 
ATOM     28  C   UNL     1       5.883  -3.311 -20.186  0.00  0.00    -0.060 A 
ATOM     29  C   UNL     1       6.643  -2.307 -20.794  0.00  0.00    -0.036 A 
ATOM     30  C   UNL     1       6.914  -2.313 -22.158  0.00  0.00    +0.078 A 
ATOM     31  N   UNL     1       7.666  -1.334 -22.671  0.00  0.00    -0.214 NA
ATOM     32  H   UNL     1       8.913  -0.475 -25.524  0.00  0.00    +0.000 HD
ATOM     33  H   UNL     1       6.751  -4.944 -25.614  0.00  0.00    +0.000 HD
ATOM     34  H   UNL     1       5.363  -4.259 -29.516  0.00  0.00    +0.000 HD
ATOM     35  H   UNL     1       5.297  -3.300 -28.101  0.00  0.00    +0.000 HD
ATOM     36  H   UNL     1       2.249  -5.317 -36.002  0.00  0.00    +0.000 HD
ENDROOT
TORSDOF 0
ENDMDL
MODEL 4
REMARK VINA RESULT:    -7.494     11.964     14.766
REMARK INTER + INTRA:          -7.494
REMARK INTER:                  -7.494
REMARK INTRA:                   0.000
REMARK UNBOUND:                 0.000
REMARK  Name = /home/vital/Documents/PhD_2021/Malaria_codes/scripts/../data/pdbqt_ligands/ligand_115_temp.pdb
REMARK                            x       y       z     vdW  Elec       q    Type
REMARK                         _______ _______ _______ _____ _____    ______ ____
ROOT
ATOM      1  C   UNL     1       7.452   1.237 -33.388  0.00  0.00    -0.078 C 
ATOM      2  C   UNL     1       6.323   1.900 -33.089  0.00  0.00    +0.060 C 
ATOM      3 CL   UNL     1       5.738   3.030 -34.281  0.00  0.00    -0.082 Cl
ATOM      4  C   UNL     1       5.584   1.744 -31.849  0.00  0.00    +0.102 C 
ATOM      5 CL   UNL     1       3.970   2.329 -31.671  0.00  0.00    -0.073 Cl
ATOM      6  C   UNL     1       6.032   1.116 -30.803  0.00  0.00    -0.083 C 
ATOM      7  C   UNL     1       6.494   0.488 -29.764  0.00  0.00    +0.041 C 
ATOM      8  N   UNL     1       5.911  -0.658 -29.328  0.00  0.00    -0.283 N 
ATOM      9  C   UNL     1       6.304  -1.446 -28.252  0.00  0.00    +0.222 A 
ATOM     10  N   UNL     1       5.550  -2.524 -28.014  0.00  0.00    -0.199 NA
ATOM     11  C   UNL     1       5.896  -3.304 -26.978  0.00  0.00    +0.132 A 
ATOM     12  N   UNL     1       5.033  -4.397 -26.751  0.00  0.00    -0.328 N 
ATOM     13  C   UNL     1       4.132  -4.136 -25.619  0.00  0.00    +0.012 C 
ATOM     14  C   UNL     1       3.361  -5.406 -25.253  0.00  0.00    -0.025 C 
ATOM     15  C   UNL     1       2.392  -5.899 -26.333  0.00  0.00    -0.003 C 
ATOM     16  N   UNL     1       1.395  -4.923 -26.772  0.00  0.00    -0.316 N 
ATOM     17  C   UNL     1       0.466  -4.452 -25.741  0.00  0.00    -0.004 C 
ATOM     18  C   UNL     1      -0.451  -5.544 -25.178  0.00  0.00    -0.037 C 
ATOM     19  C   UNL     1      -1.458  -5.010 -24.154  0.00  0.00    -0.034 C 
ATOM     20  C   UNL     1      -2.491  -4.097 -24.755  0.00  0.00    -0.086 C 
ATOM     21  C   UNL     1      -3.763  -4.401 -25.070  0.00  0.00    -0.060 C 
ATOM     22  C   UNL     1      -4.462  -5.720 -24.928  0.00  0.00    +0.101 C 
ATOM     23  O   UNL     1      -4.969  -6.084 -26.217  0.00  0.00    -0.233 OA
ATOM     24  O   UNL     1      -5.656  -7.357 -26.030  0.00  0.00    -0.250 OA
ATOM     25  C   UNL     1       7.025  -3.062 -26.184  0.00  0.00    +0.040 A 
ATOM     26  C   UNL     1       7.482  -3.892 -25.129  0.00  0.00    -0.049 A 
ATOM     27  C   UNL     1       8.617  -3.553 -24.396  0.00  0.00    -0.061 A 
ATOM     28  C   UNL     1       9.308  -2.392 -24.715  0.00  0.00    -0.060 A 
ATOM     29  C   UNL     1       8.865  -1.588 -25.770  0.00  0.00    -0.036 A 
ATOM     30  C   UNL     1       7.736  -1.910 -26.517  0.00  0.00    +0.078 A 
ATOM     31  N   UNL     1       7.381  -1.108 -27.526  0.00  0.00    -0.214 NA
ATOM     32  H   UNL     1       5.122  -0.966 -29.830  0.00  0.00    +0.000 HD
ATOM     33  H   UNL     1       5.035  -5.227 -27.282  0.00  0.00    +0.000 HD
ATOM     34  H   UNL     1       0.845  -5.351 -27.518  0.00  0.00    +0.000 HD
ATOM     35  H   UNL     1       1.923  -4.101 -27.066  0.00  0.00    +0.000 HD
ATOM     36  H   UNL     1      -6.022  -7.654 -26.878  0.00  0.00    +0.000 HD
ENDROOT
TORSDOF 0
ENDMDL
MODEL 5
REMARK VINA RESULT:    -7.337      9.777     14.323
REMARK INTER + INTRA:          -7.337
REMARK INTER:                  -7.337
REMARK INTRA:                   0.000
REMARK UNBOUND:                 0.000
REMARK  Name = /home/vital/Documents/PhD_2021/Malaria_codes/scripts/../data/pdbqt_ligands/ligand_115_temp.pdb
REMARK                            x       y       z     vdW  Elec       q    Type
REMARK                         _______ _______ _______ _____ _____    ______ ____
ROOT
ATOM      1  C   UNL     1       3.389  -3.919 -19.343  0.00  0.00    -0.078 C 
ATOM      2  C   UNL     1       3.969  -3.693 -20.533  0.00  0.00    +0.060 C 
ATOM      3 CL   UNL     1       5.704  -3.846 -20.601  0.00  0.00    -0.082 Cl
ATOM      4  C   UNL     1       3.251  -3.322 -21.739  0.00  0.00    +0.102 C 
ATOM      5 CL   UNL     1       3.985  -3.405 -23.299  0.00  0.00    -0.073 Cl
ATOM      6  C   UNL     1       2.003  -2.956 -21.766  0.00  0.00    -0.083 C 
ATOM      7  C   UNL     1       0.757  -2.590 -21.777  0.00  0.00    +0.041 C 
ATOM      8  N   UNL     1      -0.183  -3.343 -22.402  0.00  0.00    -0.283 N 
ATOM      9  C   UNL     1      -1.549  -3.092 -22.479  0.00  0.00    +0.222 A 
ATOM     10  N   UNL     1      -2.267  -3.982 -23.172  0.00  0.00    -0.199 NA
ATOM     11  C   UNL     1      -3.587  -3.767 -23.273  0.00  0.00    +0.132 A 
ATOM     12  N   UNL     1      -4.279  -4.715 -24.057  0.00  0.00    -0.328 N 
ATOM     13  C   UNL     1      -4.587  -4.178 -25.390  0.00  0.00    +0.012 C 
ATOM     14  C   UNL     1      -5.520  -5.130 -26.141  0.00  0.00    -0.025 C 
ATOM     15  C   UNL     1      -4.906  -6.495 -26.474  0.00  0.00    -0.003 C 
ATOM     16  N   UNL     1      -3.659  -6.451 -27.237  0.00  0.00    -0.316 N 
ATOM     17  C   UNL     1      -3.745  -5.839 -28.566  0.00  0.00    -0.004 C 
ATOM     18  C   UNL     1      -4.640  -6.601 -29.550  0.00  0.00    -0.037 C 
ATOM     19  C   UNL     1      -4.656  -5.978 -30.950  0.00  0.00    -0.034 C 
ATOM     20  C   UNL     1      -3.338  -6.091 -31.667  0.00  0.00    -0.086 C 
ATOM     21  C   UNL     1      -3.007  -6.970 -32.629  0.00  0.00    -0.060 C 
ATOM     22  C   UNL     1      -3.848  -8.066 -33.212  0.00  0.00    +0.101 C 
ATOM     23  O   UNL     1      -3.132  -9.296 -33.050  0.00  0.00    -0.233 OA
ATOM     24  O   UNL     1      -3.972 -10.328 -33.645  0.00  0.00    -0.250 OA
ATOM     25  C   UNL     1      -4.236  -2.693 -22.649  0.00  0.00    +0.040 A 
ATOM     26  C   UNL     1      -5.634  -2.460 -22.656  0.00  0.00    -0.049 A 
ATOM     27  C   UNL     1      -6.177  -1.354 -22.006  0.00  0.00    -0.061 A 
ATOM     28  C   UNL     1      -5.330  -0.479 -21.339  0.00  0.00    -0.060 A 
ATOM     29  C   UNL     1      -3.954  -0.724 -21.318  0.00  0.00    -0.036 A 
ATOM     30  C   UNL     1      -3.392  -1.825 -21.957  0.00  0.00    +0.078 A 
ATOM     31  N   UNL     1      -2.071  -2.012 -21.878  0.00  0.00    -0.214 NA
ATOM     32  H   UNL     1       0.137  -4.158 -22.852  0.00  0.00    +0.000 HD
ATOM     33  H   UNL     1      -4.523  -5.619 -23.750  0.00  0.00    +0.000 HD
ATOM     34  H   UNL     1      -3.330  -7.410 -27.354  0.00  0.00    +0.000 HD
ATOM     35  H   UNL     1      -3.026  -5.859 -26.700  0.00  0.00    +0.000 HD
ATOM     36  H   UNL     1      -3.533 -11.189 -33.563  0.00  0.00    +0.000 HD
ENDROOT
TORSDOF 0
ENDMDL
MODEL 6
REMARK VINA RESULT:    -7.138     11.011     15.387
REMARK INTER + INTRA:          -7.138
REMARK INTER:                  -7.138
REMARK INTRA:                   0.000
REMARK UNBOUND:                 0.000
REMARK  Name = /home/vital/Documents/PhD_2021/Malaria_codes/scripts/../data/pdbqt_ligands/ligand_115_temp.pdb
REMARK                            x       y       z     vdW  Elec       q    Type
REMARK                         _______ _______ _______ _____ _____    ______ ____
ROOT
ATOM      1  C   UNL     1      -1.530  -0.486 -20.619  0.00  0.00    -0.078 C 
ATOM      2  C   UNL     1      -2.191  -1.653 -20.686  0.00  0.00    +0.060 C 
ATOM      3 CL   UNL     1      -3.684  -1.762 -19.792  0.00  0.00    -0.082 Cl
ATOM      4  C   UNL     1      -1.737  -2.812 -21.435  0.00  0.00    +0.102 C 
ATOM      5 CL   UNL     1      -2.785  -4.137 -21.787  0.00  0.00    -0.073 Cl
ATOM      6  C   UNL     1      -0.547  -2.934 -21.946  0.00  0.00    -0.083 C 
ATOM      7  C   UNL     1       0.645  -3.043 -22.449  0.00  0.00    +0.041 C 
ATOM      8  N   UNL     1       0.831  -3.095 -23.793  0.00  0.00    -0.283 N 
ATOM      9  C   UNL     1       2.040  -3.188 -24.472  0.00  0.00    +0.222 A 
ATOM     10  N   UNL     1       1.956  -3.242 -25.806  0.00  0.00    -0.199 NA
ATOM     11  C   UNL     1       3.104  -3.340 -26.494  0.00  0.00    +0.132 A 
ATOM     12  N   UNL     1       2.944  -3.440 -27.893  0.00  0.00    -0.328 N 
ATOM     13  C   UNL     1       3.125  -4.826 -28.349  0.00  0.00    +0.012 C 
ATOM     14  C   UNL     1       3.164  -4.878 -29.878  0.00  0.00    -0.025 C 
ATOM     15  C   UNL     1       1.854  -4.476 -30.565  0.00  0.00    -0.003 C 
ATOM     16  N   UNL     1       0.674  -5.237 -30.156  0.00  0.00    -0.316 N 
ATOM     17  C   UNL     1       0.717  -6.677 -30.431  0.00  0.00    -0.004 C 
ATOM     18  C   UNL     1       0.766  -7.029 -31.922  0.00  0.00    -0.037 C 
ATOM     19  C   UNL     1       0.739  -8.539 -32.181  0.00  0.00    -0.034 C 
ATOM     20  C   UNL     1      -0.569  -9.183 -31.812  0.00  0.00    -0.086 C 
ATOM     21  C   UNL     1      -1.560  -9.550 -32.644  0.00  0.00    -0.060 C 
ATOM     22  C   UNL     1      -1.625  -9.390 -34.133  0.00  0.00    +0.101 C 
ATOM     23  O   UNL     1      -2.814  -8.652 -34.439  0.00  0.00    -0.233 OA
ATOM     24  O   UNL     1      -2.849  -8.537 -35.891  0.00  0.00    -0.250 OA
ATOM     25  C   UNL     1       4.364  -3.339 -25.882  0.00  0.00    +0.040 A 
ATOM     26  C   UNL     1       5.609  -3.361 -26.560  0.00  0.00    -0.049 A 
ATOM     27  C   UNL     1       6.808  -3.364 -25.851  0.00  0.00    -0.061 A 
ATOM     28  C   UNL     1       6.774  -3.334 -24.463  0.00  0.00    -0.060 A 
ATOM     29  C   UNL     1       5.544  -3.291 -23.799  0.00  0.00    -0.036 A 
ATOM     30  C   UNL     1       4.335  -3.284 -24.488  0.00  0.00    +0.078 A 
ATOM     31  N   UNL     1       3.196  -3.220 -23.792  0.00  0.00    -0.214 NA
ATOM     32  H   UNL     1       0.019  -3.062 -24.348  0.00  0.00    +0.000 HD
ATOM     33  H   UNL     1       2.739  -2.680 -28.485  0.00  0.00    +0.000 HD
ATOM     34  H   UNL     1      -0.134  -4.849 -30.645  0.00  0.00    +0.000 HD
ATOM     35  H   UNL     1       0.625  -5.150 -29.142  0.00  0.00    +0.000 HD
ATOM     36  H   UNL     1      -3.640  -8.042 -36.157  0.00  0.00    +0.000 HD
ENDROOT
TORSDOF 0
ENDMDL
MODEL 7
REMARK VINA RESULT:    -7.081      5.961      7.359
REMARK INTER + INTRA:          -7.081
REMARK INTER:                  -7.081
REMARK INTRA:                   0.000
REMARK UNBOUND:                 0.000
REMARK  Name = /home/vital/Documents/PhD_2021/Malaria_codes/scripts/../data/pdbqt_ligands/ligand_115_temp.pdb
REMARK                            x       y       z     vdW  Elec       q    Type
REMARK                         _______ _______ _______ _____ _____    ______ ____
ROOT
ATOM      1  C   UNL     1       3.626  -4.409 -25.762  0.00  0.00    -0.078 C 
ATOM      2  C   UNL     1       4.559  -4.231 -24.813  0.00  0.00    +0.060 C 
ATOM      3 CL   UNL     1       6.157  -4.833 -25.162  0.00  0.00    -0.082 Cl
ATOM      4  C   UNL     1       4.316  -3.591 -23.533  0.00  0.00    +0.102 C 
ATOM      5 CL   UNL     1       5.609  -3.062 -22.519  0.00  0.00    -0.073 Cl
ATOM      6  C   UNL     1       3.135  -3.310 -23.066  0.00  0.00    -0.083 C 
ATOM      7  C   UNL     1       1.950  -3.039 -22.611  0.00  0.00    +0.041 C 
ATOM      8  N   UNL     1       1.551  -1.754 -22.431  0.00  0.00    -0.283 N 
ATOM      9  C   UNL     1       0.314  -1.312 -21.976  0.00  0.00    +0.222 A 
ATOM     10  N   UNL     1       0.173   0.014 -21.867  0.00  0.00    -0.199 NA
ATOM     11  C   UNL     1      -1.006   0.476 -21.424  0.00  0.00    +0.132 A 
ATOM     12  N   UNL     1      -1.074   1.878 -21.287  0.00  0.00    -0.328 N 
ATOM     13  C   UNL     1      -0.945   2.281 -19.879  0.00  0.00    +0.012 C 
ATOM     14  C   UNL     1      -1.237   3.775 -19.727  0.00  0.00    -0.025 C 
ATOM     15  C   UNL     1      -0.230   4.697 -20.423  0.00  0.00    -0.003 C 
ATOM     16  N   UNL     1       1.167   4.508 -20.032  0.00  0.00    -0.316 N 
ATOM     17  C   UNL     1       1.473   4.756 -18.620  0.00  0.00    -0.004 C 
ATOM     18  C   UNL     1       1.260   6.209 -18.179  0.00  0.00    -0.037 C 
ATOM     19  C   UNL     1       1.655   6.454 -16.719  0.00  0.00    -0.034 C 
ATOM     20  C   UNL     1       3.133   6.329 -16.472  0.00  0.00    -0.086 C 
ATOM     21  C   UNL     1       4.024   7.327 -16.336  0.00  0.00    -0.060 C 
ATOM     22  C   UNL     1       3.779   8.803 -16.418  0.00  0.00    +0.101 C 
ATOM     23  O   UNL     1       4.647   9.332 -17.428  0.00  0.00    -0.233 OA
ATOM     24  O   UNL     1       4.392  10.767 -17.461  0.00  0.00    -0.250 OA
ATOM     25  C   UNL     1      -2.090  -0.360 -21.124  0.00  0.00    +0.040 A 
ATOM     26  C   UNL     1      -3.380   0.074 -20.728  0.00  0.00    -0.049 A 
ATOM     27  C   UNL     1      -4.388  -0.845 -20.447  0.00  0.00    -0.061 A 
ATOM     28  C   UNL     1      -4.119  -2.202 -20.567  0.00  0.00    -0.060 A 
ATOM     29  C   UNL     1      -2.851  -2.625 -20.978  0.00  0.00    -0.036 A 
ATOM     30  C   UNL     1      -1.832  -1.724 -21.267  0.00  0.00    +0.078 A 
ATOM     31  N   UNL     1      -0.650  -2.195 -21.677  0.00  0.00    -0.214 NA
ATOM     32  H   UNL     1       2.212  -1.057 -22.647  0.00  0.00    +0.000 HD
ATOM     33  H   UNL     1      -1.193   2.506 -22.037  0.00  0.00    +0.000 HD
ATOM     34  H   UNL     1       1.737   5.142 -20.593  0.00  0.00    +0.000 HD
ATOM     35  H   UNL     1       1.367   3.521 -20.190  0.00  0.00    +0.000 HD
ATOM     36  H   UNL     1       4.957  11.180 -18.134  0.00  0.00    +0.000 HD
ENDROOT
TORSDOF 0
ENDMDL
MODEL 8
REMARK VINA RESULT:    -7.070     11.521     15.011
REMARK INTER + INTRA:          -7.070
REMARK INTER:                  -7.070
REMARK INTRA:                   0.000
REMARK UNBOUND:                 0.000
REMARK  Name = /home/vital/Documents/PhD_2021/Malaria_codes/scripts/../data/pdbqt_ligands/ligand_115_temp.pdb
REMARK                            x       y       z     vdW  Elec       q    Type
REMARK                         _______ _______ _______ _____ _____    ______ ____
ROOT
ATOM      1  C   UNL     1      -1.735  -6.224 -23.365  0.00  0.00    -0.078 C 
ATOM      2  C   UNL     1      -2.037  -4.927 -23.534  0.00  0.00    +0.060 C 
ATOM      3 CL   UNL     1      -2.744  -4.102 -22.171  0.00  0.00    -0.082 Cl
ATOM      4  C   UNL     1      -1.826  -4.189 -24.767  0.00  0.00    +0.102 C 
ATOM      5 CL   UNL     1      -1.882  -2.464 -24.817  0.00  0.00    -0.073 Cl
ATOM      6  C   UNL     1      -1.526  -4.737 -25.907  0.00  0.00    -0.083 C 
ATOM      7  C   UNL     1      -1.230  -5.299 -27.040  0.00  0.00    +0.041 C 
ATOM      8  N   UNL     1      -0.030  -5.076 -27.634  0.00  0.00    -0.283 N 
ATOM      9  C   UNL     1       0.434  -5.620 -28.826  0.00  0.00    +0.222 A 
ATOM     10  N   UNL     1       1.653  -5.227 -29.211  0.00  0.00    -0.199 NA
ATOM     11  C   UNL     1       2.129  -5.726 -30.362  0.00  0.00    +0.132 A 
ATOM     12  N   UNL     1       3.398  -5.236 -30.735  0.00  0.00    -0.328 N 
ATOM     13  C   UNL     1       3.285  -4.222 -31.794  0.00  0.00    +0.012 C 
ATOM     14  C   UNL     1       4.671  -3.864 -32.334  0.00  0.00    -0.025 C 
ATOM     15  C   UNL     1       5.593  -3.176 -31.321  0.00  0.00    -0.003 C 
ATOM     16  N   UNL     1       5.059  -1.957 -30.715  0.00  0.00    -0.316 N 
ATOM     17  C   UNL     1       4.772  -0.858 -31.641  0.00  0.00    -0.004 C 
ATOM     18  C   UNL     1       6.011  -0.292 -32.345  0.00  0.00    -0.037 C 
ATOM     19  C   UNL     1       5.691   0.901 -33.252  0.00  0.00    -0.034 C 
ATOM     20  C   UNL     1       5.250   2.123 -32.495  0.00  0.00    -0.086 C 
ATOM     21  C   UNL     1       5.986   3.210 -32.203  0.00  0.00    -0.060 C 
ATOM     22  C   UNL     1       7.426   3.469 -32.531  0.00  0.00    +0.101 C 
ATOM     23  O   UNL     1       8.109   3.745 -31.303  0.00  0.00    -0.233 OA
ATOM     24  O   UNL     1       9.495   4.010 -31.668  0.00  0.00    -0.250 OA
ATOM     25  C   UNL     1       1.431  -6.664 -31.134  0.00  0.00    +0.040 A 
ATOM     26  C   UNL     1       1.915  -7.284 -32.314  0.00  0.00    -0.049 A 
ATOM     27  C   UNL     1       1.133  -8.202 -33.011  0.00  0.00    -0.061 A 
ATOM     28  C   UNL     1      -0.132  -8.514 -32.532  0.00  0.00    -0.060 A 
ATOM     29  C   UNL     1      -0.598  -7.916 -31.357  0.00  0.00    -0.036 A 
ATOM     30  C   UNL     1       0.169  -7.000 -30.643  0.00  0.00    +0.078 A 
ATOM     31  N   UNL     1      -0.328  -6.483 -29.516  0.00  0.00    -0.214 NA
ATOM     32  H   UNL     1       0.581  -4.460 -27.168  0.00  0.00    +0.000 HD
ATOM     33  H   UNL     1       4.249  -5.535 -30.338  0.00  0.00    +0.000 HD
ATOM     34  H   UNL     1       5.740  -1.622 -30.032  0.00  0.00    +0.000 HD
ATOM     35  H   UNL     1       4.161  -2.219 -30.310  0.00  0.00    +0.000 HD
ATOM     36  H   UNL     1      10.009   4.205 -30.868  0.00  0.00    +0.000 HD
ENDROOT
TORSDOF 0
ENDMDL
MODEL 9
REMARK VINA RESULT:    -6.982     10.263     12.510
REMARK INTER + INTRA:          -6.982
REMARK INTER:                  -6.982
REMARK INTRA:                   0.000
REMARK UNBOUND:                 0.000
REMARK  Name = /home/vital/Documents/PhD_2021/Malaria_codes/scripts/../data/pdbqt_ligands/ligand_115_temp.pdb
REMARK                            x       y       z     vdW  Elec       q    Type
REMARK                         _______ _______ _______ _____ _____    ______ ____
ROOT
ATOM      1  C   UNL     1      10.897   2.308 -28.610  0.00  0.00    -0.078 C 
ATOM      2  C   UNL     1      11.628   2.762 -27.579  0.00  0.00    +0.060 C 
ATOM      3 CL   UNL     1      12.831   3.970 -27.941  0.00  0.00    -0.082 Cl
ATOM      4  C   UNL     1      11.485   2.304 -26.208  0.00  0.00    +0.102 C 
ATOM      5 CL   UNL     1      12.175   3.168 -24.883  0.00  0.00    -0.073 Cl
ATOM      6  C   UNL     1      10.796   1.260 -25.852  0.00  0.00    -0.083 C 
ATOM      7  C   UNL     1      10.107   0.214 -25.511  0.00  0.00    +0.041 C 
ATOM      8  N   UNL     1       8.991   0.334 -24.747  0.00  0.00    -0.283 N 
ATOM      9  C   UNL     1       8.146  -0.685 -24.325  0.00  0.00    +0.222 A 
ATOM     10  N   UNL     1       7.116  -0.308 -23.560  0.00  0.00    -0.199 NA
ATOM     11  C   UNL     1       6.283  -1.268 -23.127  0.00  0.00    +0.132 A 
ATOM     12  N   UNL     1       5.245  -0.811 -22.287  0.00  0.00    -0.328 N 
ATOM     13  C   UNL     1       5.534  -1.111 -20.877  0.00  0.00    +0.012 C 
ATOM     14  C   UNL     1       4.310  -0.807 -20.011  0.00  0.00    -0.025 C 
ATOM     15  C   UNL     1       3.918   0.673 -19.955  0.00  0.00    -0.003 C 
ATOM     16  N   UNL     1       4.974   1.584 -19.512  0.00  0.00    -0.316 N 
ATOM     17  C   UNL     1       5.476   1.365 -18.152  0.00  0.00    -0.004 C 
ATOM     18  C   UNL     1       4.434   1.600 -17.054  0.00  0.00    -0.037 C 
ATOM     19  C   UNL     1       5.005   1.432 -15.641  0.00  0.00    -0.034 C 
ATOM     20  C   UNL     1       6.004   2.494 -15.274  0.00  0.00    -0.086 C 
ATOM     21  C   UNL     1       5.799   3.574 -14.499  0.00  0.00    -0.060 C 
ATOM     22  C   UNL     1       4.528   4.004 -13.830  0.00  0.00    +0.101 C 
ATOM     23  O   UNL     1       4.238   5.338 -14.265  0.00  0.00    -0.233 OA
ATOM     24  O   UNL     1       3.012   5.724 -13.579  0.00  0.00    -0.250 OA
ATOM     25  C   UNL     1       6.422  -2.616 -23.482  0.00  0.00    +0.040 A 
ATOM     26  C   UNL     1       5.532  -3.658 -23.120  0.00  0.00    -0.049 A 
ATOM     27  C   UNL     1       5.768  -4.971 -23.522  0.00  0.00    -0.061 A 
ATOM     28  C   UNL     1       6.888  -5.251 -24.293  0.00  0.00    -0.060 A 
ATOM     29  C   UNL     1       7.752  -4.217 -24.665  0.00  0.00    -0.036 A 
ATOM     30  C   UNL     1       7.532  -2.899 -24.277  0.00  0.00    +0.078 A 
ATOM     31  N   UNL     1       8.386  -1.955 -24.686  0.00  0.00    -0.214 NA
ATOM     32  H   UNL     1       8.754   1.245 -24.460  0.00  0.00    +0.000 HD
ATOM     33  H   UNL     1       4.434  -0.351 -22.604  0.00  0.00    +0.000 HD
ATOM     34  H   UNL     1       4.607   2.535 -19.561  0.00  0.00    +0.000 HD
ATOM     35  H   UNL     1       5.766   1.413 -20.131  0.00  0.00    +0.000 HD
ATOM     36  H   UNL     1       2.766   6.626 -13.838  0.00  0.00    +0.000 HD
ENDROOT
TORSDOF 0
ENDMDL
