MODEL 1
REMARK VINA RESULT:    -9.420      0.000      0.000
REMARK INTER + INTRA:          -9.420
REMARK INTER:                  -9.420
REMARK INTRA:                   0.000
REMARK UNBOUND:                 0.000
REMARK  Name = /home/vital/Documents/PhD_2021/Malaria_codes/scripts/../data/pdbqt_ligands/ligand_280_temp.pdb
REMARK                            x       y       z     vdW  Elec       q    Type
REMARK                         _______ _______ _______ _____ _____    ______ ____
ROOT
ATOM      1  C1  UNL     1      -4.183  -2.707 -21.126  0.00  0.00    +0.079 C 
ATOM      2  O1  UNL     1      -2.780  -2.530 -20.965  0.00  0.00    -0.495 OA
ATOM      3  C2  UNL     1      -2.350  -1.269 -20.655  0.00  0.00    +0.120 A 
ATOM      4  C3  UNL     1      -3.157  -0.153 -20.449  0.00  0.00    -0.018 A 
ATOM      5  C4  UNL     1      -2.584   1.089 -20.134  0.00  0.00    -0.037 A 
ATOM      6  C5  UNL     1      -1.200   1.229 -20.026  0.00  0.00    +0.034 A 
ATOM      7  N1  UNL     1      -0.548   2.437 -19.711  0.00  0.00    -0.280 N 
ATOM      8  C6  UNL     1      -1.116   3.680 -19.487  0.00  0.00    +0.266 C 
ATOM      9  O2  UNL     1      -2.312   3.937 -19.559  0.00  0.00    -0.268 OA
ATOM     10  C7  UNL     1      -0.130   4.682 -19.149  0.00  0.00    +0.118 A 
ATOM     11  C8  UNL     1       0.118   5.949 -19.717  0.00  0.00    +0.018 A 
ATOM     12  C9  UNL     1      -0.611   6.480 -20.856  0.00  0.00    -0.015 A 
ATOM     13  C10 UNL     1       0.054   6.703 -22.067  0.00  0.00    -0.051 A 
ATOM     14  C11 UNL     1      -0.630   7.238 -23.166  0.00  0.00    -0.019 A 
ATOM     15  C12 UNL     1      -1.984   7.557 -23.060  0.00  0.00    +0.120 A 
ATOM     16  O3  UNL     1      -2.765   8.087 -24.050  0.00  0.00    -0.495 OA
ATOM     17  C13 UNL     1      -2.146   8.306 -25.310  0.00  0.00    +0.079 C 
ATOM     18  C14 UNL     1      -2.645   7.337 -21.849  0.00  0.00    -0.019 A 
ATOM     19  C15 UNL     1      -1.964   6.805 -20.751  0.00  0.00    -0.051 A 
ATOM     20  C16 UNL     1       1.228   6.558 -19.026  0.00  0.00    +0.004 A 
ATOM     21  C17 UNL     1       1.583   5.637 -18.098  0.00  0.00    +0.123 A 
ATOM     22  N2  UNL     1       0.762   4.557 -18.119  0.00  0.00    -0.295 N 
ATOM     23  C18 UNL     1       1.094   3.706 -17.076  0.00  0.00    +0.036 A 
ATOM     24  C19 UNL     1       2.129   4.287 -16.418  0.00  0.00    +0.067 A 
ATOM     25  C20 UNL     1       2.822   3.768 -15.243  0.00  0.00    -0.000 A 
ATOM     26  C21 UNL     1       4.219   3.657 -15.236  0.00  0.00    -0.053 A 
ATOM     27  C22 UNL     1       4.886   3.155 -14.115  0.00  0.00    -0.061 A 
ATOM     28  C23 UNL     1       4.162   2.759 -12.993  0.00  0.00    -0.062 A 
ATOM     29  C24 UNL     1       2.772   2.864 -12.988  0.00  0.00    -0.061 A 
ATOM     30  C25 UNL     1       2.105   3.365 -14.109  0.00  0.00    -0.053 A 
ATOM     31  N3  UNL     1       2.462   5.496 -17.076  0.00  0.00    -0.325 N 
ATOM     32  C26 UNL     1       3.218   6.652 -16.614  0.00  0.00    +0.025 C 
ATOM     33  C27 UNL     1       2.348   7.920 -16.549  0.00  0.00    -0.035 C 
ATOM     34  C28 UNL     1       2.059   8.659 -17.877  0.00  0.00    -0.047 C 
ATOM     35  C29 UNL     1       1.921   7.859 -19.184  0.00  0.00    -0.024 C 
ATOM     36  C30 UNL     1      -0.395   0.104 -20.234  0.00  0.00    -0.037 A 
ATOM     37  C31 UNL     1      -0.967  -1.133 -20.544  0.00  0.00    -0.018 A 
ATOM     38  H   UNL     1       0.434   2.392 -19.641  0.00  0.00    +0.000 HD
ENDROOT
TORSDOF 0
ENDMDL
MODEL 2
REMARK VINA RESULT:    -9.398     11.014     15.611
REMARK INTER + INTRA:          -9.398
REMARK INTER:                  -9.398
REMARK INTRA:                   0.000
REMARK UNBOUND:                 0.000
REMARK  Name = /home/vital/Documents/PhD_2021/Malaria_codes/scripts/../data/pdbqt_ligands/ligand_280_temp.pdb
REMARK                            x       y       z     vdW  Elec       q    Type
REMARK                         _______ _______ _______ _____ _____    ______ ____
ROOT
ATOM      1  C1  UNL     1      -2.743  -5.244 -22.347  0.00  0.00    +0.079 C 
ATOM      2  O1  UNL     1      -2.759  -4.317 -23.425  0.00  0.00    -0.495 OA
ATOM      3  C2  UNL     1      -1.731  -4.399 -24.323  0.00  0.00    +0.120 A 
ATOM      4  C3  UNL     1      -0.692  -5.326 -24.301  0.00  0.00    -0.018 A 
ATOM      5  C4  UNL     1       0.304  -5.301 -25.289  0.00  0.00    -0.037 A 
ATOM      6  C5  UNL     1       0.275  -4.348 -26.307  0.00  0.00    +0.034 A 
ATOM      7  N1  UNL     1       1.232  -4.257 -27.337  0.00  0.00    -0.280 N 
ATOM      8  C6  UNL     1       2.362  -5.037 -27.521  0.00  0.00    +0.266 C 
ATOM      9  O2  UNL     1       2.733  -5.937 -26.777  0.00  0.00    -0.268 OA
ATOM     10  C7  UNL     1       3.090  -4.674 -28.716  0.00  0.00    +0.118 A 
ATOM     11  C8  UNL     1       4.448  -4.339 -28.894  0.00  0.00    +0.018 A 
ATOM     12  C9  UNL     1       5.408  -4.256 -27.806  0.00  0.00    -0.015 A 
ATOM     13  C10 UNL     1       5.983  -3.024 -27.476  0.00  0.00    -0.051 A 
ATOM     14  C11 UNL     1       6.928  -2.933 -26.446  0.00  0.00    -0.019 A 
ATOM     15  C12 UNL     1       7.308  -4.076 -25.742  0.00  0.00    +0.120 A 
ATOM     16  O3  UNL     1       8.219  -4.127 -24.722  0.00  0.00    -0.495 OA
ATOM     17  C13 UNL     1       8.811  -2.898 -24.327  0.00  0.00    +0.079 C 
ATOM     18  C14 UNL     1       6.736  -5.306 -26.076  0.00  0.00    -0.019 A 
ATOM     19  C15 UNL     1       5.793  -5.399 -27.104  0.00  0.00    -0.051 A 
ATOM     20  C16 UNL     1       4.675  -4.040 -30.286  0.00  0.00    +0.004 A 
ATOM     21  C17 UNL     1       3.459  -4.206 -30.861  0.00  0.00    +0.123 A 
ATOM     22  N2  UNL     1       2.533  -4.632 -29.966  0.00  0.00    -0.295 N 
ATOM     23  C18 UNL     1       1.343  -4.900 -30.626  0.00  0.00    +0.036 A 
ATOM     24  C19 UNL     1       1.562  -4.633 -31.939  0.00  0.00    +0.067 A 
ATOM     25  C20 UNL     1       0.604  -4.767 -33.032  0.00  0.00    -0.000 A 
ATOM     26  C21 UNL     1       0.374  -3.699 -33.908  0.00  0.00    -0.053 A 
ATOM     27  C22 UNL     1      -0.546  -3.821 -34.952  0.00  0.00    -0.061 A 
ATOM     28  C23 UNL     1      -1.246  -5.013 -35.128  0.00  0.00    -0.062 A 
ATOM     29  C24 UNL     1      -1.027  -6.083 -34.262  0.00  0.00    -0.061 A 
ATOM     30  C25 UNL     1      -0.107  -5.960 -33.217  0.00  0.00    -0.053 A 
ATOM     31  N3  UNL     1       2.891  -4.167 -32.090  0.00  0.00    -0.325 N 
ATOM     32  C26 UNL     1       3.738  -4.082 -33.271  0.00  0.00    +0.025 C 
ATOM     33  C27 UNL     1       4.975  -4.992 -33.159  0.00  0.00    -0.035 C 
ATOM     34  C28 UNL     1       6.156  -4.493 -32.293  0.00  0.00    -0.047 C 
ATOM     35  C29 UNL     1       5.882  -3.634 -31.046  0.00  0.00    -0.024 C 
ATOM     36  C30 UNL     1      -0.772  -3.420 -26.326  0.00  0.00    -0.037 A 
ATOM     37  C31 UNL     1      -1.766  -3.448 -25.342  0.00  0.00    -0.018 A 
ATOM     38  H   UNL     1       1.079  -3.553 -28.008  0.00  0.00    +0.000 HD
ENDROOT
TORSDOF 0
ENDMDL
MODEL 3
REMARK VINA RESULT:    -9.390      2.376      7.069
REMARK INTER + INTRA:          -9.390
REMARK INTER:                  -9.390
REMARK INTRA:                   0.000
REMARK UNBOUND:                 0.000
REMARK  Name = /home/vital/Documents/PhD_2021/Malaria_codes/scripts/../data/pdbqt_ligands/ligand_280_temp.pdb
REMARK                            x       y       z     vdW  Elec       q    Type
REMARK                         _______ _______ _______ _____ _____    ______ ____
ROOT
ATOM      1  C1  UNL     1      -6.044   8.948 -26.554  0.00  0.00    +0.079 C 
ATOM      2  O1  UNL     1      -5.867   9.267 -25.179  0.00  0.00    -0.495 OA
ATOM      3  C2  UNL     1      -5.030   8.459 -24.461  0.00  0.00    +0.120 A 
ATOM      4  C3  UNL     1      -4.309   7.374 -24.957  0.00  0.00    -0.018 A 
ATOM      5  C4  UNL     1      -3.482   6.624 -24.109  0.00  0.00    -0.037 A 
ATOM      6  C5  UNL     1      -3.367   6.946 -22.756  0.00  0.00    +0.034 A 
ATOM      7  N1  UNL     1      -2.557   6.247 -21.840  0.00  0.00    -0.280 N 
ATOM      8  C6  UNL     1      -1.771   5.132 -22.075  0.00  0.00    +0.266 C 
ATOM      9  O2  UNL     1      -1.678   4.541 -23.145  0.00  0.00    -0.268 OA
ATOM     10  C7  UNL     1      -1.046   4.712 -20.897  0.00  0.00    +0.118 A 
ATOM     11  C8  UNL     1      -0.980   3.454 -20.263  0.00  0.00    +0.018 A 
ATOM     12  C9  UNL     1      -1.725   2.287 -20.704  0.00  0.00    -0.015 A 
ATOM     13  C10 UNL     1      -2.722   1.746 -19.885  0.00  0.00    -0.051 A 
ATOM     14  C11 UNL     1      -3.432   0.607 -20.286  0.00  0.00    -0.019 A 
ATOM     15  C12 UNL     1      -3.147  -0.001 -21.508  0.00  0.00    +0.120 A 
ATOM     16  O3  UNL     1      -3.759  -1.114 -22.015  0.00  0.00    -0.495 OA
ATOM     17  C13 UNL     1      -4.799  -1.687 -21.235  0.00  0.00    +0.079 C 
ATOM     18  C14 UNL     1      -2.149   0.539 -22.323  0.00  0.00    -0.019 A 
ATOM     19  C15 UNL     1      -1.439   1.675 -21.925  0.00  0.00    -0.051 A 
ATOM     20  C16 UNL     1      -0.125   3.561 -19.107  0.00  0.00    +0.004 A 
ATOM     21  C17 UNL     1       0.268   4.858 -19.107  0.00  0.00    +0.123 A 
ATOM     22  N2  UNL     1      -0.216   5.531 -20.180  0.00  0.00    -0.295 N 
ATOM     23  C18 UNL     1       0.310   6.813 -20.195  0.00  0.00    +0.036 A 
ATOM     24  C19 UNL     1       1.127   6.908 -19.115  0.00  0.00    +0.067 A 
ATOM     25  C20 UNL     1       1.911   8.070 -18.708  0.00  0.00    -0.000 A 
ATOM     26  C21 UNL     1       1.820   8.564 -17.401  0.00  0.00    -0.053 A 
ATOM     27  C22 UNL     1       2.565   9.680 -17.009  0.00  0.00    -0.061 A 
ATOM     28  C23 UNL     1       3.406  10.312 -17.923  0.00  0.00    -0.062 A 
ATOM     29  C24 UNL     1       3.504   9.830 -19.227  0.00  0.00    -0.061 A 
ATOM     30  C25 UNL     1       2.758   8.715 -19.619  0.00  0.00    -0.053 A 
ATOM     31  N3  UNL     1       1.083   5.683 -18.406  0.00  0.00    -0.325 N 
ATOM     32  C26 UNL     1       1.997   5.124 -17.419  0.00  0.00    +0.025 C 
ATOM     33  C27 UNL     1       2.662   3.830 -17.921  0.00  0.00    -0.035 C 
ATOM     34  C28 UNL     1       1.829   2.527 -17.866  0.00  0.00    -0.047 C 
ATOM     35  C29 UNL     1       0.306   2.583 -18.079  0.00  0.00    -0.024 C 
ATOM     36  C30 UNL     1      -4.092   8.037 -22.264  0.00  0.00    -0.037 A 
ATOM     37  C31 UNL     1      -4.915   8.786 -23.111  0.00  0.00    -0.018 A 
ATOM     38  H   UNL     1      -2.548   6.595 -20.919  0.00  0.00    +0.000 HD
ENDROOT
TORSDOF 0
ENDMDL
MODEL 4
REMARK VINA RESULT:    -9.251     12.136     16.372
REMARK INTER + INTRA:          -9.251
REMARK INTER:                  -9.251
REMARK INTRA:                   0.000
REMARK UNBOUND:                 0.000
REMARK  Name = /home/vital/Documents/PhD_2021/Malaria_codes/scripts/../data/pdbqt_ligands/ligand_280_temp.pdb
REMARK                            x       y       z     vdW  Elec       q    Type
REMARK                         _______ _______ _______ _____ _____    ______ ____
ROOT
ATOM      1  C1  UNL     1       5.925  -4.740 -23.402  0.00  0.00    +0.079 C 
ATOM      2  O1  UNL     1       4.549  -4.786 -23.760  0.00  0.00    -0.495 OA
ATOM      3  C2  UNL     1       4.248  -4.584 -25.078  0.00  0.00    +0.120 A 
ATOM      4  C3  UNL     1       5.162  -4.370 -26.107  0.00  0.00    -0.018 A 
ATOM      5  C4  UNL     1       4.717  -4.176 -27.423  0.00  0.00    -0.037 A 
ATOM      6  C5  UNL     1       3.355  -4.189 -27.725  0.00  0.00    +0.034 A 
ATOM      7  N1  UNL     1       2.828  -4.005 -29.018  0.00  0.00    -0.280 N 
ATOM      8  C6  UNL     1       3.518  -3.754 -30.192  0.00  0.00    +0.266 C 
ATOM      9  O2  UNL     1       4.731  -3.619 -30.288  0.00  0.00    -0.268 OA
ATOM     10  C7  UNL     1       2.639  -3.662 -31.337  0.00  0.00    +0.118 A 
ATOM     11  C8  UNL     1       2.507  -2.650 -32.310  0.00  0.00    +0.018 A 
ATOM     12  C9  UNL     1       3.269  -1.412 -32.296  0.00  0.00    -0.015 A 
ATOM     13  C10 UNL     1       2.612  -0.192 -32.104  0.00  0.00    -0.051 A 
ATOM     14  C11 UNL     1       3.330   1.011 -32.113  0.00  0.00    -0.019 A 
ATOM     15  C12 UNL     1       4.710   1.001 -32.318  0.00  0.00    +0.120 A 
ATOM     16  O3  UNL     1       5.526   2.099 -32.354  0.00  0.00    -0.495 OA
ATOM     17  C13 UNL     1       4.914   3.362 -32.136  0.00  0.00    +0.079 C 
ATOM     18  C14 UNL     1       5.363  -0.218 -32.513  0.00  0.00    -0.019 A 
ATOM     19  C15 UNL     1       4.649  -1.420 -32.506  0.00  0.00    -0.051 A 
ATOM     20  C16 UNL     1       1.471  -3.030 -33.238  0.00  0.00    +0.004 A 
ATOM     21  C17 UNL     1       1.041  -4.229 -32.778  0.00  0.00    +0.123 A 
ATOM     22  N2  UNL     1       1.752  -4.640 -31.699  0.00  0.00    -0.295 N 
ATOM     23  C18 UNL     1       1.353  -5.919 -31.344  0.00  0.00    +0.036 A 
ATOM     24  C19 UNL     1       0.389  -6.282 -32.228  0.00  0.00    +0.067 A 
ATOM     25  C20 UNL     1      -0.336  -7.549 -32.263  0.00  0.00    -0.000 A 
ATOM     26  C21 UNL     1      -1.736  -7.564 -32.296  0.00  0.00    -0.053 A 
ATOM     27  C22 UNL     1      -2.434  -8.774 -32.325  0.00  0.00    -0.061 A 
ATOM     28  C23 UNL     1      -1.736  -9.980 -32.318  0.00  0.00    -0.062 A 
ATOM     29  C24 UNL     1      -0.343  -9.978 -32.284  0.00  0.00    -0.061 A 
ATOM     30  C25 UNL     1       0.354  -8.768 -32.255  0.00  0.00    -0.053 A 
ATOM     31  N3  UNL     1       0.166  -5.206 -33.121  0.00  0.00    -0.325 N 
ATOM     32  C26 UNL     1      -0.468  -5.176 -34.432  0.00  0.00    +0.025 C 
ATOM     33  C27 UNL     1       0.522  -4.776 -35.540  0.00  0.00    -0.035 C 
ATOM     34  C28 UNL     1       0.865  -3.273 -35.688  0.00  0.00    -0.047 C 
ATOM     35  C29 UNL     1       0.906  -2.372 -34.441  0.00  0.00    -0.024 C 
ATOM     36  C30 UNL     1       2.442  -4.404 -26.688  0.00  0.00    -0.037 A 
ATOM     37  C31 UNL     1       2.886  -4.601 -25.377  0.00  0.00    -0.018 A 
ATOM     38  H   UNL     1       1.848  -4.063 -29.097  0.00  0.00    +0.000 HD
ENDROOT
TORSDOF 0
ENDMDL
MODEL 5
REMARK VINA RESULT:    -8.969      3.407      5.861
REMARK INTER + INTRA:          -8.969
REMARK INTER:                  -8.969
REMARK INTRA:                   0.000
REMARK UNBOUND:                 0.000
REMARK  Name = /home/vital/Documents/PhD_2021/Malaria_codes/scripts/../data/pdbqt_ligands/ligand_280_temp.pdb
REMARK                            x       y       z     vdW  Elec       q    Type
REMARK                         _______ _______ _______ _____ _____    ______ ____
ROOT
ATOM      1  C1  UNL     1       5.248  -4.463 -22.189  0.00  0.00    +0.079 C 
ATOM      2  O1  UNL     1       5.283  -3.077 -22.509  0.00  0.00    -0.495 OA
ATOM      3  C2  UNL     1       4.311  -2.292 -21.952  0.00  0.00    +0.120 A 
ATOM      4  C3  UNL     1       3.314  -2.715 -21.076  0.00  0.00    -0.018 A 
ATOM      5  C4  UNL     1       2.375  -1.802 -20.575  0.00  0.00    -0.037 A 
ATOM      6  C5  UNL     1       2.419  -0.458 -20.946  0.00  0.00    +0.034 A 
ATOM      7  N1  UNL     1       1.518   0.522 -20.486  0.00  0.00    -0.280 N 
ATOM      8  C6  UNL     1       0.436   0.354 -19.638  0.00  0.00    +0.266 C 
ATOM      9  O2  UNL     1       0.064  -0.713 -19.164  0.00  0.00    -0.268 OA
ATOM     10  C7  UNL     1      -0.240   1.600 -19.356  0.00  0.00    +0.118 A 
ATOM     11  C8  UNL     1      -1.600   1.953 -19.481  0.00  0.00    +0.018 A 
ATOM     12  C9  UNL     1      -2.622   1.058 -19.997  0.00  0.00    -0.015 A 
ATOM     13  C10 UNL     1      -3.268   1.357 -21.201  0.00  0.00    -0.051 A 
ATOM     14  C11 UNL     1      -4.272   0.517 -21.697  0.00  0.00    -0.019 A 
ATOM     15  C12 UNL     1      -4.640  -0.628 -20.990  0.00  0.00    +0.120 A 
ATOM     16  O3  UNL     1      -5.603  -1.527 -21.359  0.00  0.00    -0.495 OA
ATOM     17  C13 UNL     1      -6.271  -1.285 -22.590  0.00  0.00    +0.079 C 
ATOM     18  C14 UNL     1      -3.996  -0.923 -19.786  0.00  0.00    -0.019 A 
ATOM     19  C15 UNL     1      -2.994  -0.085 -19.288  0.00  0.00    -0.051 A 
ATOM     20  C16 UNL     1      -1.761   3.329 -19.084  0.00  0.00    +0.004 A 
ATOM     21  C17 UNL     1      -0.509   3.725 -18.750  0.00  0.00    +0.123 A 
ATOM     22  N2  UNL     1       0.384   2.709 -18.849  0.00  0.00    -0.295 N 
ATOM     23  C18 UNL     1       1.618   3.133 -18.384  0.00  0.00    +0.036 A 
ATOM     24  C19 UNL     1       1.462   4.424 -17.995  0.00  0.00    +0.067 A 
ATOM     25  C20 UNL     1       2.484   5.300 -17.432  0.00  0.00    -0.000 A 
ATOM     26  C21 UNL     1       2.715   6.567 -17.984  0.00  0.00    -0.053 A 
ATOM     27  C22 UNL     1       3.696   7.407 -17.451  0.00  0.00    -0.061 A 
ATOM     28  C23 UNL     1       4.457   6.985 -16.362  0.00  0.00    -0.062 A 
ATOM     29  C24 UNL     1       4.238   5.726 -15.805  0.00  0.00    -0.061 A 
ATOM     30  C25 UNL     1       3.256   4.887 -16.338  0.00  0.00    -0.053 A 
ATOM     31  N3  UNL     1       0.124   4.814 -18.251  0.00  0.00    -0.325 N 
ATOM     32  C26 UNL     1      -0.659   5.922 -17.722  0.00  0.00    +0.025 C 
ATOM     33  C27 UNL     1      -1.858   5.433 -16.890  0.00  0.00    -0.035 C 
ATOM     34  C28 UNL     1      -3.107   4.935 -17.656  0.00  0.00    -0.047 C 
ATOM     35  C29 UNL     1      -2.941   4.225 -19.011  0.00  0.00    -0.024 C 
ATOM     36  C30 UNL     1       3.423  -0.038 -21.825  0.00  0.00    -0.037 A 
ATOM     37  C31 UNL     1       4.361  -0.949 -22.322  0.00  0.00    -0.018 A 
ATOM     38  H   UNL     1       1.677   1.440 -20.806  0.00  0.00    +0.000 HD
ENDROOT
TORSDOF 0
ENDMDL
MODEL 6
REMARK VINA RESULT:    -8.694     10.799     15.735
REMARK INTER + INTRA:          -8.694
REMARK INTER:                  -8.694
REMARK INTRA:                   0.000
REMARK UNBOUND:                 0.000
REMARK  Name = /home/vital/Documents/PhD_2021/Malaria_codes/scripts/../data/pdbqt_ligands/ligand_280_temp.pdb
REMARK                            x       y       z     vdW  Elec       q    Type
REMARK                         _______ _______ _______ _____ _____    ______ ____
ROOT
ATOM      1  C1  UNL     1      -1.763  -4.236 -21.354  0.00  0.00    +0.079 C 
ATOM      2  O1  UNL     1      -2.218  -3.837 -22.641  0.00  0.00    -0.495 OA
ATOM      3  C2  UNL     1      -1.365  -4.048 -23.688  0.00  0.00    +0.120 A 
ATOM      4  C3  UNL     1      -0.109  -4.648 -23.618  0.00  0.00    -0.018 A 
ATOM      5  C4  UNL     1       0.668  -4.805 -24.776  0.00  0.00    -0.037 A 
ATOM      6  C5  UNL     1       0.202  -4.363 -26.014  0.00  0.00    +0.034 A 
ATOM      7  N1  UNL     1       0.917  -4.486 -27.221  0.00  0.00    -0.280 N 
ATOM      8  C6  UNL     1       2.182  -5.016 -27.412  0.00  0.00    +0.266 C 
ATOM      9  O2  UNL     1       2.912  -5.448 -26.528  0.00  0.00    -0.268 OA
ATOM     10  C7  UNL     1       2.576  -5.010 -28.803  0.00  0.00    +0.118 A 
ATOM     11  C8  UNL     1       3.731  -4.494 -29.425  0.00  0.00    +0.018 A 
ATOM     12  C9  UNL     1       4.783  -3.787 -28.714  0.00  0.00    -0.015 A 
ATOM     13  C10 UNL     1       5.016  -2.433 -28.980  0.00  0.00    -0.051 A 
ATOM     14  C11 UNL     1       6.043  -1.745 -28.321  0.00  0.00    -0.019 A 
ATOM     15  C12 UNL     1       6.846  -2.408 -27.393  0.00  0.00    +0.120 A 
ATOM     16  O3  UNL     1       7.879  -1.857 -26.685  0.00  0.00    -0.495 OA
ATOM     17  C13 UNL     1       8.141  -0.477 -26.897  0.00  0.00    +0.079 C 
ATOM     18  C14 UNL     1       6.613  -3.760 -27.131  0.00  0.00    -0.019 A 
ATOM     19  C15 UNL     1       5.591  -4.449 -27.788  0.00  0.00    -0.051 A 
ATOM     20  C16 UNL     1       3.640  -4.729 -30.844  0.00  0.00    +0.004 A 
ATOM     21  C17 UNL     1       2.451  -5.362 -30.997  0.00  0.00    +0.123 A 
ATOM     22  N2  UNL     1       1.842  -5.585 -29.806  0.00  0.00    -0.295 N 
ATOM     23  C18 UNL     1       0.695  -6.337 -30.008  0.00  0.00    +0.036 A 
ATOM     24  C19 UNL     1       0.618  -6.572 -31.343  0.00  0.00    +0.067 A 
ATOM     25  C20 UNL     1      -0.417  -7.326 -32.042  0.00  0.00    -0.000 A 
ATOM     26  C21 UNL     1      -1.084  -6.767 -33.139  0.00  0.00    -0.053 A 
ATOM     27  C22 UNL     1      -2.080  -7.483 -33.808  0.00  0.00    -0.061 A 
ATOM     28  C23 UNL     1      -2.419  -8.766 -33.382  0.00  0.00    -0.062 A 
ATOM     29  C24 UNL     1      -1.763  -9.334 -32.291  0.00  0.00    -0.061 A 
ATOM     30  C25 UNL     1      -0.768  -8.616 -31.623  0.00  0.00    -0.053 A 
ATOM     31  N3  UNL     1       1.711  -5.933 -31.978  0.00  0.00    -0.325 N 
ATOM     32  C26 UNL     1       2.301  -6.146 -33.293  0.00  0.00    +0.025 C 
ATOM     33  C27 UNL     1       3.751  -6.653 -33.197  0.00  0.00    -0.035 C 
ATOM     34  C28 UNL     1       4.855  -5.614 -32.886  0.00  0.00    -0.047 C 
ATOM     35  C29 UNL     1       4.541  -4.412 -31.978  0.00  0.00    -0.024 C 
ATOM     36  C30 UNL     1      -1.060  -3.762 -26.078  0.00  0.00    -0.037 A 
ATOM     37  C31 UNL     1      -1.835  -3.608 -24.925  0.00  0.00    -0.018 A 
ATOM     38  H   UNL     1       0.462  -4.154 -28.029  0.00  0.00    +0.000 HD
ENDROOT
TORSDOF 0
ENDMDL
MODEL 7
REMARK VINA RESULT:    -8.454      5.220      8.348
REMARK INTER + INTRA:          -8.454
REMARK INTER:                  -8.454
REMARK INTRA:                   0.000
REMARK UNBOUND:                 0.000
REMARK  Name = /home/vital/Documents/PhD_2021/Malaria_codes/scripts/../data/pdbqt_ligands/ligand_280_temp.pdb
REMARK                            x       y       z     vdW  Elec       q    Type
REMARK                         _______ _______ _______ _____ _____    ______ ____
ROOT
ATOM      1  C1  UNL     1      -5.084  -1.108 -21.147  0.00  0.00    +0.079 C 
ATOM      2  O1  UNL     1      -4.036  -0.789 -22.055  0.00  0.00    -0.495 OA
ATOM      3  C2  UNL     1      -2.775  -0.703 -21.533  0.00  0.00    +0.120 A 
ATOM      4  C3  UNL     1      -2.416  -0.932 -20.207  0.00  0.00    -0.018 A 
ATOM      5  C4  UNL     1      -1.078  -0.810 -19.802  0.00  0.00    -0.037 A 
ATOM      6  C5  UNL     1      -0.086  -0.455 -20.716  0.00  0.00    +0.034 A 
ATOM      7  N1  UNL     1       1.278  -0.315 -20.392  0.00  0.00    -0.280 N 
ATOM      8  C6  UNL     1       1.879  -0.462 -19.153  0.00  0.00    +0.266 C 
ATOM      9  O2  UNL     1       1.295  -0.715 -18.106  0.00  0.00    -0.268 OA
ATOM     10  C7  UNL     1       3.311  -0.279 -19.212  0.00  0.00    +0.118 A 
ATOM     11  C8  UNL     1       4.158   0.569 -18.468  0.00  0.00    +0.018 A 
ATOM     12  C9  UNL     1       3.681   1.506 -17.464  0.00  0.00    -0.015 A 
ATOM     13  C10 UNL     1       3.825   2.882 -17.671  0.00  0.00    -0.051 A 
ATOM     14  C11 UNL     1       3.393   3.796 -16.701  0.00  0.00    -0.019 A 
ATOM     15  C12 UNL     1       2.818   3.339 -15.516  0.00  0.00    +0.120 A 
ATOM     16  O3  UNL     1       2.360   4.121 -14.490  0.00  0.00    -0.495 OA
ATOM     17  C13 UNL     1       2.456   5.528 -14.662  0.00  0.00    +0.079 C 
ATOM     18  C14 UNL     1       2.678   1.965 -15.310  0.00  0.00    -0.019 A 
ATOM     19  C15 UNL     1       3.109   1.051 -16.275  0.00  0.00    -0.051 A 
ATOM     20  C16 UNL     1       5.514   0.387 -18.921  0.00  0.00    +0.004 A 
ATOM     21  C17 UNL     1       5.411  -0.544 -19.901  0.00  0.00    +0.123 A 
ATOM     22  N2  UNL     1       4.137  -0.986 -20.044  0.00  0.00    -0.295 N 
ATOM     23  C18 UNL     1       4.109  -2.017 -20.971  0.00  0.00    +0.036 A 
ATOM     24  C19 UNL     1       5.388  -2.198 -21.386  0.00  0.00    +0.067 A 
ATOM     25  C20 UNL     1       5.864  -3.176 -22.359  0.00  0.00    -0.000 A 
ATOM     26  C21 UNL     1       6.652  -2.772 -23.444  0.00  0.00    -0.053 A 
ATOM     27  C22 UNL     1       7.104  -3.704 -24.381  0.00  0.00    -0.061 A 
ATOM     28  C23 UNL     1       6.771  -5.050 -24.241  0.00  0.00    -0.062 A 
ATOM     29  C24 UNL     1       5.986  -5.465 -23.166  0.00  0.00    -0.061 A 
ATOM     30  C25 UNL     1       5.534  -4.532 -22.230  0.00  0.00    -0.053 A 
ATOM     31  N3  UNL     1       6.214  -1.250 -20.733  0.00  0.00    -0.325 N 
ATOM     32  C26 UNL     1       7.656  -1.225 -20.534  0.00  0.00    +0.025 C 
ATOM     33  C27 UNL     1       8.033  -1.312 -19.044  0.00  0.00    -0.035 C 
ATOM     34  C28 UNL     1       7.909  -0.023 -18.197  0.00  0.00    -0.047 C 
ATOM     35  C29 UNL     1       6.802   0.998 -18.515  0.00  0.00    -0.024 C 
ATOM     36  C30 UNL     1      -0.452  -0.227 -22.047  0.00  0.00    -0.037 A 
ATOM     37  C31 UNL     1      -1.785  -0.352 -22.450  0.00  0.00    -0.018 A 
ATOM     38  H   UNL     1       1.878  -0.084 -21.138  0.00  0.00    +0.000 HD
ENDROOT
TORSDOF 0
ENDMDL
MODEL 8
REMARK VINA RESULT:    -8.415     11.345     14.425
REMARK INTER + INTRA:          -8.415
REMARK INTER:                  -8.415
REMARK INTRA:                   0.000
REMARK UNBOUND:                 0.000
REMARK  Name = /home/vital/Documents/PhD_2021/Malaria_codes/scripts/../data/pdbqt_ligands/ligand_280_temp.pdb
REMARK                            x       y       z     vdW  Elec       q    Type
REMARK                         _______ _______ _______ _____ _____    ______ ____
ROOT
ATOM      1  C1  UNL     1       4.349   5.155 -34.324  0.00  0.00    +0.079 C 
ATOM      2  O1  UNL     1       3.983   4.987 -32.959  0.00  0.00    -0.495 OA
ATOM      3  C2  UNL     1       4.294   3.787 -32.382  0.00  0.00    +0.120 A 
ATOM      4  C3  UNL     1       4.964   2.730 -32.993  0.00  0.00    -0.018 A 
ATOM      5  C4  UNL     1       5.221   1.548 -32.283  0.00  0.00    -0.037 A 
ATOM      6  C5  UNL     1       4.809   1.407 -30.957  0.00  0.00    +0.034 A 
ATOM      7  N1  UNL     1       5.031   0.257 -30.175  0.00  0.00    -0.280 N 
ATOM      8  C6  UNL     1       5.645  -0.925 -30.553  0.00  0.00    +0.266 C 
ATOM      9  O2  UNL     1       6.078  -1.175 -31.672  0.00  0.00    -0.268 OA
ATOM     10  C7  UNL     1       5.728  -1.874 -29.465  0.00  0.00    +0.118 A 
ATOM     11  C8  UNL     1       5.311  -3.219 -29.389  0.00  0.00    +0.018 A 
ATOM     12  C9  UNL     1       4.636  -3.917 -30.471  0.00  0.00    -0.015 A 
ATOM     13  C10 UNL     1       3.313  -4.341 -30.308  0.00  0.00    -0.051 A 
ATOM     14  C11 UNL     1       2.658  -5.036 -31.332  0.00  0.00    -0.019 A 
ATOM     15  C12 UNL     1       3.324  -5.316 -32.526  0.00  0.00    +0.120 A 
ATOM     16  O3  UNL     1       2.804  -5.987 -33.599  0.00  0.00    -0.495 OA
ATOM     17  C13 UNL     1       1.453  -6.415 -33.497  0.00  0.00    +0.079 C 
ATOM     18  C14 UNL     1       4.646  -4.894 -32.685  0.00  0.00    -0.019 A 
ATOM     19  C15 UNL     1       5.302  -4.201 -31.664  0.00  0.00    -0.051 A 
ATOM     20  C16 UNL     1       5.606  -3.724 -28.072  0.00  0.00    +0.004 A 
ATOM     21  C17 UNL     1       6.173  -2.670 -27.435  0.00  0.00    +0.123 A 
ATOM     22  N2  UNL     1       6.303  -1.597 -28.254  0.00  0.00    -0.295 N 
ATOM     23  C18 UNL     1       6.993  -0.593 -27.592  0.00  0.00    +0.036 A 
ATOM     24  C19 UNL     1       7.285  -1.075 -26.357  0.00  0.00    +0.067 A 
ATOM     25  C20 UNL     1       8.007  -0.383 -25.294  0.00  0.00    -0.000 A 
ATOM     26  C21 UNL     1       7.460  -0.292 -24.008  0.00  0.00    -0.053 A 
ATOM     27  C22 UNL     1       8.146   0.374 -22.989  0.00  0.00    -0.061 A 
ATOM     28  C23 UNL     1       9.385   0.956 -23.249  0.00  0.00    -0.062 A 
ATOM     29  C24 UNL     1       9.940   0.873 -24.526  0.00  0.00    -0.061 A 
ATOM     30  C25 UNL     1       9.253   0.207 -25.544  0.00  0.00    -0.053 A 
ATOM     31  N3  UNL     1       6.744  -2.379 -26.241  0.00  0.00    -0.325 N 
ATOM     32  C26 UNL     1       7.052  -3.455 -25.310  0.00  0.00    +0.025 C 
ATOM     33  C27 UNL     1       7.640  -4.684 -26.025  0.00  0.00    -0.035 C 
ATOM     34  C28 UNL     1       6.656  -5.624 -26.763  0.00  0.00    -0.047 C 
ATOM     35  C29 UNL     1       5.396  -5.043 -27.428  0.00  0.00    -0.024 C 
ATOM     36  C30 UNL     1       4.137   2.473 -30.349  0.00  0.00    -0.037 A 
ATOM     37  C31 UNL     1       3.884   3.652 -31.056  0.00  0.00    -0.018 A 
ATOM     38  H   UNL     1       4.711   0.299 -29.245  0.00  0.00    +0.000 HD
ENDROOT
TORSDOF 0
ENDMDL
MODEL 9
REMARK VINA RESULT:    -8.397     12.311     16.825
REMARK INTER + INTRA:          -8.397
REMARK INTER:                  -8.397
REMARK INTRA:                   0.000
REMARK UNBOUND:                 0.000
REMARK  Name = /home/vital/Documents/PhD_2021/Malaria_codes/scripts/../data/pdbqt_ligands/ligand_280_temp.pdb
REMARK                            x       y       z     vdW  Elec       q    Type
REMARK                         _______ _______ _______ _____ _____    ______ ____
ROOT
ATOM      1  C1  UNL     1       9.075   5.019 -32.306  0.00  0.00    +0.079 C 
ATOM      2  O1  UNL     1       8.821   3.899 -33.144  0.00  0.00    -0.495 OA
ATOM      3  C2  UNL     1       8.010   2.922 -32.637  0.00  0.00    +0.120 A 
ATOM      4  C3  UNL     1       7.383   2.937 -31.392  0.00  0.00    -0.018 A 
ATOM      5  C4  UNL     1       6.572   1.865 -30.993  0.00  0.00    -0.037 A 
ATOM      6  C5  UNL     1       6.380   0.765 -31.829  0.00  0.00    +0.034 A 
ATOM      7  N1  UNL     1       5.580  -0.348 -31.505  0.00  0.00    -0.280 N 
ATOM      8  C6  UNL     1       4.881  -0.583 -30.333  0.00  0.00    +0.266 C 
ATOM      9  O2  UNL     1       4.871   0.152 -29.352  0.00  0.00    -0.268 OA
ATOM     10  C7  UNL     1       4.136  -1.821 -30.376  0.00  0.00    +0.118 A 
ATOM     11  C8  UNL     1       4.126  -2.915 -29.485  0.00  0.00    +0.018 A 
ATOM     12  C9  UNL     1       4.965  -3.000 -28.302  0.00  0.00    -0.015 A 
ATOM     13  C10 UNL     1       5.960  -3.980 -28.221  0.00  0.00    -0.051 A 
ATOM     14  C11 UNL     1       6.759  -4.089 -27.076  0.00  0.00    -0.019 A 
ATOM     15  C12 UNL     1       6.567  -3.220 -26.002  0.00  0.00    +0.120 A 
ATOM     16  O3  UNL     1       7.272  -3.222 -24.830  0.00  0.00    -0.495 OA
ATOM     17  C13 UNL     1       8.314  -4.179 -24.707  0.00  0.00    +0.079 C 
ATOM     18  C14 UNL     1       5.570  -2.245 -26.083  0.00  0.00    -0.019 A 
ATOM     19  C15 UNL     1       4.771  -2.134 -27.224  0.00  0.00    -0.051 A 
ATOM     20  C16 UNL     1       3.219  -3.916 -29.988  0.00  0.00    +0.004 A 
ATOM     21  C17 UNL     1       2.742  -3.380 -31.138  0.00  0.00    +0.123 A 
ATOM     22  N2  UNL     1       3.225  -2.130 -31.350  0.00  0.00    -0.295 N 
ATOM     23  C18 UNL     1       2.616  -1.585 -32.469  0.00  0.00    +0.036 A 
ATOM     24  C19 UNL     1       1.751  -2.522 -32.933  0.00  0.00    +0.067 A 
ATOM     25  C20 UNL     1       0.876  -2.407 -34.096  0.00  0.00    -0.000 A 
ATOM     26  C21 UNL     1       0.879  -3.398 -35.086  0.00  0.00    -0.053 A 
ATOM     27  C22 UNL     1       0.047  -3.290 -36.203  0.00  0.00    -0.061 A 
ATOM     28  C23 UNL     1      -0.795  -2.188 -36.340  0.00  0.00    -0.062 A 
ATOM     29  C24 UNL     1      -0.807  -1.194 -35.362  0.00  0.00    -0.061 A 
ATOM     30  C25 UNL     1       0.026  -1.303 -34.245  0.00  0.00    -0.053 A 
ATOM     31  N3  UNL     1       1.846  -3.671 -32.112  0.00  0.00    -0.325 N 
ATOM     32  C26 UNL     1       0.931  -4.790 -31.935  0.00  0.00    +0.025 C 
ATOM     33  C27 UNL     1       0.373  -4.857 -30.502  0.00  0.00    -0.035 C 
ATOM     34  C28 UNL     1       1.287  -5.450 -29.404  0.00  0.00    -0.047 C 
ATOM     35  C29 UNL     1       2.811  -5.249 -29.485  0.00  0.00    -0.024 C 
ATOM     36  C30 UNL     1       7.011   0.755 -33.078  0.00  0.00    -0.037 A 
ATOM     37  C31 UNL     1       7.817   1.826 -33.477  0.00  0.00    -0.018 A 
ATOM     38  H   UNL     1       5.510  -1.046 -32.196  0.00  0.00    +0.000 HD
ENDROOT
TORSDOF 0
ENDMDL
