MODEL 1
REMARK VINA RESULT:    -7.632      0.000      0.000
REMARK INTER + INTRA:          -7.632
REMARK INTER:                  -7.632
REMARK INTRA:                   0.000
REMARK UNBOUND:                 0.000
REMARK  Name = /home/vital/Documents/PhD_2021/Malaria_codes/scripts/../data/pdbqt_ligands/ligand_399_temp.pdb
REMARK                            x       y       z     vdW  Elec       q    Type
REMARK                         _______ _______ _______ _____ _____    ______ ____
ROOT
ATOM      1  C1  UNL     1      -4.190   2.279 -23.029  0.00  0.00    -0.077 C 
ATOM      2  C2  UNL     1      -3.711   1.476 -22.060  0.00  0.00    +0.028 C 
ATOM      3  C3  UNL     1      -4.098   0.062 -22.136  0.00  0.00    -0.023 C 
ATOM      4  C4  UNL     1      -4.060  -0.922 -21.213  0.00  0.00    +0.064 C 
ATOM      5 CL1  UNL     1      -3.498  -0.672 -19.582  0.00  0.00    -0.084 Cl
ATOM      6  C5  UNL     1      -4.506  -2.347 -21.470  0.00  0.00    +0.168 C 
ATOM      7 CL2  UNL     1      -6.077  -2.423 -22.322  0.00  0.00    -0.085 Cl
ATOM      8  O1  UNL     1      -3.515  -2.990 -22.274  0.00  0.00    -0.356 OA
ATOM      9  C6  UNL     1      -3.333  -4.357 -21.923  0.00  0.00    +0.050 C 
ATOM     10  C7  UNL     1      -2.271  -4.975 -22.830  0.00  0.00    -0.030 C 
ATOM     11  C8  UNL     1      -0.919  -4.253 -22.810  0.00  0.00    -0.054 C 
ATOM     12  C9  UNL     1      -0.272  -4.209 -21.432  0.00  0.00    -0.065 C 
ATOM     13  N1  UNL     1      -2.846   1.862 -21.065  0.00  0.00    -0.284 N 
ATOM     14  C10 UNL     1      -2.430   3.104 -20.594  0.00  0.00    +0.222 A 
ATOM     15  N2  UNL     1      -2.874   4.253 -21.117  0.00  0.00    -0.199 NA
ATOM     16  C11 UNL     1      -2.430   5.410 -20.599  0.00  0.00    +0.132 A 
ATOM     17  N3  UNL     1      -2.911   6.627 -21.135  0.00  0.00    -0.326 N 
ATOM     18  C12 UNL     1      -3.735   6.483 -22.339  0.00  0.00    +0.034 C 
ATOM     19  C13 UNL     1      -4.138   7.877 -22.834  0.00  0.00    +0.060 C 
ATOM     20  O2  UNL     1      -2.970   8.640 -23.150  0.00  0.00    -0.393 OA
ATOM     21  C14 UNL     1      -1.542   5.445 -19.512  0.00  0.00    +0.040 A 
ATOM     22  C15 UNL     1      -1.060   6.621 -18.879  0.00  0.00    -0.049 A 
ATOM     23  C16 UNL     1      -0.168   6.544 -17.811  0.00  0.00    -0.061 A 
ATOM     24  C17 UNL     1       0.248   5.299 -17.362  0.00  0.00    -0.060 A 
ATOM     25  C18 UNL     1      -0.239   4.143 -17.978  0.00  0.00    -0.036 A 
ATOM     26  C19 UNL     1      -1.132   4.195 -19.043  0.00  0.00    +0.078 A 
ATOM     27  N4  UNL     1      -1.565   3.047 -19.571  0.00  0.00    -0.214 NA
ATOM     28  H   UNL     1      -2.437   1.105 -20.587  0.00  0.00    +0.000 HD
ATOM     29  H   UNL     1      -2.709   7.502 -20.732  0.00  0.00    +0.000 HD
ATOM     30  H   UNL     1      -2.420   8.733 -22.356  0.00  0.00    +0.000 HD
ENDROOT
TORSDOF 0
ENDMDL
MODEL 2
REMARK VINA RESULT:    -7.471      4.892      8.051
REMARK INTER + INTRA:          -7.471
REMARK INTER:                  -7.471
REMARK INTRA:                   0.000
REMARK UNBOUND:                 0.000
REMARK  Name = /home/vital/Documents/PhD_2021/Malaria_codes/scripts/../data/pdbqt_ligands/ligand_399_temp.pdb
REMARK                            x       y       z     vdW  Elec       q    Type
REMARK                         _______ _______ _______ _____ _____    ______ ____
ROOT
ATOM      1  C1  UNL     1      -0.400   4.054 -17.848  0.00  0.00    -0.077 C 
ATOM      2  C2  UNL     1      -0.366   4.832 -18.946  0.00  0.00    +0.028 C 
ATOM      3  C3  UNL     1      -1.124   4.350 -20.108  0.00  0.00    -0.023 C 
ATOM      4  C4  UNL     1      -1.070   4.695 -21.412  0.00  0.00    +0.064 C 
ATOM      5 CL1  UNL     1       0.035   5.893 -22.031  0.00  0.00    -0.084 Cl
ATOM      6  C5  UNL     1      -1.942   4.085 -22.490  0.00  0.00    +0.168 C 
ATOM      7 CL2  UNL     1      -2.018   2.302 -22.374  0.00  0.00    -0.085 Cl
ATOM      8  O1  UNL     1      -3.263   4.613 -22.351  0.00  0.00    -0.356 OA
ATOM      9  C6  UNL     1      -3.899   4.827 -23.606  0.00  0.00    +0.050 C 
ATOM     10  C7  UNL     1      -5.304   5.378 -23.374  0.00  0.00    -0.030 C 
ATOM     11  C8  UNL     1      -5.353   6.665 -22.544  0.00  0.00    -0.054 C 
ATOM     12  C9  UNL     1      -4.584   7.822 -23.167  0.00  0.00    -0.065 C 
ATOM     13  N1  UNL     1       0.256   6.053 -19.035  0.00  0.00    -0.284 N 
ATOM     14  C10 UNL     1       1.183   6.710 -18.231  0.00  0.00    +0.222 A 
ATOM     15  N2  UNL     1       1.660   6.171 -17.103  0.00  0.00    -0.199 NA
ATOM     16  C11 UNL     1       2.559   6.868 -16.387  0.00  0.00    +0.132 A 
ATOM     17  N3  UNL     1       3.082   6.295 -15.205  0.00  0.00    -0.326 N 
ATOM     18  C12 UNL     1       2.441   5.042 -14.796  0.00  0.00    +0.034 C 
ATOM     19  C13 UNL     1       3.071   4.569 -13.481  0.00  0.00    +0.060 C 
ATOM     20  O2  UNL     1       2.874   5.553 -12.463  0.00  0.00    -0.393 OA
ATOM     21  C14 UNL     1       3.028   8.124 -16.805  0.00  0.00    +0.040 A 
ATOM     22  C15 UNL     1       4.006   8.904 -16.132  0.00  0.00    -0.049 A 
ATOM     23  C16 UNL     1       4.393  10.148 -16.627  0.00  0.00    -0.061 A 
ATOM     24  C17 UNL     1       3.815  10.624 -17.795  0.00  0.00    -0.060 A 
ATOM     25  C18 UNL     1       2.863   9.848 -18.462  0.00  0.00    -0.036 A 
ATOM     26  C19 UNL     1       2.464   8.602 -17.989  0.00  0.00    +0.078 A 
ATOM     27  N4  UNL     1       1.559   7.913 -18.690  0.00  0.00    -0.214 NA
ATOM     28  H   UNL     1      -0.007   6.569 -19.832  0.00  0.00    +0.000 HD
ATOM     29  H   UNL     1       3.819   6.705 -14.698  0.00  0.00    +0.000 HD
ATOM     30  H   UNL     1       3.293   6.386 -12.732  0.00  0.00    +0.000 HD
ENDROOT
TORSDOF 0
ENDMDL
MODEL 3
REMARK VINA RESULT:    -7.357     10.625     13.840
REMARK INTER + INTRA:          -7.357
REMARK INTER:                  -7.357
REMARK INTRA:                   0.000
REMARK UNBOUND:                 0.000
REMARK  Name = /home/vital/Documents/PhD_2021/Malaria_codes/scripts/../data/pdbqt_ligands/ligand_399_temp.pdb
REMARK                            x       y       z     vdW  Elec       q    Type
REMARK                         _______ _______ _______ _____ _____    ______ ____
ROOT
ATOM      1  C1  UNL     1       7.116  -0.500 -27.730  0.00  0.00    -0.077 C 
ATOM      2  C2  UNL     1       6.604  -1.626 -27.197  0.00  0.00    +0.028 C 
ATOM      3  C3  UNL     1       6.913  -1.875 -25.784  0.00  0.00    -0.023 C 
ATOM      4  C4  UNL     1       6.831  -2.999 -25.039  0.00  0.00    +0.064 C 
ATOM      5 CL1  UNL     1       6.301  -4.529 -25.685  0.00  0.00    -0.084 Cl
ATOM      6  C5  UNL     1       7.195  -3.074 -23.571  0.00  0.00    +0.168 C 
ATOM      7 CL2  UNL     1       8.750  -2.265 -23.215  0.00  0.00    -0.085 Cl
ATOM      8  O1  UNL     1       6.161  -2.436 -22.818  0.00  0.00    -0.356 OA
ATOM      9  C6  UNL     1       5.908  -3.089 -21.579  0.00  0.00    +0.050 C 
ATOM     10  C7  UNL     1       4.803  -2.345 -20.831  0.00  0.00    -0.030 C 
ATOM     11  C8  UNL     1       3.494  -2.198 -21.614  0.00  0.00    -0.054 C 
ATOM     12  C9  UNL     1       2.866  -3.528 -22.006  0.00  0.00    -0.065 C 
ATOM     13  N1  UNL     1       5.773  -2.505 -27.848  0.00  0.00    -0.284 N 
ATOM     14  C10 UNL     1       5.431  -2.680 -29.186  0.00  0.00    +0.222 A 
ATOM     15  N2  UNL     1       5.931  -1.909 -30.158  0.00  0.00    -0.199 NA
ATOM     16  C11 UNL     1       5.558  -2.148 -31.426  0.00  0.00    +0.132 A 
ATOM     17  N3  UNL     1       6.099  -1.350 -32.460  0.00  0.00    -0.326 N 
ATOM     18  C12 UNL     1       6.900  -0.212 -32.000  0.00  0.00    +0.034 C 
ATOM     19  C13 UNL     1       7.373   0.587 -33.219  0.00  0.00    +0.060 C 
ATOM     20  O2  UNL     1       6.246   1.071 -33.954  0.00  0.00    -0.393 OA
ATOM     21  C14 UNL     1       4.685  -3.198 -31.757  0.00  0.00    +0.040 A 
ATOM     22  C15 UNL     1       4.275  -3.545 -33.071  0.00  0.00    -0.049 A 
ATOM     23  C16 UNL     1       3.391  -4.600 -33.290  0.00  0.00    -0.061 A 
ATOM     24  C17 UNL     1       2.913  -5.321 -32.206  0.00  0.00    -0.060 A 
ATOM     25  C18 UNL     1       3.329  -4.986 -30.914  0.00  0.00    -0.036 A 
ATOM     26  C19 UNL     1       4.212  -3.939 -30.672  0.00  0.00    +0.078 A 
ATOM     27  N4  UNL     1       4.575  -3.687 -29.411  0.00  0.00    -0.214 NA
ATOM     28  H   UNL     1       5.328  -3.142 -27.244  0.00  0.00    +0.000 HD
ATOM     29  H   UNL     1       5.949  -1.543 -33.413  0.00  0.00    +0.000 HD
ATOM     30  H   UNL     1       5.711   0.321 -34.256  0.00  0.00    +0.000 HD
ENDROOT
TORSDOF 0
ENDMDL
MODEL 4
REMARK VINA RESULT:    -7.346      8.795     12.759
REMARK INTER + INTRA:          -7.346
REMARK INTER:                  -7.346
REMARK INTRA:                   0.000
REMARK UNBOUND:                 0.000
REMARK  Name = /home/vital/Documents/PhD_2021/Malaria_codes/scripts/../data/pdbqt_ligands/ligand_399_temp.pdb
REMARK                            x       y       z     vdW  Elec       q    Type
REMARK                         _______ _______ _______ _____ _____    ______ ____
ROOT
ATOM      1  C1  UNL     1       0.795  -6.339 -26.300  0.00  0.00    -0.077 C 
ATOM      2  C2  UNL     1       1.515  -5.272 -25.909  0.00  0.00    +0.028 C 
ATOM      3  C3  UNL     1       1.292  -4.805 -24.535  0.00  0.00    -0.023 C 
ATOM      4  C4  UNL     1       1.595  -3.636 -23.931  0.00  0.00    +0.064 C 
ATOM      5 CL1  UNL     1       2.376  -2.315 -24.758  0.00  0.00    -0.084 Cl
ATOM      6  C5  UNL     1       1.287  -3.323 -22.481  0.00  0.00    +0.168 C 
ATOM      7 CL2  UNL     1      -0.379  -3.787 -22.025  0.00  0.00    -0.085 Cl
ATOM      8  O1  UNL     1       2.207  -4.046 -21.660  0.00  0.00    -0.356 OA
ATOM      9  C6  UNL     1       2.605  -3.309 -20.509  0.00  0.00    +0.050 C 
ATOM     10  C7  UNL     1       3.575  -4.149 -19.681  0.00  0.00    -0.030 C 
ATOM     11  C8  UNL     1       4.816  -4.624 -20.444  0.00  0.00    -0.054 C 
ATOM     12  C9  UNL     1       5.665  -3.487 -20.996  0.00  0.00    -0.065 C 
ATOM     13  N1  UNL     1       2.475  -4.641 -26.663  0.00  0.00    -0.284 N 
ATOM     14  C10 UNL     1       2.809  -4.691 -28.013  0.00  0.00    +0.222 A 
ATOM     15  N2  UNL     1       2.153  -5.466 -28.884  0.00  0.00    -0.199 NA
ATOM     16  C11 UNL     1       2.532  -5.450 -30.173  0.00  0.00    +0.132 A 
ATOM     17  N3  UNL     1       1.830  -6.252 -31.102  0.00  0.00    -0.326 N 
ATOM     18  C12 UNL     1       0.848  -7.162 -30.506  0.00  0.00    +0.034 C 
ATOM     19  C13 UNL     1       0.208  -7.999 -31.618  0.00  0.00    +0.060 C 
ATOM     20  O2  UNL     1       1.210  -8.764 -32.293  0.00  0.00    -0.393 OA
ATOM     21  C14 UNL     1       3.572  -4.624 -30.630  0.00  0.00    +0.040 A 
ATOM     22  C15 UNL     1       4.005  -4.515 -31.978  0.00  0.00    -0.049 A 
ATOM     23  C16 UNL     1       5.059  -3.671 -32.326  0.00  0.00    -0.061 A 
ATOM     24  C17 UNL     1       5.687  -2.927 -31.337  0.00  0.00    -0.060 A 
ATOM     25  C18 UNL     1       5.249  -3.027 -30.013  0.00  0.00    -0.036 A 
ATOM     26  C19 UNL     1       4.198  -3.859 -29.644  0.00  0.00    +0.078 A 
ATOM     27  N4  UNL     1       3.827  -3.890 -28.361  0.00  0.00    -0.214 NA
ATOM     28  H   UNL     1       3.043  -4.029 -26.141  0.00  0.00    +0.000 HD
ATOM     29  H   UNL     1       1.988  -6.203 -32.072  0.00  0.00    +0.000 HD
ATOM     30  H   UNL     1       1.864  -8.165 -32.686  0.00  0.00    +0.000 HD
ENDROOT
TORSDOF 0
ENDMDL
MODEL 5
REMARK VINA RESULT:    -7.205      8.501     13.095
REMARK INTER + INTRA:          -7.205
REMARK INTER:                  -7.205
REMARK INTRA:                   0.000
REMARK UNBOUND:                 0.000
REMARK  Name = /home/vital/Documents/PhD_2021/Malaria_codes/scripts/../data/pdbqt_ligands/ligand_399_temp.pdb
REMARK                            x       y       z     vdW  Elec       q    Type
REMARK                         _______ _______ _______ _____ _____    ______ ____
ROOT
ATOM      1  C1  UNL     1       1.852  -2.815 -27.523  0.00  0.00    -0.077 C 
ATOM      2  C2  UNL     1       1.035  -3.824 -27.167  0.00  0.00    +0.028 C 
ATOM      3  C3  UNL     1       0.439  -3.736 -25.828  0.00  0.00    -0.023 C 
ATOM      4  C4  UNL     1      -0.155  -4.670 -25.055  0.00  0.00    +0.064 C 
ATOM      5 CL1  UNL     1      -0.332  -6.333 -25.543  0.00  0.00    -0.084 Cl
ATOM      6  C5  UNL     1      -0.724  -4.396 -23.677  0.00  0.00    +0.168 C 
ATOM      7 CL2  UNL     1       0.391  -3.436 -22.661  0.00  0.00    -0.085 Cl
ATOM      8  O1  UNL     1      -1.946  -3.671 -23.832  0.00  0.00    -0.356 OA
ATOM      9  C6  UNL     1      -2.927  -4.048 -22.872  0.00  0.00    +0.050 C 
ATOM     10  C7  UNL     1      -4.195  -3.225 -23.095  0.00  0.00    -0.030 C 
ATOM     11  C8  UNL     1      -4.783  -3.334 -24.506  0.00  0.00    -0.054 C 
ATOM     12  C9  UNL     1      -5.171  -4.753 -24.896  0.00  0.00    -0.065 C 
ATOM     13  N1  UNL     1       0.671  -4.874 -27.975  0.00  0.00    -0.284 N 
ATOM     14  C10 UNL     1       1.161  -5.360 -29.183  0.00  0.00    +0.222 A 
ATOM     15  N2  UNL     1       2.196  -4.794 -29.814  0.00  0.00    -0.199 NA
ATOM     16  C11 UNL     1       2.615  -5.331 -30.973  0.00  0.00    +0.132 A 
ATOM     17  N3  UNL     1       3.721  -4.749 -31.634  0.00  0.00    -0.326 N 
ATOM     18  C12 UNL     1       4.194  -3.492 -31.048  0.00  0.00    +0.034 C 
ATOM     19  C13 UNL     1       5.353  -2.955 -31.894  0.00  0.00    +0.060 C 
ATOM     20  O2  UNL     1       4.912  -2.714 -33.233  0.00  0.00    -0.393 OA
ATOM     21  C14 UNL     1       2.016  -6.478 -31.519  0.00  0.00    +0.040 A 
ATOM     22  C15 UNL     1       2.424  -7.131 -32.712  0.00  0.00    -0.049 A 
ATOM     23  C16 UNL     1       1.751  -8.260 -33.175  0.00  0.00    -0.061 A 
ATOM     24  C17 UNL     1       0.672  -8.751 -32.454  0.00  0.00    -0.060 A 
ATOM     25  C18 UNL     1       0.282  -8.114 -31.273  0.00  0.00    -0.036 A 
ATOM     26  C19 UNL     1       0.940  -6.988 -30.790  0.00  0.00    +0.078 A 
ATOM     27  N4  UNL     1       0.518  -6.442 -29.646  0.00  0.00    -0.214 NA
ATOM     28  H   UNL     1      -0.094  -5.387 -27.627  0.00  0.00    +0.000 HD
ATOM     29  H   UNL     1       4.141  -5.157 -32.426  0.00  0.00    +0.000 HD
ATOM     30  H   UNL     1       4.594  -3.544 -33.622  0.00  0.00    +0.000 HD
ENDROOT
TORSDOF 0
ENDMDL
MODEL 6
REMARK VINA RESULT:    -7.148     13.325     16.375
REMARK INTER + INTRA:          -7.148
REMARK INTER:                  -7.148
REMARK INTRA:                   0.000
REMARK UNBOUND:                 0.000
REMARK  Name = /home/vital/Documents/PhD_2021/Malaria_codes/scripts/../data/pdbqt_ligands/ligand_399_temp.pdb
REMARK                            x       y       z     vdW  Elec       q    Type
REMARK                         _______ _______ _______ _____ _____    ______ ____
ROOT
ATOM      1  C1  UNL     1       4.249  -4.748 -31.245  0.00  0.00    -0.077 C 
ATOM      2  C2  UNL     1       4.072  -3.427 -31.436  0.00  0.00    +0.028 C 
ATOM      3  C3  UNL     1       4.909  -2.534 -30.625  0.00  0.00    -0.023 C 
ATOM      4  C4  UNL     1       4.794  -1.220 -30.340  0.00  0.00    +0.064 C 
ATOM      5 CL1  UNL     1       3.485  -0.232 -30.932  0.00  0.00    -0.084 Cl
ATOM      6  C5  UNL     1       5.768  -0.449 -29.472  0.00  0.00    +0.168 C 
ATOM      7 CL2  UNL     1       6.177  -1.326 -27.969  0.00  0.00    -0.085 Cl
ATOM      8  O1  UNL     1       6.966  -0.236 -30.222  0.00  0.00    -0.356 OA
ATOM      9  C6  UNL     1       7.552   1.035 -29.961  0.00  0.00    +0.050 C 
ATOM     10  C7  UNL     1       8.828   1.183 -30.787  0.00  0.00    -0.030 C 
ATOM     11  C8  UNL     1       8.632   1.005 -32.297  0.00  0.00    -0.054 C 
ATOM     12  C9  UNL     1       7.660   2.005 -32.907  0.00  0.00    -0.065 C 
ATOM     13  N1  UNL     1       3.231  -2.865 -32.365  0.00  0.00    -0.284 N 
ATOM     14  C10 UNL     1       2.196  -3.374 -33.144  0.00  0.00    +0.222 A 
ATOM     15  N2  UNL     1       1.826  -4.659 -33.090  0.00  0.00    -0.199 NA
ATOM     16  C11 UNL     1       0.810  -5.069 -33.868  0.00  0.00    +0.132 A 
ATOM     17  N3  UNL     1       0.402  -6.421 -33.801  0.00  0.00    -0.326 N 
ATOM     18  C12 UNL     1       1.266  -7.283 -32.989  0.00  0.00    +0.034 C 
ATOM     19  C13 UNL     1       0.735  -8.719 -33.051  0.00  0.00    +0.060 C 
ATOM     20  O2  UNL     1       0.740  -9.185 -34.402  0.00  0.00    -0.393 OA
ATOM     21  C14 UNL     1       0.114  -4.185 -34.708  0.00  0.00    +0.040 A 
ATOM     22  C15 UNL     1      -0.994  -4.527 -35.527  0.00  0.00    -0.049 A 
ATOM     23  C16 UNL     1      -1.608  -3.573 -36.337  0.00  0.00    -0.061 A 
ATOM     24  C17 UNL     1      -1.127  -2.271 -36.334  0.00  0.00    -0.060 A 
ATOM     25  C18 UNL     1      -0.045  -1.934 -35.517  0.00  0.00    -0.036 A 
ATOM     26  C19 UNL     1       0.581  -2.869 -34.699  0.00  0.00    +0.078 A 
ATOM     27  N4  UNL     1       1.601  -2.469 -33.934  0.00  0.00    -0.214 NA
ATOM     28  H   UNL     1       3.394  -1.905 -32.510  0.00  0.00    +0.000 HD
ATOM     29  H   UNL     1      -0.400  -6.757 -34.262  0.00  0.00    +0.000 HD
ATOM     30  H   UNL     1       0.173  -8.614 -34.944  0.00  0.00    +0.000 HD
ENDROOT
TORSDOF 0
ENDMDL
MODEL 7
REMARK VINA RESULT:    -7.129      3.854      8.737
REMARK INTER + INTRA:          -7.129
REMARK INTER:                  -7.129
REMARK INTRA:                   0.000
REMARK UNBOUND:                 0.000
REMARK  Name = /home/vital/Documents/PhD_2021/Malaria_codes/scripts/../data/pdbqt_ligands/ligand_399_temp.pdb
REMARK                            x       y       z     vdW  Elec       q    Type
REMARK                         _______ _______ _______ _____ _____    ______ ____
ROOT
ATOM      1  C1  UNL     1      -2.628   2.806 -19.638  0.00  0.00    -0.077 C 
ATOM      2  C2  UNL     1      -1.343   2.517 -19.361  0.00  0.00    +0.028 C 
ATOM      3  C3  UNL     1      -0.533   3.613 -18.814  0.00  0.00    -0.023 C 
ATOM      4  C4  UNL     1       0.805   3.768 -18.713  0.00  0.00    +0.064 C 
ATOM      5 CL1  UNL     1       1.943   2.578 -19.284  0.00  0.00    -0.084 Cl
ATOM      6  C5  UNL     1       1.477   4.983 -18.108  0.00  0.00    +0.168 C 
ATOM      7 CL2  UNL     1       0.768   6.515 -18.699  0.00  0.00    -0.085 Cl
ATOM      8  O1  UNL     1       1.323   4.922 -16.688  0.00  0.00    -0.356 OA
ATOM      9  C6  UNL     1       2.468   5.406 -15.996  0.00  0.00    +0.050 C 
ATOM     10  C7  UNL     1       2.224   5.320 -14.491  0.00  0.00    -0.030 C 
ATOM     11  C8  UNL     1       1.868   3.918 -13.984  0.00  0.00    -0.054 C 
ATOM     12  C9  UNL     1       2.946   2.879 -14.260  0.00  0.00    -0.065 C 
ATOM     13  N1  UNL     1      -0.763   1.278 -19.486  0.00  0.00    -0.284 N 
ATOM     14  C10 UNL     1      -1.156   0.102 -20.118  0.00  0.00    +0.222 A 
ATOM     15  N2  UNL     1      -2.313  -0.000 -20.781  0.00  0.00    -0.199 NA
ATOM     16  C11 UNL     1      -2.615  -1.169 -21.372  0.00  0.00    +0.132 A 
ATOM     17  N3  UNL     1      -3.828  -1.277 -22.091  0.00  0.00    -0.326 N 
ATOM     18  C12 UNL     1      -4.719  -0.120 -21.967  0.00  0.00    +0.034 C 
ATOM     19  C13 UNL     1      -6.006  -0.399 -22.750  0.00  0.00    +0.060 C 
ATOM     20  O2  UNL     1      -6.660  -1.557 -22.222  0.00  0.00    -0.393 OA
ATOM     21  C14 UNL     1      -1.741  -2.267 -21.335  0.00  0.00    +0.040 A 
ATOM     22  C15 UNL     1      -1.964  -3.519 -21.967  0.00  0.00    -0.049 A 
ATOM     23  C16 UNL     1      -1.034  -4.551 -21.857  0.00  0.00    -0.061 A 
ATOM     24  C17 UNL     1       0.125  -4.346 -21.123  0.00  0.00    -0.060 A 
ATOM     25  C18 UNL     1       0.348  -3.107 -20.514  0.00  0.00    -0.036 A 
ATOM     26  C19 UNL     1      -0.564  -2.062 -20.612  0.00  0.00    +0.078 A 
ATOM     27  N4  UNL     1      -0.275  -0.903 -20.014  0.00  0.00    -0.214 NA
ATOM     28  H   UNL     1       0.110   1.208 -19.036  0.00  0.00    +0.000 HD
ATOM     29  H   UNL     1      -4.055  -2.066 -22.633  0.00  0.00    +0.000 HD
ATOM     30  H   UNL     1      -6.071  -2.323 -22.299  0.00  0.00    +0.000 HD
ENDROOT
TORSDOF 0
ENDMDL
MODEL 8
REMARK VINA RESULT:    -6.928      3.956      5.867
REMARK INTER + INTRA:          -6.928
REMARK INTER:                  -6.928
REMARK INTRA:                   0.000
REMARK UNBOUND:                 0.000
REMARK  Name = /home/vital/Documents/PhD_2021/Malaria_codes/scripts/../data/pdbqt_ligands/ligand_399_temp.pdb
REMARK                            x       y       z     vdW  Elec       q    Type
REMARK                         _______ _______ _______ _____ _____    ______ ____
ROOT
ATOM      1  C1  UNL     1       2.193  -1.192 -18.688  0.00  0.00    -0.077 C 
ATOM      2  C2  UNL     1       1.402  -1.028 -19.765  0.00  0.00    +0.028 C 
ATOM      3  C3  UNL     1       1.505  -2.056 -20.809  0.00  0.00    -0.023 C 
ATOM      4  C4  UNL     1       1.111  -2.055 -22.100  0.00  0.00    +0.064 C 
ATOM      5 CL1  UNL     1       0.337  -0.688 -22.856  0.00  0.00    -0.084 Cl
ATOM      6  C5  UNL     1       1.298  -3.224 -23.047  0.00  0.00    +0.168 C 
ATOM      7 CL2  UNL     1       2.944  -3.917 -22.952  0.00  0.00    -0.085 Cl
ATOM      8  O1  UNL     1       0.351  -4.237 -22.703  0.00  0.00    -0.356 OA
ATOM      9  C6  UNL     1      -0.160  -4.915 -23.845  0.00  0.00    +0.050 C 
ATOM     10  C7  UNL     1      -1.153  -5.985 -23.397  0.00  0.00    -0.030 C 
ATOM     11  C8  UNL     1      -2.314  -5.459 -22.546  0.00  0.00    -0.054 C 
ATOM     12  C9  UNL     1      -3.166  -4.417 -23.256  0.00  0.00    -0.065 C 
ATOM     13  N1  UNL     1       0.475  -0.027 -19.925  0.00  0.00    -0.284 N 
ATOM     14  C10 UNL     1       0.243   1.171 -19.256  0.00  0.00    +0.222 A 
ATOM     15  N2  UNL     1       0.993   1.569 -18.222  0.00  0.00    -0.199 NA
ATOM     16  C11 UNL     1       0.709   2.745 -17.636  0.00  0.00    +0.132 A 
ATOM     17  N3  UNL     1       1.510   3.181 -16.556  0.00  0.00    -0.326 N 
ATOM     18  C12 UNL     1       2.482   2.194 -16.077  0.00  0.00    +0.034 C 
ATOM     19  C13 UNL     1       3.237   2.781 -14.880  0.00  0.00    +0.060 C 
ATOM     20  O2  UNL     1       2.319   3.088 -13.826  0.00  0.00    -0.393 OA
ATOM     21  C14 UNL     1      -0.328   3.573 -18.097  0.00  0.00    +0.040 A 
ATOM     22  C15 UNL     1      -0.665   4.845 -17.564  0.00  0.00    -0.049 A 
ATOM     23  C16 UNL     1      -1.725   5.582 -18.089  0.00  0.00    -0.061 A 
ATOM     24  C17 UNL     1      -2.454   5.064 -19.149  0.00  0.00    -0.060 A 
ATOM     25  C18 UNL     1      -2.111   3.817 -19.681  0.00  0.00    -0.036 A 
ATOM     26  C19 UNL     1      -1.056   3.065 -19.175  0.00  0.00    +0.078 A 
ATOM     27  N4  UNL     1      -0.779   1.888 -19.745  0.00  0.00    -0.214 NA
ATOM     28  H   UNL     1      -0.154  -0.192 -20.664  0.00  0.00    +0.000 HD
ATOM     29  H   UNL     1       1.421   4.076 -16.156  0.00  0.00    +0.000 HD
ATOM     30  H   UNL     1       1.671   3.737 -14.141  0.00  0.00    +0.000 HD
ENDROOT
TORSDOF 0
ENDMDL
MODEL 9
REMARK VINA RESULT:    -6.787     12.602     13.221
REMARK INTER + INTRA:          -6.787
REMARK INTER:                  -6.787
REMARK INTRA:                   0.000
REMARK UNBOUND:                 0.000
REMARK  Name = /home/vital/Documents/PhD_2021/Malaria_codes/scripts/../data/pdbqt_ligands/ligand_399_temp.pdb
REMARK                            x       y       z     vdW  Elec       q    Type
REMARK                         _______ _______ _______ _____ _____    ______ ____
ROOT
ATOM      1  C1  UNL     1       5.519  -0.726 -31.016  0.00  0.00    -0.077 C 
ATOM      2  C2  UNL     1       4.784  -1.760 -30.564  0.00  0.00    +0.028 C 
ATOM      3  C3  UNL     1       3.606  -2.119 -31.365  0.00  0.00    -0.023 C 
ATOM      4  C4  UNL     1       2.520  -2.863 -31.067  0.00  0.00    +0.064 C 
ATOM      5 CL1  UNL     1       2.278  -3.606 -29.508  0.00  0.00    -0.084 Cl
ATOM      6  C5  UNL     1       1.384  -3.135 -32.032  0.00  0.00    +0.168 C 
ATOM      7 CL2  UNL     1       0.848  -1.655 -32.881  0.00  0.00    -0.085 Cl
ATOM      8  O1  UNL     1       1.835  -4.084 -33.000  0.00  0.00    -0.356 OA
ATOM      9  C6  UNL     1       0.814  -4.999 -33.382  0.00  0.00    +0.050 C 
ATOM     10  C7  UNL     1       1.367  -5.970 -34.423  0.00  0.00    -0.030 C 
ATOM     11  C8  UNL     1       2.611  -6.743 -33.973  0.00  0.00    -0.054 C 
ATOM     12  C9  UNL     1       2.382  -7.597 -32.733  0.00  0.00    -0.065 C 
ATOM     13  N1  UNL     1       5.087  -2.531 -29.469  0.00  0.00    -0.284 N 
ATOM     14  C10 UNL     1       5.982  -2.378 -28.414  0.00  0.00    +0.222 A 
ATOM     15  N2  UNL     1       6.782  -1.311 -28.305  0.00  0.00    -0.199 NA
ATOM     16  C11 UNL     1       7.612  -1.233 -27.251  0.00  0.00    +0.132 A 
ATOM     17  N3  UNL     1       8.445  -0.099 -27.120  0.00  0.00    -0.326 N 
ATOM     18  C12 UNL     1       8.428   0.810 -28.270  0.00  0.00    +0.034 C 
ATOM     19  C13 UNL     1       9.411   1.957 -28.010  0.00  0.00    +0.060 C 
ATOM     20  O2  UNL     1      10.733   1.439 -27.838  0.00  0.00    -0.393 OA
ATOM     21  C14 UNL     1       7.638  -2.222 -26.254  0.00  0.00    +0.040 A 
ATOM     22  C15 UNL     1       8.451  -2.195 -25.090  0.00  0.00    -0.049 A 
ATOM     23  C16 UNL     1       8.411  -3.237 -24.165  0.00  0.00    -0.061 A 
ATOM     24  C17 UNL     1       7.560  -4.310 -24.388  0.00  0.00    -0.060 A 
ATOM     25  C18 UNL     1       6.751  -4.327 -25.528  0.00  0.00    -0.036 A 
ATOM     26  C19 UNL     1       6.773  -3.297 -26.463  0.00  0.00    +0.078 A 
ATOM     27  N4  UNL     1       5.960  -3.377 -27.520  0.00  0.00    -0.214 NA
ATOM     28  H   UNL     1       4.565  -3.364 -29.421  0.00  0.00    +0.000 HD
ATOM     29  H   UNL     1       8.993   0.067 -26.320  0.00  0.00    +0.000 HD
ATOM     30  H   UNL     1      10.747   0.833 -27.081  0.00  0.00    +0.000 HD
ENDROOT
TORSDOF 0
ENDMDL
