MODEL 1
REMARK VINA RESULT:    -5.572      0.000      0.000
REMARK INTER + INTRA:          -5.572
REMARK INTER:                  -5.572
REMARK INTRA:                   0.000
REMARK UNBOUND:                 0.000
REMARK  Name = /home/vital/Documents/PhD_2021/Malaria_codes/scripts/../data/pdbqt_ligands/ligand_180_temp.pdb
REMARK                            x       y       z     vdW  Elec       q    Type
REMARK                         _______ _______ _______ _____ _____    ______ ____
ROOT
ATOM      1  C1  UNL     1      -0.144  -3.691 -21.268  0.00  0.00    +0.079 C 
ATOM      2  O1  UNL     1      -1.323  -4.419 -20.909  0.00  0.00    -0.493 OA
ATOM      3  C2  UNL     1      -2.358  -4.111 -21.770  0.00  0.00    +0.143 A 
ATOM      4  C3  UNL     1      -2.580  -4.914 -22.904  0.00  0.00    +0.078 A 
ATOM      5 BR1  UNL     1      -1.458  -6.437 -23.194  0.00  0.00    -0.045 Br
ATOM      6  C4  UNL     1      -3.621  -4.591 -23.781  0.00  0.00    +0.078 A 
ATOM      7 BR2  UNL     1      -3.995  -5.650 -25.330  0.00  0.00    -0.045 Br
ATOM      8  C5  UNL     1      -4.427  -3.469 -23.513  0.00  0.00    +0.143 A 
ATOM      9  O2  UNL     1      -5.447  -3.139 -24.383  0.00  0.00    -0.493 OA
ATOM     10  C6  UNL     1      -4.987  -2.188 -25.348  0.00  0.00    +0.079 C 
ATOM     11  C7  UNL     1      -4.275  -2.712 -22.324  0.00  0.00    +0.028 A 
ATOM     12  C8  UNL     1      -5.145  -1.652 -21.980  0.00  0.00    -0.050 A 
ATOM     13  C9  UNL     1      -4.984  -0.923 -20.802  0.00  0.00    -0.061 A 
ATOM     14  C10 UNL     1      -3.953  -1.243 -19.933  0.00  0.00    -0.061 A 
ATOM     15  C11 UNL     1      -3.086  -2.292 -20.245  0.00  0.00    -0.050 A 
ATOM     16  C12 UNL     1      -3.223  -3.038 -21.438  0.00  0.00    +0.028 A 
ENDROOT
TORSDOF 0
ENDMDL
MODEL 2
REMARK VINA RESULT:    -5.322     11.351     12.642
REMARK INTER + INTRA:          -5.322
REMARK INTER:                  -5.322
REMARK INTRA:                   0.000
REMARK UNBOUND:                 0.000
REMARK  Name = /home/vital/Documents/PhD_2021/Malaria_codes/scripts/../data/pdbqt_ligands/ligand_180_temp.pdb
REMARK                            x       y       z     vdW  Elec       q    Type
REMARK                         _______ _______ _______ _____ _____    ______ ____
ROOT
ATOM      1  C1  UNL     1       2.525   5.957 -15.241  0.00  0.00    +0.079 C 
ATOM      2  O1  UNL     1       1.461   6.854 -15.577  0.00  0.00    -0.493 OA
ATOM      3  C2  UNL     1       1.283   6.897 -16.946  0.00  0.00    +0.143 A 
ATOM      4  C3  UNL     1       0.342   6.042 -17.550  0.00  0.00    +0.078 A 
ATOM      5 BR1  UNL     1      -0.693   4.874 -16.444  0.00  0.00    -0.045 Br
ATOM      6  C4  UNL     1       0.174   6.080 -18.939  0.00  0.00    +0.078 A 
ATOM      7 BR2  UNL     1      -1.102   4.964 -19.827  0.00  0.00    -0.045 Br
ATOM      8  C5  UNL     1       0.950   6.970 -19.705  0.00  0.00    +0.143 A 
ATOM      9  O2  UNL     1       0.796   7.000 -21.077  0.00  0.00    -0.493 OA
ATOM     10  C6  UNL     1       1.744   6.129 -21.701  0.00  0.00    +0.079 C 
ATOM     11  C7  UNL     1       1.827   7.902 -19.097  0.00  0.00    +0.028 A 
ATOM     12  C8  UNL     1       2.530   8.881 -19.838  0.00  0.00    -0.050 A 
ATOM     13  C9  UNL     1       3.384   9.795 -19.222  0.00  0.00    -0.061 A 
ATOM     14  C10 UNL     1       3.551   9.758 -17.846  0.00  0.00    -0.061 A 
ATOM     15  C11 UNL     1       2.862   8.808 -17.092  0.00  0.00    -0.050 A 
ATOM     16  C12 UNL     1       1.997   7.865 -17.695  0.00  0.00    +0.028 A 
ENDROOT
TORSDOF 0
ENDMDL
MODEL 3
REMARK VINA RESULT:    -5.308      8.212     11.343
REMARK INTER + INTRA:          -5.308
REMARK INTER:                  -5.308
REMARK INTRA:                   0.000
REMARK UNBOUND:                 0.000
REMARK  Name = /home/vital/Documents/PhD_2021/Malaria_codes/scripts/../data/pdbqt_ligands/ligand_180_temp.pdb
REMARK                            x       y       z     vdW  Elec       q    Type
REMARK                         _______ _______ _______ _____ _____    ______ ____
ROOT
ATOM      1  C1  UNL     1       3.348  -4.153 -23.340  0.00  0.00    +0.079 C 
ATOM      2  O1  UNL     1       4.485  -4.838 -22.805  0.00  0.00    -0.493 OA
ATOM      3  C2  UNL     1       5.614  -4.050 -22.910  0.00  0.00    +0.143 A 
ATOM      4  C3  UNL     1       5.988  -3.226 -21.831  0.00  0.00    +0.078 A 
ATOM      5 BR1  UNL     1       4.935  -3.258 -20.233  0.00  0.00    -0.045 Br
ATOM      6  C4  UNL     1       7.124  -2.418 -21.946  0.00  0.00    +0.078 A 
ATOM      7 BR2  UNL     1       7.705  -1.291 -20.514  0.00  0.00    -0.045 Br
ATOM      8  C5  UNL     1       7.872  -2.444 -23.138  0.00  0.00    +0.143 A 
ATOM      9  O2  UNL     1       8.987  -1.639 -23.260  0.00  0.00    -0.493 OA
ATOM     10  C6  UNL     1       8.636  -0.396 -23.876  0.00  0.00    +0.079 C 
ATOM     11  C7  UNL     1       7.562  -3.342 -24.191  0.00  0.00    +0.028 A 
ATOM     12  C8  UNL     1       8.365  -3.465 -25.347  0.00  0.00    -0.050 A 
ATOM     13  C9  UNL     1       8.047  -4.358 -26.370  0.00  0.00    -0.061 A 
ATOM     14  C10 UNL     1       6.921  -5.158 -26.256  0.00  0.00    -0.061 A 
ATOM     15  C11 UNL     1       6.117  -5.062 -25.120  0.00  0.00    -0.050 A 
ATOM     16  C12 UNL     1       6.413  -4.157 -24.075  0.00  0.00    +0.028 A 
ENDROOT
TORSDOF 0
ENDMDL
MODEL 4
REMARK VINA RESULT:    -5.173      8.075     11.318
REMARK INTER + INTRA:          -5.173
REMARK INTER:                  -5.173
REMARK INTRA:                   0.000
REMARK UNBOUND:                 0.000
REMARK  Name = /home/vital/Documents/PhD_2021/Malaria_codes/scripts/../data/pdbqt_ligands/ligand_180_temp.pdb
REMARK                            x       y       z     vdW  Elec       q    Type
REMARK                         _______ _______ _______ _____ _____    ______ ____
ROOT
ATOM      1  C1  UNL     1       3.620  -4.244 -23.668  0.00  0.00    +0.079 C 
ATOM      2  O1  UNL     1       4.692  -4.864 -22.950  0.00  0.00    -0.493 OA
ATOM      3  C2  UNL     1       5.667  -3.936 -22.646  0.00  0.00    +0.143 A 
ATOM      4  C3  UNL     1       5.629  -3.272 -21.404  0.00  0.00    +0.078 A 
ATOM      5 BR1  UNL     1       4.244  -3.713 -20.161  0.00  0.00    -0.045 Br
ATOM      6  C4  UNL     1       6.611  -2.322 -21.105  0.00  0.00    +0.078 A 
ATOM      7 BR2  UNL     1       6.637  -1.398 -19.429  0.00  0.00    -0.045 Br
ATOM      8  C5  UNL     1       7.618  -2.046 -22.049  0.00  0.00    +0.143 A 
ATOM      9  O2  UNL     1       8.580  -1.099 -21.762  0.00  0.00    -0.493 OA
ATOM     10  C6  UNL     1       8.188   0.178 -22.272  0.00  0.00    +0.079 C 
ATOM     11  C7  UNL     1       7.722  -2.778 -23.258  0.00  0.00    +0.028 A 
ATOM     12  C8  UNL     1       8.789  -2.597 -24.168  0.00  0.00    -0.050 A 
ATOM     13  C9  UNL     1       8.878  -3.331 -25.351  0.00  0.00    -0.061 A 
ATOM     14  C10 UNL     1       7.905  -4.273 -25.648  0.00  0.00    -0.061 A 
ATOM     15  C11 UNL     1       6.847  -4.477 -24.762  0.00  0.00    -0.050 A 
ATOM     16  C12 UNL     1       6.730  -3.738 -23.562  0.00  0.00    +0.028 A 
ENDROOT
TORSDOF 0
ENDMDL
MODEL 5
REMARK VINA RESULT:    -5.118      1.587      2.233
REMARK INTER + INTRA:          -5.118
REMARK INTER:                  -5.118
REMARK INTRA:                   0.000
REMARK UNBOUND:                 0.000
REMARK  Name = /home/vital/Documents/PhD_2021/Malaria_codes/scripts/../data/pdbqt_ligands/ligand_180_temp.pdb
REMARK                            x       y       z     vdW  Elec       q    Type
REMARK                         _______ _______ _______ _____ _____    ______ ____
ROOT
ATOM      1  C1  UNL     1      -1.525  -1.011 -20.724  0.00  0.00    +0.079 C 
ATOM      2  O1  UNL     1      -2.242  -2.209 -20.411  0.00  0.00    -0.493 OA
ATOM      3  C2  UNL     1      -2.680  -2.823 -21.568  0.00  0.00    +0.143 A 
ATOM      4  C3  UNL     1      -1.887  -3.820 -22.167  0.00  0.00    +0.078 A 
ATOM      5 BR1  UNL     1      -0.241  -4.321 -21.330  0.00  0.00    -0.045 Br
ATOM      6  C4  UNL     1      -2.328  -4.430 -23.347  0.00  0.00    +0.078 A 
ATOM      7 BR2  UNL     1      -1.314  -5.808 -24.204  0.00  0.00    -0.045 Br
ATOM      8  C5  UNL     1      -3.554  -4.035 -23.912  0.00  0.00    +0.143 A 
ATOM      9  O2  UNL     1      -3.985  -4.626 -25.084  0.00  0.00    -0.493 OA
ATOM     10  C6  UNL     1      -3.572  -3.849 -26.212  0.00  0.00    +0.079 C 
ATOM     11  C7  UNL     1      -4.405  -3.104 -23.265  0.00  0.00    +0.028 A 
ATOM     12  C8  UNL     1      -5.690  -2.779 -23.757  0.00  0.00    -0.050 A 
ATOM     13  C9  UNL     1      -6.516  -1.865 -23.103  0.00  0.00    -0.061 A 
ATOM     14  C10 UNL     1      -6.080  -1.260 -21.934  0.00  0.00    -0.061 A 
ATOM     15  C11 UNL     1      -4.820  -1.572 -21.424  0.00  0.00    -0.050 A 
ATOM     16  C12 UNL     1      -3.960  -2.488 -22.074  0.00  0.00    +0.028 A 
ENDROOT
TORSDOF 0
ENDMDL
MODEL 6
REMARK VINA RESULT:    -5.078      2.613      4.138
REMARK INTER + INTRA:          -5.078
REMARK INTER:                  -5.078
REMARK INTRA:                   0.000
REMARK UNBOUND:                 0.000
REMARK  Name = /home/vital/Documents/PhD_2021/Malaria_codes/scripts/../data/pdbqt_ligands/ligand_180_temp.pdb
REMARK                            x       y       z     vdW  Elec       q    Type
REMARK                         _______ _______ _______ _____ _____    ______ ____
ROOT
ATOM      1  C1  UNL     1      -2.307  -5.121 -23.719  0.00  0.00    +0.079 C 
ATOM      2  O1  UNL     1      -2.193  -3.739 -24.076  0.00  0.00    -0.493 OA
ATOM      3  C2  UNL     1      -2.425  -2.938 -22.976  0.00  0.00    +0.143 A 
ATOM      4  C3  UNL     1      -1.339  -2.507 -22.190  0.00  0.00    +0.078 A 
ATOM      5 BR1  UNL     1       0.433  -3.015 -22.702  0.00  0.00    -0.045 Br
ATOM      6  C4  UNL     1      -1.580  -1.706 -21.068  0.00  0.00    +0.078 A 
ATOM      7 BR2  UNL     1      -0.152  -1.064 -19.968  0.00  0.00    -0.045 Br
ATOM      8  C5  UNL     1      -2.902  -1.348 -20.746  0.00  0.00    +0.143 A 
ATOM      9  O2  UNL     1      -3.144  -0.569 -19.632  0.00  0.00    -0.493 OA
ATOM     10  C6  UNL     1      -3.423  -1.396 -18.499  0.00  0.00    +0.079 C 
ATOM     11  C7  UNL     1      -3.991  -1.694 -21.584  0.00  0.00    +0.028 A 
ATOM     12  C8  UNL     1      -5.311  -1.248 -21.341  0.00  0.00    -0.050 A 
ATOM     13  C9  UNL     1      -6.369  -1.594 -22.181  0.00  0.00    -0.061 A 
ATOM     14  C10 UNL     1      -6.131  -2.387 -23.292  0.00  0.00    -0.061 A 
ATOM     15  C11 UNL     1      -4.836  -2.832 -23.560  0.00  0.00    -0.050 A 
ATOM     16  C12 UNL     1      -3.749  -2.503 -22.717  0.00  0.00    +0.028 A 
ENDROOT
TORSDOF 0
ENDMDL
MODEL 7
REMARK VINA RESULT:    -5.060      2.564      5.088
REMARK INTER + INTRA:          -5.060
REMARK INTER:                  -5.060
REMARK INTRA:                   0.000
REMARK UNBOUND:                 0.000
REMARK  Name = /home/vital/Documents/PhD_2021/Malaria_codes/scripts/../data/pdbqt_ligands/ligand_180_temp.pdb
REMARK                            x       y       z     vdW  Elec       q    Type
REMARK                         _______ _______ _______ _____ _____    ______ ____
ROOT
ATOM      1  C1  UNL     1      -4.735  -3.077 -25.720  0.00  0.00    +0.079 C 
ATOM      2  O1  UNL     1      -5.270  -3.668 -24.531  0.00  0.00    -0.493 OA
ATOM      3  C2  UNL     1      -4.513  -3.309 -23.434  0.00  0.00    +0.143 A 
ATOM      4  C3  UNL     1      -4.885  -2.184 -22.673  0.00  0.00    +0.078 A 
ATOM      5 BR1  UNL     1      -6.458  -1.212 -23.165  0.00  0.00    -0.045 Br
ATOM      6  C4  UNL     1      -4.108  -1.815 -21.569  0.00  0.00    +0.078 A 
ATOM      7 BR2  UNL     1      -4.565  -0.312 -20.476  0.00  0.00    -0.045 Br
ATOM      8  C5  UNL     1      -2.970  -2.574 -21.241  0.00  0.00    +0.143 A 
ATOM      9  O2  UNL     1      -2.193  -2.204 -20.161  0.00  0.00    -0.493 OA
ATOM     10  C6  UNL     1      -1.121  -1.358 -20.587  0.00  0.00    +0.079 C 
ATOM     11  C7  UNL     1      -2.643  -3.763 -21.940  0.00  0.00    +0.028 A 
ATOM     12  C8  UNL     1      -1.571  -4.601 -21.556  0.00  0.00    -0.050 A 
ATOM     13  C9  UNL     1      -1.268  -5.771 -22.252  0.00  0.00    -0.061 A 
ATOM     14  C10 UNL     1      -2.038  -6.137 -23.345  0.00  0.00    -0.061 A 
ATOM     15  C11 UNL     1      -3.107  -5.332 -23.738  0.00  0.00    -0.050 A 
ATOM     16  C12 UNL     1      -3.427  -4.136 -23.055  0.00  0.00    +0.028 A 
ENDROOT
TORSDOF 0
ENDMDL
MODEL 8
REMARK VINA RESULT:    -5.002     11.381     12.991
REMARK INTER + INTRA:          -5.002
REMARK INTER:                  -5.002
REMARK INTRA:                   0.000
REMARK UNBOUND:                 0.000
REMARK  Name = /home/vital/Documents/PhD_2021/Malaria_codes/scripts/../data/pdbqt_ligands/ligand_180_temp.pdb
REMARK                            x       y       z     vdW  Elec       q    Type
REMARK                         _______ _______ _______ _____ _____    ______ ____
ROOT
ATOM      1  C1  UNL     1      -1.563  -3.880 -32.937  0.00  0.00    +0.079 C 
ATOM      2  O1  UNL     1      -1.089  -4.384 -34.190  0.00  0.00    -0.493 OA
ATOM      3  C2  UNL     1      -0.882  -5.746 -34.113  0.00  0.00    +0.143 A 
ATOM      4  C3  UNL     1      -1.910  -6.627 -34.499  0.00  0.00    +0.078 A 
ATOM      5 BR1  UNL     1      -3.553  -5.900 -35.158  0.00  0.00    -0.045 Br
ATOM      6  C4  UNL     1      -1.702  -8.008 -34.406  0.00  0.00    +0.078 A 
ATOM      7 BR2  UNL     1      -3.045  -9.264 -34.933  0.00  0.00    -0.045 Br
ATOM      8  C5  UNL     1      -0.468  -8.490 -33.929  0.00  0.00    +0.143 A 
ATOM      9  O2  UNL     1      -0.264  -9.851 -33.824  0.00  0.00    -0.493 OA
ATOM     10  C6  UNL     1      -0.594 -10.303 -32.507  0.00  0.00    +0.079 C 
ATOM     11  C7  UNL     1       0.607  -7.615 -33.633  0.00  0.00    +0.028 A 
ATOM     12  C8  UNL     1       1.888  -8.083 -33.262  0.00  0.00    -0.050 A 
ATOM     13  C9  UNL     1       2.936  -7.207 -32.980  0.00  0.00    -0.061 A 
ATOM     14  C10 UNL     1       2.730  -5.839 -33.071  0.00  0.00    -0.061 A 
ATOM     15  C11 UNL     1       1.477  -5.353 -33.444  0.00  0.00    -0.050 A 
ATOM     16  C12 UNL     1       0.396  -6.221 -33.725  0.00  0.00    +0.028 A 
ENDROOT
TORSDOF 0
ENDMDL
MODEL 9
REMARK VINA RESULT:    -4.588      9.879     11.867
REMARK INTER + INTRA:          -4.588
REMARK INTER:                  -4.588
REMARK INTRA:                   0.000
REMARK UNBOUND:                 0.000
REMARK  Name = /home/vital/Documents/PhD_2021/Malaria_codes/scripts/../data/pdbqt_ligands/ligand_180_temp.pdb
REMARK                            x       y       z     vdW  Elec       q    Type
REMARK                         _______ _______ _______ _____ _____    ______ ____
ROOT
ATOM      1  C1  UNL     1       6.112   0.420 -27.569  0.00  0.00    +0.079 C 
ATOM      2  O1  UNL     1       6.857  -0.641 -28.176  0.00  0.00    -0.493 OA
ATOM      3  C2  UNL     1       6.804  -1.775 -27.390  0.00  0.00    +0.143 A 
ATOM      4  C3  UNL     1       5.812  -2.744 -27.635  0.00  0.00    +0.078 A 
ATOM      5 BR1  UNL     1       4.592  -2.473 -29.084  0.00  0.00    -0.045 Br
ATOM      6  C4  UNL     1       5.754  -3.885 -26.828  0.00  0.00    +0.078 A 
ATOM      7 BR2  UNL     1       4.449  -5.254 -27.117  0.00  0.00    -0.045 Br
ATOM      8  C5  UNL     1       6.686  -4.043 -25.786  0.00  0.00    +0.143 A 
ATOM      9  O2  UNL     1       6.622  -5.161 -24.979  0.00  0.00    -0.493 OA
ATOM     10  C6  UNL     1       5.837  -4.889 -23.814  0.00  0.00    +0.079 C 
ATOM     11  C7  UNL     1       7.747  -3.123 -25.593  0.00  0.00    +0.028 A 
ATOM     12  C8  UNL     1       8.760  -3.322 -24.626  0.00  0.00    -0.050 A 
ATOM     13  C9  UNL     1       9.800  -2.409 -24.455  0.00  0.00    -0.061 A 
ATOM     14  C10 UNL     1       9.859  -1.278 -25.254  0.00  0.00    -0.061 A 
ATOM     15  C11 UNL     1       8.877  -1.064 -26.222  0.00  0.00    -0.050 A 
ATOM     16  C12 UNL     1       7.807  -1.970 -26.408  0.00  0.00    +0.028 A 
ENDROOT
TORSDOF 0
ENDMDL
