MODEL 1
REMARK VINA RESULT:    -6.475      0.000      0.000
REMARK INTER + INTRA:          -6.475
REMARK INTER:                  -6.475
REMARK INTRA:                   0.000
REMARK UNBOUND:                 0.000
REMARK  Name = /home/vital/Documents/PhD_2021/Malaria_codes/scripts/../data/pdbqt_ligands/ligand_308_temp.pdb
REMARK                            x       y       z     vdW  Elec       q    Type
REMARK                         _______ _______ _______ _____ _____    ______ ____
ROOT
ATOM      1  C   UNL     1       2.812  10.425 -17.439  0.00  0.00    -0.023 C 
ATOM      2  C   UNL     1       3.469   9.430 -18.403  0.00  0.00    +0.130 C 
ATOM      3  C   UNL     1       2.442   8.830 -19.370  0.00  0.00    -0.023 C 
ATOM      4  C   UNL     1       4.557  10.152 -19.207  0.00  0.00    -0.023 C 
ATOM      5  O   UNL     1       4.149   8.391 -17.675  0.00  0.00    -0.388 OA
ATOM      6  N   UNL     1       3.245   7.654 -16.892  0.00  0.00    -0.092 NA
ATOM      7  C   UNL     1       3.900   6.735 -16.258  0.00  0.00    +0.074 C 
ATOM      8  C   UNL     1       3.232   5.787 -15.347  0.00  0.00    -0.003 A 
ATOM      9  C   UNL     1       1.852   5.849 -15.135  0.00  0.00    -0.050 A 
ATOM     10  C   UNL     1       1.240   4.942 -14.268  0.00  0.00    -0.019 A 
ATOM     11  C   UNL     1       2.006   3.977 -13.617  0.00  0.00    +0.131 A 
ATOM     12  O   UNL     1       1.324   3.129 -12.787  0.00  0.00    -0.506 OA
ATOM     13  C   UNL     1       3.392   3.908 -13.825  0.00  0.00    +0.101 A 
ATOM     14  C   UNL     1       4.182   2.874 -13.123  0.00  0.00    +0.340 C 
ATOM     15  O   UNL     1       3.712   2.053 -12.354  0.00  0.00    -0.245 OA
ATOM     16  O   UNL     1       5.495   2.912 -13.405  0.00  0.00    -0.477 OA
ATOM     17  C   UNL     1       4.006   4.821 -14.697  0.00  0.00    -0.036 A 
ATOM     18  H   UNL     1       0.397   3.219 -12.684  0.00  0.00    +0.000 HD
ENDROOT
TORSDOF 0
ENDMDL
MODEL 2
REMARK VINA RESULT:    -6.097     20.565     21.231
REMARK INTER + INTRA:          -6.097
REMARK INTER:                  -6.097
REMARK INTRA:                   0.000
REMARK UNBOUND:                 0.000
REMARK  Name = /home/vital/Documents/PhD_2021/Malaria_codes/scripts/../data/pdbqt_ligands/ligand_308_temp.pdb
REMARK                            x       y       z     vdW  Elec       q    Type
REMARK                         _______ _______ _______ _____ _____    ______ ____
ROOT
ATOM      1  C   UNL     1       4.132  -2.584 -32.334  0.00  0.00    -0.023 C 
ATOM      2  C   UNL     1       4.558  -3.386 -31.098  0.00  0.00    +0.130 C 
ATOM      3  C   UNL     1       5.811  -4.222 -31.381  0.00  0.00    -0.023 C 
ATOM      4  C   UNL     1       4.846  -2.418 -29.945  0.00  0.00    -0.023 C 
ATOM      5  O   UNL     1       3.480  -4.224 -30.641  0.00  0.00    -0.388 OA
ATOM      6  N   UNL     1       3.123  -5.162 -31.624  0.00  0.00    -0.092 NA
ATOM      7  C   UNL     1       2.154  -5.890 -31.169  0.00  0.00    +0.074 C 
ATOM      8  C   UNL     1       1.550  -6.974 -31.967  0.00  0.00    -0.003 A 
ATOM      9  C   UNL     1       2.009  -7.255 -33.257  0.00  0.00    -0.050 A 
ATOM     10  C   UNL     1       1.423  -8.285 -33.994  0.00  0.00    -0.019 A 
ATOM     11  C   UNL     1       0.382  -9.029 -33.443  0.00  0.00    +0.131 A 
ATOM     12  O   UNL     1      -0.133 -10.020 -34.236  0.00  0.00    -0.506 OA
ATOM     13  C   UNL     1      -0.084  -8.754 -32.149  0.00  0.00    +0.101 A 
ATOM     14  C   UNL     1      -1.189  -9.560 -31.587  0.00  0.00    +0.340 C 
ATOM     15  O   UNL     1      -1.744 -10.471 -32.175  0.00  0.00    -0.245 OA
ATOM     16  O   UNL     1      -1.543  -9.198 -30.342  0.00  0.00    -0.477 OA
ATOM     17  C   UNL     1       0.507  -7.718 -31.408  0.00  0.00    -0.036 A 
ATOM     18  H   UNL     1       0.216 -10.162 -35.094  0.00  0.00    +0.000 HD
ENDROOT
TORSDOF 0
ENDMDL
MODEL 3
REMARK VINA RESULT:    -5.761      3.885      4.599
REMARK INTER + INTRA:          -5.761
REMARK INTER:                  -5.761
REMARK INTRA:                   0.000
REMARK UNBOUND:                 0.000
REMARK  Name = /home/vital/Documents/PhD_2021/Malaria_codes/scripts/../data/pdbqt_ligands/ligand_308_temp.pdb
REMARK                            x       y       z     vdW  Elec       q    Type
REMARK                         _______ _______ _______ _____ _____    ______ ____
ROOT
ATOM      1  C   UNL     1      -0.988   5.737 -20.428  0.00  0.00    -0.023 C 
ATOM      2  C   UNL     1      -1.509   4.341 -20.070  0.00  0.00    +0.130 C 
ATOM      3  C   UNL     1      -2.833   4.421 -19.300  0.00  0.00    -0.023 C 
ATOM      4  C   UNL     1      -1.722   3.537 -21.358  0.00  0.00    -0.023 C 
ATOM      5  O   UNL     1      -0.525   3.609 -19.315  0.00  0.00    -0.388 OA
ATOM      6  N   UNL     1      -0.244   4.256 -18.100  0.00  0.00    -0.092 NA
ATOM      7  C   UNL     1       0.642   3.565 -17.459  0.00  0.00    +0.074 C 
ATOM      8  C   UNL     1       1.152   3.981 -16.138  0.00  0.00    -0.003 A 
ATOM      9  C   UNL     1       0.690   5.150 -15.528  0.00  0.00    -0.050 A 
ATOM     10  C   UNL     1       1.186   5.525 -14.278  0.00  0.00    -0.019 A 
ATOM     11  C   UNL     1       2.141   4.733 -13.643  0.00  0.00    +0.131 A 
ATOM     12  O   UNL     1       2.571   5.176 -12.421  0.00  0.00    -0.506 OA
ATOM     13  C   UNL     1       2.610   3.558 -14.249  0.00  0.00    +0.101 A 
ATOM     14  C   UNL     1       3.622   2.735 -13.554  0.00  0.00    +0.340 C 
ATOM     15  O   UNL     1       4.097   3.004 -12.463  0.00  0.00    -0.245 OA
ATOM     16  O   UNL     1       3.989   1.637 -14.236  0.00  0.00    -0.477 OA
ATOM     17  C   UNL     1       2.109   3.182 -15.506  0.00  0.00    -0.036 A 
ATOM     18  H   UNL     1       2.225   5.969 -12.062  0.00  0.00    +0.000 HD
ENDROOT
TORSDOF 0
ENDMDL
MODEL 4
REMARK VINA RESULT:    -5.660     19.877     21.201
REMARK INTER + INTRA:          -5.660
REMARK INTER:                  -5.660
REMARK INTRA:                   0.000
REMARK UNBOUND:                 0.000
REMARK  Name = /home/vital/Documents/PhD_2021/Malaria_codes/scripts/../data/pdbqt_ligands/ligand_308_temp.pdb
REMARK                            x       y       z     vdW  Elec       q    Type
REMARK                         _______ _______ _______ _____ _____    ______ ____
ROOT
ATOM      1  C   UNL     1      -0.097  -9.182 -34.260  0.00  0.00    -0.023 C 
ATOM      2  C   UNL     1      -0.670  -8.773 -32.898  0.00  0.00    +0.130 C 
ATOM      3  C   UNL     1      -1.813  -7.764 -33.055  0.00  0.00    -0.023 C 
ATOM      4  C   UNL     1      -1.193 -10.020 -32.176  0.00  0.00    -0.023 C 
ATOM      5  O   UNL     1       0.365  -8.240 -32.051  0.00  0.00    -0.388 OA
ATOM      6  N   UNL     1       0.928  -7.083 -32.613  0.00  0.00    -0.092 NA
ATOM      7  C   UNL     1       1.849  -6.642 -31.819  0.00  0.00    +0.074 C 
ATOM      8  C   UNL     1       2.633  -5.431 -32.128  0.00  0.00    -0.003 A 
ATOM      9  C   UNL     1       2.404  -4.709 -33.302  0.00  0.00    -0.050 A 
ATOM     10  C   UNL     1       3.157  -3.566 -33.575  0.00  0.00    -0.019 A 
ATOM     11  C   UNL     1       4.136  -3.148 -32.675  0.00  0.00    +0.131 A 
ATOM     12  O   UNL     1       4.826  -2.017 -33.022  0.00  0.00    -0.506 OA
ATOM     13  C   UNL     1       4.371  -3.867 -31.493  0.00  0.00    +0.101 A 
ATOM     14  C   UNL     1       5.415  -3.401 -30.555  0.00  0.00    +0.340 C 
ATOM     15  O   UNL     1       6.108  -2.413 -30.731  0.00  0.00    -0.245 OA
ATOM     16  O   UNL     1       5.544  -4.173 -29.463  0.00  0.00    -0.477 OA
ATOM     17  C   UNL     1       3.613  -5.015 -31.221  0.00  0.00    -0.036 A 
ATOM     18  H   UNL     1       4.628  -1.575 -33.824  0.00  0.00    +0.000 HD
ENDROOT
TORSDOF 0
ENDMDL
MODEL 5
REMARK VINA RESULT:    -5.469      4.830      7.381
REMARK INTER + INTRA:          -5.469
REMARK INTER:                  -5.469
REMARK INTRA:                   0.000
REMARK UNBOUND:                 0.000
REMARK  Name = /home/vital/Documents/PhD_2021/Malaria_codes/scripts/../data/pdbqt_ligands/ligand_308_temp.pdb
REMARK                            x       y       z     vdW  Elec       q    Type
REMARK                         _______ _______ _______ _____ _____    ______ ____
ROOT
ATOM      1  C   UNL     1       2.546   4.764 -13.258  0.00  0.00    -0.023 C 
ATOM      2  C   UNL     1       3.250   3.827 -14.248  0.00  0.00    +0.130 C 
ATOM      3  C   UNL     1       4.384   4.547 -14.986  0.00  0.00    -0.023 C 
ATOM      4  C   UNL     1       3.825   2.629 -13.484  0.00  0.00    -0.023 C 
ATOM      5  O   UNL     1       2.305   3.274 -15.183  0.00  0.00    -0.388 OA
ATOM      6  N   UNL     1       1.705   4.288 -15.948  0.00  0.00    -0.092 NA
ATOM      7  C   UNL     1       0.867   3.745 -16.770  0.00  0.00    +0.074 C 
ATOM      8  C   UNL     1       0.071   4.547 -17.718  0.00  0.00    -0.003 A 
ATOM      9  C   UNL     1       0.196   5.938 -17.761  0.00  0.00    -0.050 A 
ATOM     10  C   UNL     1      -0.567   6.678 -18.665  0.00  0.00    -0.019 A 
ATOM     11  C   UNL     1      -1.452   6.028 -19.524  0.00  0.00    +0.131 A 
ATOM     12  O   UNL     1      -2.159   6.831 -20.378  0.00  0.00    -0.506 OA
ATOM     13  C   UNL     1      -1.583   4.631 -19.487  0.00  0.00    +0.101 A 
ATOM     14  C   UNL     1      -2.528   3.966 -20.410  0.00  0.00    +0.340 C 
ATOM     15  O   UNL     1      -3.224   4.551 -21.222  0.00  0.00    -0.245 OA
ATOM     16  O   UNL     1      -2.563   2.629 -20.277  0.00  0.00    -0.477 OA
ATOM     17  C   UNL     1      -0.815   3.889 -18.577  0.00  0.00    -0.036 A 
ATOM     18  H   UNL     1      -2.032   7.759 -20.360  0.00  0.00    +0.000 HD
ENDROOT
TORSDOF 0
ENDMDL
MODEL 6
REMARK VINA RESULT:    -5.453     13.321     14.087
REMARK INTER + INTRA:          -5.453
REMARK INTER:                  -5.453
REMARK INTRA:                   0.000
REMARK UNBOUND:                 0.000
REMARK  Name = /home/vital/Documents/PhD_2021/Malaria_codes/scripts/../data/pdbqt_ligands/ligand_308_temp.pdb
REMARK                            x       y       z     vdW  Elec       q    Type
REMARK                         _______ _______ _______ _____ _____    ______ ____
ROOT
ATOM      1  C   UNL     1      -7.007   2.313 -24.787  0.00  0.00    -0.023 C 
ATOM      2  C   UNL     1      -7.782   1.090 -25.291  0.00  0.00    +0.130 C 
ATOM      3  C   UNL     1      -8.973   0.771 -24.380  0.00  0.00    -0.023 C 
ATOM      4  C   UNL     1      -8.293   1.368 -26.710  0.00  0.00    -0.023 C 
ATOM      5  O   UNL     1      -6.911  -0.050 -25.409  0.00  0.00    -0.388 OA
ATOM      6  N   UNL     1      -6.376  -0.403 -24.159  0.00  0.00    -0.092 NA
ATOM      7  C   UNL     1      -5.603  -1.428 -24.314  0.00  0.00    +0.074 C 
ATOM      8  C   UNL     1      -4.885  -2.045 -23.182  0.00  0.00    -0.003 A 
ATOM      9  C   UNL     1      -5.018  -1.536 -21.888  0.00  0.00    -0.050 A 
ATOM     10  C   UNL     1      -4.330  -2.134 -20.831  0.00  0.00    -0.019 A 
ATOM     11  C   UNL     1      -3.513  -3.237 -21.070  0.00  0.00    +0.131 A 
ATOM     12  O   UNL     1      -2.877  -3.761 -19.976  0.00  0.00    -0.506 OA
ATOM     13  C   UNL     1      -3.375  -3.755 -22.367  0.00  0.00    +0.101 A 
ATOM     14  C   UNL     1      -2.502  -4.927 -22.593  0.00  0.00    +0.340 C 
ATOM     15  O   UNL     1      -1.874  -5.496 -21.717  0.00  0.00    -0.245 OA
ATOM     16  O   UNL     1      -2.454  -5.326 -23.875  0.00  0.00    -0.477 OA
ATOM     17  C   UNL     1      -4.067  -3.152 -23.428  0.00  0.00    -0.036 A 
ATOM     18  H   UNL     1      -3.004  -3.376 -19.132  0.00  0.00    +0.000 HD
ENDROOT
TORSDOF 0
ENDMDL
MODEL 7
REMARK VINA RESULT:    -5.356     12.357     12.887
REMARK INTER + INTRA:          -5.356
REMARK INTER:                  -5.356
REMARK INTRA:                   0.000
REMARK UNBOUND:                 0.000
REMARK  Name = /home/vital/Documents/PhD_2021/Malaria_codes/scripts/../data/pdbqt_ligands/ligand_308_temp.pdb
REMARK                            x       y       z     vdW  Elec       q    Type
REMARK                         _______ _______ _______ _____ _____    ______ ____
ROOT
ATOM      1  C   UNL     1       9.973   1.052 -27.093  0.00  0.00    -0.023 C 
ATOM      2  C   UNL     1      10.773   0.980 -25.787  0.00  0.00    +0.130 C 
ATOM      3  C   UNL     1      11.946   0.001 -25.905  0.00  0.00    -0.023 C 
ATOM      4  C   UNL     1      11.312   2.376 -25.450  0.00  0.00    -0.023 C 
ATOM      5  O   UNL     1       9.918   0.619 -24.687  0.00  0.00    -0.388 OA
ATOM      6  N   UNL     1       9.358  -0.654 -24.884  0.00  0.00    -0.092 NA
ATOM      7  C   UNL     1       8.600  -0.934 -23.874  0.00  0.00    +0.074 C 
ATOM      8  C   UNL     1       7.864  -2.209 -23.779  0.00  0.00    -0.003 A 
ATOM      9  C   UNL     1       7.961  -3.169 -24.789  0.00  0.00    -0.050 A 
ATOM     10  C   UNL     1       7.256  -4.369 -24.679  0.00  0.00    -0.019 A 
ATOM     11  C   UNL     1       6.457  -4.605 -23.563  0.00  0.00    +0.131 A 
ATOM     12  O   UNL     1       5.802  -5.808 -23.537  0.00  0.00    -0.506 OA
ATOM     13  C   UNL     1       6.354  -3.647 -22.544  0.00  0.00    +0.101 A 
ATOM     14  C   UNL     1       5.500  -3.923 -21.369  0.00  0.00    +0.340 C 
ATOM     15  O   UNL     1       4.858  -4.947 -21.210  0.00  0.00    -0.245 OA
ATOM     16  O   UNL     1       5.484  -2.929 -20.465  0.00  0.00    -0.477 OA
ATOM     17  C   UNL     1       7.064  -2.441 -22.656  0.00  0.00    -0.036 A 
ATOM     18  H   UNL     1       5.906  -6.413 -24.245  0.00  0.00    +0.000 HD
ENDROOT
TORSDOF 0
ENDMDL
MODEL 8
REMARK VINA RESULT:    -5.209     16.780     18.201
REMARK INTER + INTRA:          -5.209
REMARK INTER:                  -5.209
REMARK INTRA:                   0.000
REMARK UNBOUND:                 0.000
REMARK  Name = /home/vital/Documents/PhD_2021/Malaria_codes/scripts/../data/pdbqt_ligands/ligand_308_temp.pdb
REMARK                            x       y       z     vdW  Elec       q    Type
REMARK                         _______ _______ _______ _____ _____    ______ ____
ROOT
ATOM      1  C   UNL     1       6.729  -2.689 -24.920  0.00  0.00    -0.023 C 
ATOM      2  C   UNL     1       5.924  -3.984 -24.756  0.00  0.00    +0.130 C 
ATOM      3  C   UNL     1       6.828  -5.218 -24.851  0.00  0.00    -0.023 C 
ATOM      4  C   UNL     1       5.226  -3.973 -23.391  0.00  0.00    -0.023 C 
ATOM      5  O   UNL     1       4.867  -4.052 -25.732  0.00  0.00    -0.388 OA
ATOM      6  N   UNL     1       5.389  -4.066 -27.035  0.00  0.00    -0.092 NA
ATOM      7  C   UNL     1       4.405  -4.127 -27.874  0.00  0.00    +0.074 C 
ATOM      8  C   UNL     1       4.623  -4.159 -29.333  0.00  0.00    -0.003 A 
ATOM      9  C   UNL     1       5.915  -4.123 -29.865  0.00  0.00    -0.050 A 
ATOM     10  C   UNL     1       6.098  -4.154 -31.248  0.00  0.00    -0.019 A 
ATOM     11  C   UNL     1       4.993  -4.220 -32.095  0.00  0.00    +0.131 A 
ATOM     12  O   UNL     1       5.265  -4.247 -33.436  0.00  0.00    -0.506 OA
ATOM     13  C   UNL     1       3.693  -4.256 -31.568  0.00  0.00    +0.101 A 
ATOM     14  C   UNL     1       2.538  -4.327 -32.489  0.00  0.00    +0.340 C 
ATOM     15  O   UNL     1       2.627  -4.356 -33.704  0.00  0.00    -0.245 OA
ATOM     16  O   UNL     1       1.349  -4.355 -31.863  0.00  0.00    -0.477 OA
ATOM     17  C   UNL     1       3.510  -4.226 -30.177  0.00  0.00    -0.036 A 
ATOM     18  H   UNL     1       6.153  -4.220 -33.735  0.00  0.00    +0.000 HD
ENDROOT
TORSDOF 0
ENDMDL
MODEL 9
REMARK VINA RESULT:    -5.092     19.865     20.437
REMARK INTER + INTRA:          -5.092
REMARK INTER:                  -5.092
REMARK INTRA:                   0.000
REMARK UNBOUND:                 0.000
REMARK  Name = /home/vital/Documents/PhD_2021/Malaria_codes/scripts/../data/pdbqt_ligands/ligand_308_temp.pdb
REMARK                            x       y       z     vdW  Elec       q    Type
REMARK                         _______ _______ _______ _____ _____    ______ ____
ROOT
ATOM      1  C   UNL     1       4.995  -3.267 -29.319  0.00  0.00    -0.023 C 
ATOM      2  C   UNL     1       4.475  -2.719 -30.654  0.00  0.00    +0.130 C 
ATOM      3  C   UNL     1       3.316  -1.738 -30.440  0.00  0.00    -0.023 C 
ATOM      4  C   UNL     1       5.617  -1.999 -31.382  0.00  0.00    -0.023 C 
ATOM      5  O   UNL     1       4.076  -3.794 -31.524  0.00  0.00    -0.388 OA
ATOM      6  N   UNL     1       3.025  -4.534 -30.958  0.00  0.00    -0.092 NA
ATOM      7  C   UNL     1       2.703  -5.485 -31.773  0.00  0.00    +0.074 C 
ATOM      8  C   UNL     1       1.625  -6.445 -31.468  0.00  0.00    -0.003 A 
ATOM      9  C   UNL     1       0.906  -6.357 -30.272  0.00  0.00    -0.050 A 
ATOM     10  C   UNL     1      -0.110  -7.275 -30.003  0.00  0.00    -0.019 A 
ATOM     11  C   UNL     1      -0.405  -8.277 -30.926  0.00  0.00    +0.131 A 
ATOM     12  O   UNL     1      -1.417  -9.132 -30.581  0.00  0.00    -0.506 OA
ATOM     13  C   UNL     1       0.311  -8.371 -32.129  0.00  0.00    +0.101 A 
ATOM     14  C   UNL     1      -0.022  -9.442 -33.092  0.00  0.00    +0.340 C 
ATOM     15  O   UNL     1      -0.896 -10.275 -32.919  0.00  0.00    -0.245 OA
ATOM     16  O   UNL     1       0.734  -9.426 -34.202  0.00  0.00    -0.477 OA
ATOM     17  C   UNL     1       1.333  -7.447 -32.398  0.00  0.00    -0.036 A 
ATOM     18  H   UNL     1      -1.863  -9.024 -29.764  0.00  0.00    +0.000 HD
ENDROOT
TORSDOF 0
ENDMDL
