MODEL 1
REMARK VINA RESULT:    -4.586      0.000      0.000
REMARK INTER + INTRA:          -4.586
REMARK INTER:                  -4.586
REMARK INTRA:                   0.000
REMARK UNBOUND:                 0.000
REMARK  Name = /home/vital/Documents/PhD_2021/Malaria_codes/scripts/../data/pdbqt_ligands/ligand_153_temp.pdb
REMARK                            x       y       z     vdW  Elec       q    Type
REMARK                         _______ _______ _______ _____ _____    ______ ____
ROOT
ATOM      1  C1  UNL     1      -1.552   5.487 -17.885  0.00  0.00    -0.047 C 
ATOM      2  C2  UNL     1      -0.318   4.862 -18.533  0.00  0.00    +0.018 C 
ATOM      3  C3  UNL     1       0.481   3.969 -17.571  0.00  0.00    -0.035 C 
ATOM      4  C4  UNL     1       1.688   3.251 -18.190  0.00  0.00    -0.049 C 
ATOM      5  C5  UNL     1       1.408   2.340 -19.393  0.00  0.00    -0.030 C 
ATOM      6  C6  UNL     1       0.501   1.155 -19.083  0.00  0.00    +0.044 C 
ATOM      7  O1  UNL     1      -0.846   1.585 -18.949  0.00  0.00    -0.395 OA
ATOM      8  N1  UNL     1       0.500   5.859 -19.238  0.00  0.00    -0.341 N 
ATOM      9  C7  UNL     1       1.263   6.903 -18.712  0.00  0.00    +0.038 A 
ATOM     10  C8  UNL     1       1.250   7.248 -17.363  0.00  0.00    -0.022 A 
ATOM     11  C9  UNL     1       2.022   8.306 -16.921  0.00  0.00    +0.030 A 
ATOM     12  N2  UNL     1       2.790   9.066 -17.720  0.00  0.00    -0.255 NA
ATOM     13  C10 UNL     1       2.779   8.795 -19.029  0.00  0.00    +0.074 A 
ATOM     14  C11 UNL     1       3.545   9.607 -19.853  0.00  0.00    -0.022 A 
ATOM     15  C12 UNL     1       3.575   9.419 -21.231  0.00  0.00    +0.020 A 
ATOM     16 BR1  UNL     1       4.629  10.553 -22.314  0.00  0.00    -0.050 Br
ATOM     17  C13 UNL     1       2.828   8.408 -21.815  0.00  0.00    -0.047 A 
ATOM     18  C14 UNL     1       2.055   7.577 -21.002  0.00  0.00    -0.050 A 
ATOM     19  C15 UNL     1       2.021   7.737 -19.593  0.00  0.00    +0.021 A 
ATOM     20  H   UNL     1      -0.911   2.223 -18.223  0.00  0.00    +0.000 HD
ATOM     21  H   UNL     1       0.512   5.778 -20.218  0.00  0.00    +0.000 HD
ENDROOT
TORSDOF 0
ENDMDL
MODEL 2
REMARK VINA RESULT:    -4.528     15.263     17.221
REMARK INTER + INTRA:          -4.528
REMARK INTER:                  -4.528
REMARK INTRA:                   0.000
REMARK UNBOUND:                 0.000
REMARK  Name = /home/vital/Documents/PhD_2021/Malaria_codes/scripts/../data/pdbqt_ligands/ligand_153_temp.pdb
REMARK                            x       y       z     vdW  Elec       q    Type
REMARK                         _______ _______ _______ _____ _____    ______ ____
ROOT
ATOM      1  C1  UNL     1       4.608  -4.163 -32.742  0.00  0.00    -0.047 C 
ATOM      2  C2  UNL     1       3.372  -3.918 -31.879  0.00  0.00    +0.018 C 
ATOM      3  C3  UNL     1       2.668  -5.215 -31.450  0.00  0.00    -0.035 C 
ATOM      4  C4  UNL     1       1.465  -5.032 -30.515  0.00  0.00    -0.049 C 
ATOM      5  C5  UNL     1       1.723  -4.298 -29.193  0.00  0.00    -0.030 C 
ATOM      6  C6  UNL     1       2.700  -5.009 -28.263  0.00  0.00    +0.044 C 
ATOM      7  O1  UNL     1       4.030  -4.860 -28.737  0.00  0.00    -0.395 OA
ATOM      8  N1  UNL     1       2.471  -2.921 -32.475  0.00  0.00    -0.341 N 
ATOM      9  C7  UNL     1       1.689  -3.018 -33.627  0.00  0.00    +0.038 A 
ATOM     10  C8  UNL     1       1.757  -4.099 -34.502  0.00  0.00    -0.022 A 
ATOM     11  C9  UNL     1       0.961  -4.115 -35.632  0.00  0.00    +0.030 A 
ATOM     12  N2  UNL     1       0.117  -3.127 -35.975  0.00  0.00    -0.255 NA
ATOM     13  C10 UNL     1       0.071  -2.050 -35.184  0.00  0.00    +0.074 A 
ATOM     14  C11 UNL     1      -0.775  -1.018 -35.563  0.00  0.00    -0.022 A 
ATOM     15  C12 UNL     1      -0.870   0.153 -34.818  0.00  0.00    +0.020 A 
ATOM     16 BR1  UNL     1      -2.033   1.533 -35.377  0.00  0.00    -0.050 Br
ATOM     17  C13 UNL     1      -0.109   0.316 -33.672  0.00  0.00    -0.047 A 
ATOM     18  C14 UNL     1       0.745  -0.714 -33.271  0.00  0.00    -0.050 A 
ATOM     19  C15 UNL     1       0.846  -1.925 -34.003  0.00  0.00    +0.021 A 
ATOM     20  H   UNL     1       4.103  -5.251 -29.621  0.00  0.00    +0.000 HD
ATOM     21  H   UNL     1       2.410  -2.065 -31.993  0.00  0.00    +0.000 HD
ENDROOT
TORSDOF 0
ENDMDL
MODEL 3
REMARK VINA RESULT:    -4.395      2.375      2.607
REMARK INTER + INTRA:          -4.395
REMARK INTER:                  -4.395
REMARK INTRA:                   0.000
REMARK UNBOUND:                 0.000
REMARK  Name = /home/vital/Documents/PhD_2021/Malaria_codes/scripts/../data/pdbqt_ligands/ligand_153_temp.pdb
REMARK                            x       y       z     vdW  Elec       q    Type
REMARK                         _______ _______ _______ _____ _____    ______ ____
ROOT
ATOM      1  C1  UNL     1       0.263   6.061 -15.287  0.00  0.00    -0.047 C 
ATOM      2  C2  UNL     1       1.392   5.353 -16.033  0.00  0.00    +0.018 C 
ATOM      3  C3  UNL     1       2.655   5.165 -15.178  0.00  0.00    -0.035 C 
ATOM      4  C4  UNL     1       3.795   4.388 -15.850  0.00  0.00    -0.049 C 
ATOM      5  C5  UNL     1       3.469   2.972 -16.342  0.00  0.00    -0.030 C 
ATOM      6  C6  UNL     1       3.076   1.999 -15.236  0.00  0.00    +0.044 C 
ATOM      7  O1  UNL     1       1.757   2.269 -14.786  0.00  0.00    -0.395 OA
ATOM      8  N1  UNL     1       1.649   5.955 -17.349  0.00  0.00    -0.341 N 
ATOM      9  C7  UNL     1       2.186   7.206 -17.654  0.00  0.00    +0.038 A 
ATOM     10  C8  UNL     1       2.452   8.175 -16.690  0.00  0.00    -0.022 A 
ATOM     11  C9  UNL     1       2.970   9.398 -17.073  0.00  0.00    +0.030 A 
ATOM     12  N2  UNL     1       3.223   9.744 -18.346  0.00  0.00    -0.255 NA
ATOM     13  C10 UNL     1       2.926   8.856 -19.301  0.00  0.00    +0.074 A 
ATOM     14  C11 UNL     1       3.155   9.235 -20.615  0.00  0.00    -0.022 A 
ATOM     15  C12 UNL     1       2.850   8.388 -21.677  0.00  0.00    +0.020 A 
ATOM     16 BR1  UNL     1       3.176   8.949 -23.452  0.00  0.00    -0.050 Br
ATOM     17  C13 UNL     1       2.301   7.139 -21.440  0.00  0.00    -0.047 A 
ATOM     18  C14 UNL     1       2.068   6.738 -20.123  0.00  0.00    -0.050 A 
ATOM     19  C15 UNL     1       2.386   7.575 -19.022  0.00  0.00    +0.021 A 
ATOM     20  H   UNL     1       1.714   3.172 -14.435  0.00  0.00    +0.000 HD
ATOM     21  H   UNL     1       1.408   5.397 -18.123  0.00  0.00    +0.000 HD
ENDROOT
TORSDOF 0
ENDMDL
MODEL 4
REMARK VINA RESULT:    -4.208      9.111     10.748
REMARK INTER + INTRA:          -4.208
REMARK INTER:                  -4.208
REMARK INTRA:                   0.000
REMARK UNBOUND:                 0.000
REMARK  Name = /home/vital/Documents/PhD_2021/Malaria_codes/scripts/../data/pdbqt_ligands/ligand_153_temp.pdb
REMARK                            x       y       z     vdW  Elec       q    Type
REMARK                         _______ _______ _______ _____ _____    ______ ____
ROOT
ATOM      1  C1  UNL     1      -5.637  -2.150 -25.083  0.00  0.00    -0.047 C 
ATOM      2  C2  UNL     1      -5.209  -1.437 -23.802  0.00  0.00    +0.018 C 
ATOM      3  C3  UNL     1      -5.920  -1.970 -22.548  0.00  0.00    -0.035 C 
ATOM      4  C4  UNL     1      -5.471  -1.344 -21.221  0.00  0.00    -0.049 C 
ATOM      5  C5  UNL     1      -3.981  -1.455 -20.875  0.00  0.00    -0.030 C 
ATOM      6  C6  UNL     1      -3.483  -2.885 -20.697  0.00  0.00    +0.044 C 
ATOM      7  O1  UNL     1      -3.354  -3.523 -21.958  0.00  0.00    -0.395 OA
ATOM      8  N1  UNL     1      -5.263   0.026 -23.939  0.00  0.00    -0.341 N 
ATOM      9  C7  UNL     1      -6.375   0.858 -24.071  0.00  0.00    +0.038 A 
ATOM     10  C8  UNL     1      -7.671   0.373 -24.232  0.00  0.00    -0.022 A 
ATOM     11  C9  UNL     1      -8.721   1.261 -24.372  0.00  0.00    +0.030 A 
ATOM     12  N2  UNL     1      -8.582   2.597 -24.390  0.00  0.00    -0.255 NA
ATOM     13  C10 UNL     1      -7.343   3.092 -24.294  0.00  0.00    +0.074 A 
ATOM     14  C11 UNL     1      -7.203   4.471 -24.351  0.00  0.00    -0.022 A 
ATOM     15  C12 UNL     1      -5.952   5.076 -24.288  0.00  0.00    +0.020 A 
ATOM     16 BR1  UNL     1      -5.810   6.958 -24.373  0.00  0.00    -0.050 Br
ATOM     17  C13 UNL     1      -4.807   4.304 -24.171  0.00  0.00    -0.047 A 
ATOM     18  C14 UNL     1      -4.928   2.915 -24.107  0.00  0.00    -0.050 A 
ATOM     19  C15 UNL     1      -6.194   2.274 -24.152  0.00  0.00    +0.021 A 
ATOM     20  H   UNL     1      -4.218  -3.548 -22.398  0.00  0.00    +0.000 HD
ATOM     21  H   UNL     1      -4.391   0.482 -23.937  0.00  0.00    +0.000 HD
ENDROOT
TORSDOF 0
ENDMDL
MODEL 5
REMARK VINA RESULT:    -4.194     11.193     12.968
REMARK INTER + INTRA:          -4.194
REMARK INTER:                  -4.194
REMARK INTRA:                   0.000
REMARK UNBOUND:                 0.000
REMARK  Name = /home/vital/Documents/PhD_2021/Malaria_codes/scripts/../data/pdbqt_ligands/ligand_153_temp.pdb
REMARK                            x       y       z     vdW  Elec       q    Type
REMARK                         _______ _______ _______ _____ _____    ______ ____
ROOT
ATOM      1  C1  UNL     1      -9.439   0.437 -25.978  0.00  0.00    -0.047 C 
ATOM      2  C2  UNL     1      -8.447   1.251 -25.149  0.00  0.00    +0.018 C 
ATOM      3  C3  UNL     1      -7.706   2.317 -25.970  0.00  0.00    -0.035 C 
ATOM      4  C4  UNL     1      -6.755   3.219 -25.172  0.00  0.00    -0.049 C 
ATOM      5  C5  UNL     1      -7.367   4.010 -24.009  0.00  0.00    -0.030 C 
ATOM      6  C6  UNL     1      -8.429   5.019 -24.428  0.00  0.00    +0.044 C 
ATOM      7  O1  UNL     1      -9.638   4.354 -24.762  0.00  0.00    -0.395 OA
ATOM      8  N1  UNL     1      -7.561   0.394 -24.348  0.00  0.00    -0.341 N 
ATOM      9  C7  UNL     1      -6.549  -0.467 -24.774  0.00  0.00    +0.038 A 
ATOM     10  C8  UNL     1      -6.309  -0.751 -26.116  0.00  0.00    -0.022 A 
ATOM     11  C9  UNL     1      -5.297  -1.629 -26.458  0.00  0.00    +0.030 A 
ATOM     12  N2  UNL     1      -4.518  -2.267 -25.569  0.00  0.00    -0.255 NA
ATOM     13  C10 UNL     1      -4.762  -2.058 -24.270  0.00  0.00    +0.074 A 
ATOM     14  C11 UNL     1      -3.979  -2.749 -23.357  0.00  0.00    -0.022 A 
ATOM     15  C12 UNL     1      -4.177  -2.617 -21.986  0.00  0.00    +0.020 A 
ATOM     16 BR1  UNL     1      -3.088  -3.582 -20.780  0.00  0.00    -0.050 Br
ATOM     17  C13 UNL     1      -5.175  -1.788 -21.501  0.00  0.00    -0.047 A 
ATOM     18  C14 UNL     1      -5.970  -1.080 -22.404  0.00  0.00    -0.050 A 
ATOM     19  C15 UNL     1      -5.777  -1.183 -23.806  0.00  0.00    +0.021 A 
ATOM     20  H   UNL     1      -9.479   3.746 -25.500  0.00  0.00    +0.000 HD
ATOM     21  H   UNL     1      -7.701   0.434 -23.375  0.00  0.00    +0.000 HD
ENDROOT
TORSDOF 0
ENDMDL
MODEL 6
REMARK VINA RESULT:    -4.157      9.840     11.676
REMARK INTER + INTRA:          -4.157
REMARK INTER:                  -4.157
REMARK INTRA:                   0.000
REMARK UNBOUND:                 0.000
REMARK  Name = /home/vital/Documents/PhD_2021/Malaria_codes/scripts/../data/pdbqt_ligands/ligand_153_temp.pdb
REMARK                            x       y       z     vdW  Elec       q    Type
REMARK                         _______ _______ _______ _____ _____    ______ ____
ROOT
ATOM      1  C1  UNL     1       1.690  -2.350 -18.442  0.00  0.00    -0.047 C 
ATOM      2  C2  UNL     1       2.186  -3.107 -19.672  0.00  0.00    +0.018 C 
ATOM      3  C3  UNL     1       3.199  -2.307 -20.506  0.00  0.00    -0.035 C 
ATOM      4  C4  UNL     1       3.792  -3.049 -21.710  0.00  0.00    -0.049 C 
ATOM      5  C5  UNL     1       4.517  -4.370 -21.419  0.00  0.00    -0.030 C 
ATOM      6  C6  UNL     1       5.753  -4.225 -20.538  0.00  0.00    +0.044 C 
ATOM      7  O1  UNL     1       5.374  -4.003 -19.189  0.00  0.00    -0.395 OA
ATOM      8  N1  UNL     1       1.080  -3.669 -20.459  0.00  0.00    -0.341 N 
ATOM      9  C7  UNL     1       0.112  -3.007 -21.216  0.00  0.00    +0.038 A 
ATOM     10  C8  UNL     1      -0.026  -1.621 -21.226  0.00  0.00    -0.022 A 
ATOM     11  C9  UNL     1      -1.020  -1.038 -21.990  0.00  0.00    +0.030 A 
ATOM     12  N2  UNL     1      -1.906  -1.728 -22.728  0.00  0.00    -0.255 NA
ATOM     13  C10 UNL     1      -1.835  -3.063 -22.694  0.00  0.00    +0.074 A 
ATOM     14  C11 UNL     1      -2.776  -3.769 -23.429  0.00  0.00    -0.022 A 
ATOM     15  C12 UNL     1      -2.798  -5.160 -23.432  0.00  0.00    +0.020 A 
ATOM     16 BR1  UNL     1      -4.102  -6.079 -24.445  0.00  0.00    -0.050 Br
ATOM     17  C13 UNL     1      -1.873  -5.876 -22.690  0.00  0.00    -0.047 A 
ATOM     18  C14 UNL     1      -0.914  -5.183 -21.948  0.00  0.00    -0.050 A 
ATOM     19  C15 UNL     1      -0.859  -3.765 -21.941  0.00  0.00    +0.021 A 
ATOM     20  H   UNL     1       4.853  -3.188 -19.129  0.00  0.00    +0.000 HD
ATOM     21  H   UNL     1       1.012  -4.651 -20.452  0.00  0.00    +0.000 HD
ENDROOT
TORSDOF 0
ENDMDL
MODEL 7
REMARK VINA RESULT:    -4.040     16.979     17.924
REMARK INTER + INTRA:          -4.040
REMARK INTER:                  -4.040
REMARK INTRA:                   0.000
REMARK UNBOUND:                 0.000
REMARK  Name = /home/vital/Documents/PhD_2021/Malaria_codes/scripts/../data/pdbqt_ligands/ligand_153_temp.pdb
REMARK                            x       y       z     vdW  Elec       q    Type
REMARK                         _______ _______ _______ _____ _____    ______ ____
ROOT
ATOM      1  C1  UNL     1       1.833  -6.649 -34.155  0.00  0.00    -0.047 C 
ATOM      2  C2  UNL     1       2.389  -5.312 -33.669  0.00  0.00    +0.018 C 
ATOM      3  C3  UNL     1       2.822  -5.339 -32.195  0.00  0.00    -0.035 C 
ATOM      4  C4  UNL     1       3.463  -4.046 -31.674  0.00  0.00    -0.049 C 
ATOM      5  C5  UNL     1       4.709  -3.545 -32.415  0.00  0.00    -0.030 C 
ATOM      6  C6  UNL     1       5.899  -4.496 -32.353  0.00  0.00    +0.044 C 
ATOM      7  O1  UNL     1       5.691  -5.604 -33.216  0.00  0.00    -0.395 OA
ATOM      8  N1  UNL     1       1.504  -4.189 -34.008  0.00  0.00    -0.341 N 
ATOM      9  C7  UNL     1       0.238  -3.883 -33.506  0.00  0.00    +0.038 A 
ATOM     10  C8  UNL     1      -0.465  -4.729 -32.652  0.00  0.00    -0.022 A 
ATOM     11  C9  UNL     1      -1.723  -4.363 -32.209  0.00  0.00    +0.030 A 
ATOM     12  N2  UNL     1      -2.349  -3.230 -32.570  0.00  0.00    -0.255 NA
ATOM     13  C10 UNL     1      -1.723  -2.424 -33.435  0.00  0.00    +0.074 A 
ATOM     14  C11 UNL     1      -2.392  -1.276 -33.832  0.00  0.00    -0.022 A 
ATOM     15  C12 UNL     1      -1.832  -0.392 -34.749  0.00  0.00    +0.020 A 
ATOM     16 BR1  UNL     1      -2.783   1.159 -35.263  0.00  0.00    -0.050 Br
ATOM     17  C13 UNL     1      -0.584  -0.647 -35.294  0.00  0.00    -0.047 A 
ATOM     18  C14 UNL     1       0.106  -1.795 -34.903  0.00  0.00    -0.050 A 
ATOM     19  C15 UNL     1      -0.434  -2.704 -33.956  0.00  0.00    +0.021 A 
ATOM     20  H   UNL     1       4.896  -6.084 -32.939  0.00  0.00    +0.000 HD
ATOM     21  H   UNL     1       1.854  -3.565 -34.683  0.00  0.00    +0.000 HD
ENDROOT
TORSDOF 0
ENDMDL
MODEL 8
REMARK VINA RESULT:    -4.004     16.313     17.789
REMARK INTER + INTRA:          -4.004
REMARK INTER:                  -4.004
REMARK INTRA:                   0.000
REMARK UNBOUND:                 0.000
REMARK  Name = /home/vital/Documents/PhD_2021/Malaria_codes/scripts/../data/pdbqt_ligands/ligand_153_temp.pdb
REMARK                            x       y       z     vdW  Elec       q    Type
REMARK                         _______ _______ _______ _____ _____    ______ ____
ROOT
ATOM      1  C1  UNL     1       1.146  -4.209 -35.578  0.00  0.00    -0.047 C 
ATOM      2  C2  UNL     1       1.352  -3.053 -34.602  0.00  0.00    +0.018 C 
ATOM      3  C3  UNL     1       1.535  -3.516 -33.148  0.00  0.00    -0.035 C 
ATOM      4  C4  UNL     1       1.825  -2.402 -32.134  0.00  0.00    -0.049 C 
ATOM      5  C5  UNL     1       3.058  -1.529 -32.400  0.00  0.00    -0.030 C 
ATOM      6  C6  UNL     1       4.380  -2.288 -32.373  0.00  0.00    +0.044 C 
ATOM      7  O1  UNL     1       4.530  -3.061 -33.555  0.00  0.00    -0.395 OA
ATOM      8  N1  UNL     1       0.338  -2.002 -34.768  0.00  0.00    -0.341 N 
ATOM      9  C7  UNL     1      -1.028  -2.043 -34.484  0.00  0.00    +0.038 A 
ATOM     10  C8  UNL     1      -1.688  -3.207 -34.099  0.00  0.00    -0.022 A 
ATOM     11  C9  UNL     1      -3.048  -3.171 -33.850  0.00  0.00    +0.030 A 
ATOM     12  N2  UNL     1      -3.809  -2.071 -33.977  0.00  0.00    -0.255 NA
ATOM     13  C10 UNL     1      -3.214  -0.951 -34.400  0.00  0.00    +0.074 A 
ATOM     14  C11 UNL     1      -4.014   0.170 -34.566  0.00  0.00    -0.022 A 
ATOM     15  C12 UNL     1      -3.488   1.373 -35.028  0.00  0.00    +0.020 A 
ATOM     16 BR1  UNL     1      -4.617   2.873 -35.241  0.00  0.00    -0.050 Br
ATOM     17  C13 UNL     1      -2.143   1.474 -35.341  0.00  0.00    -0.047 A 
ATOM     18  C14 UNL     1      -1.321   0.358 -35.176  0.00  0.00    -0.050 A 
ATOM     19  C15 UNL     1      -1.828  -0.875 -34.690  0.00  0.00    +0.021 A 
ATOM     20  H   UNL     1       3.805  -3.702 -33.616  0.00  0.00    +0.000 HD
ATOM     21  H   UNL     1       0.669  -1.149 -35.130  0.00  0.00    +0.000 HD
ENDROOT
TORSDOF 0
ENDMDL
MODEL 9
REMARK VINA RESULT:    -3.395     16.428     17.955
REMARK INTER + INTRA:          -3.395
REMARK INTER:                  -3.395
REMARK INTRA:                   0.000
REMARK UNBOUND:                 0.000
REMARK  Name = /home/vital/Documents/PhD_2021/Malaria_codes/scripts/../data/pdbqt_ligands/ligand_153_temp.pdb
REMARK                            x       y       z     vdW  Elec       q    Type
REMARK                         _______ _______ _______ _____ _____    ______ ____
ROOT
ATOM      1  C1  UNL     1      -0.617  -3.600 -36.342  0.00  0.00    -0.047 C 
ATOM      2  C2  UNL     1      -0.885  -2.672 -35.159  0.00  0.00    +0.018 C 
ATOM      3  C3  UNL     1      -0.224  -1.293 -35.313  0.00  0.00    -0.035 C 
ATOM      4  C4  UNL     1      -0.525  -0.290 -34.191  0.00  0.00    -0.049 C 
ATOM      5  C5  UNL     1      -2.002   0.036 -33.934  0.00  0.00    -0.030 C 
ATOM      6  C6  UNL     1      -2.710   0.703 -35.109  0.00  0.00    +0.044 C 
ATOM      7  O1  UNL     1      -2.978  -0.248 -36.128  0.00  0.00    -0.395 OA
ATOM      8  N1  UNL     1      -0.609  -3.323 -33.871  0.00  0.00    -0.341 N 
ATOM      9  C7  UNL     1       0.614  -3.717 -33.327  0.00  0.00    +0.038 A 
ATOM     10  C8  UNL     1       1.813  -3.661 -34.035  0.00  0.00    -0.022 A 
ATOM     11  C9  UNL     1       2.983  -4.084 -33.433  0.00  0.00    +0.030 A 
ATOM     12  N2  UNL     1       3.053  -4.584 -32.187  0.00  0.00    -0.255 NA
ATOM     13  C10 UNL     1       1.910  -4.703 -31.503  0.00  0.00    +0.074 A 
ATOM     14  C11 UNL     1       1.984  -5.254 -30.232  0.00  0.00    -0.022 A 
ATOM     15  C12 UNL     1       0.845  -5.443 -29.456  0.00  0.00    +0.020 A 
ATOM     16 BR1  UNL     1       0.995  -6.202 -27.732  0.00  0.00    -0.050 Br
ATOM     17  C13 UNL     1      -0.401  -5.085 -29.945  0.00  0.00    -0.047 A 
ATOM     18  C14 UNL     1      -0.496  -4.525 -31.220  0.00  0.00    -0.050 A 
ATOM     19  C15 UNL     1       0.652  -4.305 -32.024  0.00  0.00    +0.021 A 
ATOM     20  H   UNL     1      -2.144  -0.628 -36.444  0.00  0.00    +0.000 HD
ATOM     21  H   UNL     1      -1.399  -3.506 -33.313  0.00  0.00    +0.000 HD
ENDROOT
TORSDOF 0
ENDMDL
