MODEL 1
REMARK VINA RESULT:    -3.712      0.000      0.000
REMARK INTER + INTRA:          -3.712
REMARK INTER:                  -3.712
REMARK INTRA:                   0.000
REMARK UNBOUND:                 0.000
REMARK  Name = /home/vital/Documents/PhD_2021/Malaria_codes/scripts/../data/pdbqt_ligands/ligand_411_temp.pdb
REMARK                            x       y       z     vdW  Elec       q    Type
REMARK                         _______ _______ _______ _____ _____    ______ ____
ROOT
ATOM      1 CL1  UNL     1      -0.753  -4.936 -25.568  0.00  0.00    -0.119 Cl
ATOM      2  C1  UNL     1      -2.317  -5.328 -24.816  0.00  0.00    +0.058 C 
ATOM      3  C2  UNL     1      -2.233  -5.210 -23.322  0.00  0.00    +0.033 C 
ATOM      4 CL2  UNL     1      -1.505  -6.575 -22.532  0.00  0.00    -0.087 Cl
ATOM      5  C3  UNL     1      -2.727  -4.158 -22.643  0.00  0.00    -0.042 C 
ATOM      6  C4  UNL     1      -2.718  -3.965 -21.204  0.00  0.00    -0.003 C 
ATOM      7  C5  UNL     1      -3.225  -2.895 -20.568  0.00  0.00    +0.189 C 
ATOM      8  N1  UNL     1      -3.209  -2.748 -19.212  0.00  0.00    -0.296 N 
ATOM      9  C6  UNL     1      -3.361  -1.455 -18.611  0.00  0.00    +0.108 C 
ATOM     10  N2  UNL     1      -4.134  -0.502 -19.378  0.00  0.00    -0.238 NA
ATOM     11  C7  UNL     1      -4.285  -0.791 -20.618  0.00  0.00    +0.181 C 
ATOM     12  O1  UNL     1      -3.831  -1.868 -21.312  0.00  0.00    -0.431 OA
ATOM     13  H   UNL     1      -3.091  -3.539 -18.639  0.00  0.00    +0.000 HD
ENDROOT
TORSDOF 0
ENDMDL
MODEL 2
REMARK VINA RESULT:    -3.502     13.925     15.177
REMARK INTER + INTRA:          -3.502
REMARK INTER:                  -3.502
REMARK INTRA:                   0.000
REMARK UNBOUND:                 0.000
REMARK  Name = /home/vital/Documents/PhD_2021/Malaria_codes/scripts/../data/pdbqt_ligands/ligand_411_temp.pdb
REMARK                            x       y       z     vdW  Elec       q    Type
REMARK                         _______ _______ _______ _____ _____    ______ ____
ROOT
ATOM      1 CL1  UNL     1       2.475   6.595 -16.202  0.00  0.00    -0.119 Cl
ATOM      2  C1  UNL     1       1.729   8.081 -16.836  0.00  0.00    +0.058 C 
ATOM      3  C2  UNL     1       2.756   8.948 -17.503  0.00  0.00    +0.033 C 
ATOM      4 CL2  UNL     1       3.720   9.893 -16.409  0.00  0.00    -0.087 Cl
ATOM      5  C3  UNL     1       2.886   9.030 -18.840  0.00  0.00    -0.042 C 
ATOM      6  C4  UNL     1       3.826   9.856 -19.577  0.00  0.00    -0.003 C 
ATOM      7  C5  UNL     1       3.921   9.905 -20.917  0.00  0.00    +0.189 C 
ATOM      8  N1  UNL     1       4.809  10.700 -21.580  0.00  0.00    -0.296 N 
ATOM      9  C6  UNL     1       5.169  10.424 -22.939  0.00  0.00    +0.108 C 
ATOM     10  N2  UNL     1       4.155   9.755 -23.726  0.00  0.00    -0.238 NA
ATOM     11  C7  UNL     1       3.227   9.183 -23.050  0.00  0.00    +0.181 C 
ATOM     12  O1  UNL     1       3.055   9.126 -21.702  0.00  0.00    -0.431 OA
ATOM     13  H   UNL     1       5.208  11.473 -21.119  0.00  0.00    +0.000 HD
ENDROOT
TORSDOF 0
ENDMDL
MODEL 3
REMARK VINA RESULT:    -3.416     11.877     13.281
REMARK INTER + INTRA:          -3.416
REMARK INTER:                  -3.416
REMARK INTRA:                   0.000
REMARK UNBOUND:                 0.000
REMARK  Name = /home/vital/Documents/PhD_2021/Malaria_codes/scripts/../data/pdbqt_ligands/ligand_411_temp.pdb
REMARK                            x       y       z     vdW  Elec       q    Type
REMARK                         _______ _______ _______ _____ _____    ______ ____
ROOT
ATOM      1 CL1  UNL     1      -2.461   5.844 -17.275  0.00  0.00    -0.119 Cl
ATOM      2  C1  UNL     1      -0.810   5.205 -17.457  0.00  0.00    +0.058 C 
ATOM      3  C2  UNL     1      -0.027   6.028 -18.438  0.00  0.00    +0.033 C 
ATOM      4 CL2  UNL     1      -0.356   5.666 -20.105  0.00  0.00    -0.087 Cl
ATOM      5  C3  UNL     1       0.893   6.934 -18.061  0.00  0.00    -0.042 C 
ATOM      6  C4  UNL     1       1.717   7.756 -18.929  0.00  0.00    -0.003 C 
ATOM      7  C5  UNL     1       2.626   8.651 -18.506  0.00  0.00    +0.189 C 
ATOM      8  N1  UNL     1       3.392   9.402 -19.349  0.00  0.00    -0.296 N 
ATOM      9  C6  UNL     1       4.019  10.607 -18.894  0.00  0.00    +0.108 C 
ATOM     10  N2  UNL     1       4.346  10.643 -17.484  0.00  0.00    -0.238 NA
ATOM     11  C7  UNL     1       3.737   9.778 -16.760  0.00  0.00    +0.181 C 
ATOM     12  O1  UNL     1       2.837   8.827 -17.129  0.00  0.00    -0.431 OA
ATOM     13  H   UNL     1       3.515   9.112 -20.282  0.00  0.00    +0.000 HD
ENDROOT
TORSDOF 0
ENDMDL
MODEL 4
REMARK VINA RESULT:    -3.374      9.365     11.837
REMARK INTER + INTRA:          -3.374
REMARK INTER:                  -3.374
REMARK INTRA:                   0.000
REMARK UNBOUND:                 0.000
REMARK  Name = /home/vital/Documents/PhD_2021/Malaria_codes/scripts/../data/pdbqt_ligands/ligand_411_temp.pdb
REMARK                            x       y       z     vdW  Elec       q    Type
REMARK                         _______ _______ _______ _____ _____    ______ ____
ROOT
ATOM      1 CL1  UNL     1       1.266  -6.956 -25.820  0.00  0.00    -0.119 Cl
ATOM      2  C1  UNL     1       0.069  -6.297 -26.959  0.00  0.00    +0.058 C 
ATOM      3  C2  UNL     1       0.646  -6.204 -28.341  0.00  0.00    +0.033 C 
ATOM      4 CL2  UNL     1       1.664  -4.821 -28.604  0.00  0.00    -0.087 Cl
ATOM      5  C3  UNL     1       0.358  -7.088 -29.314  0.00  0.00    -0.042 C 
ATOM      6  C4  UNL     1       0.842  -7.068 -30.683  0.00  0.00    -0.003 C 
ATOM      7  C5  UNL     1       0.527  -7.975 -31.624  0.00  0.00    +0.189 C 
ATOM      8  N1  UNL     1       0.992  -7.923 -32.906  0.00  0.00    -0.296 N 
ATOM      9  C6  UNL     1       0.988  -9.090 -33.736  0.00  0.00    +0.108 C 
ATOM     10  N2  UNL     1      -0.045 -10.060 -33.439  0.00  0.00    -0.238 NA
ATOM     11  C7  UNL     1      -0.590  -9.941 -32.285  0.00  0.00    +0.181 C 
ATOM     12  O1  UNL     1      -0.344  -9.030 -31.306  0.00  0.00    -0.431 OA
ATOM     13  H   UNL     1       1.335  -7.073 -33.264  0.00  0.00    +0.000 HD
ENDROOT
TORSDOF 0
ENDMDL
MODEL 5
REMARK VINA RESULT:    -3.374      9.530     10.977
REMARK INTER + INTRA:          -3.374
REMARK INTER:                  -3.374
REMARK INTRA:                   0.000
REMARK UNBOUND:                 0.000
REMARK  Name = /home/vital/Documents/PhD_2021/Malaria_codes/scripts/../data/pdbqt_ligands/ligand_411_temp.pdb
REMARK                            x       y       z     vdW  Elec       q    Type
REMARK                         _______ _______ _______ _____ _____    ______ ____
ROOT
ATOM      1 CL1  UNL     1       2.470   2.999 -14.337  0.00  0.00    -0.119 Cl
ATOM      2  C1  UNL     1       1.270   4.272 -14.011  0.00  0.00    +0.058 C 
ATOM      3  C2  UNL     1       1.076   5.141 -15.219  0.00  0.00    +0.033 C 
ATOM      4 CL2  UNL     1       2.305   6.349 -15.441  0.00  0.00    -0.087 Cl
ATOM      5  C3  UNL     1       0.012   5.031 -16.035  0.00  0.00    -0.042 C 
ATOM      6  C4  UNL     1      -0.278   5.839 -17.206  0.00  0.00    -0.003 C 
ATOM      7  C5  UNL     1      -1.357   5.693 -17.994  0.00  0.00    +0.189 C 
ATOM      8  N1  UNL     1      -1.605   6.475 -19.084  0.00  0.00    -0.296 N 
ATOM      9  C6  UNL     1      -2.501   6.038 -20.113  0.00  0.00    +0.108 C 
ATOM     10  N2  UNL     1      -3.552   5.141 -19.681  0.00  0.00    -0.238 NA
ATOM     11  C7  UNL     1      -3.356   4.575 -18.547  0.00  0.00    +0.181 C 
ATOM     12  O1  UNL     1      -2.309   4.706 -17.690  0.00  0.00    -0.431 OA
ATOM     13  H   UNL     1      -1.163   7.350 -19.164  0.00  0.00    +0.000 HD
ENDROOT
TORSDOF 0
ENDMDL
MODEL 6
REMARK VINA RESULT:    -3.221      9.841     11.324
REMARK INTER + INTRA:          -3.221
REMARK INTER:                  -3.221
REMARK INTRA:                   0.000
REMARK UNBOUND:                 0.000
REMARK  Name = /home/vital/Documents/PhD_2021/Malaria_codes/scripts/../data/pdbqt_ligands/ligand_411_temp.pdb
REMARK                            x       y       z     vdW  Elec       q    Type
REMARK                         _______ _______ _______ _____ _____    ______ ____
ROOT
ATOM      1 CL1  UNL     1       3.131   9.301 -20.530  0.00  0.00    -0.119 Cl
ATOM      2  C1  UNL     1       3.254   7.847 -19.511  0.00  0.00    +0.058 C 
ATOM      3  C2  UNL     1       2.041   7.706 -18.638  0.00  0.00    +0.033 C 
ATOM      4 CL2  UNL     1       2.054   8.708 -17.219  0.00  0.00    -0.087 Cl
ATOM      5  C3  UNL     1       1.048   6.837 -18.903  0.00  0.00    -0.042 C 
ATOM      6  C4  UNL     1      -0.147   6.608 -18.111  0.00  0.00    -0.003 C 
ATOM      7  C5  UNL     1      -1.115   5.727 -18.415  0.00  0.00    +0.189 C 
ATOM      8  N1  UNL     1      -2.223   5.529 -17.643  0.00  0.00    -0.296 N 
ATOM      9  C6  UNL     1      -3.399   4.920 -18.190  0.00  0.00    +0.108 C 
ATOM     10  N2  UNL     1      -3.171   3.996 -19.280  0.00  0.00    -0.238 NA
ATOM     11  C7  UNL     1      -2.027   4.096 -19.850  0.00  0.00    +0.181 C 
ATOM     12  O1  UNL     1      -0.996   4.937 -19.570  0.00  0.00    -0.431 OA
ATOM     13  H   UNL     1      -2.213   5.808 -16.699  0.00  0.00    +0.000 HD
ENDROOT
TORSDOF 0
ENDMDL
MODEL 7
REMARK VINA RESULT:    -3.184     11.561     12.973
REMARK INTER + INTRA:          -3.184
REMARK INTER:                  -3.184
REMARK INTRA:                   0.000
REMARK UNBOUND:                 0.000
REMARK  Name = /home/vital/Documents/PhD_2021/Malaria_codes/scripts/../data/pdbqt_ligands/ligand_411_temp.pdb
REMARK                            x       y       z     vdW  Elec       q    Type
REMARK                         _______ _______ _______ _____ _____    ______ ____
ROOT
ATOM      1 CL1  UNL     1       3.811  10.465 -21.658  0.00  0.00    -0.119 Cl
ATOM      2  C1  UNL     1       4.501   9.521 -20.317  0.00  0.00    +0.058 C 
ATOM      3  C2  UNL     1       3.504   9.372 -19.204  0.00  0.00    +0.033 C 
ATOM      4 CL2  UNL     1       3.371  10.758 -18.166  0.00  0.00    -0.087 Cl
ATOM      5  C3  UNL     1       2.807   8.240 -18.995  0.00  0.00    -0.042 C 
ATOM      6  C4  UNL     1       1.846   7.989 -17.936  0.00  0.00    -0.003 C 
ATOM      7  C5  UNL     1       1.171   6.838 -17.765  0.00  0.00    +0.189 C 
ATOM      8  N1  UNL     1       0.280   6.632 -16.754  0.00  0.00    -0.296 N 
ATOM      9  C6  UNL     1      -0.704   5.593 -16.843  0.00  0.00    +0.108 C 
ATOM     10  N2  UNL     1      -0.329   4.450 -17.647  0.00  0.00    -0.238 NA
ATOM     11  C7  UNL     1       0.652   4.645 -18.450  0.00  0.00    +0.181 C 
ATOM     12  O1  UNL     1       1.395   5.767 -18.645  0.00  0.00    -0.431 OA
ATOM     13  H   UNL     1       0.313   7.202 -15.953  0.00  0.00    +0.000 HD
ENDROOT
TORSDOF 0
ENDMDL
MODEL 8
REMARK VINA RESULT:    -3.031     10.224     11.204
REMARK INTER + INTRA:          -3.031
REMARK INTER:                  -3.031
REMARK INTRA:                   0.000
REMARK UNBOUND:                 0.000
REMARK  Name = /home/vital/Documents/PhD_2021/Malaria_codes/scripts/../data/pdbqt_ligands/ligand_411_temp.pdb
REMARK                            x       y       z     vdW  Elec       q    Type
REMARK                         _______ _______ _______ _____ _____    ______ ____
ROOT
ATOM      1 CL1  UNL     1      -1.731   4.607 -20.874  0.00  0.00    -0.119 Cl
ATOM      2  C1  UNL     1      -1.673   6.072 -19.868  0.00  0.00    +0.058 C 
ATOM      3  C2  UNL     1      -1.610   5.714 -18.411  0.00  0.00    +0.033 C 
ATOM      4 CL2  UNL     1      -3.140   5.287 -17.709  0.00  0.00    -0.087 Cl
ATOM      5  C3  UNL     1      -0.473   5.770 -17.693  0.00  0.00    -0.042 C 
ATOM      6  C4  UNL     1      -0.316   5.472 -16.282  0.00  0.00    -0.003 C 
ATOM      7  C5  UNL     1       0.843   5.541 -15.604  0.00  0.00    +0.189 C 
ATOM      8  N1  UNL     1       0.956   5.262 -14.273  0.00  0.00    -0.296 N 
ATOM      9  C6  UNL     1       2.227   4.939 -13.695  0.00  0.00    +0.108 C 
ATOM     10  N2  UNL     1       3.375   5.524 -14.355  0.00  0.00    -0.238 NA
ATOM     11  C7  UNL     1       3.163   5.951 -15.545  0.00  0.00    +0.181 C 
ATOM     12  O1  UNL     1       2.013   5.943 -16.270  0.00  0.00    -0.431 OA
ATOM     13  H   UNL     1       0.154   5.283 -13.703  0.00  0.00    +0.000 HD
ENDROOT
TORSDOF 0
ENDMDL
MODEL 9
REMARK VINA RESULT:    -3.030     11.674     13.084
REMARK INTER + INTRA:          -3.030
REMARK INTER:                  -3.030
REMARK INTRA:                   0.000
REMARK UNBOUND:                 0.000
REMARK  Name = /home/vital/Documents/PhD_2021/Malaria_codes/scripts/../data/pdbqt_ligands/ligand_411_temp.pdb
REMARK                            x       y       z     vdW  Elec       q    Type
REMARK                         _______ _______ _______ _____ _____    ______ ____
ROOT
ATOM      1 CL1  UNL     1       1.941   2.708 -16.867  0.00  0.00    -0.119 Cl
ATOM      2  C1  UNL     1       0.725   3.891 -17.405  0.00  0.00    +0.058 C 
ATOM      3  C2  UNL     1       0.931   5.212 -16.722  0.00  0.00    +0.033 C 
ATOM      4 CL2  UNL     1       0.301   5.292 -15.105  0.00  0.00    -0.087 Cl
ATOM      5  C3  UNL     1       1.508   6.266 -17.328  0.00  0.00    -0.042 C 
ATOM      6  C4  UNL     1       1.726   7.586 -16.765  0.00  0.00    -0.003 C 
ATOM      7  C5  UNL     1       2.310   8.611 -17.410  0.00  0.00    +0.189 C 
ATOM      8  N1  UNL     1       2.492   9.844 -16.854  0.00  0.00    -0.296 N 
ATOM      9  C6  UNL     1       3.463  10.753 -17.387  0.00  0.00    +0.108 C 
ATOM     10  N2  UNL     1       3.736  10.611 -18.802  0.00  0.00    -0.238 NA
ATOM     11  C7  UNL     1       3.364   9.499 -19.321  0.00  0.00    +0.181 C 
ATOM     12  O1  UNL     1       2.742   8.441 -18.735  0.00  0.00    -0.431 OA
ATOM     13  H   UNL     1       1.950  10.112 -16.078  0.00  0.00    +0.000 HD
ENDROOT
TORSDOF 0
ENDMDL
