MODEL 1
REMARK VINA RESULT:    -4.941      0.000      0.000
REMARK INTER + INTRA:          -4.941
REMARK INTER:                  -4.941
REMARK INTRA:                   0.000
REMARK UNBOUND:                 0.000
REMARK  Name = /home/vital/Documents/PhD_2021/Malaria_codes/scripts/../data/pdbqt_ligands/ligand_354_temp.pdb
REMARK                            x       y       z     vdW  Elec       q    Type
REMARK                         _______ _______ _______ _____ _____    ______ ____
ROOT
ATOM      1  C1  UNL     1       8.432  -3.113 -25.760  0.00  0.00    +0.037 C 
ATOM      2  O1  UNL     1       7.185  -3.151 -26.440  0.00  0.00    -0.380 OA
ATOM      3  C2  UNL     1       6.896  -4.421 -27.035  0.00  0.00    +0.057 C 
ATOM      4  C3  UNL     1       6.410  -5.408 -25.976  0.00  0.00    -0.039 C 
ATOM      5  C4  UNL     1       5.806  -4.210 -28.093  0.00  0.00    -0.011 C 
ATOM      6  C5  UNL     1       6.267  -3.260 -29.197  0.00  0.00    +0.014 C 
ATOM      7  N1  UNL     1       5.274  -3.140 -30.244  0.00  0.00    -0.311 N 
ATOM      8  C6  UNL     1       5.153  -4.054 -31.259  0.00  0.00    +0.249 C 
ATOM      9  O2  UNL     1       5.903  -5.018 -31.384  0.00  0.00    -0.270 OA
ATOM     10  C7  UNL     1       4.033  -3.803 -32.212  0.00  0.00    +0.100 A 
ATOM     11  C8  UNL     1       3.877  -4.646 -33.248  0.00  0.00    +0.018 A 
ATOM     12  N2  UNL     1       2.898  -4.554 -34.203  0.00  0.00    -0.360 N 
ATOM     13  C9  UNL     1       1.992  -3.489 -34.202  0.00  0.00    +0.050 A 
ATOM     14  C10 UNL     1       1.012  -3.373 -35.189  0.00  0.00    -0.037 A 
ATOM     15  C11 UNL     1       0.094  -2.319 -35.155  0.00  0.00    -0.057 A 
ATOM     16  C12 UNL     1       0.127  -1.374 -34.119  0.00  0.00    -0.050 A 
ATOM     17  C13 UNL     1      -0.840  -0.228 -34.104  0.00  0.00    -0.040 C 
ATOM     18  C14 UNL     1       1.108  -1.486 -33.127  0.00  0.00    -0.046 A 
ATOM     19  C15 UNL     1       2.027  -2.543 -33.166  0.00  0.00    +0.046 A 
ATOM     20  C16 UNL     1       3.064  -2.673 -32.108  0.00  0.00    +0.201 A 
ATOM     21  O3  UNL     1       3.113  -1.866 -31.182  0.00  0.00    -0.286 OA
ATOM     22  H   UNL     1       4.660  -2.369 -30.227  0.00  0.00    +0.000 HD
ATOM     23  H   UNL     1       2.832  -5.248 -34.900  0.00  0.00    +0.000 HD
ENDROOT
TORSDOF 0
ENDMDL
MODEL 2
REMARK VINA RESULT:    -4.775      2.608      8.532
REMARK INTER + INTRA:          -4.775
REMARK INTER:                  -4.775
REMARK INTRA:                   0.000
REMARK UNBOUND:                 0.000
REMARK  Name = /home/vital/Documents/PhD_2021/Malaria_codes/scripts/../data/pdbqt_ligands/ligand_354_temp.pdb
REMARK                            x       y       z     vdW  Elec       q    Type
REMARK                         _______ _______ _______ _____ _____    ______ ____
ROOT
ATOM      1  C1  UNL     1       1.156  -4.272 -35.213  0.00  0.00    +0.037 C 
ATOM      2  O1  UNL     1       2.161  -4.536 -34.245  0.00  0.00    -0.380 OA
ATOM      3  C2  UNL     1       1.885  -5.680 -33.430  0.00  0.00    +0.057 C 
ATOM      4  C3  UNL     1       2.203  -6.966 -34.191  0.00  0.00    -0.039 C 
ATOM      5  C4  UNL     1       2.757  -5.586 -32.173  0.00  0.00    -0.011 C 
ATOM      6  C5  UNL     1       2.440  -4.333 -31.358  0.00  0.00    +0.014 C 
ATOM      7  N1  UNL     1       3.195  -4.298 -30.122  0.00  0.00    -0.311 N 
ATOM      8  C6  UNL     1       2.803  -4.973 -28.995  0.00  0.00    +0.249 C 
ATOM      9  O2  UNL     1       1.763  -5.622 -28.932  0.00  0.00    -0.270 OA
ATOM     10  C7  UNL     1       3.736  -4.873 -27.835  0.00  0.00    +0.100 A 
ATOM     11  C8  UNL     1       3.397  -5.488 -26.689  0.00  0.00    +0.018 A 
ATOM     12  N2  UNL     1       4.146  -5.494 -25.541  0.00  0.00    -0.360 N 
ATOM     13  C9  UNL     1       5.341  -4.772 -25.461  0.00  0.00    +0.050 A 
ATOM     14  C10 UNL     1       6.093  -4.749 -24.285  0.00  0.00    -0.037 A 
ATOM     15  C11 UNL     1       7.301  -4.047 -24.232  0.00  0.00    -0.057 A 
ATOM     16  C12 UNL     1       7.789  -3.374 -25.361  0.00  0.00    -0.050 A 
ATOM     17  C13 UNL     1       9.069  -2.597 -25.289  0.00  0.00    -0.040 C 
ATOM     18  C14 UNL     1       7.038  -3.394 -26.541  0.00  0.00    -0.046 A 
ATOM     19  C15 UNL     1       5.827  -4.096 -26.590  0.00  0.00    +0.046 A 
ATOM     20  C16 UNL     1       5.030  -4.130 -27.847  0.00  0.00    +0.201 A 
ATOM     21  O3  UNL     1       5.436  -3.558 -28.856  0.00  0.00    -0.286 OA
ATOM     22  H   UNL     1       4.024  -3.766 -30.090  0.00  0.00    +0.000 HD
ATOM     23  H   UNL     1       3.838  -6.014 -24.763  0.00  0.00    +0.000 HD
ENDROOT
TORSDOF 0
ENDMDL
MODEL 3
REMARK VINA RESULT:    -4.737     14.283     16.967
REMARK INTER + INTRA:          -4.737
REMARK INTER:                  -4.737
REMARK INTRA:                   0.000
REMARK UNBOUND:                 0.000
REMARK  Name = /home/vital/Documents/PhD_2021/Malaria_codes/scripts/../data/pdbqt_ligands/ligand_354_temp.pdb
REMARK                            x       y       z     vdW  Elec       q    Type
REMARK                         _______ _______ _______ _____ _____    ______ ____
ROOT
ATOM      1  C1  UNL     1      -4.180   0.759 -22.311  0.00  0.00    +0.037 C 
ATOM      2  O1  UNL     1      -2.974   1.422 -21.960  0.00  0.00    -0.380 OA
ATOM      3  C2  UNL     1      -2.566   1.192 -20.607  0.00  0.00    +0.057 C 
ATOM      4  C3  UNL     1      -1.913  -0.183 -20.473  0.00  0.00    -0.039 C 
ATOM      5  C4  UNL     1      -1.564   2.287 -20.222  0.00  0.00    -0.011 C 
ATOM      6  C5  UNL     1      -2.191   3.678 -20.300  0.00  0.00    +0.014 C 
ATOM      7  N1  UNL     1      -1.274   4.701 -19.842  0.00  0.00    -0.311 N 
ATOM      8  C6  UNL     1      -1.096   4.997 -18.514  0.00  0.00    +0.249 C 
ATOM      9  O2  UNL     1      -1.732   4.450 -17.617  0.00  0.00    -0.270 OA
ATOM     10  C7  UNL     1      -0.065   6.034 -18.225  0.00  0.00    +0.100 A 
ATOM     11  C8  UNL     1       0.138   6.392 -16.945  0.00  0.00    +0.018 A 
ATOM     12  N2  UNL     1       1.049   7.323 -16.517  0.00  0.00    -0.360 N 
ATOM     13  C9  UNL     1       1.821   8.045 -17.433  0.00  0.00    +0.050 A 
ATOM     14  C10 UNL     1       2.728   9.016 -17.006  0.00  0.00    -0.037 A 
ATOM     15  C11 UNL     1       3.515   9.706 -17.934  0.00  0.00    -0.057 A 
ATOM     16  C12 UNL     1       3.422   9.422 -19.303  0.00  0.00    -0.050 A 
ATOM     17  C13 UNL     1       4.245  10.187 -20.296  0.00  0.00    -0.040 C 
ATOM     18  C14 UNL     1       2.514   8.449 -19.736  0.00  0.00    -0.046 A 
ATOM     19  C15 UNL     1       1.726   7.761 -18.804  0.00  0.00    +0.046 A 
ATOM     20  C16 UNL     1       0.767   6.718 -19.258  0.00  0.00    +0.201 A 
ATOM     21  O3  UNL     1       0.669   6.440 -20.451  0.00  0.00    -0.286 OA
ATOM     22  H   UNL     1      -0.756   5.205 -20.511  0.00  0.00    +0.000 HD
ATOM     23  H   UNL     1       1.161   7.486 -15.552  0.00  0.00    +0.000 HD
ENDROOT
TORSDOF 0
ENDMDL
MODEL 4
REMARK VINA RESULT:    -4.661     13.161     14.471
REMARK INTER + INTRA:          -4.661
REMARK INTER:                  -4.661
REMARK INTRA:                   0.000
REMARK UNBOUND:                 0.000
REMARK  Name = /home/vital/Documents/PhD_2021/Malaria_codes/scripts/../data/pdbqt_ligands/ligand_354_temp.pdb
REMARK                            x       y       z     vdW  Elec       q    Type
REMARK                         _______ _______ _______ _____ _____    ______ ____
ROOT
ATOM      1  C1  UNL     1       1.648   7.808 -17.632  0.00  0.00    +0.037 C 
ATOM      2  O1  UNL     1       0.674   6.774 -17.669  0.00  0.00    -0.380 OA
ATOM      3  C2  UNL     1       1.020   5.634 -16.875  0.00  0.00    +0.057 C 
ATOM      4  C3  UNL     1       0.749   5.911 -15.397  0.00  0.00    -0.039 C 
ATOM      5  C4  UNL     1       0.168   4.450 -17.350  0.00  0.00    -0.011 C 
ATOM      6  C5  UNL     1       0.440   4.112 -18.814  0.00  0.00    +0.014 C 
ATOM      7  N1  UNL     1      -0.291   2.934 -19.233  0.00  0.00    -0.311 N 
ATOM      8  C6  UNL     1       0.153   1.659 -18.989  0.00  0.00    +0.249 C 
ATOM      9  O2  UNL     1       1.224   1.419 -18.438  0.00  0.00    -0.270 OA
ATOM     10  C7  UNL     1      -0.761   0.569 -19.435  0.00  0.00    +0.100 A 
ATOM     11  C8  UNL     1      -0.372  -0.704 -19.252  0.00  0.00    +0.018 A 
ATOM     12  N2  UNL     1      -1.098  -1.814 -19.602  0.00  0.00    -0.360 N 
ATOM     13  C9  UNL     1      -2.324  -1.689 -20.264  0.00  0.00    +0.050 A 
ATOM     14  C10 UNL     1      -3.054  -2.814 -20.650  0.00  0.00    -0.037 A 
ATOM     15  C11 UNL     1      -4.294  -2.670 -21.283  0.00  0.00    -0.057 A 
ATOM     16  C12 UNL     1      -4.833  -1.399 -21.520  0.00  0.00    -0.050 A 
ATOM     17  C13 UNL     1      -6.148  -1.250 -22.227  0.00  0.00    -0.040 C 
ATOM     18  C14 UNL     1      -4.105  -0.268 -21.135  0.00  0.00    -0.046 A 
ATOM     19  C15 UNL     1      -2.863  -0.415 -20.503  0.00  0.00    +0.046 A 
ATOM     20  C16 UNL     1      -2.089   0.784 -20.081  0.00  0.00    +0.201 A 
ATOM     21  O3  UNL     1      -2.540   1.912 -20.267  0.00  0.00    -0.286 OA
ATOM     22  H   UNL     1      -1.144   3.053 -19.712  0.00  0.00    +0.000 HD
ATOM     23  H   UNL     1      -0.752  -2.710 -19.385  0.00  0.00    +0.000 HD
ENDROOT
TORSDOF 0
ENDMDL
MODEL 5
REMARK VINA RESULT:    -4.584     13.845     16.715
REMARK INTER + INTRA:          -4.584
REMARK INTER:                  -4.584
REMARK INTRA:                   0.000
REMARK UNBOUND:                 0.000
REMARK  Name = /home/vital/Documents/PhD_2021/Malaria_codes/scripts/../data/pdbqt_ligands/ligand_354_temp.pdb
REMARK                            x       y       z     vdW  Elec       q    Type
REMARK                         _______ _______ _______ _____ _____    ______ ____
ROOT
ATOM      1  C1  UNL     1      -1.335  -0.896 -20.870  0.00  0.00    +0.037 C 
ATOM      2  O1  UNL     1      -0.364   0.118 -20.655  0.00  0.00    -0.380 OA
ATOM      3  C2  UNL     1       0.033   0.249 -19.285  0.00  0.00    +0.057 C 
ATOM      4  C3  UNL     1       1.021  -0.854 -18.909  0.00  0.00    -0.039 C 
ATOM      5  C4  UNL     1       0.692   1.623 -19.113  0.00  0.00    -0.011 C 
ATOM      6  C5  UNL     1      -0.278   2.757 -19.439  0.00  0.00    +0.014 C 
ATOM      7  N1  UNL     1       0.315   4.054 -19.181  0.00  0.00    -0.311 N 
ATOM      8  C6  UNL     1       0.351   4.617 -17.931  0.00  0.00    +0.249 C 
ATOM      9  O2  UNL     1      -0.153   4.087 -16.944  0.00  0.00    -0.270 OA
ATOM     10  C7  UNL     1       1.058   5.927 -17.842  0.00  0.00    +0.100 A 
ATOM     11  C8  UNL     1       1.104   6.547 -16.650  0.00  0.00    +0.018 A 
ATOM     12  N2  UNL     1       1.716   7.749 -16.405  0.00  0.00    -0.360 N 
ATOM     13  C9  UNL     1       2.307   8.478 -17.443  0.00  0.00    +0.050 A 
ATOM     14  C10 UNL     1       2.905   9.716 -17.206  0.00  0.00    -0.037 A 
ATOM     15  C11 UNL     1       3.519  10.417 -18.250  0.00  0.00    -0.057 A 
ATOM     16  C12 UNL     1       3.563   9.880 -19.544  0.00  0.00    -0.050 A 
ATOM     17  C13 UNL     1       4.195  10.649 -20.666  0.00  0.00    -0.040 C 
ATOM     18  C14 UNL     1       2.964   8.639 -19.786  0.00  0.00    -0.046 A 
ATOM     19  C15 UNL     1       2.349   7.941 -18.739  0.00  0.00    +0.046 A 
ATOM     20  C16 UNL     1       1.720   6.615 -18.989  0.00  0.00    +0.201 A 
ATOM     21  O3  UNL     1       1.751   6.114 -20.111  0.00  0.00    -0.286 OA
ATOM     22  H   UNL     1       0.708   4.552 -19.934  0.00  0.00    +0.000 HD
ATOM     23  H   UNL     1       1.741   8.104 -15.487  0.00  0.00    +0.000 HD
ENDROOT
TORSDOF 0
ENDMDL
MODEL 6
REMARK VINA RESULT:    -4.505     13.807     16.891
REMARK INTER + INTRA:          -4.505
REMARK INTER:                  -4.505
REMARK INTRA:                   0.000
REMARK UNBOUND:                 0.000
REMARK  Name = /home/vital/Documents/PhD_2021/Malaria_codes/scripts/../data/pdbqt_ligands/ligand_354_temp.pdb
REMARK                            x       y       z     vdW  Elec       q    Type
REMARK                         _______ _______ _______ _____ _____    ______ ____
ROOT
ATOM      1  C1  UNL     1       2.358   7.952 -29.907  0.00  0.00    +0.037 C 
ATOM      2  O1  UNL     1       1.983   8.290 -28.579  0.00  0.00    -0.380 OA
ATOM      3  C2  UNL     1       2.453   9.576 -28.160  0.00  0.00    +0.057 C 
ATOM      4  C3  UNL     1       1.577  10.681 -28.747  0.00  0.00    -0.039 C 
ATOM      5  C4  UNL     1       2.400   9.623 -26.629  0.00  0.00    -0.011 C 
ATOM      6  C5  UNL     1       3.298   8.560 -26.000  0.00  0.00    +0.014 C 
ATOM      7  N1  UNL     1       3.322   8.670 -24.556  0.00  0.00    -0.311 N 
ATOM      8  C6  UNL     1       4.130   9.559 -23.894  0.00  0.00    +0.249 C 
ATOM      9  O2  UNL     1       4.925  10.297 -24.470  0.00  0.00    -0.270 OA
ATOM     10  C7  UNL     1       3.976   9.579 -22.411  0.00  0.00    +0.100 A 
ATOM     11  C8  UNL     1       4.759  10.407 -21.699  0.00  0.00    +0.018 A 
ATOM     12  N2  UNL     1       4.735  10.544 -20.335  0.00  0.00    -0.360 N 
ATOM     13  C9  UNL     1       3.898   9.746 -19.548  0.00  0.00    +0.050 A 
ATOM     14  C10 UNL     1       3.890   9.859 -18.158  0.00  0.00    -0.037 A 
ATOM     15  C11 UNL     1       3.024   9.075 -17.388  0.00  0.00    -0.057 A 
ATOM     16  C12 UNL     1       2.136   8.180 -18.000  0.00  0.00    -0.050 A 
ATOM     17  C13 UNL     1       1.231   7.319 -17.169  0.00  0.00    -0.040 C 
ATOM     18  C14 UNL     1       2.140   8.063 -19.394  0.00  0.00    -0.046 A 
ATOM     19  C15 UNL     1       3.010   8.848 -20.161  0.00  0.00    +0.046 A 
ATOM     20  C16 UNL     1       3.010   8.736 -21.645  0.00  0.00    +0.201 A 
ATOM     21  O3  UNL     1       2.237   7.967 -22.211  0.00  0.00    -0.286 OA
ATOM     22  H   UNL     1       2.734   8.083 -24.027  0.00  0.00    +0.000 HD
ATOM     23  H   UNL     1       5.315  11.213 -19.903  0.00  0.00    +0.000 HD
ENDROOT
TORSDOF 0
ENDMDL
MODEL 7
REMARK VINA RESULT:    -4.464     13.972     16.722
REMARK INTER + INTRA:          -4.464
REMARK INTER:                  -4.464
REMARK INTRA:                   0.000
REMARK UNBOUND:                 0.000
REMARK  Name = /home/vital/Documents/PhD_2021/Malaria_codes/scripts/../data/pdbqt_ligands/ligand_354_temp.pdb
REMARK                            x       y       z     vdW  Elec       q    Type
REMARK                         _______ _______ _______ _____ _____    ______ ____
ROOT
ATOM      1  C1  UNL     1      -5.148   2.377 -25.172  0.00  0.00    +0.037 C 
ATOM      2  O1  UNL     1      -3.966   2.677 -24.443  0.00  0.00    -0.380 OA
ATOM      3  C2  UNL     1      -3.937   2.093 -23.136  0.00  0.00    +0.057 C 
ATOM      4  C3  UNL     1      -3.573   0.612 -23.221  0.00  0.00    -0.039 C 
ATOM      5  C4  UNL     1      -2.886   2.843 -22.307  0.00  0.00    -0.011 C 
ATOM      6  C5  UNL     1      -3.236   4.323 -22.160  0.00  0.00    +0.014 C 
ATOM      7  N1  UNL     1      -2.296   5.008 -21.296  0.00  0.00    -0.311 N 
ATOM      8  C6  UNL     1      -2.393   4.982 -19.928  0.00  0.00    +0.249 C 
ATOM      9  O2  UNL     1      -3.305   4.415 -19.333  0.00  0.00    -0.270 OA
ATOM     10  C7  UNL     1      -1.302   5.690 -19.198  0.00  0.00    +0.100 A 
ATOM     11  C8  UNL     1      -1.352   5.727 -17.856  0.00  0.00    +0.018 A 
ATOM     12  N2  UNL     1      -0.427   6.331 -17.044  0.00  0.00    -0.360 N 
ATOM     13  C9  UNL     1       0.650   7.039 -17.587  0.00  0.00    +0.050 A 
ATOM     14  C10 UNL     1       1.578   7.682 -16.767  0.00  0.00    -0.037 A 
ATOM     15  C11 UNL     1       2.667   8.359 -17.327  0.00  0.00    -0.057 A 
ATOM     16  C12 UNL     1       2.857   8.386 -18.715  0.00  0.00    -0.050 A 
ATOM     17  C13 UNL     1       4.008   9.140 -19.311  0.00  0.00    -0.040 C 
ATOM     18  C14 UNL     1       1.928   7.743 -19.541  0.00  0.00    -0.046 A 
ATOM     19  C15 UNL     1       0.838   7.067 -18.978  0.00  0.00    +0.046 A 
ATOM     20  C16 UNL     1      -0.146   6.372 -19.851  0.00  0.00    +0.201 A 
ATOM     21  O3  UNL     1      -0.002   6.370 -21.071  0.00  0.00    -0.286 OA
ATOM     22  H   UNL     1      -1.558   5.513 -21.707  0.00  0.00    +0.000 HD
ATOM     23  H   UNL     1      -0.522   6.266 -16.066  0.00  0.00    +0.000 HD
ENDROOT
TORSDOF 0
ENDMDL
MODEL 8
REMARK VINA RESULT:    -4.323      1.385      1.713
REMARK INTER + INTRA:          -4.323
REMARK INTER:                  -4.323
REMARK INTRA:                   0.000
REMARK UNBOUND:                 0.000
REMARK  Name = /home/vital/Documents/PhD_2021/Malaria_codes/scripts/../data/pdbqt_ligands/ligand_354_temp.pdb
REMARK                            x       y       z     vdW  Elec       q    Type
REMARK                         _______ _______ _______ _____ _____    ______ ____
ROOT
ATOM      1  C1  UNL     1       6.865  -2.969 -26.598  0.00  0.00    +0.037 C 
ATOM      2  O1  UNL     1       5.647  -2.973 -27.328  0.00  0.00    -0.380 OA
ATOM      3  C2  UNL     1       5.340  -4.238 -27.923  0.00  0.00    +0.057 C 
ATOM      4  C3  UNL     1       4.779  -5.198 -26.876  0.00  0.00    -0.039 C 
ATOM      5  C4  UNL     1       4.301  -4.003 -29.026  0.00  0.00    -0.011 C 
ATOM      6  C5  UNL     1       4.838  -3.080 -30.119  0.00  0.00    +0.014 C 
ATOM      7  N1  UNL     1       3.893  -2.938 -31.207  0.00  0.00    -0.311 N 
ATOM      8  C6  UNL     1       3.782  -3.858 -32.218  0.00  0.00    +0.249 C 
ATOM      9  O2  UNL     1       4.504  -4.848 -32.303  0.00  0.00    -0.270 OA
ATOM     10  C7  UNL     1       2.712  -3.581 -33.218  0.00  0.00    +0.100 A 
ATOM     11  C8  UNL     1       2.570  -4.429 -34.251  0.00  0.00    +0.018 A 
ATOM     12  N2  UNL     1       1.634  -4.316 -35.247  0.00  0.00    -0.360 N 
ATOM     13  C9  UNL     1       0.764  -3.221 -35.293  0.00  0.00    +0.050 A 
ATOM     14  C10 UNL     1      -0.170  -3.083 -36.320  0.00  0.00    -0.037 A 
ATOM     15  C11 UNL     1      -1.053  -1.998 -36.333  0.00  0.00    -0.057 A 
ATOM     16  C12 UNL     1      -1.031  -1.045 -35.306  0.00  0.00    -0.050 A 
ATOM     17  C13 UNL     1      -1.959   0.133 -35.341  0.00  0.00    -0.040 C 
ATOM     18  C14 UNL     1      -0.096  -1.179 -34.274  0.00  0.00    -0.046 A 
ATOM     19  C15 UNL     1       0.789  -2.265 -34.265  0.00  0.00    +0.046 A 
ATOM     20  C16 UNL     1       1.778  -2.418 -33.164  0.00  0.00    +0.201 A 
ATOM     21  O3  UNL     1       1.816  -1.604 -32.245  0.00  0.00    -0.286 OA
ATOM     22  H   UNL     1       3.305  -2.148 -31.222  0.00  0.00    +0.000 HD
ATOM     23  H   UNL     1       1.574  -5.013 -35.940  0.00  0.00    +0.000 HD
ENDROOT
TORSDOF 0
ENDMDL
MODEL 9
REMARK VINA RESULT:    -3.660      8.290     10.065
REMARK INTER + INTRA:          -3.660
REMARK INTER:                  -3.660
REMARK INTRA:                   0.000
REMARK UNBOUND:                 0.000
REMARK  Name = /home/vital/Documents/PhD_2021/Malaria_codes/scripts/../data/pdbqt_ligands/ligand_354_temp.pdb
REMARK                            x       y       z     vdW  Elec       q    Type
REMARK                         _______ _______ _______ _____ _____    ______ ____
ROOT
ATOM      1  C1  UNL     1       7.097   1.028 -30.301  0.00  0.00    +0.037 C 
ATOM      2  O1  UNL     1       6.096   1.546 -31.165  0.00  0.00    -0.380 OA
ATOM      3  C2  UNL     1       6.597   1.955 -32.442  0.00  0.00    +0.057 C 
ATOM      4  C3  UNL     1       6.822   0.741 -33.341  0.00  0.00    -0.039 C 
ATOM      5  C4  UNL     1       5.563   2.893 -33.078  0.00  0.00    -0.011 C 
ATOM      6  C5  UNL     1       5.340   4.144 -32.230  0.00  0.00    +0.014 C 
ATOM      7  N1  UNL     1       4.438   5.072 -32.880  0.00  0.00    -0.311 N 
ATOM      8  C6  UNL     1       4.852   5.956 -33.844  0.00  0.00    +0.249 C 
ATOM      9  O2  UNL     1       6.024   6.059 -34.198  0.00  0.00    -0.270 OA
ATOM     10  C7  UNL     1       3.774   6.791 -34.448  0.00  0.00    +0.100 A 
ATOM     11  C8  UNL     1       4.117   7.699 -35.378  0.00  0.00    +0.018 A 
ATOM     12  N2  UNL     1       3.247   8.536 -36.028  0.00  0.00    -0.360 N 
ATOM     13  C9  UNL     1       1.886   8.546 -35.704  0.00  0.00    +0.050 A 
ATOM     14  C10 UNL     1       0.999   9.417 -36.340  0.00  0.00    -0.037 A 
ATOM     15  C11 UNL     1      -0.364   9.393 -36.026  0.00  0.00    -0.057 A 
ATOM     16  C12 UNL     1      -0.866   8.482 -35.087  0.00  0.00    -0.050 A 
ATOM     17  C13 UNL     1      -2.323   8.482 -34.731  0.00  0.00    -0.040 C 
ATOM     18  C14 UNL     1       0.019   7.608 -34.446  0.00  0.00    -0.046 A 
ATOM     19  C15 UNL     1       1.384   7.636 -34.761  0.00  0.00    +0.046 A 
ATOM     20  C16 UNL     1       2.328   6.700 -34.092  0.00  0.00    +0.201 A 
ATOM     21  O3  UNL     1       1.916   5.884 -33.270  0.00  0.00    -0.286 OA
ATOM     22  H   UNL     1       3.488   5.069 -32.619  0.00  0.00    +0.000 HD
ATOM     23  H   UNL     1       3.584   9.137 -36.732  0.00  0.00    +0.000 HD
ENDROOT
TORSDOF 0
ENDMDL
