MODEL 1
REMARK VINA RESULT:    -5.658      0.000      0.000
REMARK INTER + INTRA:          -5.658
REMARK INTER:                  -5.658
REMARK INTRA:                   0.000
REMARK UNBOUND:                 0.000
REMARK  Name = /home/vital/Documents/PhD_2021/Malaria_codes/scripts/../data/pdbqt_ligands/ligand_84_temp.pdb
REMARK                            x       y       z     vdW  Elec       q    Type
REMARK                         _______ _______ _______ _____ _____    ______ ____
ROOT
ATOM      1  C1  UNL     1      -4.490   7.952 -22.385  0.00  0.00    -0.061 C 
ATOM      2  C2  UNL     1      -3.845   6.658 -21.911  0.00  0.00    -0.008 C 
ATOM      3  C3  UNL     1      -2.321   6.762 -21.741  0.00  0.00    +0.196 C 
ATOM      4  O1  UNL     1      -1.845   5.556 -21.112  0.00  0.00    -0.477 OA
ATOM      5  C4  UNL     1      -1.619   5.710 -19.770  0.00  0.00    +0.140 A 
ATOM      6  C5  UNL     1      -2.589   5.172 -18.917  0.00  0.00    +0.023 A 
ATOM      7  C6  UNL     1      -2.424   5.251 -17.540  0.00  0.00    +0.124 A 
ATOM      8  O2  UNL     1      -3.407   4.730 -16.754  0.00  0.00    -0.507 OA
ATOM      9  C7  UNL     1      -1.290   5.840 -16.994  0.00  0.00    +0.023 A 
ATOM     10  C8  UNL     1      -0.301   6.346 -17.844  0.00  0.00    +0.146 A 
ATOM     11  O3  UNL     1       0.791   6.888 -17.208  0.00  0.00    -0.451 OA
ATOM     12  C9  UNL     1       1.815   7.378 -17.978  0.00  0.00    +0.180 A 
ATOM     13  C10 UNL     1       2.916   7.917 -17.308  0.00  0.00    +0.160 A 
ATOM     14  O4  UNL     1       2.969   7.953 -15.941  0.00  0.00    -0.503 OA
ATOM     15  C11 UNL     1       4.000   8.438 -18.009  0.00  0.00    -0.016 A 
ATOM     16  C12 UNL     1       3.990   8.423 -19.403  0.00  0.00    -0.057 A 
ATOM     17  C13 UNL     1       2.895   7.888 -20.086  0.00  0.00    -0.047 A 
ATOM     18  C14 UNL     1       1.813   7.366 -19.366  0.00  0.00    +0.068 A 
ATOM     19  C15 UNL     1       0.650   6.800 -20.067  0.00  0.00    +0.204 A 
ATOM     20  O5  UNL     1       0.624   6.785 -21.289  0.00  0.00    -0.286 OA
ATOM     21  C16 UNL     1      -0.453   6.277 -19.234  0.00  0.00    +0.106 A 
ATOM     22  C17 UNL     1      -1.668   6.942 -23.116  0.00  0.00    +0.348 C 
ATOM     23  O6  UNL     1      -1.471   8.037 -23.635  0.00  0.00    -0.247 OA
ATOM     24  O7  UNL     1      -1.417   5.745 -23.719  0.00  0.00    -0.465 OA
ATOM     25  C18 UNL     1      -0.775   5.857 -24.987  0.00  0.00    +0.082 C 
ATOM     26  H   UNL     1      -4.162   4.338 -17.146  0.00  0.00    +0.000 HD
ATOM     27  H   UNL     1       2.259   7.612 -15.435  0.00  0.00    +0.000 HD
ENDROOT
TORSDOF 0
ENDMDL
MODEL 2
REMARK VINA RESULT:    -5.348      3.570      7.079
REMARK INTER + INTRA:          -5.348
REMARK INTER:                  -5.348
REMARK INTRA:                   0.000
REMARK UNBOUND:                 0.000
REMARK  Name = /home/vital/Documents/PhD_2021/Malaria_codes/scripts/../data/pdbqt_ligands/ligand_84_temp.pdb
REMARK                            x       y       z     vdW  Elec       q    Type
REMARK                         _______ _______ _______ _____ _____    ______ ____
ROOT
ATOM      1  C1  UNL     1       6.394   2.512 -17.585  0.00  0.00    -0.061 C 
ATOM      2  C2  UNL     1       5.968   3.631 -16.646  0.00  0.00    -0.008 C 
ATOM      3  C3  UNL     1       4.753   4.424 -17.153  0.00  0.00    +0.196 C 
ATOM      4  O1  UNL     1       4.321   5.322 -16.112  0.00  0.00    -0.477 OA
ATOM      5  C4  UNL     1       3.239   4.850 -15.418  0.00  0.00    +0.140 A 
ATOM      6  C5  UNL     1       3.504   4.314 -14.154  0.00  0.00    +0.023 A 
ATOM      7  C6  UNL     1       2.462   3.844 -13.365  0.00  0.00    +0.124 A 
ATOM      8  O2  UNL     1       2.775   3.314 -12.151  0.00  0.00    -0.507 OA
ATOM      9  C7  UNL     1       1.147   3.920 -13.809  0.00  0.00    +0.023 A 
ATOM     10  C8  UNL     1       0.874   4.489 -15.058  0.00  0.00    +0.146 A 
ATOM     11  O3  UNL     1      -0.458   4.538 -15.397  0.00  0.00    -0.451 OA
ATOM     12  C9  UNL     1      -0.803   5.108 -16.595  0.00  0.00    +0.180 A 
ATOM     13  C10 UNL     1      -2.163   5.153 -16.913  0.00  0.00    +0.160 A 
ATOM     14  O4  UNL     1      -3.109   4.648 -16.063  0.00  0.00    -0.503 OA
ATOM     15  C11 UNL     1      -2.603   5.712 -18.109  0.00  0.00    -0.016 A 
ATOM     16  C12 UNL     1      -1.675   6.238 -19.007  0.00  0.00    -0.057 A 
ATOM     17  C13 UNL     1      -0.313   6.201 -18.702  0.00  0.00    -0.047 A 
ATOM     18  C14 UNL     1       0.115   5.635 -17.494  0.00  0.00    +0.068 A 
ATOM     19  C15 UNL     1       1.545   5.583 -17.156  0.00  0.00    +0.204 A 
ATOM     20  O5  UNL     1       2.372   6.036 -17.935  0.00  0.00    -0.286 OA
ATOM     21  C16 UNL     1       1.914   4.964 -15.866  0.00  0.00    +0.106 A 
ATOM     22  C17 UNL     1       5.149   5.212 -18.408  0.00  0.00    +0.348 C 
ATOM     23  O6  UNL     1       5.063   4.761 -19.547  0.00  0.00    -0.247 OA
ATOM     24  O7  UNL     1       5.685   6.427 -18.096  0.00  0.00    -0.465 OA
ATOM     25  C18 UNL     1       6.035   7.215 -19.231  0.00  0.00    +0.082 C 
ATOM     26  H   UNL     1       3.669   3.274 -11.873  0.00  0.00    +0.000 HD
ATOM     27  H   UNL     1      -2.850   4.263 -15.249  0.00  0.00    +0.000 HD
ENDROOT
TORSDOF 0
ENDMDL
MODEL 3
REMARK VINA RESULT:    -5.146     12.221     16.823
REMARK INTER + INTRA:          -5.146
REMARK INTER:                  -5.146
REMARK INTRA:                   0.000
REMARK UNBOUND:                 0.000
REMARK  Name = /home/vital/Documents/PhD_2021/Malaria_codes/scripts/../data/pdbqt_ligands/ligand_84_temp.pdb
REMARK                            x       y       z     vdW  Elec       q    Type
REMARK                         _______ _______ _______ _____ _____    ______ ____
ROOT
ATOM      1  C1  UNL     1       6.642   2.238 -32.029  0.00  0.00    -0.061 C 
ATOM      2  C2  UNL     1       6.031   1.199 -31.100  0.00  0.00    -0.008 C 
ATOM      3  C3  UNL     1       4.669   0.674 -31.582  0.00  0.00    +0.196 C 
ATOM      4  O1  UNL     1       4.277  -0.428 -30.741  0.00  0.00    -0.477 OA
ATOM      5  C4  UNL     1       4.518  -1.647 -31.317  0.00  0.00    +0.140 A 
ATOM      6  C5  UNL     1       5.637  -2.340 -30.845  0.00  0.00    +0.023 A 
ATOM      7  C6  UNL     1       5.938  -3.600 -31.347  0.00  0.00    +0.124 A 
ATOM      8  O2  UNL     1       7.050  -4.224 -30.869  0.00  0.00    -0.507 OA
ATOM      9  C7  UNL     1       5.123  -4.196 -32.302  0.00  0.00    +0.023 A 
ATOM     10  C8  UNL     1       3.981  -3.521 -32.750  0.00  0.00    +0.146 A 
ATOM     11  O3  UNL     1       3.229  -4.202 -33.678  0.00  0.00    -0.451 OA
ATOM     12  C9  UNL     1       2.080  -3.615 -34.142  0.00  0.00    +0.180 A 
ATOM     13  C10 UNL     1       1.330  -4.330 -35.078  0.00  0.00    +0.160 A 
ATOM     14  O4  UNL     1       1.727  -5.565 -35.513  0.00  0.00    -0.503 OA
ATOM     15  C11 UNL     1       0.151  -3.809 -35.603  0.00  0.00    -0.016 A 
ATOM     16  C12 UNL     1      -0.292  -2.553 -35.190  0.00  0.00    -0.057 A 
ATOM     17  C13 UNL     1       0.448  -1.828 -34.254  0.00  0.00    -0.047 A 
ATOM     18  C14 UNL     1       1.632  -2.365 -33.734  0.00  0.00    +0.068 A 
ATOM     19  C15 UNL     1       2.427  -1.615 -32.750  0.00  0.00    +0.204 A 
ATOM     20  O5  UNL     1       2.054  -0.510 -32.381  0.00  0.00    -0.286 OA
ATOM     21  C16 UNL     1       3.667  -2.249 -32.256  0.00  0.00    +0.106 A 
ATOM     22  C17 UNL     1       3.633   1.803 -31.501  0.00  0.00    +0.348 C 
ATOM     23  O6  UNL     1       3.416   2.589 -32.419  0.00  0.00    -0.247 OA
ATOM     24  O7  UNL     1       3.056   1.874 -30.268  0.00  0.00    -0.465 OA
ATOM     25  C18 UNL     1       2.057   2.885 -30.153  0.00  0.00    +0.082 C 
ATOM     26  H   UNL     1       7.584  -3.802 -30.224  0.00  0.00    +0.000 HD
ATOM     27  H   UNL     1       2.515  -5.948 -35.182  0.00  0.00    +0.000 HD
ENDROOT
TORSDOF 0
ENDMDL
MODEL 4
REMARK VINA RESULT:    -5.011      6.049      7.294
REMARK INTER + INTRA:          -5.011
REMARK INTER:                  -5.011
REMARK INTRA:                   0.000
REMARK UNBOUND:                 0.000
REMARK  Name = /home/vital/Documents/PhD_2021/Malaria_codes/scripts/../data/pdbqt_ligands/ligand_84_temp.pdb
REMARK                            x       y       z     vdW  Elec       q    Type
REMARK                         _______ _______ _______ _____ _____    ______ ____
ROOT
ATOM      1  C1  UNL     1       0.698   6.547 -17.750  0.00  0.00    -0.061 C 
ATOM      2  C2  UNL     1       0.466   5.348 -16.842  0.00  0.00    -0.008 C 
ATOM      3  C3  UNL     1       1.271   4.105 -17.254  0.00  0.00    +0.196 C 
ATOM      4  O1  UNL     1       1.126   3.102 -16.230  0.00  0.00    -0.477 OA
ATOM      5  C4  UNL     1       2.203   3.046 -15.385  0.00  0.00    +0.140 A 
ATOM      6  C5  UNL     1       2.030   3.636 -14.128  0.00  0.00    +0.023 A 
ATOM      7  C6  UNL     1       3.058   3.595 -13.195  0.00  0.00    +0.124 A 
ATOM      8  O2  UNL     1       2.847   4.200 -11.993  0.00  0.00    -0.507 OA
ATOM      9  C7  UNL     1       4.256   2.952 -13.486  0.00  0.00    +0.023 A 
ATOM     10  C8  UNL     1       4.418   2.330 -14.728  0.00  0.00    +0.146 A 
ATOM     11  O3  UNL     1       5.628   1.703 -14.911  0.00  0.00    -0.451 OA
ATOM     12  C9  UNL     1       5.848   1.047 -16.095  0.00  0.00    +0.180 A 
ATOM     13  C10 UNL     1       7.082   0.411 -16.253  0.00  0.00    +0.160 A 
ATOM     14  O4  UNL     1       8.030   0.444 -15.268  0.00  0.00    -0.503 OA
ATOM     15  C11 UNL     1       7.390  -0.277 -17.424  0.00  0.00    -0.016 A 
ATOM     16  C12 UNL     1       6.455  -0.336 -18.456  0.00  0.00    -0.057 A 
ATOM     17  C13 UNL     1       5.218   0.294 -18.311  0.00  0.00    -0.047 A 
ATOM     18  C14 UNL     1       4.921   0.983 -17.127  0.00  0.00    +0.068 A 
ATOM     19  C15 UNL     1       3.624   1.655 -16.957  0.00  0.00    +0.204 A 
ATOM     20  O5  UNL     1       2.795   1.617 -17.854  0.00  0.00    -0.286 OA
ATOM     21  C16 UNL     1       3.393   2.365 -15.681  0.00  0.00    +0.106 A 
ATOM     22  C17 UNL     1       0.743   3.580 -18.595  0.00  0.00    +0.348 C 
ATOM     23  O6  UNL     1       1.168   3.954 -19.684  0.00  0.00    -0.247 OA
ATOM     24  O7  UNL     1      -0.304   2.722 -18.427  0.00  0.00    -0.465 OA
ATOM     25  C18 UNL     1      -0.807   2.175 -19.643  0.00  0.00    +0.082 C 
ATOM     26  H   UNL     1       2.031   4.627 -11.820  0.00  0.00    +0.000 HD
ATOM     27  H   UNL     1       7.858   0.897 -14.467  0.00  0.00    +0.000 HD
ENDROOT
TORSDOF 0
ENDMDL
MODEL 5
REMARK VINA RESULT:    -4.813     14.060     17.168
REMARK INTER + INTRA:          -4.813
REMARK INTER:                  -4.813
REMARK INTRA:                   0.000
REMARK UNBOUND:                 0.000
REMARK  Name = /home/vital/Documents/PhD_2021/Malaria_codes/scripts/../data/pdbqt_ligands/ligand_84_temp.pdb
REMARK                            x       y       z     vdW  Elec       q    Type
REMARK                         _______ _______ _______ _____ _____    ______ ____
ROOT
ATOM      1  C1  UNL     1       6.751  -4.275 -27.308  0.00  0.00    -0.061 C 
ATOM      2  C2  UNL     1       5.368  -3.674 -27.514  0.00  0.00    -0.008 C 
ATOM      3  C3  UNL     1       4.735  -4.048 -28.864  0.00  0.00    +0.196 C 
ATOM      4  O1  UNL     1       3.368  -3.591 -28.874  0.00  0.00    -0.477 OA
ATOM      5  C4  UNL     1       2.471  -4.592 -28.612  0.00  0.00    +0.140 A 
ATOM      6  C5  UNL     1       1.928  -4.609 -27.323  0.00  0.00    +0.023 A 
ATOM      7  C6  UNL     1       0.984  -5.568 -26.979  0.00  0.00    +0.124 A 
ATOM      8  O2  UNL     1       0.500  -5.554 -25.706  0.00  0.00    -0.507 OA
ATOM      9  C7  UNL     1       0.551  -6.504 -27.912  0.00  0.00    +0.023 A 
ATOM     10  C8  UNL     1       1.065  -6.466 -29.213  0.00  0.00    +0.146 A 
ATOM     11  O3  UNL     1       0.558  -7.418 -30.066  0.00  0.00    -0.451 OA
ATOM     12  C9  UNL     1       0.995  -7.425 -31.366  0.00  0.00    +0.180 A 
ATOM     13  C10 UNL     1       0.459  -8.397 -32.214  0.00  0.00    +0.160 A 
ATOM     14  O4  UNL     1      -0.461  -9.303 -31.766  0.00  0.00    -0.503 OA
ATOM     15  C11 UNL     1       0.847  -8.478 -33.549  0.00  0.00    -0.016 A 
ATOM     16  C12 UNL     1       1.785  -7.576 -34.051  0.00  0.00    -0.057 A 
ATOM     17  C13 UNL     1       2.328  -6.599 -33.213  0.00  0.00    -0.047 A 
ATOM     18  C14 UNL     1       1.928  -6.529 -31.873  0.00  0.00    +0.068 A 
ATOM     19  C15 UNL     1       2.490  -5.509 -30.975  0.00  0.00    +0.204 A 
ATOM     20  O5  UNL     1       3.316  -4.714 -31.398  0.00  0.00    -0.286 OA
ATOM     21  C16 UNL     1       2.020  -5.509 -29.573  0.00  0.00    +0.106 A 
ATOM     22  C17 UNL     1       5.528  -3.387 -29.998  0.00  0.00    +0.348 C 
ATOM     23  O6  UNL     1       6.493  -3.913 -30.546  0.00  0.00    -0.247 OA
ATOM     24  O7  UNL     1       5.086  -2.123 -30.256  0.00  0.00    -0.465 OA
ATOM     25  C18 UNL     1       5.768  -1.478 -31.329  0.00  0.00    +0.082 C 
ATOM     26  H   UNL     1       0.807  -4.913 -25.095  0.00  0.00    +0.000 HD
ATOM     27  H   UNL     1      -0.746  -9.280 -30.874  0.00  0.00    +0.000 HD
ENDROOT
TORSDOF 0
ENDMDL
MODEL 6
REMARK VINA RESULT:    -4.807      2.232      3.064
REMARK INTER + INTRA:          -4.807
REMARK INTER:                  -4.807
REMARK INTRA:                   0.000
REMARK UNBOUND:                 0.000
REMARK  Name = /home/vital/Documents/PhD_2021/Malaria_codes/scripts/../data/pdbqt_ligands/ligand_84_temp.pdb
REMARK                            x       y       z     vdW  Elec       q    Type
REMARK                         _______ _______ _______ _____ _____    ______ ____
ROOT
ATOM      1  C1  UNL     1      -3.178   4.738 -19.454  0.00  0.00    -0.061 C 
ATOM      2  C2  UNL     1      -1.813   4.156 -19.119  0.00  0.00    -0.008 C 
ATOM      3  C3  UNL     1      -0.649   5.114 -19.419  0.00  0.00    +0.196 C 
ATOM      4  O1  UNL     1       0.565   4.545 -18.892  0.00  0.00    -0.477 OA
ATOM      5  C4  UNL     1       0.931   5.091 -17.691  0.00  0.00    +0.140 A 
ATOM      6  C5  UNL     1       0.669   4.315 -16.557  0.00  0.00    +0.023 A 
ATOM      7  C6  UNL     1       1.039   4.776 -15.299  0.00  0.00    +0.124 A 
ATOM      8  O2  UNL     1       0.744   3.991 -14.226  0.00  0.00    -0.507 OA
ATOM      9  C7  UNL     1       1.690   5.995 -15.153  0.00  0.00    +0.023 A 
ATOM     10  C8  UNL     1       1.987   6.756 -16.289  0.00  0.00    +0.146 A 
ATOM     11  O3  UNL     1       2.651   7.935 -16.043  0.00  0.00    -0.451 OA
ATOM     12  C9  UNL     1       3.000   8.720 -17.111  0.00  0.00    +0.180 A 
ATOM     13  C10 UNL     1       3.682   9.908 -16.834  0.00  0.00    +0.160 A 
ATOM     14  O4  UNL     1       3.987  10.271 -15.551  0.00  0.00    -0.503 OA
ATOM     15  C11 UNL     1       4.073  10.767 -17.858  0.00  0.00    -0.016 A 
ATOM     16  C12 UNL     1       3.782  10.439 -19.181  0.00  0.00    -0.057 A 
ATOM     17  C13 UNL     1       3.102   9.255 -19.472  0.00  0.00    -0.047 A 
ATOM     18  C14 UNL     1       2.715   8.400 -18.432  0.00  0.00    +0.068 A 
ATOM     19  C15 UNL     1       1.996   7.150 -18.717  0.00  0.00    +0.204 A 
ATOM     20  O5  UNL     1       1.729   6.851 -19.872  0.00  0.00    -0.286 OA
ATOM     21  C16 UNL     1       1.617   6.308 -17.563  0.00  0.00    +0.106 A 
ATOM     22  C17 UNL     1      -0.533   5.312 -20.935  0.00  0.00    +0.348 C 
ATOM     23  O6  UNL     1      -1.134   6.187 -21.552  0.00  0.00    -0.247 OA
ATOM     24  O7  UNL     1       0.242   4.351 -21.514  0.00  0.00    -0.465 OA
ATOM     25  C18 UNL     1       0.413   4.513 -22.920  0.00  0.00    +0.082 C 
ATOM     26  H   UNL     1       0.304   3.173 -14.349  0.00  0.00    +0.000 HD
ATOM     27  H   UNL     1       3.739   9.718 -14.836  0.00  0.00    +0.000 HD
ENDROOT
TORSDOF 0
ENDMDL
MODEL 7
REMARK VINA RESULT:    -4.788      2.138      5.535
REMARK INTER + INTRA:          -4.788
REMARK INTER:                  -4.788
REMARK INTRA:                   0.000
REMARK UNBOUND:                 0.000
REMARK  Name = /home/vital/Documents/PhD_2021/Malaria_codes/scripts/../data/pdbqt_ligands/ligand_84_temp.pdb
REMARK                            x       y       z     vdW  Elec       q    Type
REMARK                         _______ _______ _______ _____ _____    ______ ____
ROOT
ATOM      1  C1  UNL     1       5.825   6.193 -23.021  0.00  0.00    -0.061 C 
ATOM      2  C2  UNL     1       4.977   7.409 -22.675  0.00  0.00    -0.008 C 
ATOM      3  C3  UNL     1       3.519   7.061 -22.337  0.00  0.00    +0.196 C 
ATOM      4  O1  UNL     1       2.865   8.246 -21.844  0.00  0.00    -0.477 OA
ATOM      5  C4  UNL     1       2.772   8.273 -20.478  0.00  0.00    +0.140 A 
ATOM      6  C5  UNL     1       3.679   9.107 -19.815  0.00  0.00    +0.023 A 
ATOM      7  C6  UNL     1       3.634   9.223 -18.432  0.00  0.00    +0.124 A 
ATOM      8  O2  UNL     1       4.551  10.032 -17.833  0.00  0.00    -0.507 OA
ATOM      9  C7  UNL     1       2.679   8.535 -17.693  0.00  0.00    +0.023 A 
ATOM     10  C8  UNL     1       1.746   7.729 -18.356  0.00  0.00    +0.146 A 
ATOM     11  O3  UNL     1       0.830   7.108 -17.540  0.00  0.00    -0.451 OA
ATOM     12  C9  UNL     1      -0.133   6.324 -18.122  0.00  0.00    +0.180 A 
ATOM     13  C10 UNL     1      -1.057   5.711 -17.272  0.00  0.00    +0.160 A 
ATOM     14  O4  UNL     1      -1.002   5.886 -15.917  0.00  0.00    -0.503 OA
ATOM     15  C11 UNL     1      -2.067   4.897 -17.777  0.00  0.00    -0.016 A 
ATOM     16  C12 UNL     1      -2.162   4.688 -19.152  0.00  0.00    -0.057 A 
ATOM     17  C13 UNL     1      -1.245   5.295 -20.013  0.00  0.00    -0.047 A 
ATOM     18  C14 UNL     1      -0.235   6.112 -19.491  0.00  0.00    +0.068 A 
ATOM     19  C15 UNL     1       0.742   6.758 -20.381  0.00  0.00    +0.204 A 
ATOM     20  O5  UNL     1       0.675   6.581 -21.588  0.00  0.00    -0.286 OA
ATOM     21  C16 UNL     1       1.781   7.599 -19.749  0.00  0.00    +0.106 A 
ATOM     22  C17 UNL     1       2.814   6.547 -23.598  0.00  0.00    +0.348 C 
ATOM     23  O6  UNL     1       2.796   5.365 -23.930  0.00  0.00    -0.247 OA
ATOM     24  O7  UNL     1       2.293   7.566 -24.339  0.00  0.00    -0.465 OA
ATOM     25  C18 UNL     1       1.593   7.137 -25.504  0.00  0.00    +0.082 C 
ATOM     26  H   UNL     1       5.186  10.486 -18.353  0.00  0.00    +0.000 HD
ATOM     27  H   UNL     1      -0.336   6.427 -15.540  0.00  0.00    +0.000 HD
ENDROOT
TORSDOF 0
ENDMDL
MODEL 8
REMARK VINA RESULT:    -4.573     10.753     12.347
REMARK INTER + INTRA:          -4.573
REMARK INTER:                  -4.573
REMARK INTRA:                   0.000
REMARK UNBOUND:                 0.000
REMARK  Name = /home/vital/Documents/PhD_2021/Malaria_codes/scripts/../data/pdbqt_ligands/ligand_84_temp.pdb
REMARK                            x       y       z     vdW  Elec       q    Type
REMARK                         _______ _______ _______ _____ _____    ______ ____
ROOT
ATOM      1  C1  UNL     1       6.575  -5.346 -25.832  0.00  0.00    -0.061 C 
ATOM      2  C2  UNL     1       6.399  -4.213 -24.831  0.00  0.00    -0.008 C 
ATOM      3  C3  UNL     1       4.967  -3.657 -24.784  0.00  0.00    +0.196 C 
ATOM      4  O1  UNL     1       4.868  -2.733 -23.682  0.00  0.00    -0.477 OA
ATOM      5  C4  UNL     1       4.279  -3.285 -22.576  0.00  0.00    +0.140 A 
ATOM      6  C5  UNL     1       5.142  -3.650 -21.537  0.00  0.00    +0.023 A 
ATOM      7  C6  UNL     1       4.628  -4.186 -20.363  0.00  0.00    +0.124 A 
ATOM      8  O2  UNL     1       5.512  -4.543 -19.390  0.00  0.00    -0.507 OA
ATOM      9  C7  UNL     1       3.258  -4.345 -20.196  0.00  0.00    +0.023 A 
ATOM     10  C8  UNL     1       2.390  -3.947 -21.218  0.00  0.00    +0.146 A 
ATOM     11  O3  UNL     1       1.053  -4.124 -20.949  0.00  0.00    -0.451 OA
ATOM     12  C9  UNL     1       0.141  -3.730 -21.894  0.00  0.00    +0.180 A 
ATOM     13  C10 UNL     1      -1.211  -3.913 -21.592  0.00  0.00    +0.160 A 
ATOM     14  O4  UNL     1      -1.606  -4.463 -20.404  0.00  0.00    -0.503 OA
ATOM     15  C11 UNL     1      -2.204  -3.543 -22.494  0.00  0.00    -0.016 A 
ATOM     16  C12 UNL     1      -1.849  -2.980 -23.719  0.00  0.00    -0.057 A 
ATOM     17  C13 UNL     1      -0.501  -2.791 -24.033  0.00  0.00    -0.047 A 
ATOM     18  C14 UNL     1       0.487  -3.167 -23.115  0.00  0.00    +0.068 A 
ATOM     19  C15 UNL     1       1.912  -2.978 -23.429  0.00  0.00    +0.204 A 
ATOM     20  O5  UNL     1       2.240  -2.490 -24.500  0.00  0.00    -0.286 OA
ATOM     21  C16 UNL     1       2.892  -3.408 -22.409  0.00  0.00    +0.106 A 
ATOM     22  C17 UNL     1       4.654  -2.947 -26.107  0.00  0.00    +0.348 C 
ATOM     23  O6  UNL     1       4.174  -3.516 -27.083  0.00  0.00    -0.247 OA
ATOM     24  O7  UNL     1       5.053  -1.643 -26.090  0.00  0.00    -0.465 OA
ATOM     25  C18 UNL     1       4.749  -0.928 -27.285  0.00  0.00    +0.082 C 
ATOM     26  H   UNL     1       6.432  -4.426 -19.526  0.00  0.00    +0.000 HD
ATOM     27  H   UNL     1      -0.966  -4.724 -19.772  0.00  0.00    +0.000 HD
ENDROOT
TORSDOF 0
ENDMDL
MODEL 9
REMARK VINA RESULT:    -4.408     12.058     16.593
REMARK INTER + INTRA:          -4.408
REMARK INTER:                  -4.408
REMARK INTRA:                   0.000
REMARK UNBOUND:                 0.000
REMARK  Name = /home/vital/Documents/PhD_2021/Malaria_codes/scripts/../data/pdbqt_ligands/ligand_84_temp.pdb
REMARK                            x       y       z     vdW  Elec       q    Type
REMARK                         _______ _______ _______ _____ _____    ______ ____
ROOT
ATOM      1  C1  UNL     1       5.703  -0.552 -32.348  0.00  0.00    -0.061 C 
ATOM      2  C2  UNL     1       4.604  -1.533 -31.967  0.00  0.00    -0.008 C 
ATOM      3  C3  UNL     1       3.213  -0.886 -31.872  0.00  0.00    +0.196 C 
ATOM      4  O1  UNL     1       2.231  -1.926 -31.698  0.00  0.00    -0.477 OA
ATOM      5  C4  UNL     1       1.581  -2.244 -32.860  0.00  0.00    +0.140 A 
ATOM      6  C5  UNL     1       1.987  -3.426 -33.489  0.00  0.00    +0.023 A 
ATOM      7  C6  UNL     1       1.358  -3.844 -34.655  0.00  0.00    +0.124 A 
ATOM      8  O2  UNL     1       1.803  -4.991 -35.239  0.00  0.00    -0.507 OA
ATOM      9  C7  UNL     1       0.308  -3.112 -35.197  0.00  0.00    +0.023 A 
ATOM     10  C8  UNL     1      -0.125  -1.949 -34.550  0.00  0.00    +0.146 A 
ATOM     11  O3  UNL     1      -1.182  -1.308 -35.152  0.00  0.00    -0.451 OA
ATOM     12  C9  UNL     1      -1.679  -0.176 -34.558  0.00  0.00    +0.180 A 
ATOM     13  C10 UNL     1      -2.758   0.452 -35.185  0.00  0.00    +0.160 A 
ATOM     14  O4  UNL     1      -3.295  -0.042 -36.341  0.00  0.00    -0.503 OA
ATOM     15  C11 UNL     1      -3.325   1.607 -34.653  0.00  0.00    -0.016 A 
ATOM     16  C12 UNL     1      -2.809   2.149 -33.476  0.00  0.00    -0.057 A 
ATOM     17  C13 UNL     1      -1.731   1.531 -32.839  0.00  0.00    -0.047 A 
ATOM     18  C14 UNL     1      -1.172   0.369 -33.386  0.00  0.00    +0.068 A 
ATOM     19  C15 UNL     1      -0.034  -0.295 -32.732  0.00  0.00    +0.204 A 
ATOM     20  O5  UNL     1       0.432   0.170 -31.702  0.00  0.00    -0.286 OA
ATOM     21  C16 UNL     1       0.501  -1.512 -33.377  0.00  0.00    +0.106 A 
ATOM     22  C17 UNL     1       3.183   0.082 -30.683  0.00  0.00    +0.348 C 
ATOM     23  O6  UNL     1       3.495   1.267 -30.766  0.00  0.00    -0.247 OA
ATOM     24  O7  UNL     1       2.856  -0.552 -29.521  0.00  0.00    -0.465 OA
ATOM     25  C18 UNL     1       2.778   0.313 -28.390  0.00  0.00    +0.082 C 
ATOM     26  H   UNL     1       2.513  -5.468 -34.855  0.00  0.00    +0.000 HD
ATOM     27  H   UNL     1      -2.941  -0.818 -36.729  0.00  0.00    +0.000 HD
ENDROOT
TORSDOF 0
ENDMDL
