MODEL 1
REMARK VINA RESULT:    -5.300      0.000      0.000
REMARK INTER + INTRA:          -5.300
REMARK INTER:                  -5.300
REMARK INTRA:                   0.000
REMARK UNBOUND:                 0.000
REMARK  Name = /home/vital/Documents/PhD_2021/Malaria_codes/scripts/../data/pdbqt_ligands/ligand_69_temp.pdb
REMARK                            x       y       z     vdW  Elec       q    Type
REMARK                         _______ _______ _______ _____ _____    ______ ____
ROOT
ATOM      1  C1  UNL     1       4.295   7.415 -18.531  0.00  0.00    -0.036 C 
ATOM      2  C2  UNL     1       3.410   8.409 -19.285  0.00  0.00    +0.108 C 
ATOM      3 CL1  UNL     1       2.914   9.753 -18.200  0.00  0.00    -0.107 Cl
ATOM      4  C3  UNL     1       4.180   9.026 -20.477  0.00  0.00    +0.027 C 
ATOM      5  N1  UNL     1       5.341   9.756 -20.334  0.00  0.00    -0.360 N 
ATOM      6  C4  UNL     1       3.520   8.753 -21.612  0.00  0.00    -0.043 C 
ATOM      7  C5  UNL     1       2.324   8.009 -21.318  0.00  0.00    -0.052 C 
ATOM      8  C6  UNL     1       2.220   7.801 -19.991  0.00  0.00    +0.023 C 
ATOM      9  C7  UNL     1       1.122   7.111 -19.325  0.00  0.00    +0.160 A 
ATOM     10  N2  UNL     1       1.228   6.872 -18.013  0.00  0.00    -0.212 NA
ATOM     11  C8  UNL     1       0.183   6.290 -17.401  0.00  0.00    +0.130 A 
ATOM     12  N3  UNL     1       0.241   6.066 -16.005  0.00  0.00    -0.326 N 
ATOM     13  C9  UNL     1       1.504   6.407 -15.350  0.00  0.00    +0.034 C 
ATOM     14  C10 UNL     1       2.543   5.290 -15.505  0.00  0.00    +0.060 C 
ATOM     15  O1  UNL     1       3.708   5.564 -14.727  0.00  0.00    -0.393 OA
ATOM     16  C11 UNL     1      -0.972   5.903 -18.104  0.00  0.00    +0.040 A 
ATOM     17  C12 UNL     1      -2.097   5.255 -17.532  0.00  0.00    -0.049 A 
ATOM     18  C13 UNL     1      -3.198   4.908 -18.314  0.00  0.00    -0.061 A 
ATOM     19  C14 UNL     1      -3.186   5.201 -19.670  0.00  0.00    -0.060 A 
ATOM     20  C15 UNL     1      -2.074   5.831 -20.234  0.00  0.00    -0.036 A 
ATOM     21  C16 UNL     1      -0.965   6.184 -19.474  0.00  0.00    +0.077 A 
ATOM     22  N4  UNL     1       0.064   6.782 -20.081  0.00  0.00    -0.227 NA
ATOM     23  H   UNL     1       5.733   9.888 -19.441  0.00  0.00    +0.000 HD
ATOM     24  H   UNL     1       5.777  10.145 -21.127  0.00  0.00    +0.000 HD
ATOM     25  H   UNL     1      -0.524   5.702 -15.503  0.00  0.00    +0.000 HD
ATOM     26  H   UNL     1       4.110   6.394 -15.028  0.00  0.00    +0.000 HD
ENDROOT
TORSDOF 0
ENDMDL
MODEL 2
REMARK VINA RESULT:    -5.140      3.218      5.466
REMARK INTER + INTRA:          -5.140
REMARK INTER:                  -5.140
REMARK INTRA:                   0.000
REMARK UNBOUND:                 0.000
REMARK  Name = /home/vital/Documents/PhD_2021/Malaria_codes/scripts/../data/pdbqt_ligands/ligand_69_temp.pdb
REMARK                            x       y       z     vdW  Elec       q    Type
REMARK                         _______ _______ _______ _____ _____    ______ ____
ROOT
ATOM      1  C1  UNL     1      -1.916   4.543 -21.079  0.00  0.00    -0.036 C 
ATOM      2  C2  UNL     1      -0.485   4.388 -21.598  0.00  0.00    +0.108 C 
ATOM      3 CL1  UNL     1       0.333   3.014 -20.778  0.00  0.00    -0.107 Cl
ATOM      4  C3  UNL     1      -0.487   4.096 -23.117  0.00  0.00    +0.027 C 
ATOM      5  N1  UNL     1      -1.094   2.993 -23.677  0.00  0.00    -0.360 N 
ATOM      6  C4  UNL     1       0.205   5.056 -23.748  0.00  0.00    -0.043 C 
ATOM      7  C5  UNL     1       0.721   5.999 -22.791  0.00  0.00    -0.052 C 
ATOM      8  C6  UNL     1       0.355   5.643 -21.544  0.00  0.00    +0.023 C 
ATOM      9  C7  UNL     1       0.724   6.345 -20.320  0.00  0.00    +0.160 A 
ATOM     10  N2  UNL     1       0.174   5.941 -19.170  0.00  0.00    -0.212 NA
ATOM     11  C8  UNL     1       0.569   6.557 -18.043  0.00  0.00    +0.130 A 
ATOM     12  N3  UNL     1       0.045   6.123 -16.802  0.00  0.00    -0.326 N 
ATOM     13  C9  UNL     1      -0.980   5.081 -16.865  0.00  0.00    +0.034 C 
ATOM     14  C10 UNL     1      -2.364   5.665 -17.170  0.00  0.00    +0.060 C 
ATOM     15  O1  UNL     1      -3.375   4.662 -17.067  0.00  0.00    -0.393 OA
ATOM     16  C11 UNL     1       1.494   7.616 -18.056  0.00  0.00    +0.040 A 
ATOM     17  C12 UNL     1       1.931   8.334 -16.913  0.00  0.00    -0.049 A 
ATOM     18  C13 UNL     1       2.852   9.373 -17.029  0.00  0.00    -0.061 A 
ATOM     19  C14 UNL     1       3.345   9.707 -18.283  0.00  0.00    -0.060 A 
ATOM     20  C15 UNL     1       2.908   9.005 -19.409  0.00  0.00    -0.036 A 
ATOM     21  C16 UNL     1       1.988   7.967 -19.317  0.00  0.00    +0.077 A 
ATOM     22  N4  UNL     1       1.613   7.343 -20.436  0.00  0.00    -0.227 NA
ATOM     23  H   UNL     1      -1.578   2.353 -23.106  0.00  0.00    +0.000 HD
ATOM     24  H   UNL     1      -1.046   2.845 -24.649  0.00  0.00    +0.000 HD
ATOM     25  H   UNL     1       0.352   6.500 -15.946  0.00  0.00    +0.000 HD
ATOM     26  H   UNL     1      -3.197   3.956 -17.709  0.00  0.00    +0.000 HD
ENDROOT
TORSDOF 0
ENDMDL
MODEL 3
REMARK VINA RESULT:    -5.140      1.756      2.145
REMARK INTER + INTRA:          -5.140
REMARK INTER:                  -5.140
REMARK INTRA:                   0.000
REMARK UNBOUND:                 0.000
REMARK  Name = /home/vital/Documents/PhD_2021/Malaria_codes/scripts/../data/pdbqt_ligands/ligand_69_temp.pdb
REMARK                            x       y       z     vdW  Elec       q    Type
REMARK                         _______ _______ _______ _____ _____    ______ ____
ROOT
ATOM      1  C1  UNL     1       5.457   8.548 -20.236  0.00  0.00    -0.036 C 
ATOM      2  C2  UNL     1       4.247   9.359 -20.704  0.00  0.00    +0.108 C 
ATOM      3 CL1  UNL     1       3.973  10.761 -19.614  0.00  0.00    -0.107 Cl
ATOM      4  C3  UNL     1       4.485   9.912 -22.130  0.00  0.00    +0.027 C 
ATOM      5  N1  UNL     1       5.519  10.764 -22.451  0.00  0.00    -0.360 N 
ATOM      6  C4  UNL     1       3.523   9.450 -22.944  0.00  0.00    -0.043 C 
ATOM      7  C5  UNL     1       2.604   8.629 -22.201  0.00  0.00    -0.052 C 
ATOM      8  C6  UNL     1       2.980   8.562 -20.909  0.00  0.00    +0.023 C 
ATOM      9  C7  UNL     1       2.270   7.846 -19.856  0.00  0.00    +0.160 A 
ATOM     10  N2  UNL     1       2.840   7.767 -18.649  0.00  0.00    -0.212 NA
ATOM     11  C8  UNL     1       2.147   7.157 -17.672  0.00  0.00    +0.130 A 
ATOM     12  N3  UNL     1       2.700   7.097 -16.371  0.00  0.00    -0.326 N 
ATOM     13  C9  UNL     1       4.053   7.632 -16.220  0.00  0.00    +0.034 C 
ATOM     14  C10 UNL     1       5.116   6.612 -16.646  0.00  0.00    +0.060 C 
ATOM     15  O1  UNL     1       6.428   7.085 -16.342  0.00  0.00    -0.393 OA
ATOM     16  C11 UNL     1       0.885   6.581 -17.902  0.00  0.00    +0.040 A 
ATOM     17  C12 UNL     1       0.112   5.894 -16.931  0.00  0.00    -0.049 A 
ATOM     18  C13 UNL     1      -1.132   5.355 -17.256  0.00  0.00    -0.061 A 
ATOM     19  C14 UNL     1      -1.615   5.494 -18.550  0.00  0.00    -0.060 A 
ATOM     20  C15 UNL     1      -0.849   6.164 -19.507  0.00  0.00    -0.036 A 
ATOM     21  C16 UNL     1       0.394   6.707 -19.206  0.00  0.00    +0.077 A 
ATOM     22  N4  UNL     1       1.072   7.331 -20.173  0.00  0.00    -0.227 NA
ATOM     23  H   UNL     1       6.168  11.033 -21.761  0.00  0.00    +0.000 HD
ATOM     24  H   UNL     1       5.610  11.103 -23.371  0.00  0.00    +0.000 HD
ATOM     25  H   UNL     1       2.203   6.718 -15.611  0.00  0.00    +0.000 HD
ATOM     26  H   UNL     1       6.593   7.912 -16.822  0.00  0.00    +0.000 HD
ENDROOT
TORSDOF 0
ENDMDL
MODEL 4
REMARK VINA RESULT:    -5.125     17.725     19.239
REMARK INTER + INTRA:          -5.125
REMARK INTER:                  -5.125
REMARK INTRA:                   0.000
REMARK UNBOUND:                 0.000
REMARK  Name = /home/vital/Documents/PhD_2021/Malaria_codes/scripts/../data/pdbqt_ligands/ligand_69_temp.pdb
REMARK                            x       y       z     vdW  Elec       q    Type
REMARK                         _______ _______ _______ _____ _____    ______ ____
ROOT
ATOM      1  C1  UNL     1       1.860  -8.039 -33.858  0.00  0.00    -0.036 C 
ATOM      2  C2  UNL     1       0.434  -7.929 -33.315  0.00  0.00    +0.108 C 
ATOM      3 CL1  UNL     1      -0.341  -6.414 -33.894  0.00  0.00    -0.107 Cl
ATOM      4  C3  UNL     1      -0.428  -9.116 -33.808  0.00  0.00    +0.027 C 
ATOM      5  N1  UNL     1      -0.668  -9.378 -35.140  0.00  0.00    -0.360 N 
ATOM      6  C4  UNL     1      -0.895  -9.789 -32.746  0.00  0.00    -0.043 C 
ATOM      7  C5  UNL     1      -0.451  -9.157 -31.531  0.00  0.00    -0.052 C 
ATOM      8  C6  UNL     1       0.305  -8.079 -31.817  0.00  0.00    +0.023 C 
ATOM      9  C7  UNL     1       0.899  -7.177 -30.838  0.00  0.00    +0.160 A 
ATOM     10  N2  UNL     1       1.731  -6.226 -31.276  0.00  0.00    -0.212 NA
ATOM     11  C8  UNL     1       2.223  -5.364 -30.370  0.00  0.00    +0.130 A 
ATOM     12  N3  UNL     1       3.068  -4.316 -30.806  0.00  0.00    -0.326 N 
ATOM     13  C9  UNL     1       3.419  -4.320 -32.226  0.00  0.00    +0.034 C 
ATOM     14  C10 UNL     1       4.574  -5.285 -32.522  0.00  0.00    +0.060 C 
ATOM     15  O1  UNL     1       5.012  -5.158 -33.874  0.00  0.00    -0.393 OA
ATOM     16  C11 UNL     1       1.918  -5.467 -29.001  0.00  0.00    +0.040 A 
ATOM     17  C12 UNL     1       2.426  -4.616 -27.985  0.00  0.00    -0.049 A 
ATOM     18  C13 UNL     1       2.065  -4.799 -26.652  0.00  0.00    -0.061 A 
ATOM     19  C14 UNL     1       1.199  -5.831 -26.318  0.00  0.00    -0.060 A 
ATOM     20  C15 UNL     1       0.706  -6.673 -27.318  0.00  0.00    -0.036 A 
ATOM     21  C16 UNL     1       1.054  -6.511 -28.654  0.00  0.00    +0.077 A 
ATOM     22  N4  UNL     1       0.547  -7.355 -29.555  0.00  0.00    -0.227 NA
ATOM     23  H   UNL     1      -0.266  -8.808 -35.834  0.00  0.00    +0.000 HD
ATOM     24  H   UNL     1      -1.243 -10.135 -35.396  0.00  0.00    +0.000 HD
ATOM     25  H   UNL     1       3.400  -3.624 -30.190  0.00  0.00    +0.000 HD
ATOM     26  H   UNL     1       4.279  -5.372 -34.473  0.00  0.00    +0.000 HD
ENDROOT
TORSDOF 0
ENDMDL
MODEL 5
REMARK VINA RESULT:    -5.037     12.209     12.832
REMARK INTER + INTRA:          -5.037
REMARK INTER:                  -5.037
REMARK INTRA:                   0.000
REMARK UNBOUND:                 0.000
REMARK  Name = /home/vital/Documents/PhD_2021/Malaria_codes/scripts/../data/pdbqt_ligands/ligand_69_temp.pdb
REMARK                            x       y       z     vdW  Elec       q    Type
REMARK                         _______ _______ _______ _____ _____    ______ ____
ROOT
ATOM      1  C1  UNL     1       8.123  -1.874 -25.949  0.00  0.00    -0.036 C 
ATOM      2  C2  UNL     1       8.882  -1.709 -24.631  0.00  0.00    +0.108 C 
ATOM      3 CL1  UNL     1       9.962  -3.116 -24.350  0.00  0.00    -0.107 Cl
ATOM      4  C3  UNL     1       9.764  -0.438 -24.669  0.00  0.00    +0.027 C 
ATOM      5  N1  UNL     1      10.775  -0.243 -25.586  0.00  0.00    -0.360 N 
ATOM      6  C4  UNL     1       9.395   0.381 -23.673  0.00  0.00    -0.043 C 
ATOM      7  C5  UNL     1       8.332  -0.220 -22.912  0.00  0.00    -0.052 C 
ATOM      8  C6  UNL     1       8.017  -1.425 -23.425  0.00  0.00    +0.023 C 
ATOM      9  C7  UNL     1       7.008  -2.335 -22.894  0.00  0.00    +0.160 A 
ATOM     10  N2  UNL     1       6.722  -3.439 -23.592  0.00  0.00    -0.212 NA
ATOM     11  C8  UNL     1       5.835  -4.298 -23.060  0.00  0.00    +0.130 A 
ATOM     12  N3  UNL     1       5.545  -5.500 -23.748  0.00  0.00    -0.326 N 
ATOM     13  C9  UNL     1       6.177  -5.662 -25.057  0.00  0.00    +0.034 C 
ATOM     14  C10 UNL     1       5.402  -4.924 -26.156  0.00  0.00    +0.060 C 
ATOM     15  O1  UNL     1       5.935  -5.223 -27.446  0.00  0.00    -0.393 OA
ATOM     16  C11 UNL     1       5.191  -4.042 -21.836  0.00  0.00    +0.040 A 
ATOM     17  C12 UNL     1       4.222  -4.884 -21.232  0.00  0.00    -0.049 A 
ATOM     18  C13 UNL     1       3.637  -4.544 -20.014  0.00  0.00    -0.061 A 
ATOM     19  C14 UNL     1       4.010  -3.362 -19.389  0.00  0.00    -0.060 A 
ATOM     20  C15 UNL     1       4.959  -2.530 -19.989  0.00  0.00    -0.036 A 
ATOM     21  C16 UNL     1       5.553  -2.848 -21.204  0.00  0.00    +0.077 A 
ATOM     22  N4  UNL     1       6.450  -2.004 -21.719  0.00  0.00    -0.227 NA
ATOM     23  H   UNL     1      10.952  -0.922 -26.276  0.00  0.00    +0.000 HD
ATOM     24  H   UNL     1      11.321   0.576 -25.550  0.00  0.00    +0.000 HD
ATOM     25  H   UNL     1       4.952  -6.187 -23.368  0.00  0.00    +0.000 HD
ATOM     26  H   UNL     1       6.862  -4.939 -27.487  0.00  0.00    +0.000 HD
ENDROOT
TORSDOF 0
ENDMDL
MODEL 6
REMARK VINA RESULT:    -4.885      3.003      6.500
REMARK INTER + INTRA:          -4.885
REMARK INTER:                  -4.885
REMARK INTRA:                   0.000
REMARK UNBOUND:                 0.000
REMARK  Name = /home/vital/Documents/PhD_2021/Malaria_codes/scripts/../data/pdbqt_ligands/ligand_69_temp.pdb
REMARK                            x       y       z     vdW  Elec       q    Type
REMARK                         _______ _______ _______ _____ _____    ______ ____
ROOT
ATOM      1  C1  UNL     1       0.443   4.371 -18.762  0.00  0.00    -0.036 C 
ATOM      2  C2  UNL     1       0.126   5.727 -18.130  0.00  0.00    +0.108 C 
ATOM      3 CL1  UNL     1      -1.437   6.359 -18.753  0.00  0.00    -0.107 Cl
ATOM      4  C3  UNL     1       0.000   5.593 -16.594  0.00  0.00    +0.027 C 
ATOM      5  N1  UNL     1      -0.930   4.786 -15.976  0.00  0.00    -0.360 N 
ATOM      6  C4  UNL     1       0.904   6.394 -16.010  0.00  0.00    -0.043 C 
ATOM      7  C5  UNL     1       1.649   7.107 -17.013  0.00  0.00    -0.052 C 
ATOM      8  C6  UNL     1       1.224   6.760 -18.243  0.00  0.00    +0.023 C 
ATOM      9  C7  UNL     1       1.727   7.304 -19.499  0.00  0.00    +0.160 A 
ATOM     10  N2  UNL     1       1.292   6.762 -20.642  0.00  0.00    -0.212 NA
ATOM     11  C8  UNL     1       1.717   7.313 -21.792  0.00  0.00    +0.130 A 
ATOM     12  N3  UNL     1       1.240   6.796 -23.019  0.00  0.00    -0.326 N 
ATOM     13  C9  UNL     1       0.381   5.616 -22.931  0.00  0.00    +0.034 C 
ATOM     14  C10 UNL     1       1.200   4.328 -22.784  0.00  0.00    +0.060 C 
ATOM     15  O1  UNL     1       0.360   3.176 -22.862  0.00  0.00    -0.393 OA
ATOM     16  C11 UNL     1       2.617   8.393 -21.813  0.00  0.00    +0.040 A 
ATOM     17  C12 UNL     1       3.134   9.003 -22.985  0.00  0.00    -0.049 A 
ATOM     18  C13 UNL     1       4.025  10.072 -22.904  0.00  0.00    -0.061 A 
ATOM     19  C14 UNL     1       4.410  10.540 -21.656  0.00  0.00    -0.060 A 
ATOM     20  C15 UNL     1       3.907   9.934 -20.502  0.00  0.00    -0.036 A 
ATOM     21  C16 UNL     1       3.020   8.866 -20.559  0.00  0.00    +0.077 A 
ATOM     22  N4  UNL     1       2.582   8.334 -19.415  0.00  0.00    -0.227 NA
ATOM     23  H   UNL     1      -1.545   4.240 -16.517  0.00  0.00    +0.000 HD
ATOM     24  H   UNL     1      -0.980   4.756 -14.993  0.00  0.00    +0.000 HD
ATOM     25  H   UNL     1       1.472   7.207 -23.883  0.00  0.00    +0.000 HD
ATOM     26  H   UNL     1      -0.293   3.203 -22.145  0.00  0.00    +0.000 HD
ENDROOT
TORSDOF 0
ENDMDL
MODEL 7
REMARK VINA RESULT:    -4.679     17.178     18.137
REMARK INTER + INTRA:          -4.679
REMARK INTER:                  -4.679
REMARK INTRA:                   0.000
REMARK UNBOUND:                 0.000
REMARK  Name = /home/vital/Documents/PhD_2021/Malaria_codes/scripts/../data/pdbqt_ligands/ligand_69_temp.pdb
REMARK                            x       y       z     vdW  Elec       q    Type
REMARK                         _______ _______ _______ _____ _____    ______ ____
ROOT
ATOM      1  C1  UNL     1       3.866  -4.328 -29.517  0.00  0.00    -0.036 C 
ATOM      2  C2  UNL     1       3.447  -4.027 -30.957  0.00  0.00    +0.108 C 
ATOM      3 CL1  UNL     1       2.043  -2.905 -30.979  0.00  0.00    -0.107 Cl
ATOM      4  C3  UNL     1       4.604  -3.348 -31.728  0.00  0.00    +0.027 C 
ATOM      5  N1  UNL     1       5.161  -2.144 -31.354  0.00  0.00    -0.360 N 
ATOM      6  C4  UNL     1       4.923  -4.102 -32.790  0.00  0.00    -0.043 C 
ATOM      7  C5  UNL     1       4.065  -5.256 -32.849  0.00  0.00    -0.052 C 
ATOM      8  C6  UNL     1       3.197  -5.242 -31.819  0.00  0.00    +0.023 C 
ATOM      9  C7  UNL     1       2.158  -6.236 -31.574  0.00  0.00    +0.160 A 
ATOM     10  N2  UNL     1       1.459  -6.153 -30.437  0.00  0.00    -0.212 NA
ATOM     11  C8  UNL     1       0.464  -7.037 -30.253  0.00  0.00    +0.130 A 
ATOM     12  N3  UNL     1      -0.327  -6.949 -29.083  0.00  0.00    -0.326 N 
ATOM     13  C9  UNL     1       0.078  -5.938 -28.106  0.00  0.00    +0.034 C 
ATOM     14  C10 UNL     1       1.222  -6.438 -27.215  0.00  0.00    +0.060 C 
ATOM     15  O1  UNL     1       1.496  -5.509 -26.166  0.00  0.00    -0.393 OA
ATOM     16  C11 UNL     1       0.179  -8.046 -31.191  0.00  0.00    +0.040 A 
ATOM     17  C12 UNL     1      -0.830  -9.032 -31.049  0.00  0.00    -0.049 A 
ATOM     18  C13 UNL     1      -1.036  -9.994 -32.036  0.00  0.00    -0.061 A 
ATOM     19  C14 UNL     1      -0.237  -9.983 -33.171  0.00  0.00    -0.060 A 
ATOM     20  C15 UNL     1       0.762  -9.016 -33.306  0.00  0.00    -0.036 A 
ATOM     21  C16 UNL     1       0.986  -8.049 -32.334  0.00  0.00    +0.077 A 
ATOM     22  N4  UNL     1       1.961  -7.158 -32.529  0.00  0.00    -0.227 NA
ATOM     23  H   UNL     1       4.839  -1.682 -30.547  0.00  0.00    +0.000 HD
ATOM     24  H   UNL     1       5.881  -1.747 -31.895  0.00  0.00    +0.000 HD
ATOM     25  H   UNL     1      -1.105  -7.532 -28.935  0.00  0.00    +0.000 HD
ATOM     26  H   UNL     1       1.761  -4.658 -26.549  0.00  0.00    +0.000 HD
ENDROOT
TORSDOF 0
ENDMDL
MODEL 8
REMARK VINA RESULT:    -4.548      2.419      5.311
REMARK INTER + INTRA:          -4.548
REMARK INTER:                  -4.548
REMARK INTRA:                   0.000
REMARK UNBOUND:                 0.000
REMARK  Name = /home/vital/Documents/PhD_2021/Malaria_codes/scripts/../data/pdbqt_ligands/ligand_69_temp.pdb
REMARK                            x       y       z     vdW  Elec       q    Type
REMARK                         _______ _______ _______ _____ _____    ______ ____
ROOT
ATOM      1  C1  UNL     1       1.909   8.057 -16.481  0.00  0.00    -0.036 C 
ATOM      2  C2  UNL     1       1.590   6.610 -16.860  0.00  0.00    +0.108 C 
ATOM      3 CL1  UNL     1       3.103   5.651 -16.999  0.00  0.00    -0.107 Cl
ATOM      4  C3  UNL     1       0.711   5.946 -15.773  0.00  0.00    +0.027 C 
ATOM      5  N1  UNL     1       1.108   5.798 -14.462  0.00  0.00    -0.360 N 
ATOM      6  C4  UNL     1      -0.439   5.538 -16.330  0.00  0.00    -0.043 C 
ATOM      7  C5  UNL     1      -0.437   5.839 -17.737  0.00  0.00    -0.052 C 
ATOM      8  C6  UNL     1       0.716   6.444 -18.081  0.00  0.00    +0.023 C 
ATOM      9  C7  UNL     1       1.082   6.865 -19.429  0.00  0.00    +0.160 A 
ATOM     10  N2  UNL     1       2.208   7.570 -19.587  0.00  0.00    -0.212 NA
ATOM     11  C8  UNL     1       2.564   7.898 -20.840  0.00  0.00    +0.130 A 
ATOM     12  N3  UNL     1       3.774   8.602 -21.049  0.00  0.00    -0.326 N 
ATOM     13  C9  UNL     1       4.500   9.007 -19.845  0.00  0.00    +0.034 C 
ATOM     14  C10 UNL     1       3.929  10.298 -19.246  0.00  0.00    +0.060 C 
ATOM     15  O1  UNL     1       4.744  10.767 -18.172  0.00  0.00    -0.393 OA
ATOM     16  C11 UNL     1       1.776   7.557 -21.954  0.00  0.00    +0.040 A 
ATOM     17  C12 UNL     1       2.071   7.898 -23.299  0.00  0.00    -0.049 A 
ATOM     18  C13 UNL     1       1.225   7.514 -24.337  0.00  0.00    -0.061 A 
ATOM     19  C14 UNL     1       0.077   6.791 -24.045  0.00  0.00    -0.060 A 
ATOM     20  C15 UNL     1      -0.217   6.463 -22.719  0.00  0.00    -0.036 A 
ATOM     21  C16 UNL     1       0.611   6.837 -21.668  0.00  0.00    +0.077 A 
ATOM     22  N4  UNL     1       0.266   6.491 -20.425  0.00  0.00    -0.227 NA
ATOM     23  H   UNL     1       1.982   6.143 -14.170  0.00  0.00    +0.000 HD
ATOM     24  H   UNL     1       0.516   5.348 -13.816  0.00  0.00    +0.000 HD
ATOM     25  H   UNL     1       4.108   8.808 -21.951  0.00  0.00    +0.000 HD
ATOM     26  H   UNL     1       4.774  10.096 -17.472  0.00  0.00    +0.000 HD
ENDROOT
TORSDOF 0
ENDMDL
