MODEL 1
REMARK VINA RESULT:    -5.151      0.000      0.000
REMARK INTER + INTRA:          -5.151
REMARK INTER:                  -5.151
REMARK INTRA:                   0.000
REMARK UNBOUND:                 0.000
REMARK  Name = /home/vital/Documents/PhD_2021/Malaria_codes/scripts/../data/pdbqt_ligands/ligand_424_temp.pdb
REMARK                            x       y       z     vdW  Elec       q    Type
REMARK                         _______ _______ _______ _____ _____    ______ ____
ROOT
ATOM      1  C1  UNL     1       1.418   9.208 -34.139  0.00  0.00    +0.037 C 
ATOM      2  O1  UNL     1       0.419   8.629 -33.310  0.00  0.00    -0.381 OA
ATOM      3  C2  UNL     1       0.277   7.229 -33.563  0.00  0.00    +0.063 C 
ATOM      4  C3  UNL     1      -0.766   6.654 -32.604  0.00  0.00    +0.035 C 
ATOM      5  N1  UNL     1      -1.125   5.286 -32.912  0.00  0.00    -0.309 N 
ATOM      6  C4  UNL     1      -0.293   4.222 -32.644  0.00  0.00    +0.250 C 
ATOM      7  O2  UNL     1       0.815   4.366 -32.130  0.00  0.00    -0.270 OA
ATOM      8  C5  UNL     1      -0.820   2.920 -33.034  0.00  0.00    +0.103 A 
ATOM      9  C6  UNL     1      -0.187   1.697 -32.829  0.00  0.00    +0.112 A 
ATOM     10  N2  UNL     1       1.001   1.438 -32.246  0.00  0.00    -0.344 N 
ATOM     11  N3  UNL     1      -0.993   0.700 -33.332  0.00  0.00    -0.312 N 
ATOM     12  C7  UNL     1      -0.732  -0.728 -33.313  0.00  0.00    +0.030 C 
ATOM     13  C8  UNL     1      -0.001  -1.185 -34.574  0.00  0.00    -0.009 C 
ATOM     14  C9  UNL     1       0.250  -2.672 -34.562  0.00  0.00    -0.042 A 
ATOM     15  C10 UNL     1       1.481  -3.182 -34.139  0.00  0.00    -0.055 A 
ATOM     16  C11 UNL     1       1.702  -4.562 -34.110  0.00  0.00    -0.016 A 
ATOM     17  C12 UNL     1       0.695  -5.451 -34.499  0.00  0.00    +0.161 A 
ATOM     18  O3  UNL     1       0.826  -6.819 -34.500  0.00  0.00    -0.491 OA
ATOM     19  C13 UNL     1       2.072  -7.362 -34.093  0.00  0.00    +0.079 C 
ATOM     20  C14 UNL     1      -0.550  -4.948 -34.922  0.00  0.00    +0.162 A 
ATOM     21  O4  UNL     1      -1.488  -5.883 -35.286  0.00  0.00    -0.491 OA
ATOM     22  C15 UNL     1      -2.754  -5.413 -35.723  0.00  0.00    +0.079 C 
ATOM     23  C16 UNL     1      -0.762  -3.563 -34.950  0.00  0.00    -0.013 A 
ATOM     24  C17 UNL     1      -2.124   1.256 -33.875  0.00  0.00    +0.162 A 
ATOM     25  N4  UNL     1      -3.134   0.599 -34.479  0.00  0.00    -0.226 NA
ATOM     26  C18 UNL     1      -4.107   1.422 -34.905  0.00  0.00    +0.092 A 
ATOM     27  C19 UNL     1      -5.209   0.864 -35.540  0.00  0.00    -0.034 A 
ATOM     28  C20 UNL     1      -6.260   1.653 -36.010  0.00  0.00    -0.060 A 
ATOM     29  C21 UNL     1      -6.209   3.029 -35.842  0.00  0.00    -0.060 A 
ATOM     30  C22 UNL     1      -5.109   3.605 -35.206  0.00  0.00    -0.034 A 
ATOM     31  C23 UNL     1      -4.055   2.834 -34.733  0.00  0.00    +0.090 A 
ATOM     32  N5  UNL     1      -3.029   3.462 -34.131  0.00  0.00    -0.241 NA
ATOM     33  C24 UNL     1      -2.044   2.630 -33.695  0.00  0.00    +0.122 A 
ATOM     34  H   UNL     1      -2.000   5.109 -33.329  0.00  0.00    +0.000 HD
ATOM     35  H   UNL     1       1.550   2.177 -31.897  0.00  0.00    +0.000 HD
ATOM     36  H   UNL     1       1.319   0.509 -32.168  0.00  0.00    +0.000 HD
ENDROOT
TORSDOF 0
ENDMDL
MODEL 2
REMARK VINA RESULT:    -5.046     13.639     15.936
REMARK INTER + INTRA:          -5.046
REMARK INTER:                  -5.046
REMARK INTRA:                   0.000
REMARK UNBOUND:                 0.000
REMARK  Name = /home/vital/Documents/PhD_2021/Malaria_codes/scripts/../data/pdbqt_ligands/ligand_424_temp.pdb
REMARK                            x       y       z     vdW  Elec       q    Type
REMARK                         _______ _______ _______ _____ _____    ______ ____
ROOT
ATOM      1  C1  UNL     1       7.536   2.762 -14.304  0.00  0.00    +0.037 C 
ATOM      2  O1  UNL     1       8.063   1.502 -14.697  0.00  0.00    -0.381 OA
ATOM      3  C2  UNL     1       7.899   1.281 -16.100  0.00  0.00    +0.063 C 
ATOM      4  C3  UNL     1       8.537  -0.058 -16.471  0.00  0.00    +0.035 C 
ATOM      5  N1  UNL     1       8.252  -0.465 -17.830  0.00  0.00    -0.309 N 
ATOM      6  C4  UNL     1       8.853   0.122 -18.921  0.00  0.00    +0.250 C 
ATOM      7  O2  UNL     1       9.668   1.036 -18.811  0.00  0.00    -0.270 OA
ATOM      8  C5  UNL     1       8.433  -0.411 -20.211  0.00  0.00    +0.103 A 
ATOM      9  C6  UNL     1       8.926  -0.013 -21.451  0.00  0.00    +0.112 A 
ATOM     10  N2  UNL     1       9.867   0.910 -21.738  0.00  0.00    -0.344 N 
ATOM     11  N3  UNL     1       8.286  -0.741 -22.429  0.00  0.00    -0.312 N 
ATOM     12  C7  UNL     1       8.507  -0.664 -23.862  0.00  0.00    +0.030 C 
ATOM     13  C8  UNL     1       7.577   0.351 -24.522  0.00  0.00    -0.009 C 
ATOM     14  C9  UNL     1       7.793   0.415 -26.014  0.00  0.00    -0.042 A 
ATOM     15  C10 UNL     1       8.616   1.397 -26.572  0.00  0.00    -0.055 A 
ATOM     16  C11 UNL     1       8.830   1.440 -27.952  0.00  0.00    -0.016 A 
ATOM     17  C12 UNL     1       8.227   0.499 -28.794  0.00  0.00    +0.161 A 
ATOM     18  O3  UNL     1       8.384   0.466 -30.158  0.00  0.00    -0.491 OA
ATOM     19  C13 UNL     1       9.200   1.463 -30.752  0.00  0.00    +0.079 C 
ATOM     20  C14 UNL     1       7.400  -0.497 -28.241  0.00  0.00    +0.162 A 
ATOM     21  O4  UNL     1       6.847  -1.385 -29.131  0.00  0.00    -0.491 OA
ATOM     22  C15 UNL     1       6.003  -2.402 -28.610  0.00  0.00    +0.079 C 
ATOM     23  C16 UNL     1       7.190  -0.531 -26.856  0.00  0.00    -0.013 A 
ATOM     24  C17 UNL     1       7.377  -1.588 -21.848  0.00  0.00    +0.162 A 
ATOM     25  N4  UNL     1       6.549  -2.441 -22.484  0.00  0.00    -0.226 NA
ATOM     26  C18 UNL     1       5.776  -3.142 -21.638  0.00  0.00    +0.092 A 
ATOM     27  C19 UNL     1       4.883  -4.061 -22.172  0.00  0.00    -0.034 A 
ATOM     28  C20 UNL     1       4.046  -4.827 -21.358  0.00  0.00    -0.060 A 
ATOM     29  C21 UNL     1       4.103  -4.671 -19.981  0.00  0.00    -0.060 A 
ATOM     30  C22 UNL     1       4.996  -3.751 -19.429  0.00  0.00    -0.034 A 
ATOM     31  C23 UNL     1       5.834  -2.981 -20.225  0.00  0.00    +0.090 A 
ATOM     32  N5  UNL     1       6.667  -2.116 -19.619  0.00  0.00    -0.241 NA
ATOM     33  C24 UNL     1       7.454  -1.407 -20.474  0.00  0.00    +0.122 A 
ATOM     34  H   UNL     1       7.603  -1.189 -17.981  0.00  0.00    +0.000 HD
ATOM     35  H   UNL     1      10.303   1.412 -21.012  0.00  0.00    +0.000 HD
ATOM     36  H   UNL     1      10.118   1.082 -22.675  0.00  0.00    +0.000 HD
ENDROOT
TORSDOF 0
ENDMDL
MODEL 3
REMARK VINA RESULT:    -5.017     14.372     17.311
REMARK INTER + INTRA:          -5.017
REMARK INTER:                  -5.017
REMARK INTRA:                   0.000
REMARK UNBOUND:                 0.000
REMARK  Name = /home/vital/Documents/PhD_2021/Malaria_codes/scripts/../data/pdbqt_ligands/ligand_424_temp.pdb
REMARK                            x       y       z     vdW  Elec       q    Type
REMARK                         _______ _______ _______ _____ _____    ______ ____
ROOT
ATOM      1  C1  UNL     1      -4.845  -2.046 -25.391  0.00  0.00    +0.037 C 
ATOM      2  O1  UNL     1      -4.218  -3.110 -24.688  0.00  0.00    -0.381 OA
ATOM      3  C2  UNL     1      -3.178  -2.630 -23.833  0.00  0.00    +0.063 C 
ATOM      4  C3  UNL     1      -2.583  -3.810 -23.063  0.00  0.00    +0.035 C 
ATOM      5  N1  UNL     1      -1.393  -3.458 -22.317  0.00  0.00    -0.309 N 
ATOM      6  C4  UNL     1      -1.437  -2.722 -21.155  0.00  0.00    +0.250 C 
ATOM      7  O2  UNL     1      -2.491  -2.309 -20.676  0.00  0.00    -0.270 OA
ATOM      8  C5  UNL     1      -0.137  -2.456 -20.550  0.00  0.00    +0.103 A 
ATOM      9  C6  UNL     1       0.075  -1.773 -19.356  0.00  0.00    +0.112 A 
ATOM     10  N2  UNL     1      -0.826  -1.227 -18.513  0.00  0.00    -0.344 N 
ATOM     11  N3  UNL     1       1.431  -1.723 -19.118  0.00  0.00    -0.312 N 
ATOM     12  C7  UNL     1       2.096  -1.123 -17.975  0.00  0.00    +0.030 C 
ATOM     13  C8  UNL     1       2.457   0.338 -18.236  0.00  0.00    -0.009 C 
ATOM     14  C9  UNL     1       3.167   0.953 -17.055  0.00  0.00    -0.042 A 
ATOM     15  C10 UNL     1       2.461   1.707 -16.114  0.00  0.00    -0.055 A 
ATOM     16  C11 UNL     1       3.118   2.258 -15.011  0.00  0.00    -0.016 A 
ATOM     17  C12 UNL     1       4.491   2.060 -14.831  0.00  0.00    +0.161 A 
ATOM     18  O3  UNL     1       5.216   2.562 -13.778  0.00  0.00    -0.491 OA
ATOM     19  C13 UNL     1       4.526   3.347 -12.818  0.00  0.00    +0.079 C 
ATOM     20  C14 UNL     1       5.212   1.299 -15.771  0.00  0.00    +0.162 A 
ATOM     21  O4  UNL     1       6.554   1.147 -15.525  0.00  0.00    -0.491 OA
ATOM     22  C15 UNL     1       7.315   0.389 -16.454  0.00  0.00    +0.079 C 
ATOM     23  C16 UNL     1       4.544   0.751 -16.875  0.00  0.00    -0.013 A 
ATOM     24  C17 UNL     1       2.099  -2.343 -20.143  0.00  0.00    +0.162 A 
ATOM     25  N4  UNL     1       3.435  -2.475 -20.270  0.00  0.00    -0.226 NA
ATOM     26  C18 UNL     1       3.786  -3.138 -21.385  0.00  0.00    +0.092 A 
ATOM     27  C19 UNL     1       5.137  -3.345 -21.628  0.00  0.00    -0.034 A 
ATOM     28  C20 UNL     1       5.581  -4.024 -22.764  0.00  0.00    -0.060 A 
ATOM     29  C21 UNL     1       4.655  -4.507 -23.676  0.00  0.00    -0.060 A 
ATOM     30  C22 UNL     1       3.293  -4.308 -23.446  0.00  0.00    -0.034 A 
ATOM     31  C23 UNL     1       2.835  -3.633 -22.322  0.00  0.00    +0.090 A 
ATOM     32  N5  UNL     1       1.508  -3.480 -22.170  0.00  0.00    -0.241 NA
ATOM     33  C24 UNL     1       1.149  -2.812 -21.039  0.00  0.00    +0.122 A 
ATOM     34  H   UNL     1      -0.518  -3.757 -22.655  0.00  0.00    +0.000 HD
ATOM     35  H   UNL     1      -1.787  -1.282 -18.717  0.00  0.00    +0.000 HD
ATOM     36  H   UNL     1      -0.522  -0.773 -17.694  0.00  0.00    +0.000 HD
ENDROOT
TORSDOF 0
ENDMDL
MODEL 4
REMARK VINA RESULT:    -4.870      7.210     12.196
REMARK INTER + INTRA:          -4.870
REMARK INTER:                  -4.870
REMARK INTRA:                   0.000
REMARK UNBOUND:                 0.000
REMARK  Name = /home/vital/Documents/PhD_2021/Malaria_codes/scripts/../data/pdbqt_ligands/ligand_424_temp.pdb
REMARK                            x       y       z     vdW  Elec       q    Type
REMARK                         _______ _______ _______ _____ _____    ______ ____
ROOT
ATOM      1  C1  UNL     1      -0.513  -7.938 -33.027  0.00  0.00    +0.037 C 
ATOM      2  O1  UNL     1      -0.529  -7.164 -31.835  0.00  0.00    -0.381 OA
ATOM      3  C2  UNL     1       0.579  -6.263 -31.782  0.00  0.00    +0.063 C 
ATOM      4  C3  UNL     1       0.475  -5.420 -30.511  0.00  0.00    +0.035 C 
ATOM      5  N1  UNL     1       1.652  -4.615 -30.265  0.00  0.00    -0.309 N 
ATOM      6  C4  UNL     1       1.941  -3.482 -30.992  0.00  0.00    +0.250 C 
ATOM      7  O2  UNL     1       1.218  -3.082 -31.902  0.00  0.00    -0.270 OA
ATOM      8  C5  UNL     1       3.176  -2.808 -30.609  0.00  0.00    +0.103 A 
ATOM      9  C6  UNL     1       3.658  -1.626 -31.164  0.00  0.00    +0.112 A 
ATOM     10  N2  UNL     1       3.121  -0.858 -32.134  0.00  0.00    -0.344 N 
ATOM     11  N3  UNL     1       4.846  -1.307 -30.546  0.00  0.00    -0.312 N 
ATOM     12  C7  UNL     1       5.680  -0.145 -30.800  0.00  0.00    +0.030 C 
ATOM     13  C8  UNL     1       6.733  -0.431 -31.868  0.00  0.00    -0.009 C 
ATOM     14  C9  UNL     1       7.613   0.770 -32.115  0.00  0.00    -0.042 A 
ATOM     15  C10 UNL     1       7.344   1.641 -33.175  0.00  0.00    -0.055 A 
ATOM     16  C11 UNL     1       8.148   2.764 -33.388  0.00  0.00    -0.016 A 
ATOM     17  C12 UNL     1       9.230   3.034 -32.543  0.00  0.00    +0.161 A 
ATOM     18  O3  UNL     1      10.070   4.113 -32.678  0.00  0.00    -0.491 OA
ATOM     19  C13 UNL     1       9.831   5.003 -33.757  0.00  0.00    +0.079 C 
ATOM     20  C14 UNL     1       9.506   2.164 -31.470  0.00  0.00    +0.162 A 
ATOM     21  O4  UNL     1      10.583   2.497 -30.684  0.00  0.00    -0.491 OA
ATOM     22  C15 UNL     1      10.894   1.642 -29.595  0.00  0.00    +0.079 C 
ATOM     23  C16 UNL     1       8.695   1.040 -31.265  0.00  0.00    -0.013 A 
ATOM     24  C17 UNL     1       5.151  -2.269 -29.617  0.00  0.00    +0.162 A 
ATOM     25  N4  UNL     1       6.245  -2.310 -28.829  0.00  0.00    -0.226 NA
ATOM     26  C18 UNL     1       6.257  -3.379 -28.015  0.00  0.00    +0.092 A 
ATOM     27  C19 UNL     1       7.331  -3.533 -27.148  0.00  0.00    -0.034 A 
ATOM     28  C20 UNL     1       7.416  -4.617 -26.273  0.00  0.00    -0.060 A 
ATOM     29  C21 UNL     1       6.407  -5.568 -26.263  0.00  0.00    -0.060 A 
ATOM     30  C22 UNL     1       5.321  -5.428 -27.128  0.00  0.00    -0.034 A 
ATOM     31  C23 UNL     1       5.221  -4.356 -28.005  0.00  0.00    +0.090 A 
ATOM     32  N5  UNL     1       4.145  -4.290 -28.809  0.00  0.00    -0.241 NA
ATOM     33  C24 UNL     1       4.127  -3.206 -29.632  0.00  0.00    +0.122 A 
ATOM     34  H   UNL     1       2.271  -4.889 -29.550  0.00  0.00    +0.000 HD
ATOM     35  H   UNL     1       2.269  -1.118 -32.554  0.00  0.00    +0.000 HD
ATOM     36  H   UNL     1       3.581  -0.036 -32.423  0.00  0.00    +0.000 HD
ENDROOT
TORSDOF 0
ENDMDL
MODEL 5
REMARK VINA RESULT:    -4.718     12.634     15.762
REMARK INTER + INTRA:          -4.718
REMARK INTER:                  -4.718
REMARK INTRA:                   0.000
REMARK UNBOUND:                 0.000
REMARK  Name = /home/vital/Documents/PhD_2021/Malaria_codes/scripts/../data/pdbqt_ligands/ligand_424_temp.pdb
REMARK                            x       y       z     vdW  Elec       q    Type
REMARK                         _______ _______ _______ _____ _____    ______ ____
ROOT
ATOM      1  C1  UNL     1       2.427   4.018 -13.751  0.00  0.00    +0.037 C 
ATOM      2  O1  UNL     1       2.634   3.297 -14.958  0.00  0.00    -0.381 OA
ATOM      3  C2  UNL     1       1.629   3.600 -15.928  0.00  0.00    +0.063 C 
ATOM      4  C3  UNL     1       1.938   2.843 -17.220  0.00  0.00    +0.035 C 
ATOM      5  N1  UNL     1       0.874   2.928 -18.196  0.00  0.00    -0.309 N 
ATOM      6  C4  UNL     1       0.627   4.070 -18.926  0.00  0.00    +0.250 C 
ATOM      7  O2  UNL     1       1.293   5.094 -18.791  0.00  0.00    -0.270 OA
ATOM      8  C5  UNL     1      -0.494   3.972 -19.854  0.00  0.00    +0.103 A 
ATOM      9  C6  UNL     1      -0.911   4.973 -20.727  0.00  0.00    +0.112 A 
ATOM     10  N2  UNL     1      -0.400   6.206 -20.918  0.00  0.00    -0.344 N 
ATOM     11  N3  UNL     1      -1.997   4.508 -21.435  0.00  0.00    -0.312 N 
ATOM     12  C7  UNL     1      -2.735   5.215 -22.467  0.00  0.00    +0.030 C 
ATOM     13  C8  UNL     1      -3.910   5.996 -21.884  0.00  0.00    -0.009 C 
ATOM     14  C9  UNL     1      -4.689   6.712 -22.960  0.00  0.00    -0.042 A 
ATOM     15  C10 UNL     1      -4.442   8.059 -23.239  0.00  0.00    -0.055 A 
ATOM     16  C11 UNL     1      -5.151   8.713 -24.250  0.00  0.00    -0.016 A 
ATOM     17  C12 UNL     1      -6.114   8.029 -24.999  0.00  0.00    +0.161 A 
ATOM     18  O3  UNL     1      -6.854   8.592 -26.010  0.00  0.00    -0.491 OA
ATOM     19  C13 UNL     1      -6.637   9.964 -26.301  0.00  0.00    +0.079 C 
ATOM     20  C14 UNL     1      -6.367   6.671 -24.729  0.00  0.00    +0.162 A 
ATOM     21  O4  UNL     1      -7.324   6.067 -25.508  0.00  0.00    -0.491 OA
ATOM     22  C15 UNL     1      -7.609   4.699 -25.262  0.00  0.00    +0.079 C 
ATOM     23  C16 UNL     1      -5.652   6.023 -23.712  0.00  0.00    -0.013 A 
ATOM     24  C17 UNL     1      -2.301   3.236 -21.024  0.00  0.00    +0.162 A 
ATOM     25  N4  UNL     1      -3.311   2.464 -21.472  0.00  0.00    -0.226 NA
ATOM     26  C18 UNL     1      -3.348   1.259 -20.877  0.00  0.00    +0.092 A 
ATOM     27  C19 UNL     1      -4.342   0.368 -21.259  0.00  0.00    -0.034 A 
ATOM     28  C20 UNL     1      -4.445  -0.901 -20.686  0.00  0.00    -0.060 A 
ATOM     29  C21 UNL     1      -3.537  -1.288 -19.713  0.00  0.00    -0.060 A 
ATOM     30  C22 UNL     1      -2.532  -0.403 -19.318  0.00  0.00    -0.034 A 
ATOM     31  C23 UNL     1      -2.415   0.863 -19.877  0.00  0.00    +0.090 A 
ATOM     32  N5  UNL     1      -1.421   1.659 -19.446  0.00  0.00    -0.241 NA
ATOM     33  C24 UNL     1      -1.380   2.878 -20.049  0.00  0.00    +0.122 A 
ATOM     34  H   UNL     1       0.304   2.139 -18.345  0.00  0.00    +0.000 HD
ATOM     35  H   UNL     1       0.378   6.504 -20.392  0.00  0.00    +0.000 HD
ATOM     36  H   UNL     1      -0.804   6.809 -21.583  0.00  0.00    +0.000 HD
ENDROOT
TORSDOF 0
ENDMDL
MODEL 6
REMARK VINA RESULT:    -4.589     13.825     17.439
REMARK INTER + INTRA:          -4.589
REMARK INTER:                  -4.589
REMARK INTRA:                   0.000
REMARK UNBOUND:                 0.000
REMARK  Name = /home/vital/Documents/PhD_2021/Malaria_codes/scripts/../data/pdbqt_ligands/ligand_424_temp.pdb
REMARK                            x       y       z     vdW  Elec       q    Type
REMARK                         _______ _______ _______ _____ _____    ______ ____
ROOT
ATOM      1  C1  UNL     1      -6.058  -1.234 -24.922  0.00  0.00    +0.037 C 
ATOM      2  O1  UNL     1      -5.813  -1.583 -23.567  0.00  0.00    -0.381 OA
ATOM      3  C2  UNL     1      -4.765  -0.790 -23.003  0.00  0.00    +0.063 C 
ATOM      4  C3  UNL     1      -4.589  -1.169 -21.533  0.00  0.00    +0.035 C 
ATOM      5  N1  UNL     1      -3.423  -0.564 -20.926  0.00  0.00    -0.309 N 
ATOM      6  C4  UNL     1      -3.371   0.770 -20.588  0.00  0.00    +0.250 C 
ATOM      7  O2  UNL     1      -4.312   1.536 -20.784  0.00  0.00    -0.270 OA
ATOM      8  C5  UNL     1      -2.109   1.202 -19.998  0.00  0.00    +0.103 A 
ATOM      9  C6  UNL     1      -1.830   2.485 -19.537  0.00  0.00    +0.112 A 
ATOM     10  N2  UNL     1      -2.621   3.578 -19.521  0.00  0.00    -0.344 N 
ATOM     11  N3  UNL     1      -0.541   2.504 -19.054  0.00  0.00    -0.312 N 
ATOM     12  C7  UNL     1       0.155   3.632 -18.459  0.00  0.00    +0.030 C 
ATOM     13  C8  UNL     1       0.924   4.435 -19.506  0.00  0.00    -0.009 C 
ATOM     14  C9  UNL     1       1.663   5.594 -18.884  0.00  0.00    -0.042 A 
ATOM     15  C10 UNL     1       1.105   6.875 -18.883  0.00  0.00    -0.055 A 
ATOM     16  C11 UNL     1       1.783   7.942 -18.287  0.00  0.00    -0.016 A 
ATOM     17  C12 UNL     1       3.027   7.742 -17.680  0.00  0.00    +0.161 A 
ATOM     18  O3  UNL     1       3.760   8.731 -17.070  0.00  0.00    -0.491 OA
ATOM     19  C13 UNL     1       3.226  10.045 -17.073  0.00  0.00    +0.079 C 
ATOM     20  C14 UNL     1       3.596   6.454 -17.671  0.00  0.00    +0.162 A 
ATOM     21  O4  UNL     1       4.817   6.337 -17.053  0.00  0.00    -0.491 OA
ATOM     22  C15 UNL     1       5.424   5.054 -17.028  0.00  0.00    +0.079 C 
ATOM     23  C16 UNL     1       2.908   5.391 -18.272  0.00  0.00    -0.013 A 
ATOM     24  C17 UNL     1       0.024   1.264 -19.211  0.00  0.00    +0.162 A 
ATOM     25  N4  UNL     1       1.279   0.902 -18.875  0.00  0.00    -0.226 NA
ATOM     26  C18 UNL     1       1.538  -0.388 -19.148  0.00  0.00    +0.092 A 
ATOM     27  C19 UNL     1       2.798  -0.885 -18.842  0.00  0.00    -0.034 A 
ATOM     28  C20 UNL     1       3.142  -2.214 -19.097  0.00  0.00    -0.060 A 
ATOM     29  C21 UNL     1       2.208  -3.064 -19.669  0.00  0.00    -0.060 A 
ATOM     30  C22 UNL     1       0.937  -2.579 -19.983  0.00  0.00    -0.034 A 
ATOM     31  C23 UNL     1       0.579  -1.261 -19.737  0.00  0.00    +0.090 A 
ATOM     32  N5  UNL     1      -0.664  -0.867 -20.067  0.00  0.00    -0.241 NA
ATOM     33  C24 UNL     1      -0.930   0.438 -19.787  0.00  0.00    +0.122 A 
ATOM     34  H   UNL     1      -2.635  -1.128 -20.749  0.00  0.00    +0.000 HD
ATOM     35  H   UNL     1      -3.538   3.527 -19.876  0.00  0.00    +0.000 HD
ATOM     36  H   UNL     1      -2.282   4.427 -19.154  0.00  0.00    +0.000 HD
ENDROOT
TORSDOF 0
ENDMDL
MODEL 7
REMARK VINA RESULT:    -4.584     16.868     19.741
REMARK INTER + INTRA:          -4.584
REMARK INTER:                  -4.584
REMARK INTRA:                   0.000
REMARK UNBOUND:                 0.000
REMARK  Name = /home/vital/Documents/PhD_2021/Malaria_codes/scripts/../data/pdbqt_ligands/ligand_424_temp.pdb
REMARK                            x       y       z     vdW  Elec       q    Type
REMARK                         _______ _______ _______ _____ _____    ______ ____
ROOT
ATOM      1  C1  UNL     1      13.456   1.285 -13.148  0.00  0.00    +0.037 C 
ATOM      2  O1  UNL     1      12.507   2.257 -13.566  0.00  0.00    -0.381 OA
ATOM      3  C2  UNL     1      12.517   2.420 -14.986  0.00  0.00    +0.063 C 
ATOM      4  C3  UNL     1      11.439   3.431 -15.379  0.00  0.00    +0.035 C 
ATOM      5  N1  UNL     1      11.500   3.812 -16.773  0.00  0.00    -0.309 N 
ATOM      6  C4  UNL     1      11.087   2.979 -17.789  0.00  0.00    +0.250 C 
ATOM      7  O2  UNL     1      10.644   1.852 -17.576  0.00  0.00    -0.270 OA
ATOM      8  C5  UNL     1      11.234   3.531 -19.130  0.00  0.00    +0.103 A 
ATOM      9  C6  UNL     1      10.850   2.900 -20.311  0.00  0.00    +0.112 A 
ATOM     10  N2  UNL     1      10.274   1.694 -20.485  0.00  0.00    -0.344 N 
ATOM     11  N3  UNL     1      11.151   3.732 -21.366  0.00  0.00    -0.312 N 
ATOM     12  C7  UNL     1      10.902   3.482 -22.775  0.00  0.00    +0.030 C 
ATOM     13  C8  UNL     1      12.093   2.802 -23.446  0.00  0.00    -0.009 C 
ATOM     14  C9  UNL     1      11.841   2.562 -24.914  0.00  0.00    -0.042 A 
ATOM     15  C10 UNL     1      11.382   1.320 -25.363  0.00  0.00    -0.055 A 
ATOM     16  C11 UNL     1      11.130   1.109 -26.721  0.00  0.00    -0.016 A 
ATOM     17  C12 UNL     1      11.329   2.136 -27.649  0.00  0.00    +0.161 A 
ATOM     18  O3  UNL     1      11.105   2.017 -28.999  0.00  0.00    -0.491 OA
ATOM     19  C13 UNL     1      10.657   0.761 -29.485  0.00  0.00    +0.079 C 
ATOM     20  C14 UNL     1      11.787   3.392 -27.206  0.00  0.00    +0.162 A 
ATOM     21  O4  UNL     1      11.955   4.351 -28.176  0.00  0.00    -0.491 OA
ATOM     22  C15 UNL     1      12.420   5.629 -27.767  0.00  0.00    +0.079 C 
ATOM     23  C16 UNL     1      12.038   3.595 -25.842  0.00  0.00    -0.013 A 
ATOM     24  C17 UNL     1      11.738   4.877 -20.893  0.00  0.00    +0.162 A 
ATOM     25  N4  UNL     1      12.188   5.915 -21.628  0.00  0.00    -0.226 NA
ATOM     26  C18 UNL     1      12.711   6.897 -20.874  0.00  0.00    +0.092 A 
ATOM     27  C19 UNL     1      13.205   8.025 -21.515  0.00  0.00    -0.034 A 
ATOM     28  C20 UNL     1      13.763   9.087 -20.801  0.00  0.00    -0.060 A 
ATOM     29  C21 UNL     1      13.830   9.019 -19.417  0.00  0.00    -0.060 A 
ATOM     30  C22 UNL     1      13.338   7.891 -18.758  0.00  0.00    -0.034 A 
ATOM     31  C23 UNL     1      12.780   6.827 -19.454  0.00  0.00    +0.090 A 
ATOM     32  N5  UNL     1      12.328   5.774 -18.749  0.00  0.00    -0.241 NA
ATOM     33  C24 UNL     1      11.795   4.780 -19.510  0.00  0.00    +0.122 A 
ATOM     34  H   UNL     1      11.850   4.703 -17.005  0.00  0.00    +0.000 HD
ATOM     35  H   UNL     1      10.074   1.126 -19.706  0.00  0.00    +0.000 HD
ATOM     36  H   UNL     1      10.053   1.380 -21.392  0.00  0.00    +0.000 HD
ENDROOT
TORSDOF 0
ENDMDL
MODEL 8
REMARK VINA RESULT:    -4.575     12.342     14.798
REMARK INTER + INTRA:          -4.575
REMARK INTER:                  -4.575
REMARK INTRA:                   0.000
REMARK UNBOUND:                 0.000
REMARK  Name = /home/vital/Documents/PhD_2021/Malaria_codes/scripts/../data/pdbqt_ligands/ligand_424_temp.pdb
REMARK                            x       y       z     vdW  Elec       q    Type
REMARK                         _______ _______ _______ _____ _____    ______ ____
ROOT
ATOM      1  C1  UNL     1       4.844  -2.655 -20.188  0.00  0.00    +0.037 C 
ATOM      2  O1  UNL     1       3.850  -2.337 -19.224  0.00  0.00    -0.381 OA
ATOM      3  C2  UNL     1       2.688  -1.771 -19.836  0.00  0.00    +0.063 C 
ATOM      4  C3  UNL     1       1.636  -1.506 -18.759  0.00  0.00    +0.035 C 
ATOM      5  N1  UNL     1       0.501  -0.754 -19.249  0.00  0.00    -0.309 N 
ATOM      6  C4  UNL     1      -0.466  -1.311 -20.055  0.00  0.00    +0.250 C 
ATOM      7  O2  UNL     1      -0.425  -2.485 -20.417  0.00  0.00    -0.270 OA
ATOM      8  C5  UNL     1      -1.528  -0.396 -20.458  0.00  0.00    +0.103 A 
ATOM      9  C6  UNL     1      -2.634  -0.732 -21.233  0.00  0.00    +0.112 A 
ATOM     10  N2  UNL     1      -2.974  -1.925 -21.764  0.00  0.00    -0.344 N 
ATOM     11  N3  UNL     1      -3.407   0.395 -21.402  0.00  0.00    -0.312 N 
ATOM     12  C7  UNL     1      -4.662   0.495 -22.125  0.00  0.00    +0.030 C 
ATOM     13  C8  UNL     1      -4.441   0.872 -23.588  0.00  0.00    -0.009 C 
ATOM     14  C9  UNL     1      -5.748   0.996 -24.333  0.00  0.00    -0.042 A 
ATOM     15  C10 UNL     1      -6.238  -0.070 -25.091  0.00  0.00    -0.055 A 
ATOM     16  C11 UNL     1      -7.458   0.041 -25.763  0.00  0.00    -0.016 A 
ATOM     17  C12 UNL     1      -8.208   1.219 -25.682  0.00  0.00    +0.161 A 
ATOM     18  O3  UNL     1      -9.416   1.414 -26.306  0.00  0.00    -0.491 OA
ATOM     19  C13 UNL     1      -9.928   0.354 -27.099  0.00  0.00    +0.079 C 
ATOM     20  C14 UNL     1      -7.725   2.298 -24.917  0.00  0.00    +0.162 A 
ATOM     21  O4  UNL     1      -8.518   3.419 -24.884  0.00  0.00    -0.491 OA
ATOM     22  C15 UNL     1      -8.062   4.529 -24.126  0.00  0.00    +0.079 C 
ATOM     23  C16 UNL     1      -6.499   2.177 -24.248  0.00  0.00    -0.013 A 
ATOM     24  C17 UNL     1      -2.812   1.456 -20.768  0.00  0.00    +0.162 A 
ATOM     25  N4  UNL     1      -3.262   2.727 -20.729  0.00  0.00    -0.226 NA
ATOM     26  C18 UNL     1      -2.459   3.540 -20.022  0.00  0.00    +0.092 A 
ATOM     27  C19 UNL     1      -2.818   4.876 -19.903  0.00  0.00    -0.034 A 
ATOM     28  C20 UNL     1      -2.036   5.783 -19.185  0.00  0.00    -0.060 A 
ATOM     29  C21 UNL     1      -0.870   5.345 -18.574  0.00  0.00    -0.060 A 
ATOM     30  C22 UNL     1      -0.496   4.005 -18.684  0.00  0.00    -0.034 A 
ATOM     31  C23 UNL     1      -1.263   3.091 -19.395  0.00  0.00    +0.090 A 
ATOM     32  N5  UNL     1      -0.837   1.817 -19.457  0.00  0.00    -0.241 NA
ATOM     33  C24 UNL     1      -1.650   0.990 -20.170  0.00  0.00    +0.122 A 
ATOM     34  H   UNL     1       0.417   0.194 -18.995  0.00  0.00    +0.000 HD
ATOM     35  H   UNL     1      -2.396  -2.709 -21.623  0.00  0.00    +0.000 HD
ATOM     36  H   UNL     1      -3.800  -2.011 -22.293  0.00  0.00    +0.000 HD
ENDROOT
TORSDOF 0
ENDMDL
MODEL 9
REMARK VINA RESULT:    -4.564     15.414     17.068
REMARK INTER + INTRA:          -4.564
REMARK INTER:                  -4.564
REMARK INTRA:                   0.000
REMARK UNBOUND:                 0.000
REMARK  Name = /home/vital/Documents/PhD_2021/Malaria_codes/scripts/../data/pdbqt_ligands/ligand_424_temp.pdb
REMARK                            x       y       z     vdW  Elec       q    Type
REMARK                         _______ _______ _______ _____ _____    ______ ____
ROOT
ATOM      1  C1  UNL     1      11.416   6.619 -16.172  0.00  0.00    +0.037 C 
ATOM      2  O1  UNL     1      10.917   5.496 -15.460  0.00  0.00    -0.381 OA
ATOM      3  C2  UNL     1      10.216   4.598 -16.323  0.00  0.00    +0.063 C 
ATOM      4  C3  UNL     1       9.756   3.385 -15.513  0.00  0.00    +0.035 C 
ATOM      5  N1  UNL     1       8.869   2.513 -16.252  0.00  0.00    -0.309 N 
ATOM      6  C4  UNL     1       9.313   1.676 -17.251  0.00  0.00    +0.250 C 
ATOM      7  O2  UNL     1      10.495   1.620 -17.585  0.00  0.00    -0.270 OA
ATOM      8  C5  UNL     1       8.272   0.881 -17.891  0.00  0.00    +0.103 A 
ATOM      9  C6  UNL     1       8.476  -0.064 -18.893  0.00  0.00    +0.112 A 
ATOM     10  N2  UNL     1       9.628  -0.453 -19.477  0.00  0.00    -0.344 N 
ATOM     11  N3  UNL     1       7.257  -0.601 -19.240  0.00  0.00    -0.312 N 
ATOM     12  C7  UNL     1       7.006  -1.636 -20.228  0.00  0.00    +0.030 C 
ATOM     13  C8  UNL     1       6.727  -1.041 -21.607  0.00  0.00    -0.009 C 
ATOM     14  C9  UNL     1       6.446  -2.116 -22.628  0.00  0.00    -0.042 A 
ATOM     15  C10 UNL     1       7.461  -2.581 -23.469  0.00  0.00    -0.055 A 
ATOM     16  C11 UNL     1       7.202  -3.591 -24.399  0.00  0.00    -0.016 A 
ATOM     17  C12 UNL     1       5.925  -4.154 -24.499  0.00  0.00    +0.161 A 
ATOM     18  O3  UNL     1       5.584  -5.150 -25.381  0.00  0.00    -0.491 OA
ATOM     19  C13 UNL     1       6.591  -5.626 -26.260  0.00  0.00    +0.079 C 
ATOM     20  C14 UNL     1       4.897  -3.696 -23.653  0.00  0.00    +0.162 A 
ATOM     21  O4  UNL     1       3.672  -4.299 -23.810  0.00  0.00    -0.491 OA
ATOM     22  C15 UNL     1       2.610  -3.860 -22.977  0.00  0.00    +0.079 C 
ATOM     23  C16 UNL     1       5.166  -2.682 -22.725  0.00  0.00    -0.013 A 
ATOM     24  C17 UNL     1       6.267  -0.010 -18.497  0.00  0.00    +0.162 A 
ATOM     25  N4  UNL     1       4.944  -0.260 -18.571  0.00  0.00    -0.226 NA
ATOM     26  C18 UNL     1       4.227   0.479 -17.707  0.00  0.00    +0.092 A 
ATOM     27  C19 UNL     1       2.850   0.308 -17.683  0.00  0.00    -0.034 A 
ATOM     28  C20 UNL     1       2.037   1.038 -16.814  0.00  0.00    -0.060 A 
ATOM     29  C21 UNL     1       2.613   1.959 -15.953  0.00  0.00    -0.060 A 
ATOM     30  C22 UNL     1       3.996   2.143 -15.965  0.00  0.00    -0.034 A 
ATOM     31  C23 UNL     1       4.819   1.425 -16.823  0.00  0.00    +0.090 A 
ATOM     32  N5  UNL     1       6.143   1.657 -16.777  0.00  0.00    -0.241 NA
ATOM     33  C24 UNL     1       6.872   0.907 -17.648  0.00  0.00    +0.122 A 
ATOM     34  H   UNL     1       7.909   2.518 -16.031  0.00  0.00    +0.000 HD
ATOM     35  H   UNL     1      10.481  -0.046 -19.202  0.00  0.00    +0.000 HD
ATOM     36  H   UNL     1       9.616  -1.145 -20.177  0.00  0.00    +0.000 HD
ENDROOT
TORSDOF 0
ENDMDL
