MODEL 1
REMARK VINA RESULT:    -5.917      0.000      0.000
REMARK INTER + INTRA:          -5.917
REMARK INTER:                  -5.917
REMARK INTRA:                   0.000
REMARK UNBOUND:                 0.000
REMARK  Name = /home/vital/Documents/PhD_2021/Malaria_codes/scripts/../data/pdbqt_ligands/ligand_391_temp.pdb
REMARK                            x       y       z     vdW  Elec       q    Type
REMARK                         _______ _______ _______ _____ _____    ______ ____
ROOT
ATOM      1  O   UNL     1      -3.106   5.880 -17.243  0.00  0.00    -0.393 OA
ATOM      2  C   UNL     1      -2.720   4.836 -18.136  0.00  0.00    +0.060 C 
ATOM      3  C   UNL     1      -1.278   5.007 -18.632  0.00  0.00    +0.041 C 
ATOM      4  N   UNL     1      -0.301   4.556 -17.619  0.00  0.00    -0.291 N 
ATOM      5  C   UNL     1      -0.210   5.289 -16.427  0.00  0.00    +0.090 C 
ATOM      6  N   UNL     1       0.609   4.911 -15.514  0.00  0.00    -0.221 NA
ATOM      7  C   UNL     1       1.590   5.688 -14.982  0.00  0.00    +0.155 C 
ATOM      8  N   UNL     1       2.033   6.869 -15.305  0.00  0.00    -0.228 N 
ATOM      9  C   UNL     1       1.616   7.524 -16.433  0.00  0.00    +0.072 C 
ATOM     10  C   UNL     1       1.794   6.983 -17.610  0.00  0.00    -0.100 C 
ATOM     11  C   UNL     1       1.909   6.289 -18.712  0.00  0.00    -0.016 C 
ATOM     12  C   UNL     1       1.914   4.833 -18.656  0.00  0.00    -0.035 C 
ATOM     13  C   UNL     1       0.956   4.040 -18.102  0.00  0.00    +0.034 C 
ATOM     14  C   UNL     1       1.292   2.585 -17.666  0.00  0.00    +0.090 C 
ATOM     15 CL   UNL     1       2.397   1.724 -18.769  0.00  0.00    -0.111 Cl
ATOM     16  C   UNL     1       1.814   2.548 -16.237  0.00  0.00    -0.061 C 
ATOM     17  C   UNL     1       2.915   3.186 -15.787  0.00  0.00    -0.064 C 
ATOM     18  C   UNL     1       2.996   3.712 -14.428  0.00  0.00    -0.058 C 
ATOM     19  C   UNL     1       2.379   4.849 -14.022  0.00  0.00    -0.017 C 
ATOM     20  H   UNL     1      -4.020   5.736 -16.953  0.00  0.00    +0.000 HD
ATOM     21  H   UNL     1       2.690   7.307 -14.718  0.00  0.00    +0.000 HD
ENDROOT
TORSDOF 0
ENDMDL
MODEL 2
REMARK VINA RESULT:    -5.909     17.661     19.598
REMARK INTER + INTRA:          -5.909
REMARK INTER:                  -5.909
REMARK INTRA:                   0.000
REMARK UNBOUND:                 0.000
REMARK  Name = /home/vital/Documents/PhD_2021/Malaria_codes/scripts/../data/pdbqt_ligands/ligand_391_temp.pdb
REMARK                            x       y       z     vdW  Elec       q    Type
REMARK                         _______ _______ _______ _____ _____    ______ ____
ROOT
ATOM      1  O   UNL     1      -0.280  -6.279 -29.139  0.00  0.00    -0.393 OA
ATOM      2  C   UNL     1       0.914  -5.501 -29.065  0.00  0.00    +0.060 C 
ATOM      3  C   UNL     1       1.901  -5.854 -30.185  0.00  0.00    +0.041 C 
ATOM      4  N   UNL     1       1.519  -5.218 -31.463  0.00  0.00    -0.291 N 
ATOM      5  C   UNL     1       0.331  -5.645 -32.076  0.00  0.00    +0.090 C 
ATOM      6  N   UNL     1      -0.046  -5.095 -33.172  0.00  0.00    -0.221 NA
ATOM      7  C   UNL     1      -0.298  -5.766 -34.329  0.00  0.00    +0.155 C 
ATOM      8  N   UNL     1      -0.116  -7.009 -34.668  0.00  0.00    -0.228 N 
ATOM      9  C   UNL     1       0.549  -7.897 -33.865  0.00  0.00    +0.072 C 
ATOM     10  C   UNL     1       1.787  -7.666 -33.516  0.00  0.00    -0.100 C 
ATOM     11  C   UNL     1       2.970  -7.266 -33.130  0.00  0.00    -0.016 C 
ATOM     12  C   UNL     1       3.272  -5.842 -33.073  0.00  0.00    -0.035 C 
ATOM     13  C   UNL     1       2.583  -4.894 -32.381  0.00  0.00    +0.034 C 
ATOM     14  C   UNL     1       2.685  -3.395 -32.782  0.00  0.00    +0.090 C 
ATOM     15 CL   UNL     1       4.316  -2.879 -33.287  0.00  0.00    -0.111 Cl
ATOM     16  C   UNL     1       1.651  -3.037 -33.838  0.00  0.00    -0.061 C 
ATOM     17  C   UNL     1       1.553  -3.598 -35.062  0.00  0.00    -0.064 C 
ATOM     18  C   UNL     1       0.264  -3.783 -35.721  0.00  0.00    -0.058 C 
ATOM     19  C   UNL     1      -0.619  -4.757 -35.391  0.00  0.00    -0.017 C 
ATOM     20  H   UNL     1      -0.875  -6.026 -28.416  0.00  0.00    +0.000 HD
ATOM     21  H   UNL     1      -0.469  -7.322 -35.532  0.00  0.00    +0.000 HD
ENDROOT
TORSDOF 0
ENDMDL
MODEL 3
REMARK VINA RESULT:    -5.853      8.623     10.783
REMARK INTER + INTRA:          -5.853
REMARK INTER:                  -5.853
REMARK INTRA:                   0.000
REMARK UNBOUND:                 0.000
REMARK  Name = /home/vital/Documents/PhD_2021/Malaria_codes/scripts/../data/pdbqt_ligands/ligand_391_temp.pdb
REMARK                            x       y       z     vdW  Elec       q    Type
REMARK                         _______ _______ _______ _____ _____    ______ ____
ROOT
ATOM      1  O   UNL     1      -3.228   1.624 -25.080  0.00  0.00    -0.393 OA
ATOM      2  C   UNL     1      -3.234   1.964 -23.694  0.00  0.00    +0.060 C 
ATOM      3  C   UNL     1      -4.242   1.122 -22.900  0.00  0.00    +0.041 C 
ATOM      4  N   UNL     1      -3.710  -0.225 -22.607  0.00  0.00    -0.291 N 
ATOM      5  C   UNL     1      -3.504  -1.095 -23.688  0.00  0.00    +0.090 C 
ATOM      6  N   UNL     1      -3.017  -2.263 -23.474  0.00  0.00    -0.221 NA
ATOM      7  C   UNL     1      -3.611  -3.429 -23.846  0.00  0.00    +0.155 C 
ATOM      8  N   UNL     1      -4.784  -3.685 -24.347  0.00  0.00    -0.228 N 
ATOM      9  C   UNL     1      -5.752  -2.724 -24.471  0.00  0.00    +0.072 C 
ATOM     10  C   UNL     1      -6.189  -2.093 -23.413  0.00  0.00    -0.100 C 
ATOM     11  C   UNL     1      -6.450  -1.443 -22.308  0.00  0.00    -0.016 C 
ATOM     12  C   UNL     1      -5.439  -1.350 -21.265  0.00  0.00    -0.035 C 
ATOM     13  C   UNL     1      -4.173  -0.867 -21.402  0.00  0.00    +0.034 C 
ATOM     14  C   UNL     1      -3.062  -1.267 -20.390  0.00  0.00    +0.090 C 
ATOM     15 CL   UNL     1      -3.614  -1.378 -18.698  0.00  0.00    -0.111 Cl
ATOM     16  C   UNL     1      -2.365  -2.550 -20.819  0.00  0.00    -0.061 C 
ATOM     17  C   UNL     1      -2.964  -3.748 -20.992  0.00  0.00    -0.064 C 
ATOM     18  C   UNL     1      -2.510  -4.693 -22.008  0.00  0.00    -0.058 C 
ATOM     19  C   UNL     1      -2.773  -4.562 -23.331  0.00  0.00    -0.017 C 
ATOM     20  H   UNL     1      -2.580   2.175 -25.545  0.00  0.00    +0.000 HD
ATOM     21  H   UNL     1      -4.983  -4.601 -24.649  0.00  0.00    +0.000 HD
ENDROOT
TORSDOF 0
ENDMDL
MODEL 4
REMARK VINA RESULT:    -5.763     17.931     19.556
REMARK INTER + INTRA:          -5.763
REMARK INTER:                  -5.763
REMARK INTRA:                   0.000
REMARK UNBOUND:                 0.000
REMARK  Name = /home/vital/Documents/PhD_2021/Malaria_codes/scripts/../data/pdbqt_ligands/ligand_391_temp.pdb
REMARK                            x       y       z     vdW  Elec       q    Type
REMARK                         _______ _______ _______ _____ _____    ______ ____
ROOT
ATOM      1  O   UNL     1       0.471  -2.444 -34.809  0.00  0.00    -0.393 OA
ATOM      2  C   UNL     1       0.181  -3.551 -35.661  0.00  0.00    +0.060 C 
ATOM      3  C   UNL     1       1.043  -4.775 -35.327  0.00  0.00    +0.041 C 
ATOM      4  N   UNL     1       0.524  -5.497 -34.147  0.00  0.00    -0.291 N 
ATOM      5  C   UNL     1       0.581  -4.846 -32.906  0.00  0.00    +0.090 C 
ATOM      6  N   UNL     1       0.114  -5.432 -31.864  0.00  0.00    -0.221 NA
ATOM      7  C   UNL     1       0.822  -5.672 -30.728  0.00  0.00    +0.155 C 
ATOM      8  N   UNL     1       2.084  -5.523 -30.443  0.00  0.00    -0.228 N 
ATOM      9  C   UNL     1       3.012  -5.183 -31.390  0.00  0.00    +0.072 C 
ATOM     10  C   UNL     1       3.196  -5.950 -32.433  0.00  0.00    -0.100 C 
ATOM     11  C   UNL     1       3.198  -6.721 -33.489  0.00  0.00    -0.016 C 
ATOM     12  C   UNL     1       1.993  -7.450 -33.858  0.00  0.00    -0.035 C 
ATOM     13  C   UNL     1       0.761  -6.919 -34.089  0.00  0.00    +0.034 C 
ATOM     14  C   UNL     1      -0.513  -7.804 -33.982  0.00  0.00    +0.090 C 
ATOM     15 CL   UNL     1      -0.311  -9.461 -34.609  0.00  0.00    -0.111 Cl
ATOM     16  C   UNL     1      -1.050  -7.824 -32.559  0.00  0.00    -0.061 C 
ATOM     17  C   UNL     1      -0.375  -8.256 -31.472  0.00  0.00    -0.064 C 
ATOM     18  C   UNL     1      -0.570  -7.652 -30.157  0.00  0.00    -0.058 C 
ATOM     19  C   UNL     1      -0.051  -6.455 -29.793  0.00  0.00    -0.017 C 
ATOM     20  H   UNL     1      -0.093  -1.693 -35.051  0.00  0.00    +0.000 HD
ATOM     21  H   UNL     1       2.380  -5.657 -29.514  0.00  0.00    +0.000 HD
ENDROOT
TORSDOF 0
ENDMDL
MODEL 5
REMARK VINA RESULT:    -5.746      2.631      4.083
REMARK INTER + INTRA:          -5.746
REMARK INTER:                  -5.746
REMARK INTRA:                   0.000
REMARK UNBOUND:                 0.000
REMARK  Name = /home/vital/Documents/PhD_2021/Malaria_codes/scripts/../data/pdbqt_ligands/ligand_391_temp.pdb
REMARK                            x       y       z     vdW  Elec       q    Type
REMARK                         _______ _______ _______ _____ _____    ______ ____
ROOT
ATOM      1  O   UNL     1       2.171   1.254 -17.633  0.00  0.00    -0.393 OA
ATOM      2  C   UNL     1       1.346   1.600 -18.745  0.00  0.00    +0.060 C 
ATOM      3  C   UNL     1       0.281   2.638 -18.369  0.00  0.00    +0.041 C 
ATOM      4  N   UNL     1       0.848   4.001 -18.315  0.00  0.00    -0.291 N 
ATOM      5  C   UNL     1       1.786   4.279 -17.311  0.00  0.00    +0.090 C 
ATOM      6  N   UNL     1       2.320   5.444 -17.250  0.00  0.00    -0.221 NA
ATOM      7  C   UNL     1       2.290   6.255 -16.158  0.00  0.00    +0.155 C 
ATOM      8  N   UNL     1       1.659   6.160 -15.024  0.00  0.00    -0.228 N 
ATOM      9  C   UNL     1       0.729   5.184 -14.783  0.00  0.00    +0.072 C 
ATOM     10  C   UNL     1      -0.332   5.089 -15.540  0.00  0.00    -0.100 C 
ATOM     11  C   UNL     1      -1.281   5.012 -16.437  0.00  0.00    -0.016 C 
ATOM     12  C   UNL     1      -1.039   5.491 -17.791  0.00  0.00    -0.035 C 
ATOM     13  C   UNL     1      -0.039   5.095 -18.625  0.00  0.00    +0.034 C 
ATOM     14  C   UNL     1       0.408   6.002 -19.807  0.00  0.00    +0.090 C 
ATOM     15 CL   UNL     1      -0.929   6.848 -20.630  0.00  0.00    -0.111 Cl
ATOM     16  C   UNL     1       1.484   6.984 -19.369  0.00  0.00    -0.061 C 
ATOM     17  C   UNL     1       1.349   7.915 -18.400  0.00  0.00    -0.064 C 
ATOM     18  C   UNL     1       2.470   8.308 -17.552  0.00  0.00    -0.058 C 
ATOM     19  C   UNL     1       2.940   7.556 -16.527  0.00  0.00    -0.017 C 
ATOM     20  H   UNL     1       2.830   0.599 -17.911  0.00  0.00    +0.000 HD
ATOM     21  H   UNL     1       1.859   6.812 -14.313  0.00  0.00    +0.000 HD
ENDROOT
TORSDOF 0
ENDMDL
MODEL 6
REMARK VINA RESULT:    -5.641     17.395     19.256
REMARK INTER + INTRA:          -5.641
REMARK INTER:                  -5.641
REMARK INTRA:                   0.000
REMARK UNBOUND:                 0.000
REMARK  Name = /home/vital/Documents/PhD_2021/Malaria_codes/scripts/../data/pdbqt_ligands/ligand_391_temp.pdb
REMARK                            x       y       z     vdW  Elec       q    Type
REMARK                         _______ _______ _______ _____ _____    ______ ____
ROOT
ATOM      1  O   UNL     1       5.607  -4.896 -33.481  0.00  0.00    -0.393 OA
ATOM      2  C   UNL     1       5.265  -4.288 -32.237  0.00  0.00    +0.060 C 
ATOM      3  C   UNL     1       3.787  -3.880 -32.183  0.00  0.00    +0.041 C 
ATOM      4  N   UNL     1       2.915  -5.039 -31.902  0.00  0.00    -0.291 N 
ATOM      5  C   UNL     1       2.828  -6.043 -32.878  0.00  0.00    +0.090 C 
ATOM      6  N   UNL     1       2.102  -7.078 -32.656  0.00  0.00    -0.221 NA
ATOM      7  C   UNL     1       1.088  -7.499 -33.459  0.00  0.00    +0.155 C 
ATOM      8  N   UNL     1       0.524  -6.959 -34.500  0.00  0.00    -0.228 N 
ATOM      9  C   UNL     1       0.814  -5.686 -34.912  0.00  0.00    +0.072 C 
ATOM     10  C   UNL     1       0.616  -4.675 -34.107  0.00  0.00    -0.100 C 
ATOM     11  C   UNL     1       0.499  -3.765 -33.175  0.00  0.00    -0.016 C 
ATOM     12  C   UNL     1       0.628  -4.141 -31.774  0.00  0.00    -0.035 C 
ATOM     13  C   UNL     1       1.683  -4.780 -31.199  0.00  0.00    +0.034 C 
ATOM     14  C   UNL     1       1.504  -5.552 -29.860  0.00  0.00    +0.090 C 
ATOM     15 CL   UNL     1       0.418  -4.754 -28.692  0.00  0.00    -0.111 Cl
ATOM     16  C   UNL     1       1.073  -6.989 -30.108  0.00  0.00    -0.061 C 
ATOM     17  C   UNL     1      -0.053  -7.371 -30.748  0.00  0.00    -0.064 C 
ATOM     18  C   UNL     1      -0.100  -8.583 -31.561  0.00  0.00    -0.058 C 
ATOM     19  C   UNL     1       0.435  -8.679 -32.803  0.00  0.00    -0.017 C 
ATOM     20  H   UNL     1       6.547  -5.139 -33.475  0.00  0.00    +0.000 HD
ATOM     21  H   UNL     1      -0.135  -7.484 -35.010  0.00  0.00    +0.000 HD
ENDROOT
TORSDOF 0
ENDMDL
MODEL 7
REMARK VINA RESULT:    -5.580      2.901      5.099
REMARK INTER + INTRA:          -5.580
REMARK INTER:                  -5.580
REMARK INTRA:                   0.000
REMARK UNBOUND:                 0.000
REMARK  Name = /home/vital/Documents/PhD_2021/Malaria_codes/scripts/../data/pdbqt_ligands/ligand_391_temp.pdb
REMARK                            x       y       z     vdW  Elec       q    Type
REMARK                         _______ _______ _______ _____ _____    ______ ____
ROOT
ATOM      1  O   UNL     1       2.807   2.776 -12.380  0.00  0.00    -0.393 OA
ATOM      2  C   UNL     1       3.726   3.851 -12.564  0.00  0.00    +0.060 C 
ATOM      3  C   UNL     1       4.174   3.981 -14.025  0.00  0.00    +0.041 C 
ATOM      4  N   UNL     1       3.152   4.663 -14.846  0.00  0.00    -0.291 N 
ATOM      5  C   UNL     1       1.932   4.003 -15.050  0.00  0.00    +0.090 C 
ATOM      6  N   UNL     1       1.010   4.576 -15.735  0.00  0.00    -0.221 NA
ATOM      7  C   UNL     1       0.422   4.046 -16.841  0.00  0.00    +0.155 C 
ATOM      8  N   UNL     1       0.688   2.979 -17.538  0.00  0.00    -0.228 N 
ATOM      9  C   UNL     1       1.803   2.216 -17.312  0.00  0.00    +0.072 C 
ATOM     10  C   UNL     1       2.993   2.747 -17.412  0.00  0.00    -0.100 C 
ATOM     11  C   UNL     1       4.116   3.416 -17.414  0.00  0.00    -0.016 C 
ATOM     12  C   UNL     1       4.114   4.839 -17.104  0.00  0.00    -0.035 C 
ATOM     13  C   UNL     1       3.618   5.424 -15.979  0.00  0.00    +0.034 C 
ATOM     14  C   UNL     1       3.227   6.929 -15.979  0.00  0.00    +0.090 C 
ATOM     15 CL   UNL     1       4.329   7.975 -16.912  0.00  0.00    -0.111 Cl
ATOM     16  C   UNL     1       1.786   7.121 -16.429  0.00  0.00    -0.061 C 
ATOM     17  C   UNL     1       1.282   6.750 -17.625  0.00  0.00    -0.064 C 
ATOM     18  C   UNL     1      -0.098   6.294 -17.768  0.00  0.00    -0.058 C 
ATOM     19  C   UNL     1      -0.528   5.064 -17.396  0.00  0.00    -0.017 C 
ATOM     20  H   UNL     1       2.548   2.727 -11.446  0.00  0.00    +0.000 HD
ATOM     21  H   UNL     1       0.066   2.712 -18.253  0.00  0.00    +0.000 HD
ENDROOT
TORSDOF 0
ENDMDL
MODEL 8
REMARK VINA RESULT:    -5.522      2.809      4.478
REMARK INTER + INTRA:          -5.522
REMARK INTER:                  -5.522
REMARK INTRA:                   0.000
REMARK UNBOUND:                 0.000
REMARK  Name = /home/vital/Documents/PhD_2021/Malaria_codes/scripts/../data/pdbqt_ligands/ligand_391_temp.pdb
REMARK                            x       y       z     vdW  Elec       q    Type
REMARK                         _______ _______ _______ _____ _____    ______ ____
ROOT
ATOM      1  O   UNL     1       4.003   1.800 -17.891  0.00  0.00    -0.393 OA
ATOM      2  C   UNL     1       2.590   1.734 -18.079  0.00  0.00    +0.060 C 
ATOM      3  C   UNL     1       1.830   2.519 -17.002  0.00  0.00    +0.041 C 
ATOM      4  N   UNL     1       1.839   3.970 -17.281  0.00  0.00    -0.291 N 
ATOM      5  C   UNL     1       3.069   4.641 -17.212  0.00  0.00    +0.090 C 
ATOM      6  N   UNL     1       3.120   5.895 -17.475  0.00  0.00    -0.221 NA
ATOM      7  C   UNL     1       3.606   6.846 -16.632  0.00  0.00    +0.155 C 
ATOM      8  N   UNL     1       3.991   6.789 -15.390  0.00  0.00    -0.228 N 
ATOM      9  C   UNL     1       3.827   5.666 -14.624  0.00  0.00    +0.072 C 
ATOM     10  C   UNL     1       2.631   5.180 -14.420  0.00  0.00    -0.100 C 
ATOM     11  C   UNL     1       1.408   4.717 -14.394  0.00  0.00    -0.016 C 
ATOM     12  C   UNL     1       0.500   5.005 -15.495  0.00  0.00    -0.035 C 
ATOM     13  C   UNL     1       0.712   4.738 -16.813  0.00  0.00    +0.034 C 
ATOM     14  C   UNL     1      -0.069   5.514 -17.911  0.00  0.00    +0.090 C 
ATOM     15 CL   UNL     1      -1.774   5.845 -17.505  0.00  0.00    -0.111 Cl
ATOM     16  C   UNL     1       0.655   6.794 -18.298  0.00  0.00    -0.061 C 
ATOM     17  C   UNL     1       0.952   7.812 -17.461  0.00  0.00    -0.064 C 
ATOM     18  C   UNL     1       2.162   8.611 -17.624  0.00  0.00    -0.058 C 
ATOM     19  C   UNL     1       3.400   8.186 -17.273  0.00  0.00    -0.017 C 
ATOM     20  H   UNL     1       4.446   1.294 -18.590  0.00  0.00    +0.000 HD
ATOM     21  H   UNL     1       4.417   7.580 -14.988  0.00  0.00    +0.000 HD
ENDROOT
TORSDOF 0
ENDMDL
MODEL 9
REMARK VINA RESULT:    -5.488     17.631     19.312
REMARK INTER + INTRA:          -5.488
REMARK INTER:                  -5.488
REMARK INTRA:                   0.000
REMARK UNBOUND:                 0.000
REMARK  Name = /home/vital/Documents/PhD_2021/Malaria_codes/scripts/../data/pdbqt_ligands/ligand_391_temp.pdb
REMARK                            x       y       z     vdW  Elec       q    Type
REMARK                         _______ _______ _______ _____ _____    ______ ____
ROOT
ATOM      1  O   UNL     1       0.763  -9.768 -32.486  0.00  0.00    -0.393 OA
ATOM      2  C   UNL     1      -0.153  -9.154 -33.391  0.00  0.00    +0.060 C 
ATOM      3  C   UNL     1      -0.601  -7.770 -32.906  0.00  0.00    +0.041 C 
ATOM      4  N   UNL     1       0.423  -6.741 -33.184  0.00  0.00    -0.291 N 
ATOM      5  C   UNL     1       1.642  -6.830 -32.496  0.00  0.00    +0.090 C 
ATOM      6  N   UNL     1       2.565  -5.970 -32.732  0.00  0.00    -0.221 NA
ATOM      7  C   UNL     1       3.151  -5.184 -31.790  0.00  0.00    +0.155 C 
ATOM      8  N   UNL     1       2.883  -4.990 -30.531  0.00  0.00    -0.228 N 
ATOM      9  C   UNL     1       1.766  -5.511 -29.933  0.00  0.00    +0.072 C 
ATOM     10  C   UNL     1       0.577  -5.199 -30.377  0.00  0.00    -0.100 C 
ATOM     11  C   UNL     1      -0.544  -4.919 -30.988  0.00  0.00    -0.016 C 
ATOM     12  C   UNL     1      -0.539  -4.612 -32.412  0.00  0.00    -0.035 C 
ATOM     13  C   UNL     1      -0.041  -5.394 -33.408  0.00  0.00    +0.034 C 
ATOM     14  C   UNL     1       0.355  -4.772 -34.777  0.00  0.00    +0.090 C 
ATOM     15 CL   UNL     1      -0.745  -3.489 -35.346  0.00  0.00    -0.111 Cl
ATOM     16  C   UNL     1       1.795  -4.284 -34.763  0.00  0.00    -0.061 C 
ATOM     17  C   UNL     1       2.299  -3.350 -33.929  0.00  0.00    -0.064 C 
ATOM     18  C   UNL     1       3.678  -3.410 -33.452  0.00  0.00    -0.058 C 
ATOM     19  C   UNL     1       4.105  -4.258 -32.485  0.00  0.00    -0.017 C 
ATOM     20  H   UNL     1       1.022 -10.638 -32.828  0.00  0.00    +0.000 HD
ATOM     21  H   UNL     1       3.504  -4.451 -29.990  0.00  0.00    +0.000 HD
ENDROOT
TORSDOF 0
ENDMDL
