MODEL 1
REMARK VINA RESULT:    -4.922      0.000      0.000
REMARK INTER + INTRA:          -4.922
REMARK INTER:                  -4.922
REMARK INTRA:                   0.000
REMARK UNBOUND:                 0.000
REMARK  Name = /home/vital/Documents/PhD_2021/Malaria_codes/scripts/../data/pdbqt_ligands/ligand_120_temp.pdb
REMARK                            x       y       z     vdW  Elec       q    Type
REMARK                         _______ _______ _______ _____ _____    ______ ____
ROOT
ATOM      1  P   UNL     1       3.573  -2.319 -19.619  0.00  0.00    -0.025 P 
ATOM      2  C   UNL     1       3.257  -0.530 -19.849  0.00  0.00    +0.038 C 
ATOM      3  N   UNL     1       2.536  -0.097 -18.687  0.00  0.00    -0.339 N 
ATOM      4  C   UNL     1       2.180   1.260 -18.666  0.00  0.00    +0.043 C 
ATOM      5  S   UNL     1       0.633   1.624 -18.898  0.00  0.00    -0.014 SA
ATOM      6  N   UNL     1       0.510   3.347 -18.816  0.00  0.00    -0.237 N 
ATOM      7  C   UNL     1       0.823   4.023 -17.589  0.00  0.00    +0.320 C 
ATOM      8  N   UNL     1       1.737   3.502 -16.868  0.00  0.00    -0.197 N 
ATOM      9  C   UNL     1       2.142   4.061 -15.639  0.00  0.00    +0.069 A 
ATOM     10  C   UNL     1       3.240   4.891 -15.585  0.00  0.00    -0.036 A 
ATOM     11  C   UNL     1       3.653   5.446 -14.379  0.00  0.00    -0.060 A 
ATOM     12  C   UNL     1       2.944   5.157 -13.212  0.00  0.00    -0.062 A 
ATOM     13  C   UNL     1       1.843   4.329 -13.247  0.00  0.00    -0.060 A 
ATOM     14  C   UNL     1       1.444   3.783 -14.457  0.00  0.00    -0.036 A 
ATOM     15  O   UNL     1       0.180   5.165 -17.206  0.00  0.00    -0.343 OA
ATOM     16  N   UNL     1       0.783   6.211 -16.555  0.00  0.00    -0.218 N 
ATOM     17  C   UNL     1       1.471   7.160 -17.372  0.00  0.00    +0.074 A 
ATOM     18  C   UNL     1       1.491   7.015 -18.754  0.00  0.00    -0.034 A 
ATOM     19  C   UNL     1       2.157   7.928 -19.551  0.00  0.00    -0.040 A 
ATOM     20  C   UNL     1       2.823   9.013 -19.018  0.00  0.00    +0.059 A 
ATOM     21 CL   UNL     1       3.662  10.162 -20.050  0.00  0.00    -0.082 Cl
ATOM     22  C   UNL     1       2.806   9.165 -17.636  0.00  0.00    +0.061 A 
ATOM     23 CL   UNL     1       3.639  10.530 -16.880  0.00  0.00    -0.082 Cl
ATOM     24  C   UNL     1       2.141   8.254 -16.812  0.00  0.00    -0.016 A 
ATOM     25  H   UNL     1       4.268  -2.807 -20.706  0.00  0.00    +0.000 HD
ATOM     26  H   UNL     1       2.306  -0.712 -17.954  0.00  0.00    +0.000 HD
ATOM     27  H   UNL     1       0.227   3.861 -19.606  0.00  0.00    +0.000 HD
ATOM     28  H   UNL     1       2.175   2.679 -17.181  0.00  0.00    +0.000 HD
ATOM     29  H   UNL     1       0.743   6.303 -15.576  0.00  0.00    +0.000 HD
ENDROOT
TORSDOF 0
ENDMDL
MODEL 2
REMARK VINA RESULT:    -4.773     13.071     14.556
REMARK INTER + INTRA:          -4.773
REMARK INTER:                  -4.773
REMARK INTRA:                   0.000
REMARK UNBOUND:                 0.000
REMARK  Name = /home/vital/Documents/PhD_2021/Malaria_codes/scripts/../data/pdbqt_ligands/ligand_120_temp.pdb
REMARK                            x       y       z     vdW  Elec       q    Type
REMARK                         _______ _______ _______ _____ _____    ______ ____
ROOT
ATOM      1  P   UNL     1       7.486   1.570 -29.803  0.00  0.00    -0.025 P 
ATOM      2  C   UNL     1       6.087   0.402 -29.629  0.00  0.00    +0.038 C 
ATOM      3  N   UNL     1       6.608  -0.749 -28.950  0.00  0.00    -0.339 N 
ATOM      4  C   UNL     1       5.689  -1.785 -28.721  0.00  0.00    +0.043 C 
ATOM      5  S   UNL     1       5.837  -3.115 -29.611  0.00  0.00    -0.014 SA
ATOM      6  N   UNL     1       4.582  -4.192 -29.105  0.00  0.00    -0.237 N 
ATOM      7  C   UNL     1       4.580  -4.697 -27.761  0.00  0.00    +0.320 C 
ATOM      8  N   UNL     1       5.033  -3.919 -26.858  0.00  0.00    -0.197 N 
ATOM      9  C   UNL     1       5.090  -4.288 -25.499  0.00  0.00    +0.069 A 
ATOM     10  C   UNL     1       4.081  -3.915 -24.638  0.00  0.00    -0.036 A 
ATOM     11  C   UNL     1       4.127  -4.269 -23.295  0.00  0.00    -0.060 A 
ATOM     12  C   UNL     1       5.207  -5.011 -22.816  0.00  0.00    -0.062 A 
ATOM     13  C   UNL     1       6.226  -5.393 -23.663  0.00  0.00    -0.060 A 
ATOM     14  C   UNL     1       6.166  -5.032 -25.000  0.00  0.00    -0.036 A 
ATOM     15  O   UNL     1       4.118  -5.945 -27.456  0.00  0.00    -0.343 OA
ATOM     16  N   UNL     1       3.427  -6.257 -26.314  0.00  0.00    -0.218 N 
ATOM     17  C   UNL     1       2.021  -6.004 -26.329  0.00  0.00    +0.074 A 
ATOM     18  C   UNL     1       1.411  -5.489 -27.467  0.00  0.00    -0.034 A 
ATOM     19  C   UNL     1       0.050  -5.240 -27.489  0.00  0.00    -0.040 A 
ATOM     20  C   UNL     1      -0.755  -5.488 -26.397  0.00  0.00    +0.059 A 
ATOM     21 CL   UNL     1      -2.481  -5.164 -26.447  0.00  0.00    -0.082 Cl
ATOM     22  C   UNL     1      -0.152  -6.005 -25.255  0.00  0.00    +0.061 A 
ATOM     23 CL   UNL     1      -1.119  -6.347 -23.814  0.00  0.00    -0.082 Cl
ATOM     24  C   UNL     1       1.220  -6.263 -25.210  0.00  0.00    -0.016 A 
ATOM     25  H   UNL     1       7.055   2.709 -30.452  0.00  0.00    +0.000 HD
ATOM     26  H   UNL     1       7.548  -0.808 -28.664  0.00  0.00    +0.000 HD
ATOM     27  H   UNL     1       3.874  -4.458 -29.734  0.00  0.00    +0.000 HD
ATOM     28  H   UNL     1       5.356  -3.027 -27.120  0.00  0.00    +0.000 HD
ATOM     29  H   UNL     1       3.876  -6.636 -25.524  0.00  0.00    +0.000 HD
ENDROOT
TORSDOF 0
ENDMDL
MODEL 3
REMARK VINA RESULT:    -4.707      6.610      9.943
REMARK INTER + INTRA:          -4.707
REMARK INTER:                  -4.707
REMARK INTRA:                   0.000
REMARK UNBOUND:                 0.000
REMARK  Name = /home/vital/Documents/PhD_2021/Malaria_codes/scripts/../data/pdbqt_ligands/ligand_120_temp.pdb
REMARK                            x       y       z     vdW  Elec       q    Type
REMARK                         _______ _______ _______ _____ _____    ______ ____
ROOT
ATOM      1  P   UNL     1       4.239   2.827 -13.766  0.00  0.00    -0.025 P 
ATOM      2  C   UNL     1       3.054   2.159 -14.991  0.00  0.00    +0.038 C 
ATOM      3  N   UNL     1       3.838   1.718 -16.109  0.00  0.00    -0.339 N 
ATOM      4  C   UNL     1       3.114   1.173 -17.180  0.00  0.00    +0.043 C 
ATOM      5  S   UNL     1       2.989   2.058 -18.515  0.00  0.00    -0.014 SA
ATOM      6  N   UNL     1       2.055   1.133 -19.638  0.00  0.00    -0.237 N 
ATOM      7  C   UNL     1       2.564  -0.119 -20.123  0.00  0.00    +0.320 C 
ATOM      8  N   UNL     1       3.278  -0.796 -19.313  0.00  0.00    -0.197 N 
ATOM      9  C   UNL     1       3.842  -2.042 -19.659  0.00  0.00    +0.069 A 
ATOM     10  C   UNL     1       3.199  -3.211 -19.317  0.00  0.00    -0.036 A 
ATOM     11  C   UNL     1       3.746  -4.445 -19.650  0.00  0.00    -0.060 A 
ATOM     12  C   UNL     1       4.959  -4.496 -20.337  0.00  0.00    -0.062 A 
ATOM     13  C   UNL     1       5.616  -3.336 -20.686  0.00  0.00    -0.060 A 
ATOM     14  C   UNL     1       5.059  -2.113 -20.348  0.00  0.00    -0.036 A 
ATOM     15  O   UNL     1       2.302  -0.568 -21.386  0.00  0.00    -0.343 OA
ATOM     16  N   UNL     1       2.088  -1.883 -21.710  0.00  0.00    -0.218 N 
ATOM     17  C   UNL     1       0.763  -2.381 -21.519  0.00  0.00    +0.074 A 
ATOM     18  C   UNL     1      -0.242  -1.544 -21.048  0.00  0.00    -0.034 A 
ATOM     19  C   UNL     1      -1.527  -2.018 -20.857  0.00  0.00    -0.040 A 
ATOM     20  C   UNL     1      -1.868  -3.328 -21.125  0.00  0.00    +0.059 A 
ATOM     21 CL   UNL     1      -3.508  -3.909 -20.877  0.00  0.00    -0.082 Cl
ATOM     22  C   UNL     1      -0.868  -4.171 -21.598  0.00  0.00    +0.061 A 
ATOM     23 CL   UNL     1      -1.229  -5.864 -21.960  0.00  0.00    -0.082 Cl
ATOM     24  C   UNL     1       0.437  -3.713 -21.796  0.00  0.00    -0.016 A 
ATOM     25  H   UNL     1       3.551   3.273 -12.656  0.00  0.00    +0.000 HD
ATOM     26  H   UNL     1       4.820   1.793 -16.123  0.00  0.00    +0.000 HD
ATOM     27  H   UNL     1       1.179   1.462 -19.943  0.00  0.00    +0.000 HD
ATOM     28  H   UNL     1       3.443  -0.437 -18.411  0.00  0.00    +0.000 HD
ATOM     29  H   UNL     1       2.811  -2.455 -22.058  0.00  0.00    +0.000 HD
ENDROOT
TORSDOF 0
ENDMDL
MODEL 4
REMARK VINA RESULT:    -4.686      7.226      9.685
REMARK INTER + INTRA:          -4.686
REMARK INTER:                  -4.686
REMARK INTRA:                   0.000
REMARK UNBOUND:                 0.000
REMARK  Name = /home/vital/Documents/PhD_2021/Malaria_codes/scripts/../data/pdbqt_ligands/ligand_120_temp.pdb
REMARK                            x       y       z     vdW  Elec       q    Type
REMARK                         _______ _______ _______ _____ _____    ______ ____
ROOT
ATOM      1  P   UNL     1      -3.139   5.126 -24.051  0.00  0.00    -0.025 P 
ATOM      2  C   UNL     1      -1.787   4.265 -23.165  0.00  0.00    +0.038 C 
ATOM      3  N   UNL     1      -2.406   3.206 -22.422  0.00  0.00    -0.339 N 
ATOM      4  C   UNL     1      -1.537   2.416 -21.654  0.00  0.00    +0.043 C 
ATOM      5  S   UNL     1      -1.575   2.610 -20.059  0.00  0.00    -0.014 SA
ATOM      6  N   UNL     1      -0.411   1.516 -19.398  0.00  0.00    -0.237 N 
ATOM      7  C   UNL     1      -0.595   0.101 -19.559  0.00  0.00    +0.320 C 
ATOM      8  N   UNL     1      -1.159  -0.281 -20.637  0.00  0.00    -0.197 N 
ATOM      9  C   UNL     1      -1.403  -1.641 -20.922  0.00  0.00    +0.069 A 
ATOM     10  C   UNL     1      -0.517  -2.353 -21.699  0.00  0.00    -0.036 A 
ATOM     11  C   UNL     1      -0.747  -3.693 -21.991  0.00  0.00    -0.060 A 
ATOM     12  C   UNL     1      -1.890  -4.319 -21.490  0.00  0.00    -0.062 A 
ATOM     13  C   UNL     1      -2.787  -3.620 -20.712  0.00  0.00    -0.060 A 
ATOM     14  C   UNL     1      -2.544  -2.285 -20.429  0.00  0.00    -0.036 A 
ATOM     15  O   UNL     1      -0.190  -0.795 -18.612  0.00  0.00    -0.343 OA
ATOM     16  N   UNL     1       0.337  -2.030 -18.890  0.00  0.00    -0.218 N 
ATOM     17  C   UNL     1       1.734  -2.076 -19.184  0.00  0.00    +0.074 A 
ATOM     18  C   UNL     1       2.497  -0.915 -19.158  0.00  0.00    -0.034 A 
ATOM     19  C   UNL     1       3.850  -0.951 -19.443  0.00  0.00    -0.040 A 
ATOM     20  C   UNL     1       4.498  -2.127 -19.761  0.00  0.00    +0.059 A 
ATOM     21 CL   UNL     1       6.218  -2.150 -20.119  0.00  0.00    -0.082 Cl
ATOM     22  C   UNL     1       3.741  -3.293 -19.787  0.00  0.00    +0.061 A 
ATOM     23 CL   UNL     1       4.501  -4.839 -20.189  0.00  0.00    -0.082 Cl
ATOM     24  C   UNL     1       2.373  -3.280 -19.504  0.00  0.00    -0.016 A 
ATOM     25  H   UNL     1      -2.614   6.165 -24.792  0.00  0.00    +0.000 HD
ATOM     26  H   UNL     1      -3.377   3.043 -22.449  0.00  0.00    +0.000 HD
ATOM     27  H   UNL     1       0.374   1.861 -18.914  0.00  0.00    +0.000 HD
ATOM     28  H   UNL     1      -1.435   0.397 -21.294  0.00  0.00    +0.000 HD
ATOM     29  H   UNL     1      -0.219  -2.843 -18.887  0.00  0.00    +0.000 HD
ENDROOT
TORSDOF 0
ENDMDL
MODEL 5
REMARK VINA RESULT:    -4.429      4.192      6.295
REMARK INTER + INTRA:          -4.429
REMARK INTER:                  -4.429
REMARK INTRA:                   0.000
REMARK UNBOUND:                 0.000
REMARK  Name = /home/vital/Documents/PhD_2021/Malaria_codes/scripts/../data/pdbqt_ligands/ligand_120_temp.pdb
REMARK                            x       y       z     vdW  Elec       q    Type
REMARK                         _______ _______ _______ _____ _____    ______ ____
ROOT
ATOM      1  P   UNL     1      -4.509   6.930 -22.359  0.00  0.00    -0.025 P 
ATOM      2  C   UNL     1      -3.349   6.102 -21.209  0.00  0.00    +0.038 C 
ATOM      3  N   UNL     1      -2.064   6.696 -21.438  0.00  0.00    -0.339 N 
ATOM      4  C   UNL     1      -1.015   6.192 -20.656  0.00  0.00    +0.043 C 
ATOM      5  S   UNL     1       0.069   5.256 -21.385  0.00  0.00    -0.014 SA
ATOM      6  N   UNL     1       1.220   4.797 -20.179  0.00  0.00    -0.237 N 
ATOM      7  C   UNL     1       2.029   5.803 -19.550  0.00  0.00    +0.320 C 
ATOM      8  N   UNL     1       1.491   6.948 -19.390  0.00  0.00    -0.197 N 
ATOM      9  C   UNL     1       2.172   8.026 -18.788  0.00  0.00    +0.069 A 
ATOM     10  C   UNL     1       2.001   8.290 -17.447  0.00  0.00    -0.036 A 
ATOM     11  C   UNL     1       2.664   9.352 -16.842  0.00  0.00    -0.060 A 
ATOM     12  C   UNL     1       3.511  10.157 -17.605  0.00  0.00    -0.062 A 
ATOM     13  C   UNL     1       3.693   9.908 -18.948  0.00  0.00    -0.060 A 
ATOM     14  C   UNL     1       3.026   8.845 -19.537  0.00  0.00    -0.036 A 
ATOM     15  O   UNL     1       3.308   5.555 -19.143  0.00  0.00    -0.343 OA
ATOM     16  N   UNL     1       3.873   6.075 -18.007  0.00  0.00    -0.218 N 
ATOM     17  C   UNL     1       3.607   5.382 -16.786  0.00  0.00    +0.074 A 
ATOM     18  C   UNL     1       2.830   4.230 -16.787  0.00  0.00    -0.034 A 
ATOM     19  C   UNL     1       2.566   3.554 -15.609  0.00  0.00    -0.040 A 
ATOM     20  C   UNL     1       3.056   3.986 -14.394  0.00  0.00    +0.059 A 
ATOM     21 CL   UNL     1       2.709   3.112 -12.910  0.00  0.00    -0.082 Cl
ATOM     22  C   UNL     1       3.835   5.138 -14.386  0.00  0.00    +0.061 A 
ATOM     23 CL   UNL     1       4.497   5.756 -12.866  0.00  0.00    -0.082 Cl
ATOM     24  C   UNL     1       4.113   5.837 -15.563  0.00  0.00    -0.016 A 
ATOM     25  H   UNL     1      -5.774   6.406 -22.193  0.00  0.00    +0.000 HD
ATOM     26  H   UNL     1      -1.928   7.411 -22.101  0.00  0.00    +0.000 HD
ATOM     27  H   UNL     1       1.321   3.852 -19.925  0.00  0.00    +0.000 HD
ATOM     28  H   UNL     1       0.567   7.085 -19.697  0.00  0.00    +0.000 HD
ATOM     29  H   UNL     1       4.433   6.884 -18.031  0.00  0.00    +0.000 HD
ENDROOT
TORSDOF 0
ENDMDL
MODEL 6
REMARK VINA RESULT:    -4.295      9.817     12.031
REMARK INTER + INTRA:          -4.295
REMARK INTER:                  -4.295
REMARK INTRA:                   0.000
REMARK UNBOUND:                 0.000
REMARK  Name = /home/vital/Documents/PhD_2021/Malaria_codes/scripts/../data/pdbqt_ligands/ligand_120_temp.pdb
REMARK                            x       y       z     vdW  Elec       q    Type
REMARK                         _______ _______ _______ _____ _____    ______ ____
ROOT
ATOM      1  P   UNL     1       1.969  -3.324 -30.825  0.00  0.00    -0.025 P 
ATOM      2  C   UNL     1       1.950  -3.381 -28.995  0.00  0.00    +0.038 C 
ATOM      3  N   UNL     1       3.242  -3.859 -28.595  0.00  0.00    -0.339 N 
ATOM      4  C   UNL     1       3.439  -3.989 -27.211  0.00  0.00    +0.043 C 
ATOM      5  S   UNL     1       3.477  -5.476 -26.606  0.00  0.00    -0.014 SA
ATOM      6  N   UNL     1       3.731  -5.312 -24.903  0.00  0.00    -0.237 N 
ATOM      7  C   UNL     1       4.952  -4.732 -24.420  0.00  0.00    +0.320 C 
ATOM      8  N   UNL     1       5.477  -3.823 -25.144  0.00  0.00    -0.197 N 
ATOM      9  C   UNL     1       6.675  -3.170 -24.789  0.00  0.00    +0.069 A 
ATOM     10  C   UNL     1       6.635  -1.957 -24.138  0.00  0.00    -0.036 A 
ATOM     11  C   UNL     1       7.809  -1.302 -23.786  0.00  0.00    -0.060 A 
ATOM     12  C   UNL     1       9.040  -1.881 -24.098  0.00  0.00    -0.062 A 
ATOM     13  C   UNL     1       9.098  -3.094 -24.750  0.00  0.00    -0.060 A 
ATOM     14  C   UNL     1       7.919  -3.736 -25.095  0.00  0.00    -0.036 A 
ATOM     15  O   UNL     1       5.529  -5.127 -23.247  0.00  0.00    -0.343 OA
ATOM     16  N   UNL     1       6.172  -4.284 -22.378  0.00  0.00    -0.218 N 
ATOM     17  C   UNL     1       5.348  -3.572 -21.453  0.00  0.00    +0.074 A 
ATOM     18  C   UNL     1       3.972  -3.763 -21.444  0.00  0.00    -0.034 A 
ATOM     19  C   UNL     1       3.167  -3.077 -20.553  0.00  0.00    -0.040 A 
ATOM     20  C   UNL     1       3.688  -2.181 -19.641  0.00  0.00    +0.059 A 
ATOM     21 CL   UNL     1       2.648  -1.320 -18.517  0.00  0.00    -0.082 Cl
ATOM     22  C   UNL     1       5.065  -1.985 -19.643  0.00  0.00    +0.061 A 
ATOM     23 CL   UNL     1       5.805  -0.851 -18.505  0.00  0.00    -0.082 Cl
ATOM     24  C   UNL     1       5.896  -2.667 -20.536  0.00  0.00    -0.016 A 
ATOM     25  H   UNL     1       0.750  -2.869 -31.283  0.00  0.00    +0.000 HD
ATOM     26  H   UNL     1       3.944  -4.081 -29.248  0.00  0.00    +0.000 HD
ATOM     27  H   UNL     1       3.042  -5.615 -24.269  0.00  0.00    +0.000 HD
ATOM     28  H   UNL     1       5.028  -3.567 -25.982  0.00  0.00    +0.000 HD
ATOM     29  H   UNL     1       7.150  -4.175 -22.391  0.00  0.00    +0.000 HD
ENDROOT
TORSDOF 0
ENDMDL
MODEL 7
REMARK VINA RESULT:    -4.133      4.344      5.885
REMARK INTER + INTRA:          -4.133
REMARK INTER:                  -4.133
REMARK INTRA:                   0.000
REMARK UNBOUND:                 0.000
REMARK  Name = /home/vital/Documents/PhD_2021/Malaria_codes/scripts/../data/pdbqt_ligands/ligand_120_temp.pdb
REMARK                            x       y       z     vdW  Elec       q    Type
REMARK                         _______ _______ _______ _____ _____    ______ ____
ROOT
ATOM      1  P   UNL     1       8.754   2.862 -14.809  0.00  0.00    -0.025 P 
ATOM      2  C   UNL     1       6.959   2.920 -15.168  0.00  0.00    +0.038 C 
ATOM      3  N   UNL     1       6.600   4.308 -15.195  0.00  0.00    -0.339 N 
ATOM      4  C   UNL     1       5.247   4.580 -15.448  0.00  0.00    +0.043 C 
ATOM      5  S   UNL     1       4.353   5.096 -14.217  0.00  0.00    -0.014 SA
ATOM      6  N   UNL     1       2.756   5.341 -14.832  0.00  0.00    -0.237 N 
ATOM      7  C   UNL     1       2.528   6.337 -15.840  0.00  0.00    +0.320 C 
ATOM      8  N   UNL     1       3.474   6.532 -16.673  0.00  0.00    -0.197 N 
ATOM      9  C   UNL     1       3.384   7.481 -17.712  0.00  0.00    +0.069 A 
ATOM     10  C   UNL     1       2.997   7.089 -18.974  0.00  0.00    -0.036 A 
ATOM     11  C   UNL     1       2.908   8.014 -20.009  0.00  0.00    -0.060 A 
ATOM     12  C   UNL     1       3.215   9.352 -19.761  0.00  0.00    -0.062 A 
ATOM     13  C   UNL     1       3.605   9.762 -18.504  0.00  0.00    -0.060 A 
ATOM     14  C   UNL     1       3.689   8.828 -17.483  0.00  0.00    -0.036 A 
ATOM     15  O   UNL     1       1.363   7.045 -15.910  0.00  0.00    -0.343 OA
ATOM     16  N   UNL     1       0.756   7.424 -17.080  0.00  0.00    -0.218 N 
ATOM     17  C   UNL     1      -0.079   6.451 -17.710  0.00  0.00    +0.074 A 
ATOM     18  C   UNL     1      -0.265   5.202 -17.129  0.00  0.00    -0.034 A 
ATOM     19  C   UNL     1      -1.071   4.253 -17.733  0.00  0.00    -0.040 A 
ATOM     20  C   UNL     1      -1.721   4.501 -18.926  0.00  0.00    +0.059 A 
ATOM     21 CL   UNL     1      -2.740   3.282 -19.675  0.00  0.00    -0.082 Cl
ATOM     22  C   UNL     1      -1.539   5.749 -19.511  0.00  0.00    +0.061 A 
ATOM     23 CL   UNL     1      -2.338   6.138 -21.042  0.00  0.00    -0.082 Cl
ATOM     24  C   UNL     1      -0.729   6.721 -18.919  0.00  0.00    -0.016 A 
ATOM     25  H   UNL     1       9.172   1.547 -14.768  0.00  0.00    +0.000 HD
ATOM     26  H   UNL     1       7.260   5.024 -15.046  0.00  0.00    +0.000 HD
ATOM     27  H   UNL     1       2.006   4.800 -14.493  0.00  0.00    +0.000 HD
ATOM     28  H   UNL     1       4.297   6.000 -16.588  0.00  0.00    +0.000 HD
ATOM     29  H   UNL     1       0.889   8.319 -17.466  0.00  0.00    +0.000 HD
ENDROOT
TORSDOF 0
ENDMDL
MODEL 8
REMARK VINA RESULT:    -4.123      8.892     12.407
REMARK INTER + INTRA:          -4.123
REMARK INTER:                  -4.123
REMARK INTRA:                   0.000
REMARK UNBOUND:                 0.000
REMARK  Name = /home/vital/Documents/PhD_2021/Malaria_codes/scripts/../data/pdbqt_ligands/ligand_120_temp.pdb
REMARK                            x       y       z     vdW  Elec       q    Type
REMARK                         _______ _______ _______ _____ _____    ______ ____
ROOT
ATOM      1  P   UNL     1       0.749   3.803 -19.239  0.00  0.00    -0.025 P 
ATOM      2  C   UNL     1       0.793   2.142 -20.008  0.00  0.00    +0.038 C 
ATOM      3  N   UNL     1      -0.497   1.559 -19.778  0.00  0.00    -0.339 N 
ATOM      4  C   UNL     1      -0.675   0.263 -20.286  0.00  0.00    +0.043 C 
ATOM      5  S   UNL     1      -0.719  -0.946 -19.228  0.00  0.00    -0.014 SA
ATOM      6  N   UNL     1      -0.947  -2.396 -20.142  0.00  0.00    -0.237 N 
ATOM      7  C   UNL     1      -2.156  -2.578 -20.895  0.00  0.00    +0.320 C 
ATOM      8  N   UNL     1      -2.683  -1.527 -21.390  0.00  0.00    -0.197 N 
ATOM      9  C   UNL     1      -3.871  -1.562 -22.149  0.00  0.00    +0.069 A 
ATOM     10  C   UNL     1      -3.811  -1.600 -23.525  0.00  0.00    -0.036 A 
ATOM     11  C   UNL     1      -4.974  -1.630 -24.285  0.00  0.00    -0.060 A 
ATOM     12  C   UNL     1      -6.214  -1.622 -23.645  0.00  0.00    -0.062 A 
ATOM     13  C   UNL     1      -6.292  -1.583 -22.269  0.00  0.00    -0.060 A 
ATOM     14  C   UNL     1      -5.124  -1.553 -21.524  0.00  0.00    -0.036 A 
ATOM     15  O   UNL     1      -2.720  -3.808 -21.075  0.00  0.00    -0.343 OA
ATOM     16  N   UNL     1      -3.344  -4.212 -22.228  0.00  0.00    -0.218 N 
ATOM     17  C   UNL     1      -2.501  -4.713 -23.268  0.00  0.00    +0.074 A 
ATOM     18  C   UNL     1      -1.127  -4.795 -23.081  0.00  0.00    -0.034 A 
ATOM     19  C   UNL     1      -0.304  -5.277 -24.083  0.00  0.00    -0.040 A 
ATOM     20  C   UNL     1      -0.804  -5.694 -25.300  0.00  0.00    +0.059 A 
ATOM     21 CL   UNL     1       0.260  -6.303 -26.559  0.00  0.00    -0.082 Cl
ATOM     22  C   UNL     1      -2.178  -5.616 -25.493  0.00  0.00    +0.061 A 
ATOM     23 CL   UNL     1      -2.893  -6.130 -27.028  0.00  0.00    -0.082 Cl
ATOM     24  C   UNL     1      -3.028  -5.131 -24.495  0.00  0.00    -0.016 A 
ATOM     25  H   UNL     1       1.966   4.427 -19.422  0.00  0.00    +0.000 HD
ATOM     26  H   UNL     1      -1.210   2.037 -19.297  0.00  0.00    +0.000 HD
ATOM     27  H   UNL     1      -0.253  -3.093 -20.146  0.00  0.00    +0.000 HD
ATOM     28  H   UNL     1      -2.244  -0.660 -21.237  0.00  0.00    +0.000 HD
ATOM     29  H   UNL     1      -4.321  -4.160 -22.334  0.00  0.00    +0.000 HD
ENDROOT
TORSDOF 0
ENDMDL
MODEL 9
REMARK VINA RESULT:    -4.028     10.911     12.545
REMARK INTER + INTRA:          -4.028
REMARK INTER:                  -4.028
REMARK INTRA:                   0.000
REMARK UNBOUND:                 0.000
REMARK  Name = /home/vital/Documents/PhD_2021/Malaria_codes/scripts/../data/pdbqt_ligands/ligand_120_temp.pdb
REMARK                            x       y       z     vdW  Elec       q    Type
REMARK                         _______ _______ _______ _____ _____    ______ ____
ROOT
ATOM      1  P   UNL     1      10.126   2.341 -22.113  0.00  0.00    -0.025 P 
ATOM      2  C   UNL     1       9.134   1.277 -23.224  0.00  0.00    +0.038 C 
ATOM      3  N   UNL     1       8.857   0.077 -22.489  0.00  0.00    -0.339 N 
ATOM      4  C   UNL     1       8.106  -0.892 -23.170  0.00  0.00    +0.043 C 
ATOM      5  S   UNL     1       8.877  -2.211 -23.668  0.00  0.00    -0.014 SA
ATOM      6  N   UNL     1       7.703  -3.202 -24.461  0.00  0.00    -0.237 N 
ATOM      7  C   UNL     1       6.599  -3.733 -23.712  0.00  0.00    +0.320 C 
ATOM      8  N   UNL     1       6.154  -3.009 -22.761  0.00  0.00    -0.197 N 
ATOM      9  C   UNL     1       5.076  -3.408 -21.946  0.00  0.00    +0.069 A 
ATOM     10  C   UNL     1       3.799  -2.978 -22.229  0.00  0.00    -0.036 A 
ATOM     11  C   UNL     1       2.727  -3.362 -21.430  0.00  0.00    -0.060 A 
ATOM     12  C   UNL     1       2.952  -4.192 -20.331  0.00  0.00    -0.062 A 
ATOM     13  C   UNL     1       4.224  -4.631 -20.033  0.00  0.00    -0.060 A 
ATOM     14  C   UNL     1       5.282  -4.240 -20.838  0.00  0.00    -0.036 A 
ATOM     15  O   UNL     1       6.047  -4.949 -23.996  0.00  0.00    -0.343 OA
ATOM     16  N   UNL     1       4.708  -5.232 -23.907  0.00  0.00    -0.218 N 
ATOM     17  C   UNL     1       3.904  -4.875 -25.033  0.00  0.00    +0.074 A 
ATOM     18  C   UNL     1       4.483  -4.293 -26.155  0.00  0.00    -0.034 A 
ATOM     19  C   UNL     1       3.711  -3.943 -27.248  0.00  0.00    -0.040 A 
ATOM     20  C   UNL     1       2.348  -4.153 -27.276  0.00  0.00    +0.059 A 
ATOM     21 CL   UNL     1       1.387  -3.701 -28.675  0.00  0.00    -0.082 Cl
ATOM     22  C   UNL     1       1.762  -4.736 -26.157  0.00  0.00    +0.061 A 
ATOM     23 CL   UNL     1       0.019  -5.034 -26.118  0.00  0.00    -0.082 Cl
ATOM     24  C   UNL     1       2.522  -5.096 -25.042  0.00  0.00    -0.016 A 
ATOM     25  H   UNL     1      10.431   3.522 -22.759  0.00  0.00    +0.000 HD
ATOM     26  H   UNL     1       9.174  -0.057 -21.566  0.00  0.00    +0.000 HD
ATOM     27  H   UNL     1       7.790  -3.402 -25.421  0.00  0.00    +0.000 HD
ATOM     28  H   UNL     1       6.580  -2.138 -22.590  0.00  0.00    +0.000 HD
ATOM     29  H   UNL     1       4.321  -5.659 -23.109  0.00  0.00    +0.000 HD
ENDROOT
TORSDOF 0
ENDMDL
