MODEL 1
REMARK VINA RESULT:    -5.208      0.000      0.000
REMARK INTER + INTRA:          -5.208
REMARK INTER:                  -5.208
REMARK INTRA:                   0.000
REMARK UNBOUND:                 0.000
REMARK  Name = /home/vital/Documents/PhD_2021/Malaria_codes/scripts/../data/pdbqt_ligands/ligand_148_temp.pdb
REMARK                            x       y       z     vdW  Elec       q    Type
REMARK                         _______ _______ _______ _____ _____    ______ ____
ROOT
ATOM      1  C1  UNL     1       3.143   4.900 -23.639  0.00  0.00    -0.049 C 
ATOM      2  C2  UNL     1       1.956   5.175 -22.727  0.00  0.00    +0.009 C 
ATOM      3  N1  UNL     1       1.401   6.530 -22.865  0.00  0.00    -0.329 N 
ATOM      4  C3  UNL     1       0.246   6.774 -23.735  0.00  0.00    +0.009 C 
ATOM      5  C4  UNL     1       0.423   6.293 -25.166  0.00  0.00    -0.049 C 
ATOM      6  C5  UNL     1       2.247   7.609 -22.575  0.00  0.00    +0.051 A 
ATOM      7  C6  UNL     1       2.930   8.298 -23.582  0.00  0.00    -0.037 A 
ATOM      8  C7  UNL     1       3.799   9.350 -23.273  0.00  0.00    -0.039 A 
ATOM      9  C8  UNL     1       3.971   9.767 -21.954  0.00  0.00    +0.026 A 
ATOM     10  N2  UNL     1       4.936  10.735 -21.644  0.00  0.00    -0.358 N 
ATOM     11  C9  UNL     1       3.329   9.061 -20.933  0.00  0.00    -0.018 A 
ATOM     12  C10 UNL     1       2.449   8.015 -21.232  0.00  0.00    +0.057 A 
ATOM     13  N3  UNL     1       1.682   7.336 -20.259  0.00  0.00    -0.280 N 
ATOM     14  C11 UNL     1       1.696   7.491 -18.891  0.00  0.00    +0.248 C 
ATOM     15  O1  UNL     1       2.442   8.210 -18.238  0.00  0.00    -0.270 OA
ATOM     16  C12 UNL     1       0.705   6.651 -18.156  0.00  0.00    +0.038 A 
ATOM     17  C13 UNL     1       1.042   6.191 -16.875  0.00  0.00    -0.050 A 
ATOM     18  C14 UNL     1       0.146   5.405 -16.151  0.00  0.00    -0.060 A 
ATOM     19  C15 UNL     1      -1.094   5.080 -16.701  0.00  0.00    -0.043 A 
ATOM     20  C16 UNL     1      -1.435   5.551 -17.968  0.00  0.00    +0.042 A 
ATOM     21 CL1  UNL     1      -2.973   5.161 -18.637  0.00  0.00    -0.084 Cl
ATOM     22  C17 UNL     1      -0.547   6.340 -18.700  0.00  0.00    -0.031 A 
ATOM     23  H   UNL     1       5.386  11.230 -22.366  0.00  0.00    +0.000 HD
ATOM     24  H   UNL     1       5.163  10.920 -20.704  0.00  0.00    +0.000 HD
ATOM     25  H   UNL     1       1.055   6.661 -20.606  0.00  0.00    +0.000 HD
ENDROOT
TORSDOF 0
ENDMDL
MODEL 2
REMARK VINA RESULT:    -5.147     12.649     16.213
REMARK INTER + INTRA:          -5.147
REMARK INTER:                  -5.147
REMARK INTRA:                   0.000
REMARK UNBOUND:                 0.000
REMARK  Name = /home/vital/Documents/PhD_2021/Malaria_codes/scripts/../data/pdbqt_ligands/ligand_148_temp.pdb
REMARK                            x       y       z     vdW  Elec       q    Type
REMARK                         _______ _______ _______ _____ _____    ______ ____
ROOT
ATOM      1  C1  UNL     1      -0.599   0.244 -30.101  0.00  0.00    -0.049 C 
ATOM      2  C2  UNL     1       0.715  -0.308 -30.633  0.00  0.00    +0.009 C 
ATOM      3  N1  UNL     1       1.209   0.385 -31.833  0.00  0.00    -0.329 N 
ATOM      4  C3  UNL     1       2.199   1.460 -31.714  0.00  0.00    +0.009 C 
ATOM      5  C4  UNL     1       1.801   2.582 -30.770  0.00  0.00    -0.049 C 
ATOM      6  C5  UNL     1       0.399   0.360 -32.977  0.00  0.00    +0.051 A 
ATOM      7  C6  UNL     1      -0.456   1.420 -33.294  0.00  0.00    -0.037 A 
ATOM      8  C7  UNL     1      -1.285   1.363 -34.419  0.00  0.00    -0.039 A 
ATOM      9  C8  UNL     1      -1.247   0.265 -35.278  0.00  0.00    +0.026 A 
ATOM     10  N2  UNL     1      -2.169   0.164 -36.328  0.00  0.00    -0.358 N 
ATOM     11  C9  UNL     1      -0.430  -0.819 -34.950  0.00  0.00    -0.018 A 
ATOM     12  C10 UNL     1       0.412  -0.769 -33.834  0.00  0.00    +0.057 A 
ATOM     13  N3  UNL     1       1.343  -1.781 -33.510  0.00  0.00    -0.280 N 
ATOM     14  C11 UNL     1       1.552  -2.990 -34.134  0.00  0.00    +0.248 C 
ATOM     15  O1  UNL     1       0.908  -3.460 -35.064  0.00  0.00    -0.270 OA
ATOM     16  C12 UNL     1       2.668  -3.802 -33.569  0.00  0.00    +0.038 A 
ATOM     17  C13 UNL     1       2.557  -5.200 -33.599  0.00  0.00    -0.050 A 
ATOM     18  C14 UNL     1       3.578  -5.999 -33.082  0.00  0.00    -0.060 A 
ATOM     19  C15 UNL     1       4.717  -5.405 -32.540  0.00  0.00    -0.043 A 
ATOM     20  C16 UNL     1       4.834  -4.016 -32.525  0.00  0.00    +0.042 A 
ATOM     21 CL1  UNL     1       6.249  -3.287 -31.868  0.00  0.00    -0.084 Cl
ATOM     22  C17 UNL     1       3.820  -3.208 -33.040  0.00  0.00    -0.031 A 
ATOM     23  H   UNL     1      -2.742   0.931 -36.556  0.00  0.00    +0.000 HD
ATOM     24  H   UNL     1      -2.243  -0.675 -36.839  0.00  0.00    +0.000 HD
ATOM     25  H   UNL     1       1.920  -1.597 -32.734  0.00  0.00    +0.000 HD
ENDROOT
TORSDOF 0
ENDMDL
MODEL 3
REMARK VINA RESULT:    -5.140      9.242     11.070
REMARK INTER + INTRA:          -5.140
REMARK INTER:                  -5.140
REMARK INTRA:                   0.000
REMARK UNBOUND:                 0.000
REMARK  Name = /home/vital/Documents/PhD_2021/Malaria_codes/scripts/../data/pdbqt_ligands/ligand_148_temp.pdb
REMARK                            x       y       z     vdW  Elec       q    Type
REMARK                         _______ _______ _______ _____ _____    ______ ____
ROOT
ATOM      1  C1  UNL     1      -1.786  -2.882 -24.486  0.00  0.00    -0.049 C 
ATOM      2  C2  UNL     1      -0.802  -3.338 -23.419  0.00  0.00    +0.009 C 
ATOM      3  N1  UNL     1      -1.443  -3.867 -22.205  0.00  0.00    -0.329 N 
ATOM      4  C3  UNL     1      -1.637  -5.311 -22.038  0.00  0.00    +0.009 C 
ATOM      5  C4  UNL     1      -2.384  -5.983 -23.179  0.00  0.00    -0.049 C 
ATOM      6  C5  UNL     1      -2.275  -3.002 -21.482  0.00  0.00    +0.051 A 
ATOM      7  C6  UNL     1      -3.664  -3.011 -21.647  0.00  0.00    -0.037 A 
ATOM      8  C7  UNL     1      -4.478  -2.116 -20.945  0.00  0.00    -0.039 A 
ATOM      9  C8  UNL     1      -3.927  -1.222 -20.027  0.00  0.00    +0.026 A 
ATOM     10  N2  UNL     1      -4.735  -0.249 -19.424  0.00  0.00    -0.358 N 
ATOM     11  C9  UNL     1      -2.538  -1.173 -19.883  0.00  0.00    -0.018 A 
ATOM     12  C10 UNL     1      -1.716  -2.070 -20.572  0.00  0.00    +0.057 A 
ATOM     13  N3  UNL     1      -0.317  -2.150 -20.387  0.00  0.00    -0.280 N 
ATOM     14  C11 UNL     1       0.493  -1.360 -19.603  0.00  0.00    +0.248 C 
ATOM     15  O1  UNL     1       0.160  -0.372 -18.960  0.00  0.00    -0.270 OA
ATOM     16  C12 UNL     1       1.930  -1.760 -19.587  0.00  0.00    +0.038 A 
ATOM     17  C13 UNL     1       2.900  -0.755 -19.450  0.00  0.00    -0.050 A 
ATOM     18  C14 UNL     1       4.255  -1.084 -19.429  0.00  0.00    -0.060 A 
ATOM     19  C15 UNL     1       4.648  -2.418 -19.536  0.00  0.00    -0.043 A 
ATOM     20  C16 UNL     1       3.684  -3.417 -19.655  0.00  0.00    +0.042 A 
ATOM     21 CL1  UNL     1       4.173  -5.064 -19.772  0.00  0.00    -0.084 Cl
ATOM     22  C17 UNL     1       2.326  -3.100 -19.676  0.00  0.00    -0.031 A 
ATOM     23  H   UNL     1      -5.714  -0.288 -19.529  0.00  0.00    +0.000 HD
ATOM     24  H   UNL     1      -4.325   0.474 -18.897  0.00  0.00    +0.000 HD
ATOM     25  H   UNL     1       0.138  -2.866 -20.886  0.00  0.00    +0.000 HD
ENDROOT
TORSDOF 0
ENDMDL
MODEL 4
REMARK VINA RESULT:    -4.870      3.956      6.104
REMARK INTER + INTRA:          -4.870
REMARK INTER:                  -4.870
REMARK INTRA:                   0.000
REMARK UNBOUND:                 0.000
REMARK  Name = /home/vital/Documents/PhD_2021/Malaria_codes/scripts/../data/pdbqt_ligands/ligand_148_temp.pdb
REMARK                            x       y       z     vdW  Elec       q    Type
REMARK                         _______ _______ _______ _____ _____    ______ ____
ROOT
ATOM      1  C1  UNL     1       2.143   7.469 -19.991  0.00  0.00    -0.049 C 
ATOM      2  C2  UNL     1       2.504   6.082 -19.477  0.00  0.00    +0.009 C 
ATOM      3  N1  UNL     1       1.462   5.072 -19.710  0.00  0.00    -0.329 N 
ATOM      4  C3  UNL     1       1.531   4.190 -20.879  0.00  0.00    +0.009 C 
ATOM      5  C4  UNL     1       1.653   4.916 -22.209  0.00  0.00    -0.049 C 
ATOM      6  C5  UNL     1       0.208   5.284 -19.118  0.00  0.00    +0.051 A 
ATOM      7  C6  UNL     1      -0.852   5.855 -19.829  0.00  0.00    -0.037 A 
ATOM      8  C7  UNL     1      -2.085   6.094 -19.214  0.00  0.00    -0.039 A 
ATOM      9  C8  UNL     1      -2.302   5.727 -17.886  0.00  0.00    +0.026 A 
ATOM     10  N2  UNL     1      -3.495   6.084 -17.245  0.00  0.00    -0.358 N 
ATOM     11  C9  UNL     1      -1.239   5.195 -17.151  0.00  0.00    -0.018 A 
ATOM     12  C10 UNL     1      -0.005   4.942 -17.759  0.00  0.00    +0.057 A 
ATOM     13  N3  UNL     1       1.073   4.303 -17.106  0.00  0.00    -0.280 N 
ATOM     14  C11 UNL     1       1.163   3.894 -15.795  0.00  0.00    +0.248 C 
ATOM     15  O1  UNL     1       0.338   4.074 -14.908  0.00  0.00    -0.270 OA
ATOM     16  C12 UNL     1       2.430   3.189 -15.445  0.00  0.00    +0.038 A 
ATOM     17  C13 UNL     1       2.940   3.340 -14.147  0.00  0.00    -0.050 A 
ATOM     18  C14 UNL     1       4.122   2.698 -13.776  0.00  0.00    -0.060 A 
ATOM     19  C15 UNL     1       4.795   1.896 -14.698  0.00  0.00    -0.043 A 
ATOM     20  C16 UNL     1       4.279   1.732 -15.982  0.00  0.00    +0.042 A 
ATOM     21 CL1  UNL     1       5.105   0.729 -17.111  0.00  0.00    -0.084 Cl
ATOM     22  C17 UNL     1       3.097   2.368 -16.363  0.00  0.00    -0.031 A 
ATOM     23  H   UNL     1      -4.241   6.459 -17.767  0.00  0.00    +0.000 HD
ATOM     24  H   UNL     1      -3.588   5.961 -16.273  0.00  0.00    +0.000 HD
ATOM     25  H   UNL     1       1.865   4.127 -17.663  0.00  0.00    +0.000 HD
ENDROOT
TORSDOF 0
ENDMDL
MODEL 5
REMARK VINA RESULT:    -4.854      4.741      7.166
REMARK INTER + INTRA:          -4.854
REMARK INTER:                  -4.854
REMARK INTRA:                   0.000
REMARK UNBOUND:                 0.000
REMARK  Name = /home/vital/Documents/PhD_2021/Malaria_codes/scripts/../data/pdbqt_ligands/ligand_148_temp.pdb
REMARK                            x       y       z     vdW  Elec       q    Type
REMARK                         _______ _______ _______ _____ _____    ______ ____
ROOT
ATOM      1  C1  UNL     1       2.692  -0.050 -17.656  0.00  0.00    -0.049 C 
ATOM      2  C2  UNL     1       2.325   1.321 -18.204  0.00  0.00    +0.009 C 
ATOM      3  N1  UNL     1       3.142   2.417 -17.660  0.00  0.00    -0.329 N 
ATOM      4  C3  UNL     1       4.312   2.906 -18.397  0.00  0.00    +0.009 C 
ATOM      5  C4  UNL     1       5.322   1.830 -18.762  0.00  0.00    -0.049 C 
ATOM      6  C5  UNL     1       3.097   2.634 -16.276  0.00  0.00    +0.051 A 
ATOM      7  C6  UNL     1       4.072   2.115 -15.419  0.00  0.00    -0.037 A 
ATOM      8  C7  UNL     1       3.993   2.310 -14.036  0.00  0.00    -0.039 A 
ATOM      9  C8  UNL     1       2.961   3.067 -13.482  0.00  0.00    +0.026 A 
ATOM     10  N2  UNL     1       2.822   3.151 -12.090  0.00  0.00    -0.358 N 
ATOM     11  C9  UNL     1       1.957   3.556 -14.321  0.00  0.00    -0.018 A 
ATOM     12  C10 UNL     1       2.032   3.376 -15.706  0.00  0.00    +0.057 A 
ATOM     13  N3  UNL     1       1.113   3.940 -16.620  0.00  0.00    -0.280 N 
ATOM     14  C11 UNL     1      -0.024   4.670 -16.356  0.00  0.00    +0.248 C 
ATOM     15  O1  UNL     1      -0.505   4.913 -15.256  0.00  0.00    -0.270 OA
ATOM     16  C12 UNL     1      -0.739   5.174 -17.564  0.00  0.00    +0.038 A 
ATOM     17  C13 UNL     1      -2.136   5.289 -17.512  0.00  0.00    -0.050 A 
ATOM     18  C14 UNL     1      -2.845   5.756 -18.619  0.00  0.00    -0.060 A 
ATOM     19  C15 UNL     1      -2.162   6.118 -19.780  0.00  0.00    -0.043 A 
ATOM     20  C16 UNL     1      -0.772   6.019 -19.825  0.00  0.00    +0.042 A 
ATOM     21 CL1  UNL     1       0.069   6.481 -21.254  0.00  0.00    -0.084 Cl
ATOM     22  C17 UNL     1      -0.053   5.555 -18.724  0.00  0.00    -0.031 A 
ATOM     23  H   UNL     1       3.532   2.805 -11.503  0.00  0.00    +0.000 HD
ATOM     24  H   UNL     1       2.014   3.555 -11.700  0.00  0.00    +0.000 HD
ATOM     25  H   UNL     1       1.312   3.791 -17.572  0.00  0.00    +0.000 HD
ENDROOT
TORSDOF 0
ENDMDL
MODEL 6
REMARK VINA RESULT:    -4.726     15.602     18.077
REMARK INTER + INTRA:          -4.726
REMARK INTER:                  -4.726
REMARK INTRA:                   0.000
REMARK UNBOUND:                 0.000
REMARK  Name = /home/vital/Documents/PhD_2021/Malaria_codes/scripts/../data/pdbqt_ligands/ligand_148_temp.pdb
REMARK                            x       y       z     vdW  Elec       q    Type
REMARK                         _______ _______ _______ _____ _____    ______ ____
ROOT
ATOM      1  C1  UNL     1      -0.305  -6.479 -27.941  0.00  0.00    -0.049 C 
ATOM      2  C2  UNL     1       0.172  -5.482 -28.987  0.00  0.00    +0.009 C 
ATOM      3  N1  UNL     1      -0.491  -5.627 -30.292  0.00  0.00    -0.329 N 
ATOM      4  C3  UNL     1      -1.644  -4.790 -30.637  0.00  0.00    +0.009 C 
ATOM      5  C4  UNL     1      -2.782  -4.841 -29.631  0.00  0.00    -0.049 C 
ATOM      6  C5  UNL     1      -0.339  -6.848 -30.964  0.00  0.00    +0.051 A 
ATOM      7  C6  UNL     1      -1.311  -7.852 -30.891  0.00  0.00    -0.037 A 
ATOM      8  C7  UNL     1      -1.128  -9.078 -31.538  0.00  0.00    -0.039 A 
ATOM      9  C8  UNL     1       0.009  -9.315 -32.309  0.00  0.00    +0.026 A 
ATOM     10  N2  UNL     1       0.240 -10.588 -32.847  0.00  0.00    -0.358 N 
ATOM     11  C9  UNL     1       1.008  -8.339 -32.356  0.00  0.00    -0.018 A 
ATOM     12  C10 UNL     1       0.831  -7.104 -31.723  0.00  0.00    +0.057 A 
ATOM     13  N3  UNL     1       1.748  -6.034 -31.824  0.00  0.00    -0.280 N 
ATOM     14  C11 UNL     1       2.969  -6.005 -32.458  0.00  0.00    +0.248 C 
ATOM     15  O1  UNL     1       3.539  -6.943 -33.004  0.00  0.00    -0.270 OA
ATOM     16  C12 UNL     1       3.660  -4.684 -32.427  0.00  0.00    +0.038 A 
ATOM     17  C13 UNL     1       5.062  -4.665 -32.384  0.00  0.00    -0.050 A 
ATOM     18  C14 UNL     1       5.749  -3.451 -32.355  0.00  0.00    -0.060 A 
ATOM     19  C15 UNL     1       5.040  -2.251 -32.376  0.00  0.00    -0.043 A 
ATOM     20  C16 UNL     1       3.647  -2.269 -32.436  0.00  0.00    +0.042 A 
ATOM     21 CL1  UNL     1       2.776  -0.785 -32.477  0.00  0.00    -0.084 Cl
ATOM     22  C17 UNL     1       2.950  -3.477 -32.467  0.00  0.00    -0.031 A 
ATOM     23  H   UNL     1      -0.467 -11.273 -32.812  0.00  0.00    +0.000 HD
ATOM     24  H   UNL     1       1.108 -10.798 -33.260  0.00  0.00    +0.000 HD
ATOM     25  H   UNL     1       1.477  -5.197 -31.383  0.00  0.00    +0.000 HD
ENDROOT
TORSDOF 0
ENDMDL
MODEL 7
REMARK VINA RESULT:    -4.657     11.941     13.218
REMARK INTER + INTRA:          -4.657
REMARK INTER:                  -4.657
REMARK INTRA:                   0.000
REMARK UNBOUND:                 0.000
REMARK  Name = /home/vital/Documents/PhD_2021/Malaria_codes/scripts/../data/pdbqt_ligands/ligand_148_temp.pdb
REMARK                            x       y       z     vdW  Elec       q    Type
REMARK                         _______ _______ _______ _____ _____    ______ ____
ROOT
ATOM      1  C1  UNL     1      -5.415  -6.469 -25.117  0.00  0.00    -0.049 C 
ATOM      2  C2  UNL     1      -5.436  -5.052 -25.672  0.00  0.00    +0.009 C 
ATOM      3  N1  UNL     1      -4.186  -4.309 -25.455  0.00  0.00    -0.329 N 
ATOM      4  C3  UNL     1      -3.166  -4.249 -26.506  0.00  0.00    +0.009 C 
ATOM      5  C4  UNL     1      -2.712  -5.605 -27.021  0.00  0.00    -0.049 C 
ATOM      6  C5  UNL     1      -3.779  -4.097 -24.130  0.00  0.00    +0.051 A 
ATOM      7  C6  UNL     1      -2.840  -4.926 -23.508  0.00  0.00    -0.037 A 
ATOM      8  C7  UNL     1      -2.472  -4.722 -22.174  0.00  0.00    -0.039 A 
ATOM      9  C8  UNL     1      -3.001  -3.659 -21.443  0.00  0.00    +0.026 A 
ATOM     10  N2  UNL     1      -2.722  -3.541 -20.075  0.00  0.00    -0.358 N 
ATOM     11  C9  UNL     1      -3.972  -2.849 -22.037  0.00  0.00    -0.018 A 
ATOM     12  C10 UNL     1      -4.339  -3.036 -23.374  0.00  0.00    +0.057 A 
ATOM     13  N3  UNL     1      -5.228  -2.185 -24.068  0.00  0.00    -0.280 N 
ATOM     14  C11 UNL     1      -5.940  -1.109 -23.587  0.00  0.00    +0.248 C 
ATOM     15  O1  UNL     1      -5.995  -0.721 -22.427  0.00  0.00    -0.270 OA
ATOM     16  C12 UNL     1      -6.745  -0.383 -24.612  0.00  0.00    +0.038 A 
ATOM     17  C13 UNL     1      -7.954   0.207 -24.214  0.00  0.00    -0.050 A 
ATOM     18  C14 UNL     1      -8.738   0.897 -25.139  0.00  0.00    -0.060 A 
ATOM     19  C15 UNL     1      -8.315   1.007 -26.464  0.00  0.00    -0.043 A 
ATOM     20  C16 UNL     1      -7.105   0.435 -26.854  0.00  0.00    +0.042 A 
ATOM     21 CL1  UNL     1      -6.579   0.587 -28.487  0.00  0.00    -0.084 Cl
ATOM     22  C17 UNL     1      -6.312  -0.255 -25.937  0.00  0.00    -0.031 A 
ATOM     23  H   UNL     1      -2.037  -4.114 -19.661  0.00  0.00    +0.000 HD
ATOM     24  H   UNL     1      -3.211  -2.885 -19.528  0.00  0.00    +0.000 HD
ATOM     25  H   UNL     1      -5.356  -2.389 -25.022  0.00  0.00    +0.000 HD
ENDROOT
TORSDOF 0
ENDMDL
MODEL 8
REMARK VINA RESULT:    -4.556     13.939     16.479
REMARK INTER + INTRA:          -4.556
REMARK INTER:                  -4.556
REMARK INTRA:                   0.000
REMARK UNBOUND:                 0.000
REMARK  Name = /home/vital/Documents/PhD_2021/Malaria_codes/scripts/../data/pdbqt_ligands/ligand_148_temp.pdb
REMARK                            x       y       z     vdW  Elec       q    Type
REMARK                         _______ _______ _______ _____ _____    ______ ____
ROOT
ATOM      1  C1  UNL     1       0.084  -0.891 -34.114  0.00  0.00    -0.049 C 
ATOM      2  C2  UNL     1       0.018  -2.121 -33.221  0.00  0.00    +0.009 C 
ATOM      3  N1  UNL     1       0.785  -1.992 -31.973  0.00  0.00    -0.329 N 
ATOM      4  C3  UNL     1       0.120  -1.581 -30.733  0.00  0.00    +0.009 C 
ATOM      5  C4  UNL     1      -0.653  -0.275 -30.835  0.00  0.00    -0.049 C 
ATOM      6  C5  UNL     1       2.167  -1.784 -32.079  0.00  0.00    +0.051 A 
ATOM      7  C6  UNL     1       2.725  -0.504 -31.999  0.00  0.00    -0.037 A 
ATOM      8  C7  UNL     1       4.103  -0.310 -32.144  0.00  0.00    -0.039 A 
ATOM      9  C8  UNL     1       4.960  -1.394 -32.328  0.00  0.00    +0.026 A 
ATOM     10  N2  UNL     1       6.318  -1.177 -32.597  0.00  0.00    -0.358 N 
ATOM     11  C9  UNL     1       4.412  -2.673 -32.453  0.00  0.00    -0.018 A 
ATOM     12  C10 UNL     1       3.038  -2.881 -32.299  0.00  0.00    +0.057 A 
ATOM     13  N3  UNL     1       2.434  -4.159 -32.300  0.00  0.00    -0.280 N 
ATOM     14  C11 UNL     1       3.018  -5.385 -32.521  0.00  0.00    +0.248 C 
ATOM     15  O1  UNL     1       4.182  -5.601 -32.836  0.00  0.00    -0.270 OA
ATOM     16  C12 UNL     1       2.097  -6.551 -32.387  0.00  0.00    +0.038 A 
ATOM     17  C13 UNL     1       2.319  -7.673 -33.198  0.00  0.00    -0.050 A 
ATOM     18  C14 UNL     1       1.482  -8.786 -33.104  0.00  0.00    -0.060 A 
ATOM     19  C15 UNL     1       0.425  -8.785 -32.195  0.00  0.00    -0.043 A 
ATOM     20  C16 UNL     1       0.214  -7.676 -31.377  0.00  0.00    +0.042 A 
ATOM     21 CL1  UNL     1      -1.083  -7.685 -30.246  0.00  0.00    -0.084 Cl
ATOM     22  C17 UNL     1       1.046  -6.559 -31.461  0.00  0.00    -0.031 A 
ATOM     23  H   UNL     1       6.699  -0.274 -32.507  0.00  0.00    +0.000 HD
ATOM     24  H   UNL     1       6.891  -1.928 -32.875  0.00  0.00    +0.000 HD
ATOM     25  H   UNL     1       1.467  -4.173 -32.119  0.00  0.00    +0.000 HD
ENDROOT
TORSDOF 0
ENDMDL
MODEL 9
REMARK VINA RESULT:    -4.544     12.347     14.582
REMARK INTER + INTRA:          -4.544
REMARK INTER:                  -4.544
REMARK INTRA:                   0.000
REMARK UNBOUND:                 0.000
REMARK  Name = /home/vital/Documents/PhD_2021/Malaria_codes/scripts/../data/pdbqt_ligands/ligand_148_temp.pdb
REMARK                            x       y       z     vdW  Elec       q    Type
REMARK                         _______ _______ _______ _____ _____    ______ ____
ROOT
ATOM      1  C1  UNL     1       1.226  -6.045 -29.607  0.00  0.00    -0.049 C 
ATOM      2  C2  UNL     1       1.926  -4.979 -28.776  0.00  0.00    +0.009 C 
ATOM      3  N1  UNL     1       2.305  -3.782 -29.541  0.00  0.00    -0.329 N 
ATOM      4  C3  UNL     1       1.436  -2.600 -29.547  0.00  0.00    +0.009 C 
ATOM      5  C4  UNL     1       0.001  -2.875 -29.967  0.00  0.00    -0.049 C 
ATOM      6  C5  UNL     1       3.197  -3.950 -30.610  0.00  0.00    +0.051 A 
ATOM      7  C6  UNL     1       2.747  -4.071 -31.928  0.00  0.00    -0.037 A 
ATOM      8  C7  UNL     1       3.648  -4.274 -32.979  0.00  0.00    -0.039 A 
ATOM      9  C8  UNL     1       5.021  -4.317 -32.742  0.00  0.00    +0.026 A 
ATOM     10  N2  UNL     1       5.903  -4.646 -33.781  0.00  0.00    -0.358 N 
ATOM     11  C9  UNL     1       5.481  -4.240 -31.425  0.00  0.00    -0.018 A 
ATOM     12  C10 UNL     1       4.591  -4.025 -30.368  0.00  0.00    +0.057 A 
ATOM     13  N3  UNL     1       4.999  -3.825 -29.030  0.00  0.00    -0.280 N 
ATOM     14  C11 UNL     1       6.269  -3.877 -28.501  0.00  0.00    +0.248 C 
ATOM     15  O1  UNL     1       7.299  -4.184 -29.087  0.00  0.00    -0.270 OA
ATOM     16  C12 UNL     1       6.355  -3.552 -27.048  0.00  0.00    +0.038 A 
ATOM     17  C13 UNL     1       7.336  -4.194 -26.278  0.00  0.00    -0.050 A 
ATOM     18  C14 UNL     1       7.453  -3.920 -24.915  0.00  0.00    -0.060 A 
ATOM     19  C15 UNL     1       6.596  -2.996 -24.317  0.00  0.00    -0.043 A 
ATOM     20  C16 UNL     1       5.632  -2.345 -25.085  0.00  0.00    +0.042 A 
ATOM     21 CL1  UNL     1       4.586  -1.195 -24.346  0.00  0.00    -0.084 Cl
ATOM     22  C17 UNL     1       5.507  -2.612 -26.449  0.00  0.00    -0.031 A 
ATOM     23  H   UNL     1       5.573  -4.699 -34.707  0.00  0.00    +0.000 HD
ATOM     24  H   UNL     1       6.850  -4.824 -33.584  0.00  0.00    +0.000 HD
ATOM     25  H   UNL     1       4.278  -3.622 -28.391  0.00  0.00    +0.000 HD
ENDROOT
TORSDOF 0
ENDMDL
