MODEL 1
REMARK VINA RESULT:    -5.500      0.000      0.000
REMARK INTER + INTRA:          -5.500
REMARK INTER:                  -5.500
REMARK INTRA:                   0.000
REMARK UNBOUND:                 0.000
REMARK  Name = /home/vital/Documents/PhD_2021/Malaria_codes/scripts/../data/pdbqt_ligands/ligand_91_temp.pdb
REMARK                            x       y       z     vdW  Elec       q    Type
REMARK                         _______ _______ _______ _____ _____    ______ ____
ROOT
ATOM      1  C1  UNL     1     -11.155   5.805 -27.652  0.00  0.00    -0.031 C 
ATOM      2  C2  UNL     1      -9.765   6.204 -27.190  0.00  0.00    +0.087 C 
ATOM      3  O1  UNL     1      -9.467   5.471 -26.003  0.00  0.00    -0.492 OA
ATOM      4  C3  UNL     1      -8.242   5.675 -25.434  0.00  0.00    +0.121 A 
ATOM      5  C4  UNL     1      -7.263   6.559 -25.883  0.00  0.00    -0.019 A 
ATOM      6  C5  UNL     1      -6.038   6.665 -25.205  0.00  0.00    -0.049 A 
ATOM      7  C6  UNL     1      -5.773   5.888 -24.069  0.00  0.00    +0.002 A 
ATOM      8  C7  UNL     1      -4.488   5.978 -23.362  0.00  0.00    +0.094 A 
ATOM      9  C8  UNL     1      -3.289   6.607 -23.795  0.00  0.00    -0.006 A 
ATOM     10  C9  UNL     1      -2.379   6.396 -22.786  0.00  0.00    +0.099 A 
ATOM     11  C10 UNL     1      -1.003   6.722 -22.551  0.00  0.00    +0.123 A 
ATOM     12  S1  UNL     1      -0.186   7.609 -23.810  0.00  0.00    -0.094 S 
ATOM     13  C11 UNL     1       1.439   6.801 -23.766  0.00  0.00    +0.077 C 
ATOM     14  C12 UNL     1       2.463   7.540 -22.913  0.00  0.00    +0.228 C 
ATOM     15  O2  UNL     1       3.612   7.676 -23.330  0.00  0.00    -0.275 OA
ATOM     16  N1  UNL     1       2.022   7.870 -21.646  0.00  0.00    -0.282 N 
ATOM     17  C13 UNL     1       2.709   8.628 -20.673  0.00  0.00    +0.077 A 
ATOM     18  C14 UNL     1       2.404   8.336 -19.335  0.00  0.00    -0.019 A 
ATOM     19  C15 UNL     1       3.038   9.022 -18.300  0.00  0.00    +0.043 A 
ATOM     20 CL1  UNL     1       2.662   8.635 -16.666  0.00  0.00    -0.083 Cl
ATOM     21  C16 UNL     1       3.964  10.023 -18.576  0.00  0.00    -0.040 A 
ATOM     22  C17 UNL     1       4.245  10.352 -19.902  0.00  0.00    -0.017 A 
ATOM     23  C18 UNL     1       3.621   9.661 -20.953  0.00  0.00    +0.141 A 
ATOM     24  O3  UNL     1       3.763  10.113 -22.239  0.00  0.00    -0.493 OA
ATOM     25  C19 UNL     1       5.125  10.181 -22.658  0.00  0.00    +0.079 C 
ATOM     26  N2  UNL     1      -0.368   6.391 -21.460  0.00  0.00    -0.245 NA
ATOM     27  C20 UNL     1      -1.080   5.684 -20.507  0.00  0.00    +0.047 A 
ATOM     28  C21 UNL     1      -2.366   5.330 -20.651  0.00  0.00    +0.048 A 
ATOM     29  N3  UNL     1      -3.038   5.685 -21.809  0.00  0.00    -0.235 N 
ATOM     30  N4  UNL     1      -4.313   5.420 -22.152  0.00  0.00    -0.166 NA
ATOM     31  C22 UNL     1      -6.769   5.009 -23.622  0.00  0.00    -0.049 A 
ATOM     32  C23 UNL     1      -7.990   4.906 -24.299  0.00  0.00    -0.019 A 
ATOM     33  H   UNL     1       1.129   7.541 -21.393  0.00  0.00    +0.000 HD
ENDROOT
TORSDOF 0
ENDMDL
MODEL 2
REMARK VINA RESULT:    -5.349      7.829      8.938
REMARK INTER + INTRA:          -5.349
REMARK INTER:                  -5.349
REMARK INTRA:                   0.000
REMARK UNBOUND:                 0.000
REMARK  Name = /home/vital/Documents/PhD_2021/Malaria_codes/scripts/../data/pdbqt_ligands/ligand_91_temp.pdb
REMARK                            x       y       z     vdW  Elec       q    Type
REMARK                         _______ _______ _______ _____ _____    ______ ____
ROOT
ATOM      1  C1  UNL     1      -5.244  -6.284 -25.778  0.00  0.00    -0.031 C 
ATOM      2  C2  UNL     1      -4.676  -5.139 -24.958  0.00  0.00    +0.087 C 
ATOM      3  O1  UNL     1      -3.555  -5.634 -24.226  0.00  0.00    -0.492 OA
ATOM      4  C3  UNL     1      -2.886  -4.746 -23.433  0.00  0.00    +0.121 A 
ATOM      5  C4  UNL     1      -3.213  -3.404 -23.242  0.00  0.00    -0.019 A 
ATOM      6  C5  UNL     1      -2.430  -2.597 -22.402  0.00  0.00    -0.049 A 
ATOM      7  C6  UNL     1      -1.309  -3.117 -21.740  0.00  0.00    +0.002 A 
ATOM      8  C7  UNL     1      -0.474  -2.277 -20.871  0.00  0.00    +0.094 A 
ATOM      9  C8  UNL     1      -0.480  -0.861 -20.751  0.00  0.00    -0.006 A 
ATOM     10  C9  UNL     1       0.494  -0.568 -19.825  0.00  0.00    +0.099 A 
ATOM     11  C10 UNL     1       1.038   0.622 -19.238  0.00  0.00    +0.123 A 
ATOM     12  S1  UNL     1       0.359   2.135 -19.774  0.00  0.00    -0.094 S 
ATOM     13  C11 UNL     1       1.862   3.150 -19.847  0.00  0.00    +0.077 C 
ATOM     14  C12 UNL     1       2.099   3.978 -18.590  0.00  0.00    +0.228 C 
ATOM     15  O2  UNL     1       2.459   5.150 -18.695  0.00  0.00    -0.275 OA
ATOM     16  N1  UNL     1       2.022   3.263 -17.409  0.00  0.00    -0.282 N 
ATOM     17  C13 UNL     1       2.106   3.771 -16.096  0.00  0.00    +0.077 A 
ATOM     18  C14 UNL     1       2.612   2.894 -15.125  0.00  0.00    -0.019 A 
ATOM     19  C15 UNL     1       2.745   3.306 -13.800  0.00  0.00    +0.043 A 
ATOM     20 CL1  UNL     1       3.385   2.218 -12.630  0.00  0.00    -0.083 Cl
ATOM     21  C16 UNL     1       2.355   4.584 -13.413  0.00  0.00    -0.040 A 
ATOM     22  C17 UNL     1       1.811   5.452 -14.359  0.00  0.00    -0.017 A 
ATOM     23  C18 UNL     1       1.683   5.052 -15.699  0.00  0.00    +0.141 A 
ATOM     24  O3  UNL     1       0.982   5.838 -16.576  0.00  0.00    -0.493 OA
ATOM     25  C19 UNL     1       1.507   7.161 -16.680  0.00  0.00    +0.079 C 
ATOM     26  N2  UNL     1       1.988   0.605 -18.344  0.00  0.00    -0.245 NA
ATOM     27  C20 UNL     1       2.480  -0.632 -17.971  0.00  0.00    +0.047 A 
ATOM     28  C21 UNL     1       2.036  -1.792 -18.476  0.00  0.00    +0.048 A 
ATOM     29  N3  UNL     1       1.025  -1.772 -19.423  0.00  0.00    -0.235 N 
ATOM     30  N4  UNL     1       0.451  -2.813 -20.058  0.00  0.00    -0.166 NA
ATOM     31  C22 UNL     1      -0.997  -4.470 -21.934  0.00  0.00    -0.049 A 
ATOM     32  C23 UNL     1      -1.779  -5.273 -22.771  0.00  0.00    -0.019 A 
ATOM     33  H   UNL     1       1.894   2.290 -17.495  0.00  0.00    +0.000 HD
ENDROOT
TORSDOF 0
ENDMDL
MODEL 3
REMARK VINA RESULT:    -5.232      5.257     11.638
REMARK INTER + INTRA:          -5.232
REMARK INTER:                  -5.232
REMARK INTRA:                   0.000
REMARK UNBOUND:                 0.000
REMARK  Name = /home/vital/Documents/PhD_2021/Malaria_codes/scripts/../data/pdbqt_ligands/ligand_91_temp.pdb
REMARK                            x       y       z     vdW  Elec       q    Type
REMARK                         _______ _______ _______ _____ _____    ______ ____
ROOT
ATOM      1  C1  UNL     1       4.221   5.369 -12.572  0.00  0.00    -0.031 C 
ATOM      2  C2  UNL     1       3.300   4.796 -13.634  0.00  0.00    +0.087 C 
ATOM      3  O1  UNL     1       2.769   5.883 -14.391  0.00  0.00    -0.492 OA
ATOM      4  C3  UNL     1       1.924   5.575 -15.419  0.00  0.00    +0.121 A 
ATOM      5  C4  UNL     1       1.500   4.297 -15.781  0.00  0.00    -0.019 A 
ATOM      6  C5  UNL     1       0.632   4.120 -16.870  0.00  0.00    -0.049 A 
ATOM      7  C6  UNL     1       0.174   5.217 -17.613  0.00  0.00    +0.002 A 
ATOM      8  C7  UNL     1      -0.721   5.041 -18.764  0.00  0.00    +0.094 A 
ATOM      9  C8  UNL     1      -1.054   3.838 -19.443  0.00  0.00    -0.006 A 
ATOM     10  C9  UNL     1      -1.909   4.211 -20.453  0.00  0.00    +0.099 A 
ATOM     11  C10 UNL     1      -2.610   3.545 -21.513  0.00  0.00    +0.123 A 
ATOM     12  S1  UNL     1      -2.381   1.822 -21.636  0.00  0.00    -0.094 S 
ATOM     13  C11 UNL     1      -2.309   1.639 -23.440  0.00  0.00    +0.077 C 
ATOM     14  C12 UNL     1      -3.646   1.263 -24.068  0.00  0.00    +0.228 C 
ATOM     15  O2  UNL     1      -3.682   0.402 -24.945  0.00  0.00    -0.275 OA
ATOM     16  N1  UNL     1      -4.706   2.059 -23.676  0.00  0.00    -0.282 N 
ATOM     17  C13 UNL     1      -6.066   1.898 -24.017  0.00  0.00    +0.077 A 
ATOM     18  C14 UNL     1      -6.836   3.069 -24.056  0.00  0.00    -0.019 A 
ATOM     19  C15 UNL     1      -8.188   3.017 -24.393  0.00  0.00    +0.043 A 
ATOM     20 CL1  UNL     1      -9.109   4.469 -24.451  0.00  0.00    -0.083 Cl
ATOM     21  C16 UNL     1      -8.801   1.800 -24.673  0.00  0.00    -0.040 A 
ATOM     22  C17 UNL     1      -8.058   0.622 -24.597  0.00  0.00    -0.017 A 
ATOM     23  C18 UNL     1      -6.693   0.664 -24.269  0.00  0.00    +0.141 A 
ATOM     24  O3  UNL     1      -6.021  -0.504 -24.018  0.00  0.00    -0.493 OA
ATOM     25  C19 UNL     1      -6.064  -1.418 -25.113  0.00  0.00    +0.079 C 
ATOM     26  N2  UNL     1      -3.390   4.169 -22.353  0.00  0.00    -0.245 NA
ATOM     27  C20 UNL     1      -3.520   5.537 -22.195  0.00  0.00    +0.047 A 
ATOM     28  C21 UNL     1      -2.893   6.238 -21.239  0.00  0.00    +0.048 A 
ATOM     29  N3  UNL     1      -2.068   5.574 -20.347  0.00  0.00    -0.235 N 
ATOM     30  N4  UNL     1      -1.346   6.087 -19.332  0.00  0.00    -0.166 NA
ATOM     31  C22 UNL     1       0.601   6.497 -17.233  0.00  0.00    -0.049 A 
ATOM     32  C23 UNL     1       1.466   6.671 -16.147  0.00  0.00    -0.019 A 
ATOM     33  H   UNL     1      -4.489   2.823 -23.095  0.00  0.00    +0.000 HD
ENDROOT
TORSDOF 0
ENDMDL
MODEL 4
REMARK VINA RESULT:    -5.133     13.505     14.732
REMARK INTER + INTRA:          -5.133
REMARK INTER:                  -5.133
REMARK INTRA:                   0.000
REMARK UNBOUND:                 0.000
REMARK  Name = /home/vital/Documents/PhD_2021/Malaria_codes/scripts/../data/pdbqt_ligands/ligand_91_temp.pdb
REMARK                            x       y       z     vdW  Elec       q    Type
REMARK                         _______ _______ _______ _____ _____    ______ ____
ROOT
ATOM      1  C1  UNL     1      -1.146  -9.443 -34.521  0.00  0.00    -0.031 C 
ATOM      2  C2  UNL     1      -0.191  -8.632 -33.663  0.00  0.00    +0.087 C 
ATOM      3  O1  UNL     1       0.172  -7.461 -34.393  0.00  0.00    -0.492 OA
ATOM      4  C3  UNL     1       1.020  -6.582 -33.780  0.00  0.00    +0.121 A 
ATOM      5  C4  UNL     1       1.594  -6.735 -32.519  0.00  0.00    -0.019 A 
ATOM      6  C5  UNL     1       2.445  -5.744 -32.003  0.00  0.00    -0.049 A 
ATOM      7  C6  UNL     1       2.735  -4.587 -32.739  0.00  0.00    +0.002 A 
ATOM      8  C7  UNL     1       3.611  -3.537 -32.202  0.00  0.00    +0.094 A 
ATOM      9  C8  UNL     1       4.076  -3.379 -30.869  0.00  0.00    -0.006 A 
ATOM     10  C9  UNL     1       4.845  -2.239 -30.882  0.00  0.00    +0.099 A 
ATOM     11  C10 UNL     1       5.594  -1.487 -29.917  0.00  0.00    +0.123 A 
ATOM     12  S1  UNL     1       5.586  -2.089 -28.282  0.00  0.00    -0.094 S 
ATOM     13  C11 UNL     1       5.485  -0.524 -27.367  0.00  0.00    +0.077 C 
ATOM     14  C12 UNL     1       6.840   0.003 -26.911  0.00  0.00    +0.228 C 
ATOM     15  O2  UNL     1       6.961   0.457 -25.774  0.00  0.00    -0.275 OA
ATOM     16  N1  UNL     1       7.800   0.052 -27.904  0.00  0.00    -0.282 N 
ATOM     17  C13 UNL     1       9.159   0.406 -27.762  0.00  0.00    +0.077 A 
ATOM     18  C14 UNL     1       9.770   0.976 -28.888  0.00  0.00    -0.019 A 
ATOM     19  C15 UNL     1      11.106   1.370 -28.845  0.00  0.00    +0.043 A 
ATOM     20 CL1  UNL     1      11.830   2.083 -30.233  0.00  0.00    -0.083 Cl
ATOM     21  C16 UNL     1      11.863   1.182 -27.692  0.00  0.00    -0.040 A 
ATOM     22  C17 UNL     1      11.280   0.578 -26.579  0.00  0.00    -0.017 A 
ATOM     23  C18 UNL     1       9.931   0.188 -26.607  0.00  0.00    +0.141 A 
ATOM     24  O3  UNL     1       9.423  -0.567 -25.582  0.00  0.00    -0.493 OA
ATOM     25  C19 UNL     1       9.552   0.065 -24.309  0.00  0.00    +0.079 C 
ATOM     26  N2  UNL     1       6.262  -0.407 -30.220  0.00  0.00    -0.245 NA
ATOM     27  C20 UNL     1       6.219   0.013 -31.537  0.00  0.00    +0.047 A 
ATOM     28  C21 UNL     1       5.536  -0.625 -32.498  0.00  0.00    +0.048 A 
ATOM     29  N3  UNL     1       4.830  -1.773 -32.176  0.00  0.00    -0.235 N 
ATOM     30  N4  UNL     1       4.078  -2.548 -32.982  0.00  0.00    -0.166 NA
ATOM     31  C22 UNL     1       2.158  -4.450 -34.010  0.00  0.00    -0.049 A 
ATOM     32  C23 UNL     1       1.310  -5.438 -34.522  0.00  0.00    -0.019 A 
ATOM     33  H   UNL     1       7.503  -0.186 -28.812  0.00  0.00    +0.000 HD
ENDROOT
TORSDOF 0
ENDMDL
MODEL 5
REMARK VINA RESULT:    -4.724     16.728     20.830
REMARK INTER + INTRA:          -4.724
REMARK INTER:                  -4.724
REMARK INTRA:                   0.000
REMARK UNBOUND:                 0.000
REMARK  Name = /home/vital/Documents/PhD_2021/Malaria_codes/scripts/../data/pdbqt_ligands/ligand_91_temp.pdb
REMARK                            x       y       z     vdW  Elec       q    Type
REMARK                         _______ _______ _______ _____ _____    ______ ____
ROOT
ATOM      1  C1  UNL     1       5.847  -4.304 -32.411  0.00  0.00    -0.031 C 
ATOM      2  C2  UNL     1       4.554  -5.100 -32.432  0.00  0.00    +0.087 C 
ATOM      3  O1  UNL     1       3.792  -4.735 -31.283  0.00  0.00    -0.492 OA
ATOM      4  C3  UNL     1       2.573  -5.332 -31.127  0.00  0.00    +0.121 A 
ATOM      5  C4  UNL     1       2.014  -6.294 -31.966  0.00  0.00    -0.019 A 
ATOM      6  C5  UNL     1       0.743  -6.822 -31.692  0.00  0.00    -0.049 A 
ATOM      7  C6  UNL     1       0.010  -6.396 -30.575  0.00  0.00    +0.002 A 
ATOM      8  C7  UNL     1      -1.328  -6.929 -30.288  0.00  0.00    +0.094 A 
ATOM      9  C8  UNL     1      -2.166  -7.702 -31.136  0.00  0.00    -0.006 A 
ATOM     10  C9  UNL     1      -3.311  -7.931 -30.410  0.00  0.00    +0.099 A 
ATOM     11  C10 UNL     1      -4.558  -8.605 -30.632  0.00  0.00    +0.123 A 
ATOM     12  S1  UNL     1      -4.773  -9.354 -32.191  0.00  0.00    -0.094 S 
ATOM     13  C11 UNL     1      -6.520  -8.966 -32.492  0.00  0.00    +0.077 C 
ATOM     14  C12 UNL     1      -7.471 -10.087 -32.091  0.00  0.00    +0.228 C 
ATOM     15  O2  UNL     1      -8.403 -10.385 -32.835  0.00  0.00    -0.275 OA
ATOM     16  N1  UNL     1      -7.269 -10.581 -30.815  0.00  0.00    -0.282 N 
ATOM     17  C13 UNL     1      -7.929 -11.670 -30.207  0.00  0.00    +0.077 A 
ATOM     18  C14 UNL     1      -8.044 -11.620 -28.810  0.00  0.00    -0.019 A 
ATOM     19  C15 UNL     1      -8.689 -12.642 -28.117  0.00  0.00    +0.043 A 
ATOM     20 CL1  UNL     1      -8.833 -12.551 -26.404  0.00  0.00    -0.083 Cl
ATOM     21  C16 UNL     1      -9.207 -13.741 -28.795  0.00  0.00    -0.040 A 
ATOM     22  C17 UNL     1      -9.062 -13.824 -30.179  0.00  0.00    -0.017 A 
ATOM     23  C18 UNL     1      -8.425 -12.795 -30.890  0.00  0.00    +0.141 A 
ATOM     24  O3  UNL     1      -8.125 -12.971 -32.216  0.00  0.00    -0.493 OA
ATOM     25  C19 UNL     1      -9.275 -13.253 -33.013  0.00  0.00    +0.079 C 
ATOM     26  N2  UNL     1      -5.499  -8.676 -29.730  0.00  0.00    -0.245 NA
ATOM     27  C20 UNL     1      -5.259  -8.055 -28.518  0.00  0.00    +0.047 A 
ATOM     28  C21 UNL     1      -4.127  -7.395 -28.232  0.00  0.00    +0.048 A 
ATOM     29  N3  UNL     1      -3.127  -7.324 -29.189  0.00  0.00    -0.235 N 
ATOM     30  N4  UNL     1      -1.933  -6.707 -29.108  0.00  0.00    -0.166 NA
ATOM     31  C22 UNL     1       0.588  -5.435 -29.733  0.00  0.00    -0.049 A 
ATOM     32  C23 UNL     1       1.856  -4.911 -30.008  0.00  0.00    -0.019 A 
ATOM     33  H   UNL     1      -6.589 -10.121 -30.271  0.00  0.00    +0.000 HD
ENDROOT
TORSDOF 0
ENDMDL
MODEL 6
REMARK VINA RESULT:    -4.638     13.328     14.931
REMARK INTER + INTRA:          -4.638
REMARK INTER:                  -4.638
REMARK INTRA:                   0.000
REMARK UNBOUND:                 0.000
REMARK  Name = /home/vital/Documents/PhD_2021/Malaria_codes/scripts/../data/pdbqt_ligands/ligand_91_temp.pdb
REMARK                            x       y       z     vdW  Elec       q    Type
REMARK                         _______ _______ _______ _____ _____    ______ ____
ROOT
ATOM      1  C1  UNL     1       0.998  -8.793 -33.252  0.00  0.00    -0.031 C 
ATOM      2  C2  UNL     1       1.913  -7.583 -33.324  0.00  0.00    +0.087 C 
ATOM      3  O1  UNL     1       1.208  -6.464 -32.789  0.00  0.00    -0.492 OA
ATOM      4  C3  UNL     1       1.871  -5.270 -32.746  0.00  0.00    +0.121 A 
ATOM      5  C4  UNL     1       3.164  -5.030 -33.209  0.00  0.00    -0.019 A 
ATOM      6  C5  UNL     1       3.731  -3.751 -33.096  0.00  0.00    -0.049 A 
ATOM      7  C6  UNL     1       3.016  -2.693 -32.518  0.00  0.00    +0.002 A 
ATOM      8  C7  UNL     1       3.606  -1.355 -32.379  0.00  0.00    +0.094 A 
ATOM      9  C8  UNL     1       4.965  -0.973 -32.543  0.00  0.00    -0.006 A 
ATOM     10  C9  UNL     1       5.000   0.378 -32.288  0.00  0.00    +0.099 A 
ATOM     11  C10 UNL     1       6.008   1.397 -32.251  0.00  0.00    +0.123 A 
ATOM     12  S1  UNL     1       7.639   0.893 -32.602  0.00  0.00    -0.094 S 
ATOM     13  C11 UNL     1       8.549   1.895 -31.392  0.00  0.00    +0.077 C 
ATOM     14  C12 UNL     1       9.086   3.200 -31.964  0.00  0.00    +0.228 C 
ATOM     15  O2  UNL     1      10.229   3.559 -31.684  0.00  0.00    -0.275 OA
ATOM     16  N1  UNL     1       8.152   3.952 -32.652  0.00  0.00    -0.282 N 
ATOM     17  C13 UNL     1       8.376   5.151 -33.361  0.00  0.00    +0.077 A 
ATOM     18  C14 UNL     1       7.288   6.034 -33.440  0.00  0.00    -0.019 A 
ATOM     19  C15 UNL     1       7.412   7.250 -34.110  0.00  0.00    +0.043 A 
ATOM     20 CL1  UNL     1       6.070   8.325 -34.179  0.00  0.00    -0.083 Cl
ATOM     21  C16 UNL     1       8.607   7.598 -34.732  0.00  0.00    -0.040 A 
ATOM     22  C17 UNL     1       9.683   6.712 -34.697  0.00  0.00    -0.017 A 
ATOM     23  C18 UNL     1       9.574   5.489 -34.016  0.00  0.00    +0.141 A 
ATOM     24  O3  UNL     1      10.565   4.551 -34.144  0.00  0.00    -0.493 OA
ATOM     25  C19 UNL     1      11.845   5.036 -33.738  0.00  0.00    +0.079 C 
ATOM     26  N2  UNL     1       5.748   2.646 -31.978  0.00  0.00    -0.245 NA
ATOM     27  C20 UNL     1       4.431   2.971 -31.707  0.00  0.00    +0.047 A 
ATOM     28  C21 UNL     1       3.430   2.080 -31.710  0.00  0.00    +0.048 A 
ATOM     29  N3  UNL     1       3.707   0.754 -32.003  0.00  0.00    -0.235 N 
ATOM     30  N4  UNL     1       2.857  -0.290 -32.048  0.00  0.00    -0.166 NA
ATOM     31  C22 UNL     1       1.713  -2.945 -32.065  0.00  0.00    -0.049 A 
ATOM     32  C23 UNL     1       1.149  -4.221 -32.179  0.00  0.00    -0.019 A 
ATOM     33  H   UNL     1       7.227   3.614 -32.646  0.00  0.00    +0.000 HD
ENDROOT
TORSDOF 0
ENDMDL
MODEL 7
REMARK VINA RESULT:    -4.465     13.778     17.780
REMARK INTER + INTRA:          -4.465
REMARK INTER:                  -4.465
REMARK INTRA:                   0.000
REMARK UNBOUND:                 0.000
REMARK  Name = /home/vital/Documents/PhD_2021/Malaria_codes/scripts/../data/pdbqt_ligands/ligand_91_temp.pdb
REMARK                            x       y       z     vdW  Elec       q    Type
REMARK                         _______ _______ _______ _____ _____    ______ ____
ROOT
ATOM      1  C1  UNL     1       6.135  -5.490 -26.471  0.00  0.00    -0.031 C 
ATOM      2  C2  UNL     1       4.780  -5.284 -27.125  0.00  0.00    +0.087 C 
ATOM      3  O1  UNL     1       3.782  -5.805 -26.247  0.00  0.00    -0.492 OA
ATOM      4  C3  UNL     1       2.481  -5.698 -26.648  0.00  0.00    +0.121 A 
ATOM      5  C4  UNL     1       2.032  -5.158 -27.852  0.00  0.00    -0.019 A 
ATOM      6  C5  UNL     1       0.658  -5.101 -28.135  0.00  0.00    -0.049 A 
ATOM      7  C6  UNL     1      -0.288  -5.584 -27.219  0.00  0.00    +0.002 A 
ATOM      8  C7  UNL     1      -1.728  -5.515 -27.498  0.00  0.00    +0.094 A 
ATOM      9  C8  UNL     1      -2.391  -4.784 -28.522  0.00  0.00    -0.006 A 
ATOM     10  C9  UNL     1      -3.731  -5.037 -28.344  0.00  0.00    +0.099 A 
ATOM     11  C10 UNL     1      -4.951  -4.634 -28.980  0.00  0.00    +0.123 A 
ATOM     12  S1  UNL     1      -4.803  -3.543 -30.331  0.00  0.00    -0.094 S 
ATOM     13  C11 UNL     1      -6.230  -2.463 -30.025  0.00  0.00    +0.077 C 
ATOM     14  C12 UNL     1      -7.478  -2.869 -30.800  0.00  0.00    +0.228 C 
ATOM     15  O2  UNL     1      -8.159  -2.004 -31.348  0.00  0.00    -0.275 OA
ATOM     16  N1  UNL     1      -7.814  -4.205 -30.685  0.00  0.00    -0.282 N 
ATOM     17  C13 UNL     1      -8.854  -4.885 -31.355  0.00  0.00    +0.077 A 
ATOM     18  C14 UNL     1      -9.404  -5.987 -30.684  0.00  0.00    -0.019 A 
ATOM     19  C15 UNL     1     -10.444  -6.716 -31.256  0.00  0.00    +0.043 A 
ATOM     20 CL1  UNL     1     -11.115  -8.054 -30.407  0.00  0.00    -0.083 Cl
ATOM     21  C16 UNL     1     -10.938  -6.380 -32.513  0.00  0.00    -0.040 A 
ATOM     22  C17 UNL     1     -10.372  -5.313 -33.210  0.00  0.00    -0.017 A 
ATOM     23  C18 UNL     1      -9.331  -4.563 -32.638  0.00  0.00    +0.141 A 
ATOM     24  O3  UNL     1      -8.662  -3.642 -33.401  0.00  0.00    -0.493 OA
ATOM     25  C19 UNL     1      -9.522  -2.641 -33.946  0.00  0.00    +0.079 C 
ATOM     26  N2  UNL     1      -6.127  -5.050 -28.593  0.00  0.00    -0.245 NA
ATOM     27  C20 UNL     1      -6.166  -5.911 -27.512  0.00  0.00    +0.047 A 
ATOM     28  C21 UNL     1      -5.074  -6.330 -26.855  0.00  0.00    +0.048 A 
ATOM     29  N3  UNL     1      -3.828  -5.890 -27.268  0.00  0.00    -0.235 N 
ATOM     30  N4  UNL     1      -2.621  -6.178 -26.744  0.00  0.00    -0.166 NA
ATOM     31  C22 UNL     1       0.177  -6.133 -26.016  0.00  0.00    -0.049 A 
ATOM     32  C23 UNL     1       1.547  -6.189 -25.736  0.00  0.00    -0.019 A 
ATOM     33  H   UNL     1      -7.266  -4.743 -30.068  0.00  0.00    +0.000 HD
ENDROOT
TORSDOF 0
ENDMDL
MODEL 8
REMARK VINA RESULT:    -4.331      9.812     12.052
REMARK INTER + INTRA:          -4.331
REMARK INTER:                  -4.331
REMARK INTRA:                   0.000
REMARK UNBOUND:                 0.000
REMARK  Name = /home/vital/Documents/PhD_2021/Malaria_codes/scripts/../data/pdbqt_ligands/ligand_91_temp.pdb
REMARK                            x       y       z     vdW  Elec       q    Type
REMARK                         _______ _______ _______ _____ _____    ______ ____
ROOT
ATOM      1  C1  UNL     1     -10.689   8.764 -26.296  0.00  0.00    -0.031 C 
ATOM      2  C2  UNL     1      -9.985   7.465 -26.644  0.00  0.00    +0.087 C 
ATOM      3  O1  UNL     1      -9.775   6.739 -25.433  0.00  0.00    -0.492 OA
ATOM      4  C3  UNL     1      -9.165   5.520 -25.534  0.00  0.00    +0.121 A 
ATOM      5  C4  UNL     1      -8.696   4.929 -26.706  0.00  0.00    -0.019 A 
ATOM      6  C5  UNL     1      -8.094   3.662 -26.668  0.00  0.00    -0.049 A 
ATOM      7  C6  UNL     1      -7.952   2.965 -25.460  0.00  0.00    +0.002 A 
ATOM      8  C7  UNL     1      -7.339   1.632 -25.411  0.00  0.00    +0.094 A 
ATOM      9  C8  UNL     1      -7.039   0.763 -26.496  0.00  0.00    -0.006 A 
ATOM     10  C9  UNL     1      -6.495  -0.363 -25.923  0.00  0.00    +0.099 A 
ATOM     11  C10 UNL     1      -5.992  -1.621 -26.394  0.00  0.00    +0.123 A 
ATOM     12  S1  UNL     1      -6.044  -1.887 -28.115  0.00  0.00    -0.094 S 
ATOM     13  C11 UNL     1      -6.518  -3.639 -28.152  0.00  0.00    +0.077 C 
ATOM     14  C12 UNL     1      -5.332  -4.587 -28.285  0.00  0.00    +0.228 C 
ATOM     15  O2  UNL     1      -5.405  -5.543 -29.055  0.00  0.00    -0.275 OA
ATOM     16  N1  UNL     1      -4.307  -4.353 -27.387  0.00  0.00    -0.282 N 
ATOM     17  C13 UNL     1      -3.057  -5.004 -27.331  0.00  0.00    +0.077 A 
ATOM     18  C14 UNL     1      -2.456  -5.078 -26.065  0.00  0.00    -0.019 A 
ATOM     19  C15 UNL     1      -1.225  -5.711 -25.902  0.00  0.00    +0.043 A 
ATOM     20 CL1  UNL     1      -0.516  -5.806 -24.338  0.00  0.00    -0.083 Cl
ATOM     21  C16 UNL     1      -0.560  -6.258 -26.995  0.00  0.00    -0.040 A 
ATOM     22  C17 UNL     1      -1.125  -6.154 -28.266  0.00  0.00    -0.017 A 
ATOM     23  C18 UNL     1      -2.370  -5.529 -28.440  0.00  0.00    +0.141 A 
ATOM     24  O3  UNL     1      -2.827  -5.269 -29.706  0.00  0.00    -0.493 OA
ATOM     25  C19 UNL     1      -2.938  -6.444 -30.509  0.00  0.00    +0.079 C 
ATOM     26  N2  UNL     1      -5.508  -2.536 -25.599  0.00  0.00    -0.245 NA
ATOM     27  C20 UNL     1      -5.501  -2.256 -24.245  0.00  0.00    +0.047 A 
ATOM     28  C21 UNL     1      -5.961  -1.111 -23.721  0.00  0.00    +0.048 A 
ATOM     29  N3  UNL     1      -6.472  -0.139 -24.566  0.00  0.00    -0.235 N 
ATOM     30  N4  UNL     1      -6.989   1.063 -24.245  0.00  0.00    -0.166 NA
ATOM     31  C22 UNL     1      -8.420   3.575 -24.287  0.00  0.00    -0.049 A 
ATOM     32  C23 UNL     1      -9.020   4.839 -24.327  0.00  0.00    -0.019 A 
ATOM     33  H   UNL     1      -4.468  -3.654 -26.712  0.00  0.00    +0.000 HD
ENDROOT
TORSDOF 0
ENDMDL
MODEL 9
REMARK VINA RESULT:    -4.268     11.296     14.653
REMARK INTER + INTRA:          -4.268
REMARK INTER:                  -4.268
REMARK INTRA:                   0.000
REMARK UNBOUND:                 0.000
REMARK  Name = /home/vital/Documents/PhD_2021/Malaria_codes/scripts/../data/pdbqt_ligands/ligand_91_temp.pdb
REMARK                            x       y       z     vdW  Elec       q    Type
REMARK                         _______ _______ _______ _____ _____    ______ ____
ROOT
ATOM      1  C1  UNL     1      13.511   5.124 -30.570  0.00  0.00    -0.031 C 
ATOM      2  C2  UNL     1      12.633   4.775 -29.381  0.00  0.00    +0.087 C 
ATOM      3  O1  UNL     1      12.532   3.353 -29.310  0.00  0.00    -0.492 OA
ATOM      4  C3  UNL     1      11.793   2.831 -28.287  0.00  0.00    +0.121 A 
ATOM      5  C4  UNL     1      11.096   3.555 -27.321  0.00  0.00    -0.019 A 
ATOM      6  C5  UNL     1      10.380   2.888 -26.315  0.00  0.00    -0.049 A 
ATOM      7  C6  UNL     1      10.349   1.488 -26.258  0.00  0.00    +0.002 A 
ATOM      8  C7  UNL     1       9.616   0.780 -25.200  0.00  0.00    +0.094 A 
ATOM      9  C8  UNL     1       9.071   1.314 -24.001  0.00  0.00    -0.006 A 
ATOM     10  C9  UNL     1       8.505   0.244 -23.347  0.00  0.00    +0.099 A 
ATOM     11  C10 UNL     1       7.812   0.040 -22.109  0.00  0.00    +0.123 A 
ATOM     12  S1  UNL     1       7.580   1.444 -21.103  0.00  0.00    -0.094 S 
ATOM     13  C11 UNL     1       7.860   0.713 -19.466  0.00  0.00    +0.077 C 
ATOM     14  C12 UNL     1       6.578   0.294 -18.759  0.00  0.00    +0.228 C 
ATOM     15  O2  UNL     1       6.437   0.542 -17.562  0.00  0.00    -0.275 OA
ATOM     16  N1  UNL     1       5.727  -0.481 -19.526  0.00  0.00    -0.282 N 
ATOM     17  C13 UNL     1       4.439  -0.937 -19.175  0.00  0.00    +0.077 A 
ATOM     18  C14 UNL     1       4.029  -2.142 -19.765  0.00  0.00    -0.019 A 
ATOM     19  C15 UNL     1       2.778  -2.682 -19.474  0.00  0.00    +0.043 A 
ATOM     20 CL1  UNL     1       2.303  -4.170 -20.196  0.00  0.00    -0.083 Cl
ATOM     21  C16 UNL     1       1.905  -2.024 -18.614  0.00  0.00    -0.040 A 
ATOM     22  C17 UNL     1       2.282  -0.805 -18.053  0.00  0.00    -0.017 A 
ATOM     23  C18 UNL     1       3.545  -0.256 -18.330  0.00  0.00    +0.141 A 
ATOM     24  O3  UNL     1       3.832   1.022 -17.926  0.00  0.00    -0.493 OA
ATOM     25  C19 UNL     1       3.701   1.202 -16.516  0.00  0.00    +0.079 C 
ATOM     26  N2  UNL     1       7.360  -1.125 -21.729  0.00  0.00    -0.245 NA
ATOM     27  C20 UNL     1       7.584  -2.194 -22.578  0.00  0.00    +0.047 A 
ATOM     28  C21 UNL     1       8.232  -2.092 -23.747  0.00  0.00    +0.048 A 
ATOM     29  N3  UNL     1       8.708  -0.855 -24.150  0.00  0.00    -0.235 N 
ATOM     30  N4  UNL     1       9.387  -0.542 -25.270  0.00  0.00    -0.166 NA
ATOM     31  C22 UNL     1      11.047   0.771 -27.241  0.00  0.00    -0.049 A 
ATOM     32  C23 UNL     1      11.760   1.438 -28.243  0.00  0.00    -0.019 A 
ATOM     33  H   UNL     1       6.057  -0.743 -20.416  0.00  0.00    +0.000 HD
ENDROOT
TORSDOF 0
ENDMDL
