MODEL 1
REMARK VINA RESULT:    -4.905      0.000      0.000
REMARK INTER + INTRA:          -4.905
REMARK INTER:                  -4.905
REMARK INTRA:                   0.000
REMARK UNBOUND:                 0.000
REMARK  Name = /home/vital/Documents/PhD_2021/Malaria_codes/scripts/../data/pdbqt_ligands/ligand_451_temp.pdb
REMARK                            x       y       z     vdW  Elec       q    Type
REMARK                         _______ _______ _______ _____ _____    ______ ____
ROOT
ATOM      1  C1  UNL     1       7.570   3.369 -12.282  0.00  0.00    +0.079 C 
ATOM      2  O1  UNL     1       6.259   2.813 -12.281  0.00  0.00    -0.491 OA
ATOM      3  C2  UNL     1       5.281   3.555 -12.894  0.00  0.00    +0.165 A 
ATOM      4  C3  UNL     1       5.452   4.790 -13.511  0.00  0.00    +0.029 A 
ATOM      5  C4  UNL     1       4.348   5.416 -14.090  0.00  0.00    +0.162 A 
ATOM      6  O2  UNL     1       4.544   6.631 -14.691  0.00  0.00    -0.503 OA
ATOM      7  C5  UNL     1       3.070   4.842 -14.073  0.00  0.00    +0.165 A 
ATOM      8  O3  UNL     1       2.092   5.584 -14.686  0.00  0.00    -0.491 OA
ATOM      9  C6  UNL     1       0.781   5.028 -14.684  0.00  0.00    +0.079 C 
ATOM     10  C7  UNL     1       2.899   3.607 -13.456  0.00  0.00    +0.029 A 
ATOM     11  C8  UNL     1       4.003   2.981 -12.877  0.00  0.00    +0.162 A 
ATOM     12  O4  UNL     1       3.807   1.766 -12.275  0.00  0.00    -0.503 OA
ATOM     13  H   UNL     1       5.398   7.016 -14.704  0.00  0.00    +0.000 HD
ATOM     14  H   UNL     1       4.528   1.319 -11.877  0.00  0.00    +0.000 HD
ENDROOT
TORSDOF 0
ENDMDL
MODEL 2
REMARK VINA RESULT:    -4.894      0.188      4.812
REMARK INTER + INTRA:          -4.894
REMARK INTER:                  -4.894
REMARK INTRA:                   0.000
REMARK UNBOUND:                 0.000
REMARK  Name = /home/vital/Documents/PhD_2021/Malaria_codes/scripts/../data/pdbqt_ligands/ligand_451_temp.pdb
REMARK                            x       y       z     vdW  Elec       q    Type
REMARK                         _______ _______ _______ _____ _____    ______ ____
ROOT
ATOM      1  C1  UNL     1       0.808   4.942 -14.783  0.00  0.00    +0.079 C 
ATOM      2  O1  UNL     1       2.120   5.490 -14.703  0.00  0.00    -0.491 OA
ATOM      3  C2  UNL     1       3.060   4.726 -14.059  0.00  0.00    +0.165 A 
ATOM      4  C3  UNL     1       2.852   3.477 -13.483  0.00  0.00    +0.029 A 
ATOM      5  C4  UNL     1       3.921   2.830 -12.864  0.00  0.00    +0.162 A 
ATOM      6  O2  UNL     1       3.688   1.601 -12.305  0.00  0.00    -0.503 OA
ATOM      7  C5  UNL     1       5.202   3.396 -12.801  0.00  0.00    +0.165 A 
ATOM      8  O3  UNL     1       6.142   2.632 -12.157  0.00  0.00    -0.491 OA
ATOM      9  C6  UNL     1       7.454   3.180 -12.077  0.00  0.00    +0.079 C 
ATOM     10  C7  UNL     1       5.410   4.645 -13.377  0.00  0.00    +0.029 A 
ATOM     11  C8  UNL     1       4.341   5.292 -13.996  0.00  0.00    +0.162 A 
ATOM     12  O4  UNL     1       4.574   6.521 -14.555  0.00  0.00    -0.503 OA
ATOM     13  H   UNL     1       2.833   1.222 -12.346  0.00  0.00    +0.000 HD
ATOM     14  H   UNL     1       3.877   6.982 -14.979  0.00  0.00    +0.000 HD
ENDROOT
TORSDOF 0
ENDMDL
MODEL 3
REMARK VINA RESULT:    -4.857     21.774     22.478
REMARK INTER + INTRA:          -4.857
REMARK INTER:                  -4.857
REMARK INTRA:                   0.000
REMARK UNBOUND:                 0.000
REMARK  Name = /home/vital/Documents/PhD_2021/Malaria_codes/scripts/../data/pdbqt_ligands/ligand_451_temp.pdb
REMARK                            x       y       z     vdW  Elec       q    Type
REMARK                         _______ _______ _______ _____ _____    ______ ____
ROOT
ATOM      1  C1  UNL     1       3.726  -4.377 -32.072  0.00  0.00    +0.079 C 
ATOM      2  O1  UNL     1       3.306  -5.337 -33.036  0.00  0.00    -0.491 OA
ATOM      3  C2  UNL     1       2.428  -6.296 -32.598  0.00  0.00    +0.165 A 
ATOM      4  C3  UNL     1       1.917  -6.416 -31.310  0.00  0.00    +0.029 A 
ATOM      5  C4  UNL     1       1.029  -7.455 -31.029  0.00  0.00    +0.162 A 
ATOM      6  O2  UNL     1       0.540  -7.551 -29.752  0.00  0.00    -0.503 OA
ATOM      7  C5  UNL     1       0.634  -8.384 -32.001  0.00  0.00    +0.165 A 
ATOM      8  O3  UNL     1      -0.244  -9.344 -31.562  0.00  0.00    -0.491 OA
ATOM      9  C6  UNL     1      -0.664 -10.303 -32.527  0.00  0.00    +0.079 C 
ATOM     10  C7  UNL     1       1.146  -8.264 -33.288  0.00  0.00    +0.029 A 
ATOM     11  C8  UNL     1       2.033  -7.226 -33.570  0.00  0.00    +0.162 A 
ATOM     12  O4  UNL     1       2.522  -7.130 -34.846  0.00  0.00    -0.503 OA
ATOM     13  H   UNL     1       0.804  -6.931 -29.102  0.00  0.00    +0.000 HD
ATOM     14  H   UNL     1       3.119  -6.444 -35.069  0.00  0.00    +0.000 HD
ENDROOT
TORSDOF 0
ENDMDL
MODEL 4
REMARK VINA RESULT:    -4.845     21.777     22.509
REMARK INTER + INTRA:          -4.845
REMARK INTER:                  -4.845
REMARK INTRA:                   0.000
REMARK UNBOUND:                 0.000
REMARK  Name = /home/vital/Documents/PhD_2021/Malaria_codes/scripts/../data/pdbqt_ligands/ligand_451_temp.pdb
REMARK                            x       y       z     vdW  Elec       q    Type
REMARK                         _______ _______ _______ _____ _____    ______ ____
ROOT
ATOM      1  C1  UNL     1      -0.839 -10.141 -32.455  0.00  0.00    +0.079 C 
ATOM      2  O1  UNL     1      -0.312  -9.220 -31.504  0.00  0.00    -0.491 OA
ATOM      3  C2  UNL     1       0.604  -8.315 -31.976  0.00  0.00    +0.165 A 
ATOM      4  C3  UNL     1       1.062  -8.214 -33.286  0.00  0.00    +0.029 A 
ATOM      5  C4  UNL     1       2.000  -7.232 -33.602  0.00  0.00    +0.162 A 
ATOM      6  O2  UNL     1       2.434  -7.155 -34.899  0.00  0.00    -0.503 OA
ATOM      7  C5  UNL     1       2.500  -6.340 -32.643  0.00  0.00    +0.165 A 
ATOM      8  O3  UNL     1       3.416  -5.435 -33.115  0.00  0.00    -0.491 OA
ATOM      9  C6  UNL     1       3.943  -4.514 -32.165  0.00  0.00    +0.079 C 
ATOM     10  C7  UNL     1       2.042  -6.440 -31.333  0.00  0.00    +0.029 A 
ATOM     11  C8  UNL     1       1.104  -7.423 -31.018  0.00  0.00    +0.162 A 
ATOM     12  O4  UNL     1       0.670  -7.500 -29.720  0.00  0.00    -0.503 OA
ATOM     13  H   UNL     1       2.101  -7.750 -35.541  0.00  0.00    +0.000 HD
ATOM     14  H   UNL     1       0.040  -8.148 -29.475  0.00  0.00    +0.000 HD
ENDROOT
TORSDOF 0
ENDMDL
MODEL 5
REMARK VINA RESULT:    -4.578      1.963      2.936
REMARK INTER + INTRA:          -4.578
REMARK INTER:                  -4.578
REMARK INTRA:                   0.000
REMARK UNBOUND:                 0.000
REMARK  Name = /home/vital/Documents/PhD_2021/Malaria_codes/scripts/../data/pdbqt_ligands/ligand_451_temp.pdb
REMARK                            x       y       z     vdW  Elec       q    Type
REMARK                         _______ _______ _______ _____ _____    ______ ____
ROOT
ATOM      1  C1  UNL     1       5.596   2.918 -12.517  0.00  0.00    +0.079 C 
ATOM      2  O1  UNL     1       4.608   3.941 -12.444  0.00  0.00    -0.491 OA
ATOM      3  C2  UNL     1       3.589   3.870 -13.360  0.00  0.00    +0.165 A 
ATOM      4  C3  UNL     1       3.433   2.899 -14.343  0.00  0.00    +0.029 A 
ATOM      5  C4  UNL     1       2.333   2.973 -15.198  0.00  0.00    +0.162 A 
ATOM      6  O2  UNL     1       2.203   2.004 -16.158  0.00  0.00    -0.503 OA
ATOM      7  C5  UNL     1       1.377   3.993 -15.100  0.00  0.00    +0.165 A 
ATOM      8  O3  UNL     1       0.358   3.922 -16.016  0.00  0.00    -0.491 OA
ATOM      9  C6  UNL     1      -0.630   4.945 -15.943  0.00  0.00    +0.079 C 
ATOM     10  C7  UNL     1       1.534   4.964 -14.117  0.00  0.00    +0.029 A 
ATOM     11  C8  UNL     1       2.633   4.891 -13.262  0.00  0.00    +0.162 A 
ATOM     12  O4  UNL     1       2.763   5.860 -12.302  0.00  0.00    -0.503 OA
ATOM     13  H   UNL     1       2.841   1.321 -16.224  0.00  0.00    +0.000 HD
ATOM     14  H   UNL     1       3.490   5.840 -11.711  0.00  0.00    +0.000 HD
ENDROOT
TORSDOF 0
ENDMDL
MODEL 6
REMARK VINA RESULT:    -4.568     21.631     22.392
REMARK INTER + INTRA:          -4.568
REMARK INTER:                  -4.568
REMARK INTRA:                   0.000
REMARK UNBOUND:                 0.000
REMARK  Name = /home/vital/Documents/PhD_2021/Malaria_codes/scripts/../data/pdbqt_ligands/ligand_451_temp.pdb
REMARK                            x       y       z     vdW  Elec       q    Type
REMARK                         _______ _______ _______ _____ _____    ______ ____
ROOT
ATOM      1  C1  UNL     1      -1.211  -9.222 -31.350  0.00  0.00    +0.079 C 
ATOM      2  O1  UNL     1      -0.275  -9.080 -32.414  0.00  0.00    -0.491 OA
ATOM      3  C2  UNL     1       0.687  -8.116 -32.254  0.00  0.00    +0.165 A 
ATOM      4  C3  UNL     1       0.832  -7.272 -31.158  0.00  0.00    +0.029 A 
ATOM      5  C4  UNL     1       1.870  -6.341 -31.153  0.00  0.00    +0.162 A 
ATOM      6  O2  UNL     1       1.991  -5.522 -30.062  0.00  0.00    -0.503 OA
ATOM      7  C5  UNL     1       2.776  -6.226 -32.217  0.00  0.00    +0.165 A 
ATOM      8  O3  UNL     1       3.738  -5.261 -32.057  0.00  0.00    -0.491 OA
ATOM      9  C6  UNL     1       4.674  -5.119 -33.121  0.00  0.00    +0.079 C 
ATOM     10  C7  UNL     1       2.631  -7.070 -33.313  0.00  0.00    +0.029 A 
ATOM     11  C8  UNL     1       1.593  -8.001 -33.318  0.00  0.00    +0.162 A 
ATOM     12  O4  UNL     1       1.473  -8.820 -34.409  0.00  0.00    -0.503 OA
ATOM     13  H   UNL     1       1.386  -5.597 -29.350  0.00  0.00    +0.000 HD
ATOM     14  H   UNL     1       0.786  -9.457 -34.444  0.00  0.00    +0.000 HD
ENDROOT
TORSDOF 0
ENDMDL
MODEL 7
REMARK VINA RESULT:    -4.482      2.003      4.615
REMARK INTER + INTRA:          -4.482
REMARK INTER:                  -4.482
REMARK INTRA:                   0.000
REMARK UNBOUND:                 0.000
REMARK  Name = /home/vital/Documents/PhD_2021/Malaria_codes/scripts/../data/pdbqt_ligands/ligand_451_temp.pdb
REMARK                            x       y       z     vdW  Elec       q    Type
REMARK                         _______ _______ _______ _____ _____    ______ ____
ROOT
ATOM      1  C1  UNL     1      -0.536   4.657 -16.023  0.00  0.00    +0.079 C 
ATOM      2  O1  UNL     1       0.561   3.755 -16.124  0.00  0.00    -0.491 OA
ATOM      3  C2  UNL     1       1.546   3.886 -15.178  0.00  0.00    +0.165 A 
ATOM      4  C3  UNL     1       1.571   4.810 -14.139  0.00  0.00    +0.029 A 
ATOM      5  C4  UNL     1       2.653   4.810 -13.259  0.00  0.00    +0.162 A 
ATOM      6  O2  UNL     1       2.653   5.730 -12.245  0.00  0.00    -0.503 OA
ATOM      7  C5  UNL     1       3.719   3.908 -13.385  0.00  0.00    +0.165 A 
ATOM      8  O3  UNL     1       4.704   4.038 -12.439  0.00  0.00    -0.491 OA
ATOM      9  C6  UNL     1       5.801   3.136 -12.540  0.00  0.00    +0.079 C 
ATOM     10  C7  UNL     1       3.693   2.983 -14.424  0.00  0.00    +0.029 A 
ATOM     11  C8  UNL     1       2.611   2.983 -15.304  0.00  0.00    +0.162 A 
ATOM     12  O4  UNL     1       2.611   2.063 -16.319  0.00  0.00    -0.503 OA
ATOM     13  H   UNL     1       1.942   6.334 -12.159  0.00  0.00    +0.000 HD
ATOM     14  H   UNL     1       1.899   2.036 -16.927  0.00  0.00    +0.000 HD
ENDROOT
TORSDOF 0
ENDMDL
MODEL 8
REMARK VINA RESULT:    -4.365     21.968     22.735
REMARK INTER + INTRA:          -4.365
REMARK INTER:                  -4.365
REMARK INTRA:                   0.000
REMARK UNBOUND:                 0.000
REMARK  Name = /home/vital/Documents/PhD_2021/Malaria_codes/scripts/../data/pdbqt_ligands/ligand_451_temp.pdb
REMARK                            x       y       z     vdW  Elec       q    Type
REMARK                         _______ _______ _______ _____ _____    ______ ____
ROOT
ATOM      1  C1  UNL     1       4.495  -4.268 -32.311  0.00  0.00    +0.079 C 
ATOM      2  O1  UNL     1       3.502  -4.369 -33.327  0.00  0.00    -0.491 OA
ATOM      3  C2  UNL     1       2.588  -5.382 -33.187  0.00  0.00    +0.165 A 
ATOM      4  C3  UNL     1       2.543  -6.312 -32.153  0.00  0.00    +0.029 A 
ATOM      5  C4  UNL     1       1.543  -7.284 -32.161  0.00  0.00    +0.162 A 
ATOM      6  O2  UNL     1       1.521  -8.188 -31.131  0.00  0.00    -0.503 OA
ATOM      7  C5  UNL     1       0.579  -7.357 -33.176  0.00  0.00    +0.165 A 
ATOM      8  O3  UNL     1      -0.335  -8.371 -33.036  0.00  0.00    -0.491 OA
ATOM      9  C6  UNL     1      -1.327  -8.471 -34.052  0.00  0.00    +0.079 C 
ATOM     10  C7  UNL     1       0.624  -6.427 -34.209  0.00  0.00    +0.029 A 
ATOM     11  C8  UNL     1       1.625  -5.455 -34.202  0.00  0.00    +0.162 A 
ATOM     12  O4  UNL     1       1.647  -4.552 -35.231  0.00  0.00    -0.503 OA
ATOM     13  H   UNL     1       2.165  -8.140 -30.452  0.00  0.00    +0.000 HD
ATOM     14  H   UNL     1       2.305  -3.886 -35.257  0.00  0.00    +0.000 HD
ENDROOT
TORSDOF 0
ENDMDL
MODEL 9
REMARK VINA RESULT:    -4.257     21.981     22.784
REMARK INTER + INTRA:          -4.257
REMARK INTER:                  -4.257
REMARK INTRA:                   0.000
REMARK UNBOUND:                 0.000
REMARK  Name = /home/vital/Documents/PhD_2021/Malaria_codes/scripts/../data/pdbqt_ligands/ligand_451_temp.pdb
REMARK                            x       y       z     vdW  Elec       q    Type
REMARK                         _______ _______ _______ _____ _____    ______ ____
ROOT
ATOM      1  C1  UNL     1      -1.100  -8.437 -34.253  0.00  0.00    +0.079 C 
ATOM      2  O1  UNL     1      -0.142  -8.317 -33.206  0.00  0.00    -0.491 OA
ATOM      3  C2  UNL     1       0.740  -7.271 -33.305  0.00  0.00    +0.165 A 
ATOM      4  C3  UNL     1       0.784  -6.326 -34.324  0.00  0.00    +0.029 A 
ATOM      5  C4  UNL     1       1.750  -5.321 -34.273  0.00  0.00    +0.162 A 
ATOM      6  O2  UNL     1       1.772  -4.402 -35.290  0.00  0.00    -0.503 OA
ATOM      7  C5  UNL     1       2.680  -5.230 -33.228  0.00  0.00    +0.165 A 
ATOM      8  O3  UNL     1       3.562  -4.184 -33.327  0.00  0.00    -0.491 OA
ATOM      9  C6  UNL     1       4.520  -4.064 -32.280  0.00  0.00    +0.079 C 
ATOM     10  C7  UNL     1       2.635  -6.175 -32.209  0.00  0.00    +0.029 A 
ATOM     11  C8  UNL     1       1.669  -7.180 -32.259  0.00  0.00    +0.162 A 
ATOM     12  O4  UNL     1       1.647  -8.098 -31.243  0.00  0.00    -0.503 OA
ATOM     13  H   UNL     1       1.152  -4.462 -35.989  0.00  0.00    +0.000 HD
ATOM     14  H   UNL     1       1.011  -8.786 -31.246  0.00  0.00    +0.000 HD
ENDROOT
TORSDOF 0
ENDMDL
