MODEL 1
REMARK VINA RESULT:    -6.040      0.000      0.000
REMARK INTER + INTRA:          -6.040
REMARK INTER:                  -6.040
REMARK INTRA:                   0.000
REMARK UNBOUND:                 0.000
REMARK  Name = /home/vital/Documents/PhD_2021/Malaria_codes/scripts/../data/pdbqt_ligands/ligand_48_temp.pdb
REMARK                            x       y       z     vdW  Elec       q    Type
REMARK                         _______ _______ _______ _____ _____    ______ ____
ROOT
ATOM      1  O1  UNL     1      -1.295   1.375 -24.051  0.00  0.00    -0.393 OA
ATOM      2  C1  UNL     1      -1.577   1.170 -22.670  0.00  0.00    +0.060 C 
ATOM      3  C2  UNL     1      -1.048  -0.187 -22.186  0.00  0.00    +0.034 C 
ATOM      4  N1  UNL     1      -1.805  -1.288 -22.793  0.00  0.00    -0.326 N 
ATOM      5  C3  UNL     1      -1.450  -2.579 -22.342  0.00  0.00    +0.132 A 
ATOM      6  N2  UNL     1      -0.479  -2.698 -21.422  0.00  0.00    -0.199 NA
ATOM      7  C4  UNL     1      -0.156  -3.925 -21.003  0.00  0.00    +0.218 A 
ATOM      8  N3  UNL     1       0.842  -4.103 -20.061  0.00  0.00    -0.310 N 
ATOM      9  C5  UNL     1       1.914  -3.134 -20.029  0.00  0.00    +0.032 C 
ATOM     10  C6  UNL     1       2.824  -3.338 -21.202  0.00  0.00    -0.048 C 
ATOM     11  C7  UNL     1       4.057  -3.876 -21.212  0.00  0.00    +0.053 C 
ATOM     12 CL1  UNL     1       4.783  -4.487 -19.755  0.00  0.00    -0.083 Cl
ATOM     13  C8  UNL     1       4.867  -3.980 -22.433  0.00  0.00    +0.036 C 
ATOM     14  C9  UNL     1       5.008  -2.888 -23.152  0.00  0.00    -0.110 C 
ATOM     15  C10 UNL     1       5.246  -1.870 -23.954  0.00  0.00    -0.015 C 
ATOM     16  C11 UNL     1       4.680  -0.492 -23.700  0.00  0.00    -0.023 C 
ATOM     17  C12 UNL     1       5.080   0.121 -22.349  0.00  0.00    -0.049 C 
ATOM     18  C13 UNL     1       6.588   0.254 -22.111  0.00  0.00    -0.051 C 
ATOM     19  C14 UNL     1       7.272   1.218 -23.079  0.00  0.00    -0.029 C 
ATOM     20  C15 UNL     1       8.765   1.331 -22.793  0.00  0.00    +0.049 C 
ATOM     21  O2  UNL     1       9.331   2.236 -23.736  0.00  0.00    -0.364 OA
ATOM     22  C16 UNL     1      10.734   2.364 -23.560  0.00  0.00    +0.121 C 
ATOM     23 CL2  UNL     1      11.353   3.506 -24.764  0.00  0.00    -0.095 Cl
ATOM     24  C17 UNL     1       6.080  -2.021 -25.239  0.00  0.00    +0.038 C 
ATOM     25  C18 UNL     1       6.571  -3.402 -25.304  0.00  0.00    -0.093 C 
ATOM     26  C19 UNL     1       6.634  -4.514 -24.860  0.00  0.00    -0.074 C 
ATOM     27  C20 UNL     1       6.319  -5.514 -23.906  0.00  0.00    -0.010 C 
ATOM     28  C21 UNL     1       5.533  -5.247 -22.840  0.00  0.00    -0.037 C 
ATOM     29  N4  UNL     1      -0.734  -5.045 -21.441  0.00  0.00    -0.214 NA
ATOM     30  C22 UNL     1      -1.688  -4.932 -22.369  0.00  0.00    +0.078 A 
ATOM     31  C23 UNL     1      -2.293  -6.088 -22.848  0.00  0.00    -0.036 A 
ATOM     32  C24 UNL     1      -3.287  -6.052 -23.830  0.00  0.00    -0.060 A 
ATOM     33  C25 UNL     1      -3.690  -4.833 -24.357  0.00  0.00    -0.061 A 
ATOM     34  C26 UNL     1      -3.100  -3.661 -23.891  0.00  0.00    -0.049 A 
ATOM     35  C27 UNL     1      -2.099  -3.700 -22.884  0.00  0.00    +0.040 A 
ATOM     36  H   UNL     1      -1.640   2.237 -24.327  0.00  0.00    +0.000 HD
ATOM     37  H   UNL     1      -2.508  -1.138 -23.466  0.00  0.00    +0.000 HD
ATOM     38  H   UNL     1       0.822  -4.862 -19.435  0.00  0.00    +0.000 HD
ENDROOT
TORSDOF 0
ENDMDL
MODEL 2
REMARK VINA RESULT:    -5.781      7.607     11.575
REMARK INTER + INTRA:          -5.781
REMARK INTER:                  -5.781
REMARK INTRA:                   0.000
REMARK UNBOUND:                 0.000
REMARK  Name = /home/vital/Documents/PhD_2021/Malaria_codes/scripts/../data/pdbqt_ligands/ligand_48_temp.pdb
REMARK                            x       y       z     vdW  Elec       q    Type
REMARK                         _______ _______ _______ _____ _____    ______ ____
ROOT
ATOM      1  O1  UNL     1       3.659  -0.464 -21.506  0.00  0.00    -0.393 OA
ATOM      2  C1  UNL     1       3.086  -1.067 -20.349  0.00  0.00    +0.060 C 
ATOM      3  C2  UNL     1       3.233  -0.164 -19.117  0.00  0.00    +0.034 C 
ATOM      4  N1  UNL     1       4.640  -0.061 -18.711  0.00  0.00    -0.326 N 
ATOM      5  C3  UNL     1       4.870   0.680 -17.531  0.00  0.00    +0.132 A 
ATOM      6  N2  UNL     1       3.819   1.216 -16.889  0.00  0.00    -0.199 NA
ATOM      7  C4  UNL     1       4.052   1.911 -15.773  0.00  0.00    +0.218 A 
ATOM      8  N3  UNL     1       3.006   2.490 -15.076  0.00  0.00    -0.310 N 
ATOM      9  C5  UNL     1       1.844   2.900 -15.833  0.00  0.00    +0.032 C 
ATOM     10  C6  UNL     1       2.157   4.136 -16.620  0.00  0.00    -0.048 C 
ATOM     11  C7  UNL     1       1.756   5.398 -16.379  0.00  0.00    +0.053 C 
ATOM     12 CL1  UNL     1       0.786   5.782 -14.988  0.00  0.00    -0.083 Cl
ATOM     13  C8  UNL     1       2.100   6.522 -17.260  0.00  0.00    +0.036 C 
ATOM     14  C9  UNL     1       1.861   6.370 -18.544  0.00  0.00    -0.110 C 
ATOM     15  C10 UNL     1       1.658   6.359 -19.846  0.00  0.00    -0.015 C 
ATOM     16  C11 UNL     1       1.068   5.166 -20.562  0.00  0.00    -0.023 C 
ATOM     17  C12 UNL     1      -0.323   4.748 -20.063  0.00  0.00    -0.049 C 
ATOM     18  C13 UNL     1      -1.400   5.836 -20.136  0.00  0.00    -0.051 C 
ATOM     19  C14 UNL     1      -1.725   6.271 -21.564  0.00  0.00    -0.029 C 
ATOM     20  C15 UNL     1      -2.812   7.340 -21.588  0.00  0.00    +0.049 C 
ATOM     21  O2  UNL     1      -3.053   7.698 -22.946  0.00  0.00    -0.364 OA
ATOM     22  C16 UNL     1      -4.030   8.724 -23.050  0.00  0.00    +0.121 C 
ATOM     23 CL2  UNL     1      -4.271   9.103 -24.762  0.00  0.00    -0.095 Cl
ATOM     24  C17 UNL     1       2.054   7.547 -20.743  0.00  0.00    +0.038 C 
ATOM     25  C18 UNL     1       2.572   8.615 -19.882  0.00  0.00    -0.093 C 
ATOM     26  C19 UNL     1       2.874   9.036 -18.800  0.00  0.00    -0.074 C 
ATOM     27  C20 UNL     1       3.018   8.924 -17.395  0.00  0.00    -0.010 C 
ATOM     28  C21 UNL     1       2.666   7.796 -16.740  0.00  0.00    -0.037 C 
ATOM     29  N4  UNL     1       5.264   2.112 -15.251  0.00  0.00    -0.214 NA
ATOM     30  C22 UNL     1       6.313   1.596 -15.896  0.00  0.00    +0.078 A 
ATOM     31  C23 UNL     1       7.586   1.805 -15.377  0.00  0.00    -0.036 A 
ATOM     32  C24 UNL     1       8.733   1.310 -16.003  0.00  0.00    -0.060 A 
ATOM     33  C25 UNL     1       8.616   0.590 -17.183  0.00  0.00    -0.061 A 
ATOM     34  C26 UNL     1       7.351   0.365 -17.721  0.00  0.00    -0.049 A 
ATOM     35  C27 UNL     1       6.187   0.858 -17.076  0.00  0.00    +0.040 A 
ATOM     36  H   UNL     1       3.552  -1.056 -22.266  0.00  0.00    +0.000 HD
ATOM     37  H   UNL     1       5.370  -0.477 -19.225  0.00  0.00    +0.000 HD
ATOM     38  H   UNL     1       3.050   2.617 -14.101  0.00  0.00    +0.000 HD
ENDROOT
TORSDOF 0
ENDMDL
MODEL 3
REMARK VINA RESULT:    -5.764     10.626     14.526
REMARK INTER + INTRA:          -5.764
REMARK INTER:                  -5.764
REMARK INTRA:                   0.000
REMARK UNBOUND:                 0.000
REMARK  Name = /home/vital/Documents/PhD_2021/Malaria_codes/scripts/../data/pdbqt_ligands/ligand_48_temp.pdb
REMARK                            x       y       z     vdW  Elec       q    Type
REMARK                         _______ _______ _______ _____ _____    ______ ____
ROOT
ATOM      1  O1  UNL     1       6.150  -4.440 -33.480  0.00  0.00    -0.393 OA
ATOM      2  C1  UNL     1       6.163  -4.168 -32.081  0.00  0.00    +0.060 C 
ATOM      3  C2  UNL     1       5.465  -2.838 -31.764  0.00  0.00    +0.034 C 
ATOM      4  N1  UNL     1       6.245  -1.706 -32.276  0.00  0.00    -0.326 N 
ATOM      5  C3  UNL     1       5.729  -0.430 -31.957  0.00  0.00    +0.132 A 
ATOM      6  N2  UNL     1       4.602  -0.352 -31.231  0.00  0.00    -0.199 NA
ATOM      7  C4  UNL     1       4.127   0.861 -30.935  0.00  0.00    +0.218 A 
ATOM      8  N3  UNL     1       2.965   0.997 -30.195  0.00  0.00    -0.310 N 
ATOM      9  C5  UNL     1       1.972  -0.047 -30.310  0.00  0.00    +0.032 C 
ATOM     10  C6  UNL     1       1.279   0.050 -31.635  0.00  0.00    -0.048 C 
ATOM     11  C7  UNL     1       0.034   0.494 -31.891  0.00  0.00    +0.053 C 
ATOM     12 CL1  UNL     1      -0.983   1.099 -30.617  0.00  0.00    -0.083 Cl
ATOM     13  C8  UNL     1      -0.545   0.497 -33.240  0.00  0.00    +0.036 C 
ATOM     14  C9  UNL     1      -0.481  -0.626 -33.921  0.00  0.00    -0.110 C 
ATOM     15  C10 UNL     1      -0.500  -1.686 -34.705  0.00  0.00    -0.015 C 
ATOM     16  C11 UNL     1       0.100  -3.009 -34.289  0.00  0.00    -0.023 C 
ATOM     17  C12 UNL     1      -0.497  -3.604 -33.005  0.00  0.00    -0.049 C 
ATOM     18  C13 UNL     1      -2.011  -3.839 -33.034  0.00  0.00    -0.051 C 
ATOM     19  C14 UNL     1      -2.442  -4.884 -34.063  0.00  0.00    -0.029 C 
ATOM     20  C15 UNL     1      -3.952  -5.097 -34.043  0.00  0.00    +0.049 C 
ATOM     21  O2  UNL     1      -4.275  -6.073 -35.029  0.00  0.00    -0.364 OA
ATOM     22  C16 UNL     1      -5.675  -6.298 -35.101  0.00  0.00    +0.121 C 
ATOM     23 CL2  UNL     1      -5.987  -7.522 -36.342  0.00  0.00    -0.095 Cl
ATOM     24  C17 UNL     1      -1.096  -1.640 -36.124  0.00  0.00    +0.038 C 
ATOM     25  C18 UNL     1      -1.657  -0.302 -36.339  0.00  0.00    -0.093 C 
ATOM     26  C19 UNL     1      -1.874   0.816 -35.966  0.00  0.00    -0.074 C 
ATOM     27  C20 UNL     1      -1.805   1.868 -35.019  0.00  0.00    -0.010 C 
ATOM     28  C21 UNL     1      -1.209   1.696 -33.818  0.00  0.00    -0.037 C 
ATOM     29  N4  UNL     1       4.699   2.005 -31.314  0.00  0.00    -0.214 NA
ATOM     30  C22 UNL     1       5.811   1.932 -32.050  0.00  0.00    +0.078 A 
ATOM     31  C23 UNL     1       6.415   3.112 -32.467  0.00  0.00    -0.036 A 
ATOM     32  C24 UNL     1       7.571   3.117 -33.252  0.00  0.00    -0.060 A 
ATOM     33  C25 UNL     1       8.142   1.914 -33.642  0.00  0.00    -0.061 A 
ATOM     34  C26 UNL     1       7.557   0.718 -33.234  0.00  0.00    -0.049 A 
ATOM     35  C27 UNL     1       6.390   0.717 -32.426  0.00  0.00    +0.040 A 
ATOM     36  H   UNL     1       6.597  -5.284 -33.649  0.00  0.00    +0.000 HD
ATOM     37  H   UNL     1       7.067  -1.826 -32.805  0.00  0.00    +0.000 HD
ATOM     38  H   UNL     1       2.820   1.776 -29.612  0.00  0.00    +0.000 HD
ENDROOT
TORSDOF 0
ENDMDL
MODEL 4
REMARK VINA RESULT:    -5.696      8.684     11.877
REMARK INTER + INTRA:          -5.696
REMARK INTER:                  -5.696
REMARK INTRA:                   0.000
REMARK UNBOUND:                 0.000
REMARK  Name = /home/vital/Documents/PhD_2021/Malaria_codes/scripts/../data/pdbqt_ligands/ligand_48_temp.pdb
REMARK                            x       y       z     vdW  Elec       q    Type
REMARK                         _______ _______ _______ _____ _____    ______ ____
ROOT
ATOM      1  O1  UNL     1      -3.829   4.093 -22.337  0.00  0.00    -0.393 OA
ATOM      2  C1  UNL     1      -3.071   3.700 -23.477  0.00  0.00    +0.060 C 
ATOM      3  C2  UNL     1      -1.964   4.717 -23.790  0.00  0.00    +0.034 C 
ATOM      4  N1  UNL     1      -2.539   5.984 -24.258  0.00  0.00    -0.326 N 
ATOM      5  C3  UNL     1      -1.597   6.958 -24.657  0.00  0.00    +0.132 A 
ATOM      6  N2  UNL     1      -0.289   6.661 -24.581  0.00  0.00    -0.199 NA
ATOM      7  C4  UNL     1       0.590   7.591 -24.964  0.00  0.00    +0.218 A 
ATOM      8  N3  UNL     1       1.949   7.339 -24.900  0.00  0.00    -0.310 N 
ATOM      9  C5  UNL     1       2.414   6.429 -23.877  0.00  0.00    +0.032 C 
ATOM     10  C6  UNL     1       2.355   7.095 -22.536  0.00  0.00    -0.048 C 
ATOM     11  C7  UNL     1       3.377   7.566 -21.797  0.00  0.00    +0.053 C 
ATOM     12 CL1  UNL     1       5.014   7.493 -22.378  0.00  0.00    -0.083 Cl
ATOM     13  C8  UNL     1       3.186   8.162 -20.468  0.00  0.00    +0.036 C 
ATOM     14  C9  UNL     1       2.479   7.473 -19.600  0.00  0.00    -0.110 C 
ATOM     15  C10 UNL     1       1.808   6.885 -18.630  0.00  0.00    -0.015 C 
ATOM     16  C11 UNL     1       1.147   5.538 -18.807  0.00  0.00    -0.023 C 
ATOM     17  C12 UNL     1       2.105   4.405 -19.206  0.00  0.00    -0.049 C 
ATOM     18  C13 UNL     1       3.268   4.160 -18.239  0.00  0.00    -0.051 C 
ATOM     19  C14 UNL     1       2.819   3.683 -16.859  0.00  0.00    -0.029 C 
ATOM     20  C15 UNL     1       4.009   3.436 -15.939  0.00  0.00    +0.049 C 
ATOM     21  O2  UNL     1       3.511   3.003 -14.676  0.00  0.00    -0.364 OA
ATOM     22  C16 UNL     1       4.563   2.790 -13.746  0.00  0.00    +0.121 C 
ATOM     23 CL2  UNL     1       3.860   2.253 -12.212  0.00  0.00    -0.095 Cl
ATOM     24  C17 UNL     1       1.608   7.551 -17.256  0.00  0.00    +0.038 C 
ATOM     25  C18 UNL     1       2.341   8.822 -17.254  0.00  0.00    -0.093 C 
ATOM     26  C19 UNL     1       3.020   9.641 -17.807  0.00  0.00    -0.074 C 
ATOM     27  C20 UNL     1       3.728  10.150 -18.924  0.00  0.00    -0.010 C 
ATOM     28  C21 UNL     1       3.784   9.471 -20.091  0.00  0.00    -0.037 C 
ATOM     29  N4  UNL     1       0.255   8.801 -25.418  0.00  0.00    -0.214 NA
ATOM     30  C22 UNL     1      -1.044   9.106 -25.478  0.00  0.00    +0.078 A 
ATOM     31  C23 UNL     1      -1.413  10.366 -25.934  0.00  0.00    -0.036 A 
ATOM     32  C24 UNL     1      -2.750  10.764 -26.011  0.00  0.00    -0.060 A 
ATOM     33  C25 UNL     1      -3.752   9.888 -25.618  0.00  0.00    -0.061 A 
ATOM     34  C26 UNL     1      -3.407   8.620 -25.161  0.00  0.00    -0.049 A 
ATOM     35  C27 UNL     1      -2.048   8.213 -25.095  0.00  0.00    +0.040 A 
ATOM     36  H   UNL     1      -4.518   3.433 -22.164  0.00  0.00    +0.000 HD
ATOM     37  H   UNL     1      -3.510   6.143 -24.292  0.00  0.00    +0.000 HD
ATOM     38  H   UNL     1       2.577   7.763 -25.528  0.00  0.00    +0.000 HD
ENDROOT
TORSDOF 0
ENDMDL
MODEL 5
REMARK VINA RESULT:    -5.648      9.166     11.124
REMARK INTER + INTRA:          -5.648
REMARK INTER:                  -5.648
REMARK INTRA:                   0.000
REMARK UNBOUND:                 0.000
REMARK  Name = /home/vital/Documents/PhD_2021/Malaria_codes/scripts/../data/pdbqt_ligands/ligand_48_temp.pdb
REMARK                            x       y       z     vdW  Elec       q    Type
REMARK                         _______ _______ _______ _____ _____    ______ ____
ROOT
ATOM      1  O1  UNL     1      -3.213   5.796 -17.519  0.00  0.00    -0.393 OA
ATOM      2  C1  UNL     1      -3.146   4.633 -18.340  0.00  0.00    +0.060 C 
ATOM      3  C2  UNL     1      -2.471   4.936 -19.685  0.00  0.00    +0.034 C 
ATOM      4  N1  UNL     1      -3.315   5.811 -20.506  0.00  0.00    -0.326 N 
ATOM      5  C3  UNL     1      -2.820   6.078 -21.801  0.00  0.00    +0.132 A 
ATOM      6  N2  UNL     1      -1.651   5.528 -22.172  0.00  0.00    -0.199 NA
ATOM      7  C4  UNL     1      -1.196   5.787 -23.401  0.00  0.00    +0.218 A 
ATOM      8  N3  UNL     1       0.005   5.251 -23.831  0.00  0.00    -0.310 N 
ATOM      9  C5  UNL     1       1.020   4.998 -22.833  0.00  0.00    +0.032 C 
ATOM     10  C6  UNL     1       1.626   6.292 -22.380  0.00  0.00    -0.048 C 
ATOM     11  C7  UNL     1       2.837   6.793 -22.683  0.00  0.00    +0.053 C 
ATOM     12 CL1  UNL     1       3.914   5.952 -23.759  0.00  0.00    -0.083 Cl
ATOM     13  C8  UNL     1       3.331   8.062 -22.134  0.00  0.00    +0.036 C 
ATOM     14  C9  UNL     1       3.258   8.218 -20.830  0.00  0.00    -0.110 C 
ATOM     15  C10 UNL     1       3.261   8.500 -19.543  0.00  0.00    -0.015 C 
ATOM     16  C11 UNL     1       2.728   7.539 -18.505  0.00  0.00    -0.023 C 
ATOM     17  C12 UNL     1       3.422   6.169 -18.490  0.00  0.00    -0.049 C 
ATOM     18  C13 UNL     1       4.938   6.205 -18.266  0.00  0.00    -0.051 C 
ATOM     19  C14 UNL     1       5.335   6.744 -16.893  0.00  0.00    -0.029 C 
ATOM     20  C15 UNL     1       6.849   6.744 -16.710  0.00  0.00    +0.049 C 
ATOM     21  O2  UNL     1       7.139   7.265 -15.416  0.00  0.00    -0.364 OA
ATOM     22  C16 UNL     1       8.538   7.336 -15.184  0.00  0.00    +0.121 C 
ATOM     23 CL2  UNL     1       8.809   7.987 -13.560  0.00  0.00    -0.095 Cl
ATOM     24  C17 UNL     1       3.764   9.851 -19.004  0.00  0.00    +0.038 C 
ATOM     25  C18 UNL     1       4.270  10.633 -20.137  0.00  0.00    -0.093 C 
ATOM     26  C19 UNL     1       4.476  10.766 -21.311  0.00  0.00    -0.074 C 
ATOM     27  C20 UNL     1       4.434  10.329 -22.659  0.00  0.00    -0.010 C 
ATOM     28  C21 UNL     1       3.920   9.125 -22.992  0.00  0.00    -0.037 C 
ATOM     29  N4  UNL     1      -1.826   6.560 -24.289  0.00  0.00    -0.214 NA
ATOM     30  C22 UNL     1      -2.979   7.123 -23.917  0.00  0.00    +0.078 A 
ATOM     31  C23 UNL     1      -3.644   7.942 -24.822  0.00  0.00    -0.036 A 
ATOM     32  C24 UNL     1      -4.846   8.578 -24.502  0.00  0.00    -0.060 A 
ATOM     33  C25 UNL     1      -5.404   8.401 -23.244  0.00  0.00    -0.061 A 
ATOM     34  C26 UNL     1      -4.758   7.582 -22.322  0.00  0.00    -0.049 A 
ATOM     35  C27 UNL     1      -3.543   6.927 -22.654  0.00  0.00    +0.040 A 
ATOM     36  H   UNL     1      -3.643   5.574 -16.679  0.00  0.00    +0.000 HD
ATOM     37  H   UNL     1      -4.165   6.186 -20.178  0.00  0.00    +0.000 HD
ATOM     38  H   UNL     1       0.163   5.049 -24.781  0.00  0.00    +0.000 HD
ENDROOT
TORSDOF 0
ENDMDL
MODEL 6
REMARK VINA RESULT:    -5.601      7.412     11.291
REMARK INTER + INTRA:          -5.601
REMARK INTER:                  -5.601
REMARK INTRA:                   0.000
REMARK UNBOUND:                 0.000
REMARK  Name = /home/vital/Documents/PhD_2021/Malaria_codes/scripts/../data/pdbqt_ligands/ligand_48_temp.pdb
REMARK                            x       y       z     vdW  Elec       q    Type
REMARK                         _______ _______ _______ _____ _____    ______ ____
ROOT
ATOM      1  O1  UNL     1       1.450  -1.024 -20.968  0.00  0.00    -0.393 OA
ATOM      2  C1  UNL     1       1.000  -1.232 -19.633  0.00  0.00    +0.060 C 
ATOM      3  C2  UNL     1       1.542  -0.153 -18.685  0.00  0.00    +0.034 C 
ATOM      4  N1  UNL     1       2.994  -0.291 -18.515  0.00  0.00    -0.326 N 
ATOM      5  C3  UNL     1       3.576   0.604 -17.591  0.00  0.00    +0.132 A 
ATOM      6  N2  UNL     1       2.784   1.483 -16.955  0.00  0.00    -0.199 NA
ATOM      7  C4  UNL     1       3.348   2.321 -16.082  0.00  0.00    +0.218 A 
ATOM      8  N3  UNL     1       2.578   3.251 -15.405  0.00  0.00    -0.310 N 
ATOM      9  C5  UNL     1       1.395   3.751 -16.069  0.00  0.00    +0.032 C 
ATOM     10  C6  UNL     1       1.784   4.696 -17.165  0.00  0.00    -0.048 C 
ATOM     11  C7  UNL     1       1.681   6.038 -17.180  0.00  0.00    +0.053 C 
ATOM     12 CL1  UNL     1       1.078   6.908 -15.800  0.00  0.00    -0.083 Cl
ATOM     13  C8  UNL     1       2.061   6.850 -18.343  0.00  0.00    +0.036 C 
ATOM     14  C9  UNL     1       1.562   6.497 -19.507  0.00  0.00    -0.110 C 
ATOM     15  C10 UNL     1       1.122   6.267 -20.728  0.00  0.00    -0.015 C 
ATOM     16  C11 UNL     1       0.194   5.118 -21.049  0.00  0.00    -0.023 C 
ATOM     17  C12 UNL     1      -1.134   5.137 -20.276  0.00  0.00    -0.049 C 
ATOM     18  C13 UNL     1      -1.979   6.402 -20.457  0.00  0.00    -0.051 C 
ATOM     19  C14 UNL     1      -2.477   6.598 -21.888  0.00  0.00    -0.029 C 
ATOM     20  C15 UNL     1      -3.327   7.857 -22.015  0.00  0.00    +0.049 C 
ATOM     21  O2  UNL     1      -3.745   7.975 -23.372  0.00  0.00    -0.364 OA
ATOM     22  C16 UNL     1      -4.512   9.151 -23.582  0.00  0.00    +0.121 C 
ATOM     23 CL2  UNL     1      -4.992   9.217 -25.285  0.00  0.00    -0.095 Cl
ATOM     24  C17 UNL     1       1.560   7.124 -21.929  0.00  0.00    +0.038 C 
ATOM     25  C18 UNL     1       2.423   8.201 -21.429  0.00  0.00    -0.093 C 
ATOM     26  C19 UNL     1       2.995   8.755 -20.532  0.00  0.00    -0.074 C 
ATOM     27  C20 UNL     1       3.375   8.902 -19.175  0.00  0.00    -0.010 C 
ATOM     28  C21 UNL     1       2.944   8.041 -18.227  0.00  0.00    -0.037 C 
ATOM     29  N4  UNL     1       4.652   2.345 -15.796  0.00  0.00    -0.214 NA
ATOM     30  C22 UNL     1       5.445   1.484 -16.439  0.00  0.00    +0.078 A 
ATOM     31  C23 UNL     1       6.808   1.501 -16.167  0.00  0.00    -0.036 A 
ATOM     32  C24 UNL     1       7.704   0.642 -16.809  0.00  0.00    -0.060 A 
ATOM     33  C25 UNL     1       7.234  -0.259 -17.755  0.00  0.00    -0.061 A 
ATOM     34  C26 UNL     1       5.873  -0.297 -18.042  0.00  0.00    -0.049 A 
ATOM     35  C27 UNL     1       4.964   0.568 -17.379  0.00  0.00    +0.040 A 
ATOM     36  H   UNL     1       1.093  -1.719 -21.542  0.00  0.00    +0.000 HD
ATOM     37  H   UNL     1       3.523  -0.958 -19.011  0.00  0.00    +0.000 HD
ATOM     38  H   UNL     1       2.827   3.562 -14.505  0.00  0.00    +0.000 HD
ENDROOT
TORSDOF 0
ENDMDL
MODEL 7
REMARK VINA RESULT:    -5.575      9.184     10.416
REMARK INTER + INTRA:          -5.575
REMARK INTER:                  -5.575
REMARK INTRA:                   0.000
REMARK UNBOUND:                 0.000
REMARK  Name = /home/vital/Documents/PhD_2021/Malaria_codes/scripts/../data/pdbqt_ligands/ligand_48_temp.pdb
REMARK                            x       y       z     vdW  Elec       q    Type
REMARK                         _______ _______ _______ _____ _____    ______ ____
ROOT
ATOM      1  O1  UNL     1      -2.553  -1.252 -26.413  0.00  0.00    -0.393 OA
ATOM      2  C1  UNL     1      -1.382  -1.952 -26.001  0.00  0.00    +0.060 C 
ATOM      3  C2  UNL     1      -0.832  -2.835 -27.130  0.00  0.00    +0.034 C 
ATOM      4  N1  UNL     1      -1.743  -3.952 -27.407  0.00  0.00    -0.326 N 
ATOM      5  C3  UNL     1      -1.282  -4.875 -28.373  0.00  0.00    +0.132 A 
ATOM      6  N2  UNL     1      -0.085  -4.668 -28.945  0.00  0.00    -0.199 NA
ATOM      7  C4  UNL     1       0.338  -5.550 -29.855  0.00  0.00    +0.218 A 
ATOM      8  N3  UNL     1       1.561  -5.380 -30.479  0.00  0.00    -0.310 N 
ATOM      9  C5  UNL     1       2.040  -4.027 -30.656  0.00  0.00    +0.032 C 
ATOM     10  C6  UNL     1       1.261  -3.346 -31.739  0.00  0.00    -0.048 C 
ATOM     11  C7  UNL     1       1.658  -3.058 -32.992  0.00  0.00    +0.053 C 
ATOM     12 CL1  UNL     1       3.234  -3.519 -33.564  0.00  0.00    -0.083 Cl
ATOM     13  C8  UNL     1       0.804  -2.342 -33.950  0.00  0.00    +0.036 C 
ATOM     14  C9  UNL     1       0.259  -1.217 -33.541  0.00  0.00    -0.110 C 
ATOM     15  C10 UNL     1      -0.335  -0.073 -33.269  0.00  0.00    -0.015 C 
ATOM     16  C11 UNL     1      -0.208   0.604 -31.923  0.00  0.00    -0.023 C 
ATOM     17  C12 UNL     1       1.234   0.935 -31.511  0.00  0.00    -0.049 C 
ATOM     18  C13 UNL     1       2.005   1.830 -32.486  0.00  0.00    -0.051 C 
ATOM     19  C14 UNL     1       1.414   3.233 -32.619  0.00  0.00    -0.029 C 
ATOM     20  C15 UNL     1       2.224   4.091 -33.584  0.00  0.00    +0.049 C 
ATOM     21  O2  UNL     1       1.609   5.374 -33.660  0.00  0.00    -0.364 OA
ATOM     22  C16 UNL     1       2.284   6.223 -34.576  0.00  0.00    +0.121 C 
ATOM     23 CL2  UNL     1       1.462   7.791 -34.605  0.00  0.00    -0.095 Cl
ATOM     24  C17 UNL     1      -1.242   0.638 -34.290  0.00  0.00    +0.038 C 
ATOM     25  C18 UNL     1      -1.219  -0.135 -35.536  0.00  0.00    -0.093 C 
ATOM     26  C19 UNL     1      -0.857  -1.083 -36.175  0.00  0.00    -0.074 C 
ATOM     27  C20 UNL     1      -0.149  -2.300 -36.342  0.00  0.00    -0.010 C 
ATOM     28  C21 UNL     1       0.579  -2.833 -35.336  0.00  0.00    -0.037 C 
ATOM     29  N4  UNL     1      -0.352  -6.627 -30.236  0.00  0.00    -0.214 NA
ATOM     30  C22 UNL     1      -1.550  -6.826 -29.682  0.00  0.00    +0.078 A 
ATOM     31  C23 UNL     1      -2.291  -7.935 -30.075  0.00  0.00    -0.036 A 
ATOM     32  C24 UNL     1      -3.559  -8.203 -29.552  0.00  0.00    -0.060 A 
ATOM     33  C25 UNL     1      -4.113  -7.342 -28.615  0.00  0.00    -0.061 A 
ATOM     34  C26 UNL     1      -3.388  -6.227 -28.203  0.00  0.00    -0.049 A 
ATOM     35  C27 UNL     1      -2.095  -5.964 -28.726  0.00  0.00    +0.040 A 
ATOM     36  H   UNL     1      -2.876  -0.705 -25.682  0.00  0.00    +0.000 HD
ATOM     37  H   UNL     1      -2.611  -4.052 -26.954  0.00  0.00    +0.000 HD
ATOM     38  H   UNL     1       2.087  -6.151 -30.792  0.00  0.00    +0.000 HD
ENDROOT
TORSDOF 0
ENDMDL
MODEL 8
REMARK VINA RESULT:    -5.355      8.260      9.659
REMARK INTER + INTRA:          -5.355
REMARK INTER:                  -5.355
REMARK INTRA:                   0.000
REMARK UNBOUND:                 0.000
REMARK  Name = /home/vital/Documents/PhD_2021/Malaria_codes/scripts/../data/pdbqt_ligands/ligand_48_temp.pdb
REMARK                            x       y       z     vdW  Elec       q    Type
REMARK                         _______ _______ _______ _____ _____    ______ ____
ROOT
ATOM      1  O1  UNL     1       1.404  -3.730 -25.272  0.00  0.00    -0.393 OA
ATOM      2  C1  UNL     1       1.839  -5.056 -25.559  0.00  0.00    +0.060 C 
ATOM      3  C2  UNL     1       1.277  -5.551 -26.898  0.00  0.00    +0.034 C 
ATOM      4  N1  UNL     1      -0.176  -5.745 -26.814  0.00  0.00    -0.326 N 
ATOM      5  C3  UNL     1      -0.776  -6.284 -27.972  0.00  0.00    +0.132 A 
ATOM      6  N2  UNL     1       0.001  -6.571 -29.030  0.00  0.00    -0.199 NA
ATOM      7  C4  UNL     1      -0.581  -7.083 -30.118  0.00  0.00    +0.218 A 
ATOM      8  N3  UNL     1       0.173  -7.389 -31.237  0.00  0.00    -0.310 N 
ATOM      9  C5  UNL     1       1.361  -6.602 -31.480  0.00  0.00    +0.032 C 
ATOM     10  C6  UNL     1       0.980  -5.237 -31.968  0.00  0.00    -0.048 C 
ATOM     11  C7  UNL     1       1.072  -4.746 -33.217  0.00  0.00    +0.053 C 
ATOM     12 CL1  UNL     1       1.651  -5.729 -34.529  0.00  0.00    -0.083 Cl
ATOM     13  C8  UNL     1       0.701  -3.366 -33.556  0.00  0.00    +0.036 C 
ATOM     14  C9  UNL     1       1.218  -2.409 -32.816  0.00  0.00    -0.110 C 
ATOM     15  C10 UNL     1       1.675  -1.355 -32.171  0.00  0.00    -0.015 C 
ATOM     16  C11 UNL     1       2.616  -1.474 -30.994  0.00  0.00    -0.023 C 
ATOM     17  C12 UNL     1       3.933  -2.202 -31.303  0.00  0.00    -0.049 C 
ATOM     18  C13 UNL     1       4.772  -1.589 -32.430  0.00  0.00    -0.051 C 
ATOM     19  C14 UNL     1       5.287  -0.187 -32.108  0.00  0.00    -0.029 C 
ATOM     20  C15 UNL     1       6.129   0.374 -33.248  0.00  0.00    +0.049 C 
ATOM     21  O2  UNL     1       6.563   1.679 -32.879  0.00  0.00    -0.364 OA
ATOM     22  C16 UNL     1       7.324   2.288 -33.912  0.00  0.00    +0.121 C 
ATOM     23 CL2  UNL     1       7.825   3.898 -33.371  0.00  0.00    -0.095 Cl
ATOM     24  C17 UNL     1       1.246   0.077 -32.538  0.00  0.00    +0.038 C 
ATOM     25  C18 UNL     1       0.369   0.002 -33.712  0.00  0.00    -0.093 C 
ATOM     26  C19 UNL     1      -0.219  -0.632 -34.543  0.00  0.00    -0.074 C 
ATOM     27  C20 UNL     1      -0.617  -1.843 -35.161  0.00  0.00    -0.010 C 
ATOM     28  C21 UNL     1      -0.192  -3.040 -34.700  0.00  0.00    -0.037 C 
ATOM     29  N4  UNL     1      -1.888  -7.328 -30.227  0.00  0.00    -0.214 NA
ATOM     30  C22 UNL     1      -2.667  -7.028 -29.184  0.00  0.00    +0.078 A 
ATOM     31  C23 UNL     1      -4.033  -7.264 -29.281  0.00  0.00    -0.036 A 
ATOM     32  C24 UNL     1      -4.914  -6.962 -28.239  0.00  0.00    -0.060 A 
ATOM     33  C25 UNL     1      -4.426  -6.404 -27.066  0.00  0.00    -0.061 A 
ATOM     34  C26 UNL     1      -3.061  -6.162 -26.944  0.00  0.00    -0.049 A 
ATOM     35  C27 UNL     1      -2.167  -6.481 -27.999  0.00  0.00    +0.040 A 
ATOM     36  H   UNL     1       1.774  -3.446 -24.422  0.00  0.00    +0.000 HD
ATOM     37  H   UNL     1      -0.693  -5.516 -26.008  0.00  0.00    +0.000 HD
ATOM     38  H   UNL     1      -0.089  -8.117 -31.845  0.00  0.00    +0.000 HD
ENDROOT
TORSDOF 0
ENDMDL
MODEL 9
REMARK VINA RESULT:    -4.769     10.588     13.939
REMARK INTER + INTRA:          -4.769
REMARK INTER:                  -4.769
REMARK INTRA:                   0.000
REMARK UNBOUND:                 0.000
REMARK  Name = /home/vital/Documents/PhD_2021/Malaria_codes/scripts/../data/pdbqt_ligands/ligand_48_temp.pdb
REMARK                            x       y       z     vdW  Elec       q    Type
REMARK                         _______ _______ _______ _____ _____    ______ ____
ROOT
ATOM      1  O1  UNL     1       7.157   0.001 -30.961  0.00  0.00    -0.393 OA
ATOM      2  C1  UNL     1       6.553   0.780 -29.931  0.00  0.00    +0.060 C 
ATOM      3  C2  UNL     1       5.262   1.449 -30.422  0.00  0.00    +0.034 C 
ATOM      4  N1  UNL     1       5.558   2.484 -31.419  0.00  0.00    -0.326 N 
ATOM      5  C3  UNL     1       4.440   3.221 -31.868  0.00  0.00    +0.132 A 
ATOM      6  N2  UNL     1       3.229   2.929 -31.365  0.00  0.00    -0.199 NA
ATOM      7  C4  UNL     1       2.181   3.635 -31.797  0.00  0.00    +0.218 A 
ATOM      8  N3  UNL     1       0.911   3.370 -31.316  0.00  0.00    -0.310 N 
ATOM      9  C5  UNL     1       0.620   2.015 -30.906  0.00  0.00    +0.032 C 
ATOM     10  C6  UNL     1       0.473   1.136 -32.111  0.00  0.00    -0.048 C 
ATOM     11  C7  UNL     1      -0.658   0.629 -32.636  0.00  0.00    +0.053 C 
ATOM     12 CL1  UNL     1      -2.212   0.999 -31.950  0.00  0.00    -0.083 Cl
ATOM     13  C8  UNL     1      -0.660  -0.261 -33.805  0.00  0.00    +0.036 C 
ATOM     14  C9  UNL     1       0.147  -1.299 -33.767  0.00  0.00    -0.110 C 
ATOM     15  C10 UNL     1       0.892  -2.383 -33.855  0.00  0.00    -0.015 C 
ATOM     16  C11 UNL     1       1.844  -2.800 -32.757  0.00  0.00    -0.023 C 
ATOM     17  C12 UNL     1       1.180  -3.031 -31.392  0.00  0.00    -0.049 C 
ATOM     18  C13 UNL     1       0.062  -4.079 -31.376  0.00  0.00    -0.051 C 
ATOM     19  C14 UNL     1       0.549  -5.490 -31.701  0.00  0.00    -0.029 C 
ATOM     20  C15 UNL     1      -0.592  -6.499 -31.656  0.00  0.00    +0.049 C 
ATOM     21  O2  UNL     1      -0.063  -7.782 -31.976  0.00  0.00    -0.364 OA
ATOM     22  C16 UNL     1      -1.078  -8.776 -31.994  0.00  0.00    +0.121 C 
ATOM     23 CL2  UNL     1      -0.337 -10.333 -32.394  0.00  0.00    -0.095 Cl
ATOM     24  C17 UNL     1       0.882  -3.280 -35.105  0.00  0.00    +0.038 C 
ATOM     25  C18 UNL     1      -0.115  -2.748 -36.040  0.00  0.00    -0.093 C 
ATOM     26  C19 UNL     1      -0.937  -1.928 -36.342  0.00  0.00    -0.074 C 
ATOM     27  C20 UNL     1      -1.694  -0.753 -36.111  0.00  0.00    -0.010 C 
ATOM     28  C21 UNL     1      -1.549  -0.035 -34.975  0.00  0.00    -0.037 C 
ATOM     29  N4  UNL     1       2.256   4.615 -32.701  0.00  0.00    -0.214 NA
ATOM     30  C22 UNL     1       3.455   4.896 -33.216  0.00  0.00    +0.078 A 
ATOM     31  C23 UNL     1       3.552   5.904 -34.169  0.00  0.00    -0.036 A 
ATOM     32  C24 UNL     1       4.769   6.246 -34.765  0.00  0.00    -0.060 A 
ATOM     33  C25 UNL     1       5.925   5.564 -34.411  0.00  0.00    -0.061 A 
ATOM     34  C26 UNL     1       5.852   4.552 -33.457  0.00  0.00    -0.049 A 
ATOM     35  C27 UNL     1       4.617   4.216 -32.843  0.00  0.00    +0.040 A 
ATOM     36  H   UNL     1       7.969  -0.408 -30.623  0.00  0.00    +0.000 HD
ATOM     37  H   UNL     1       6.470   2.653 -31.751  0.00  0.00    +0.000 HD
ATOM     38  H   UNL     1       0.230   4.079 -31.255  0.00  0.00    +0.000 HD
ENDROOT
TORSDOF 0
ENDMDL
