MODEL 1
REMARK VINA RESULT:    -2.772      0.000      0.000
REMARK INTER + INTRA:          -2.772
REMARK INTER:                  -2.772
REMARK INTRA:                   0.000
REMARK UNBOUND:                 0.000
REMARK  Name = /home/vital/Documents/PhD_2021/Malaria_codes/scripts/../data/pdbqt_ligands/ligand_35_temp.pdb
REMARK                            x       y       z     vdW  Elec       q    Type
REMARK                         _______ _______ _______ _____ _____    ______ ____
ROOT
ATOM      1  C1  UNL     1     -10.155 -12.608 -30.259  0.00  0.00    -0.065 C 
ATOM      2  C2  UNL     1      -9.766 -12.644 -28.788  0.00  0.00    -0.055 C 
ATOM      3  C3  UNL     1      -8.342 -13.177 -28.600  0.00  0.00    -0.040 C 
ATOM      4  C4  UNL     1      -7.935 -13.280 -27.130  0.00  0.00    +0.035 C 
ATOM      5  C5  UNL     1      -7.764 -11.962 -26.505  0.00  0.00    +0.063 C 
ATOM      6  N1  UNL     1      -7.628 -10.921 -26.010  0.00  0.00    -0.197 NA
ENDROOT
TORSDOF 0
ENDMDL
MODEL 2
REMARK VINA RESULT:    -2.766     17.758     18.979
REMARK INTER + INTRA:          -2.766
REMARK INTER:                  -2.766
REMARK INTRA:                   0.000
REMARK UNBOUND:                 0.000
REMARK  Name = /home/vital/Documents/PhD_2021/Malaria_codes/scripts/../data/pdbqt_ligands/ligand_35_temp.pdb
REMARK                            x       y       z     vdW  Elec       q    Type
REMARK                         _______ _______ _______ _____ _____    ______ ____
ROOT
ATOM      1  C1  UNL     1       8.982  -2.313 -23.906  0.00  0.00    -0.065 C 
ATOM      2  C2  UNL     1       8.766  -3.211 -25.114  0.00  0.00    -0.055 C 
ATOM      3  C3  UNL     1       7.371  -3.844 -25.098  0.00  0.00    -0.040 C 
ATOM      4  C4  UNL     1       7.138  -4.799 -26.269  0.00  0.00    +0.035 C 
ATOM      5  C5  UNL     1       7.047  -4.093 -27.554  0.00  0.00    +0.063 C 
ATOM      6  N1  UNL     1       6.974  -3.537 -28.570  0.00  0.00    -0.197 NA
ENDROOT
TORSDOF 0
ENDMDL
MODEL 3
REMARK VINA RESULT:    -2.766     12.825     14.156
REMARK INTER + INTRA:          -2.766
REMARK INTER:                  -2.766
REMARK INTRA:                   0.000
REMARK UNBOUND:                 0.000
REMARK  Name = /home/vital/Documents/PhD_2021/Malaria_codes/scripts/../data/pdbqt_ligands/ligand_35_temp.pdb
REMARK                            x       y       z     vdW  Elec       q    Type
REMARK                         _______ _______ _______ _____ _____    ______ ____
ROOT
ATOM      1  C1  UNL     1      -5.986  -1.920 -23.328  0.00  0.00    -0.065 C 
ATOM      2  C2  UNL     1      -5.757  -1.317 -21.951  0.00  0.00    -0.055 C 
ATOM      3  C3  UNL     1      -4.332  -1.581 -21.455  0.00  0.00    -0.040 C 
ATOM      4  C4  UNL     1      -4.082  -1.037 -20.048  0.00  0.00    +0.035 C 
ATOM      5  C5  UNL     1      -4.060   0.431 -20.014  0.00  0.00    +0.063 C 
ATOM      6  N1  UNL     1      -4.043   1.591 -19.986  0.00  0.00    -0.197 NA
ENDROOT
TORSDOF 0
ENDMDL
MODEL 4
REMARK VINA RESULT:    -2.597     26.816     27.364
REMARK INTER + INTRA:          -2.597
REMARK INTER:                  -2.597
REMARK INTRA:                   0.000
REMARK UNBOUND:                 0.000
REMARK  Name = /home/vital/Documents/PhD_2021/Malaria_codes/scripts/../data/pdbqt_ligands/ligand_35_temp.pdb
REMARK                            x       y       z     vdW  Elec       q    Type
REMARK                         _______ _______ _______ _____ _____    ______ ____
ROOT
ATOM      1  C1  UNL     1       4.032   9.863 -20.918  0.00  0.00    -0.065 C 
ATOM      2  C2  UNL     1       3.901  10.327 -19.475  0.00  0.00    -0.055 C 
ATOM      3  C3  UNL     1       3.125   9.312 -18.630  0.00  0.00    -0.040 C 
ATOM      4  C4  UNL     1       2.925   9.771 -17.185  0.00  0.00    +0.035 C 
ATOM      5  C5  UNL     1       4.181   9.779 -16.424  0.00  0.00    +0.063 C 
ATOM      6  N1  UNL     1       5.172   9.785 -15.821  0.00  0.00    -0.197 NA
ENDROOT
TORSDOF 0
ENDMDL
MODEL 5
REMARK VINA RESULT:    -2.595     27.026     27.698
REMARK INTER + INTRA:          -2.595
REMARK INTER:                  -2.595
REMARK INTRA:                   0.000
REMARK UNBOUND:                 0.000
REMARK  Name = /home/vital/Documents/PhD_2021/Malaria_codes/scripts/../data/pdbqt_ligands/ligand_35_temp.pdb
REMARK                            x       y       z     vdW  Elec       q    Type
REMARK                         _______ _______ _______ _____ _____    ______ ____
ROOT
ATOM      1  C1  UNL     1       4.201   9.604 -20.640  0.00  0.00    -0.065 C 
ATOM      2  C2  UNL     1       3.929  10.324 -19.328  0.00  0.00    -0.055 C 
ATOM      3  C3  UNL     1       3.275   9.392 -18.304  0.00  0.00    -0.040 C 
ATOM      4  C4  UNL     1       2.936  10.096 -16.990  0.00  0.00    +0.035 C 
ATOM      5  C5  UNL     1       4.137  10.457 -16.225  0.00  0.00    +0.063 C 
ATOM      6  N1  UNL     1       5.085  10.742 -15.620  0.00  0.00    -0.197 NA
ENDROOT
TORSDOF 0
ENDMDL
MODEL 6
REMARK VINA RESULT:    -2.580     12.285     12.719
REMARK INTER + INTRA:          -2.580
REMARK INTER:                  -2.580
REMARK INTRA:                   0.000
REMARK UNBOUND:                 0.000
REMARK  Name = /home/vital/Documents/PhD_2021/Malaria_codes/scripts/../data/pdbqt_ligands/ligand_35_temp.pdb
REMARK                            x       y       z     vdW  Elec       q    Type
REMARK                         _______ _______ _______ _____ _____    ______ ____
ROOT
ATOM      1  C1  UNL     1      -6.281  -1.800 -22.318  0.00  0.00    -0.065 C 
ATOM      2  C2  UNL     1      -4.812  -2.195 -22.289  0.00  0.00    -0.055 C 
ATOM      3  C3  UNL     1      -4.216  -2.028 -20.888  0.00  0.00    -0.040 C 
ATOM      4  C4  UNL     1      -2.725  -2.363 -20.833  0.00  0.00    +0.035 C 
ATOM      5  C5  UNL     1      -2.469  -3.798 -21.014  0.00  0.00    +0.063 C 
ATOM      6  N1  UNL     1      -2.266  -4.931 -21.156  0.00  0.00    -0.197 NA
ENDROOT
TORSDOF 0
ENDMDL
MODEL 7
REMARK VINA RESULT:    -2.574     13.663     15.429
REMARK INTER + INTRA:          -2.574
REMARK INTER:                  -2.574
REMARK INTRA:                   0.000
REMARK UNBOUND:                 0.000
REMARK  Name = /home/vital/Documents/PhD_2021/Malaria_codes/scripts/../data/pdbqt_ligands/ligand_35_temp.pdb
REMARK                            x       y       z     vdW  Elec       q    Type
REMARK                         _______ _______ _______ _____ _____    ______ ____
ROOT
ATOM      1  C1  UNL     1       4.460  -4.387 -20.189  0.00  0.00    -0.065 C 
ATOM      2  C2  UNL     1       2.970  -4.128 -20.026  0.00  0.00    -0.055 C 
ATOM      3  C3  UNL     1       2.381  -3.454 -21.269  0.00  0.00    -0.040 C 
ATOM      4  C4  UNL     1       0.895  -3.127 -21.121  0.00  0.00    +0.035 C 
ATOM      5  C5  UNL     1       0.058  -4.334 -21.106  0.00  0.00    +0.063 C 
ATOM      6  N1  UNL     1      -0.605  -5.286 -21.094  0.00  0.00    -0.197 NA
ENDROOT
TORSDOF 0
ENDMDL
MODEL 8
REMARK VINA RESULT:    -2.372     15.516     16.397
REMARK INTER + INTRA:          -2.372
REMARK INTER:                  -2.372
REMARK INTRA:                   0.000
REMARK UNBOUND:                 0.000
REMARK  Name = /home/vital/Documents/PhD_2021/Malaria_codes/scripts/../data/pdbqt_ligands/ligand_35_temp.pdb
REMARK                            x       y       z     vdW  Elec       q    Type
REMARK                         _______ _______ _______ _____ _____    ______ ____
ROOT
ATOM      1  C1  UNL     1      -9.993   5.855 -25.627  0.00  0.00    -0.065 C 
ATOM      2  C2  UNL     1      -9.170   4.576 -25.657  0.00  0.00    -0.055 C 
ATOM      3  C3  UNL     1      -8.405   4.373 -24.346  0.00  0.00    -0.040 C 
ATOM      4  C4  UNL     1      -7.521   3.125 -24.360  0.00  0.00    +0.035 C 
ATOM      5  C5  UNL     1      -8.309   1.885 -24.353  0.00  0.00    +0.063 C 
ATOM      6  N1  UNL     1      -8.929   0.905 -24.346  0.00  0.00    -0.197 NA
ENDROOT
TORSDOF 0
ENDMDL
MODEL 9
REMARK VINA RESULT:    -0.000     16.954     17.773
REMARK INTER + INTRA:          -0.000
REMARK INTER:                  -0.000
REMARK INTRA:                   0.000
REMARK UNBOUND:                 0.000
REMARK  Name = /home/vital/Documents/PhD_2021/Malaria_codes/scripts/../data/pdbqt_ligands/ligand_35_temp.pdb
REMARK                            x       y       z     vdW  Elec       q    Type
REMARK                         _______ _______ _______ _____ _____    ______ ____
ROOT
ATOM      1  C1  UNL     1      -1.160   0.687 -29.817  0.00  0.00    -0.065 C 
ATOM      2  C2  UNL     1      -0.063   1.418 -29.058  0.00  0.00    -0.055 C 
ATOM      3  C3  UNL     1       0.361   2.698 -29.784  0.00  0.00    -0.040 C 
ATOM      4  C4  UNL     1       1.503   3.431 -29.079  0.00  0.00    +0.035 C 
ATOM      5  C5  UNL     1       1.079   4.028 -27.806  0.00  0.00    +0.063 C 
ATOM      6  N1  UNL     1       0.746   4.501 -26.800  0.00  0.00    -0.197 NA
ENDROOT
TORSDOF 0
ENDMDL
