MODEL 1
REMARK VINA RESULT:    -7.789      0.000      0.000
REMARK INTER + INTRA:          -7.789
REMARK INTER:                  -7.789
REMARK INTRA:                   0.000
REMARK UNBOUND:                 0.000
REMARK  Name = /home/vital/Documents/PhD_2021/Malaria_codes/scripts/../data/pdbqt_ligands/ligand_159_temp.pdb
REMARK                            x       y       z     vdW  Elec       q    Type
REMARK                         _______ _______ _______ _____ _____    ______ ____
ROOT
ATOM      1  C   UNL     1       2.810   9.844 -17.069  0.00  0.00    -0.047 C 
ATOM      2  C   UNL     1       2.029   8.641 -17.489  0.00  0.00    -0.087 C 
ATOM      3  C   UNL     1       2.296   7.395 -17.069  0.00  0.00    -0.066 C 
ATOM      4  C   UNL     1       1.509   6.251 -17.481  0.00  0.00    -0.054 C 
ATOM      5  C   UNL     1       1.678   4.925 -17.253  0.00  0.00    +0.007 C 
ATOM      6  C   UNL     1       0.614   4.000 -17.739  0.00  0.00    -0.009 C 
ATOM      7  C   UNL     1      -0.802   4.388 -17.690  0.00  0.00    -0.038 C 
ATOM      8  C   UNL     1      -1.642   4.564 -18.726  0.00  0.00    +0.034 C 
ATOM      9 CL   UNL     1      -3.282   5.040 -18.371  0.00  0.00    -0.087 Cl
ATOM     10  C   UNL     1      -1.353   4.388 -20.187  0.00  0.00    +0.058 C 
ATOM     11 CL   UNL     1      -1.038   5.971 -20.945  0.00  0.00    -0.119 Cl
ATOM     12  C   UNL     1       0.860   2.768 -18.158  0.00  0.00    +0.013 C 
ATOM     13  C   UNL     1       0.331   1.594 -18.697  0.00  0.00    +0.070 C 
ATOM     14  N   UNL     1      -0.569   0.861 -19.150  0.00  0.00    -0.289 NA
ATOM     15  C   UNL     1      -0.112  -0.466 -19.551  0.00  0.00    +0.029 C 
ATOM     16  C   UNL     1       1.769   1.661 -18.437  0.00  0.00    +0.119 C 
ATOM     17  N   UNL     1       2.269   0.830 -17.336  0.00  0.00    -0.282 NA
ATOM     18  C   UNL     1       3.408   1.068 -16.765  0.00  0.00    +0.001 C 
ATOM     19  C   UNL     1       4.400   2.161 -17.044  0.00  0.00    -0.009 C 
ATOM     20  C   UNL     1       3.847   3.524 -17.436  0.00  0.00    +0.034 C 
ATOM     21  C   UNL     1       4.832   4.667 -17.182  0.00  0.00    +0.058 C 
ATOM     22  O   UNL     1       3.982   5.230 -16.169  0.00  0.00    -0.354 OA
ATOM     23  C   UNL     1       2.881   4.356 -16.514  0.00  0.00    +0.152 C 
ATOM     24  N   UNL     1       2.504   3.536 -15.353  0.00  0.00    -0.283 N 
ATOM     25  C   UNL     1       1.985   4.343 -14.240  0.00  0.00    +0.022 C 
ATOM     26  C   UNL     1       3.056   4.980 -13.345  0.00  0.00    +0.057 C 
ATOM     27  O   UNL     1       2.441   5.578 -12.203  0.00  0.00    -0.394 OA
ATOM     28  H   UNL     1       3.327   3.026 -15.032  0.00  0.00    +0.000 HD
ATOM     29  H   UNL     1       1.761   2.901 -15.648  0.00  0.00    +0.000 HD
ATOM     30  H   UNL     1       1.819   6.264 -12.494  0.00  0.00    +0.000 HD
ENDROOT
TORSDOF 0
ENDMDL
MODEL 2
REMARK VINA RESULT:    -7.472     14.285     17.754
REMARK INTER + INTRA:          -7.472
REMARK INTER:                  -7.472
REMARK INTRA:                   0.000
REMARK UNBOUND:                 0.000
REMARK  Name = /home/vital/Documents/PhD_2021/Malaria_codes/scripts/../data/pdbqt_ligands/ligand_159_temp.pdb
REMARK                            x       y       z     vdW  Elec       q    Type
REMARK                         _______ _______ _______ _____ _____    ______ ____
ROOT
ATOM      1  C   UNL     1      -0.151  -3.018 -36.339  0.00  0.00    -0.047 C 
ATOM      2  C   UNL     1       0.752  -3.108 -35.151  0.00  0.00    -0.087 C 
ATOM      3  C   UNL     1       0.621  -4.029 -34.184  0.00  0.00    -0.066 C 
ATOM      4  C   UNL     1       1.523  -4.102 -33.053  0.00  0.00    -0.054 C 
ATOM      5  C   UNL     1       1.498  -4.878 -31.942  0.00  0.00    +0.007 C 
ATOM      6  C   UNL     1       2.652  -4.776 -31.002  0.00  0.00    -0.009 C 
ATOM      7  C   UNL     1       4.018  -4.585 -31.505  0.00  0.00    -0.038 C 
ATOM      8  C   UNL     1       4.829  -3.530 -31.300  0.00  0.00    +0.034 C 
ATOM      9 CL   UNL     1       6.410  -3.568 -32.034  0.00  0.00    -0.087 Cl
ATOM     10  C   UNL     1       4.552  -2.298 -30.492  0.00  0.00    +0.058 C 
ATOM     11 CL   UNL     1       4.066  -0.959 -31.563  0.00  0.00    -0.119 Cl
ATOM     12  C   UNL     1       2.535  -4.932 -29.692  0.00  0.00    +0.013 C 
ATOM     13  C   UNL     1       3.183  -4.914 -28.456  0.00  0.00    +0.070 C 
ATOM     14  N   UNL     1       4.153  -4.770 -27.687  0.00  0.00    -0.289 NA
ATOM     15  C   UNL     1       3.838  -4.992 -26.280  0.00  0.00    +0.029 C 
ATOM     16  C   UNL     1       1.747  -5.194 -28.492  0.00  0.00    +0.119 C 
ATOM     17  N   UNL     1       1.345  -6.567 -28.167  0.00  0.00    -0.282 NA
ATOM     18  C   UNL     1       0.191  -7.040 -28.517  0.00  0.00    +0.001 C 
ATOM     19  C   UNL     1      -0.913  -6.375 -29.288  0.00  0.00    -0.009 C 
ATOM     20  C   UNL     1      -0.511  -5.415 -30.399  0.00  0.00    +0.034 C 
ATOM     21  C   UNL     1      -1.611  -5.211 -31.443  0.00  0.00    +0.058 C 
ATOM     22  O   UNL     1      -0.820  -5.845 -32.461  0.00  0.00    -0.354 OA
ATOM     23  C   UNL     1       0.367  -5.848 -31.632  0.00  0.00    +0.152 C 
ATOM     24  N   UNL     1       0.835  -7.227 -31.425  0.00  0.00    -0.283 N 
ATOM     25  C   UNL     1       1.271  -7.865 -32.674  0.00  0.00    +0.022 C 
ATOM     26  C   UNL     1       0.143  -8.459 -33.528  0.00  0.00    +0.057 C 
ATOM     27  O   UNL     1       0.698  -9.207 -34.611  0.00  0.00    -0.394 OA
ATOM     28  H   UNL     1       0.073  -7.775 -31.025  0.00  0.00    +0.000 HD
ATOM     29  H   UNL     1       1.639  -7.190 -30.797  0.00  0.00    +0.000 HD
ATOM     30  H   UNL     1       1.242  -8.623 -35.162  0.00  0.00    +0.000 HD
ENDROOT
TORSDOF 0
ENDMDL
MODEL 3
REMARK VINA RESULT:    -7.334      3.738      6.680
REMARK INTER + INTRA:          -7.334
REMARK INTER:                  -7.334
REMARK INTRA:                   0.000
REMARK UNBOUND:                 0.000
REMARK  Name = /home/vital/Documents/PhD_2021/Malaria_codes/scripts/../data/pdbqt_ligands/ligand_159_temp.pdb
REMARK                            x       y       z     vdW  Elec       q    Type
REMARK                         _______ _______ _______ _____ _____    ______ ____
ROOT
ATOM      1  C   UNL     1      -0.128   0.124 -19.590  0.00  0.00    -0.047 C 
ATOM      2  C   UNL     1       0.803   0.869 -18.689  0.00  0.00    -0.087 C 
ATOM      3  C   UNL     1       0.720   2.189 -18.458  0.00  0.00    -0.066 C 
ATOM      4  C   UNL     1       1.627   2.879 -17.565  0.00  0.00    -0.054 C 
ATOM      5  C   UNL     1       1.768   4.198 -17.284  0.00  0.00    +0.007 C 
ATOM      6  C   UNL     1       2.745   4.577 -16.223  0.00  0.00    -0.009 C 
ATOM      7  C   UNL     1       2.922   3.742 -15.028  0.00  0.00    -0.038 C 
ATOM      8  C   UNL     1       4.029   3.078 -14.646  0.00  0.00    +0.034 C 
ATOM      9 CL   UNL     1       3.949   2.146 -13.174  0.00  0.00    -0.087 Cl
ATOM     10  C   UNL     1       5.363   3.041 -15.329  0.00  0.00    +0.058 C 
ATOM     11 CL   UNL     1       5.520   1.547 -16.287  0.00  0.00    -0.119 Cl
ATOM     12  C   UNL     1       3.438   5.705 -16.245  0.00  0.00    +0.013 C 
ATOM     13  C   UNL     1       4.411   6.487 -15.619  0.00  0.00    +0.070 C 
ATOM     14  N   UNL     1       5.261   6.754 -14.748  0.00  0.00    -0.289 NA
ATOM     15  C   UNL     1       5.916   8.046 -14.931  0.00  0.00    +0.029 C 
ATOM     16  C   UNL     1       3.808   6.977 -16.859  0.00  0.00    +0.119 C 
ATOM     17  N   UNL     1       2.916   8.136 -16.733  0.00  0.00    -0.282 NA
ATOM     18  C   UNL     1       2.047   8.429 -17.648  0.00  0.00    +0.001 C 
ATOM     19  C   UNL     1       1.746   7.715 -18.935  0.00  0.00    -0.009 C 
ATOM     20  C   UNL     1       1.836   6.195 -18.930  0.00  0.00    +0.034 C 
ATOM     21  C   UNL     1       1.028   5.542 -20.053  0.00  0.00    +0.058 C 
ATOM     22  O   UNL     1       0.127   4.938 -19.111  0.00  0.00    -0.354 OA
ATOM     23  C   UNL     1       0.967   5.287 -17.984  0.00  0.00    +0.152 C 
ATOM     24  N   UNL     1       0.225   6.144 -17.047  0.00  0.00    -0.283 N 
ATOM     25  C   UNL     1      -0.920   5.452 -16.439  0.00  0.00    +0.022 C 
ATOM     26  C   UNL     1      -2.191   5.422 -17.297  0.00  0.00    +0.057 C 
ATOM     27  O   UNL     1      -3.278   4.894 -16.535  0.00  0.00    -0.394 OA
ATOM     28  H   UNL     1      -0.117   6.962 -17.552  0.00  0.00    +0.000 HD
ATOM     29  H   UNL     1       0.863   6.407 -16.295  0.00  0.00    +0.000 HD
ATOM     30  H   UNL     1      -3.064   3.992 -16.250  0.00  0.00    +0.000 HD
ENDROOT
TORSDOF 0
ENDMDL
MODEL 4
REMARK VINA RESULT:    -7.082     13.840     17.019
REMARK INTER + INTRA:          -7.082
REMARK INTER:                  -7.082
REMARK INTRA:                   0.000
REMARK UNBOUND:                 0.000
REMARK  Name = /home/vital/Documents/PhD_2021/Malaria_codes/scripts/../data/pdbqt_ligands/ligand_159_temp.pdb
REMARK                            x       y       z     vdW  Elec       q    Type
REMARK                         _______ _______ _______ _____ _____    ______ ____
ROOT
ATOM      1  C   UNL     1      -0.958  -1.774 -35.957  0.00  0.00    -0.047 C 
ATOM      2  C   UNL     1       0.194  -1.449 -35.061  0.00  0.00    -0.087 C 
ATOM      3  C   UNL     1       0.695  -2.301 -34.153  0.00  0.00    -0.066 C 
ATOM      4  C   UNL     1       1.824  -1.962 -33.311  0.00  0.00    -0.054 C 
ATOM      5  C   UNL     1       2.402  -2.633 -32.285  0.00  0.00    +0.007 C 
ATOM      6  C   UNL     1       3.634  -2.046 -31.683  0.00  0.00    -0.009 C 
ATOM      7  C   UNL     1       4.630  -1.364 -32.520  0.00  0.00    -0.038 C 
ATOM      8  C   UNL     1       4.993  -0.069 -32.474  0.00  0.00    +0.034 C 
ATOM      9 CL   UNL     1       6.204   0.476 -33.605  0.00  0.00    -0.087 Cl
ATOM     10  C   UNL     1       4.491   0.997 -31.547  0.00  0.00    +0.058 C 
ATOM     11 CL   UNL     1       3.256   1.989 -32.363  0.00  0.00    -0.119 Cl
ATOM     12  C   UNL     1       3.946  -2.171 -30.402  0.00  0.00    +0.013 C 
ATOM     13  C   UNL     1       4.845  -1.844 -29.385  0.00  0.00    +0.070 C 
ATOM     14  N   UNL     1       5.852  -1.297 -28.897  0.00  0.00    -0.289 NA
ATOM     15  C   UNL     1       6.040  -1.556 -27.473  0.00  0.00    +0.029 C 
ATOM     16  C   UNL     1       3.677  -2.660 -29.054  0.00  0.00    +0.119 C 
ATOM     17  N   UNL     1       3.940  -4.064 -28.719  0.00  0.00    -0.282 NA
ATOM     18  C   UNL     1       3.010  -4.965 -28.777  0.00  0.00    +0.001 C 
ATOM     19  C   UNL     1       1.571  -4.818 -29.182  0.00  0.00    -0.009 C 
ATOM     20  C   UNL     1       1.255  -3.833 -30.298  0.00  0.00    +0.034 C 
ATOM     21  C   UNL     1      -0.076  -4.122 -30.995  0.00  0.00    +0.058 C 
ATOM     22  O   UNL     1       0.591  -4.448 -32.225  0.00  0.00    -0.354 OA
ATOM     23  C   UNL     1       1.863  -3.950 -31.744  0.00  0.00    +0.152 C 
ATOM     24  N   UNL     1       2.865  -5.027 -31.757  0.00  0.00    -0.283 N 
ATOM     25  C   UNL     1       3.158  -5.506 -33.114  0.00  0.00    +0.022 C 
ATOM     26  C   UNL     1       2.162  -6.531 -33.671  0.00  0.00    +0.057 C 
ATOM     27  O   UNL     1       2.648  -7.056 -34.907  0.00  0.00    -0.394 OA
ATOM     28  H   UNL     1       2.512  -5.808 -31.203  0.00  0.00    +0.000 HD
ATOM     29  H   UNL     1       3.729  -4.651 -31.366  0.00  0.00    +0.000 HD
ATOM     30  H   UNL     1       2.753  -6.334 -35.546  0.00  0.00    +0.000 HD
ENDROOT
TORSDOF 0
ENDMDL
MODEL 5
REMARK VINA RESULT:    -6.987     15.203     18.603
REMARK INTER + INTRA:          -6.987
REMARK INTER:                  -6.987
REMARK INTRA:                   0.000
REMARK UNBOUND:                 0.000
REMARK  Name = /home/vital/Documents/PhD_2021/Malaria_codes/scripts/../data/pdbqt_ligands/ligand_159_temp.pdb
REMARK                            x       y       z     vdW  Elec       q    Type
REMARK                         _______ _______ _______ _____ _____    ______ ____
ROOT
ATOM      1  C   UNL     1       2.973  -4.674 -27.238  0.00  0.00    -0.047 C 
ATOM      2  C   UNL     1       2.023  -5.234 -28.247  0.00  0.00    -0.087 C 
ATOM      3  C   UNL     1       2.106  -4.991 -29.564  0.00  0.00    -0.066 C 
ATOM      4  C   UNL     1       1.180  -5.563 -30.519  0.00  0.00    -0.054 C 
ATOM      5  C   UNL     1       1.038  -5.361 -31.852  0.00  0.00    +0.007 C 
ATOM      6  C   UNL     1       0.036  -6.198 -32.574  0.00  0.00    -0.009 C 
ATOM      7  C   UNL     1      -0.175  -7.604 -32.208  0.00  0.00    -0.038 C 
ATOM      8  C   UNL     1      -1.294  -8.166 -31.715  0.00  0.00    +0.034 C 
ATOM      9 CL   UNL     1      -1.256  -9.873 -31.357  0.00  0.00    -0.087 Cl
ATOM     10  C   UNL     1      -2.611  -7.505 -31.436  0.00  0.00    +0.058 C 
ATOM     11 CL   UNL     1      -2.750  -7.126 -29.700  0.00  0.00    -0.119 Cl
ATOM     12  C   UNL     1      -0.651  -5.764 -33.620  0.00  0.00    +0.013 C 
ATOM     13  C   UNL     1      -1.636  -6.053 -34.567  0.00  0.00    +0.070 C 
ATOM     14  N   UNL     1      -2.507  -6.753 -35.118  0.00  0.00    -0.289 NA
ATOM     15  C   UNL     1      -3.151  -6.115 -36.261  0.00  0.00    +0.029 C 
ATOM     16  C   UNL     1      -0.999  -4.736 -34.595  0.00  0.00    +0.119 C 
ATOM     17  N   UNL     1      -0.106  -4.471 -35.729  0.00  0.00    -0.282 NA
ATOM     18  C   UNL     1       0.788  -3.534 -35.688  0.00  0.00    +0.001 C 
ATOM     19  C   UNL     1       1.118  -2.586 -34.570  0.00  0.00    -0.009 C 
ATOM     20  C   UNL     1       1.021  -3.119 -33.148  0.00  0.00    +0.034 C 
ATOM     21  C   UNL     1       1.854  -2.316 -32.147  0.00  0.00    +0.058 C 
ATOM     22  O   UNL     1       2.728  -3.433 -31.915  0.00  0.00    -0.354 OA
ATOM     23  C   UNL     1       1.861  -4.345 -32.632  0.00  0.00    +0.152 C 
ATOM     24  N   UNL     1       2.583  -4.942 -33.766  0.00  0.00    -0.283 N 
ATOM     25  C   UNL     1       3.709  -5.782 -33.336  0.00  0.00    +0.022 C 
ATOM     26  C   UNL     1       5.002  -5.021 -33.013  0.00  0.00    +0.057 C 
ATOM     27  O   UNL     1       6.066  -5.947 -32.789  0.00  0.00    -0.394 OA
ATOM     28  H   UNL     1       2.942  -4.192 -34.357  0.00  0.00    +0.000 HD
ATOM     29  H   UNL     1       1.927  -5.538 -34.272  0.00  0.00    +0.000 HD
ATOM     30  H   UNL     1       5.841  -6.524 -32.043  0.00  0.00    +0.000 HD
ENDROOT
TORSDOF 0
ENDMDL
MODEL 6
REMARK VINA RESULT:    -6.569     13.816     17.054
REMARK INTER + INTRA:          -6.569
REMARK INTER:                  -6.569
REMARK INTRA:                   0.000
REMARK UNBOUND:                 0.000
REMARK  Name = /home/vital/Documents/PhD_2021/Malaria_codes/scripts/../data/pdbqt_ligands/ligand_159_temp.pdb
REMARK                            x       y       z     vdW  Elec       q    Type
REMARK                         _______ _______ _______ _____ _____    ______ ____
ROOT
ATOM      1  C   UNL     1      -1.053  -8.687 -32.288  0.00  0.00    -0.047 C 
ATOM      2  C   UNL     1      -0.300  -7.903 -31.262  0.00  0.00    -0.087 C 
ATOM      3  C   UNL     1       0.613  -6.966 -31.563  0.00  0.00    -0.066 C 
ATOM      4  C   UNL     1       1.314  -6.210 -30.546  0.00  0.00    -0.054 C 
ATOM      5  C   UNL     1       2.325  -5.312 -30.642  0.00  0.00    +0.007 C 
ATOM      6  C   UNL     1       2.759  -4.625 -29.392  0.00  0.00    -0.009 C 
ATOM      7  C   UNL     1       1.782  -4.241 -28.365  0.00  0.00    -0.038 C 
ATOM      8  C   UNL     1       1.699  -4.692 -27.099  0.00  0.00    +0.034 C 
ATOM      9 CL   UNL     1       0.419  -4.064 -26.096  0.00  0.00    -0.087 Cl
ATOM     10  C   UNL     1       2.592  -5.683 -26.414  0.00  0.00    +0.058 C 
ATOM     11 CL   UNL     1       1.831  -7.294 -26.408  0.00  0.00    -0.119 Cl
ATOM     12  C   UNL     1       4.009  -4.250 -29.168  0.00  0.00    +0.013 C 
ATOM     13  C   UNL     1       4.907  -3.668 -28.271  0.00  0.00    +0.070 C 
ATOM     14  N   UNL     1       5.254  -3.145 -27.194  0.00  0.00    -0.289 NA
ATOM     15  C   UNL     1       6.668  -2.787 -27.133  0.00  0.00    +0.029 C 
ATOM     16  C   UNL     1       5.409  -4.134 -29.564  0.00  0.00    +0.119 C 
ATOM     17  N   UNL     1       5.816  -3.094 -30.515  0.00  0.00    -0.282 NA
ATOM     18  C   UNL     1       5.915  -3.333 -31.785  0.00  0.00    +0.001 C 
ATOM     19  C   UNL     1       5.643  -4.606 -32.535  0.00  0.00    -0.009 C 
ATOM     20  C   UNL     1       4.495  -5.476 -32.044  0.00  0.00    +0.034 C 
ATOM     21  C   UNL     1       3.954  -6.420 -33.120  0.00  0.00    +0.058 C 
ATOM     22  O   UNL     1       2.692  -5.735 -33.145  0.00  0.00    -0.354 OA
ATOM     23  C   UNL     1       3.009  -4.968 -31.958  0.00  0.00    +0.152 C 
ATOM     24  N   UNL     1       2.976  -3.530 -32.261  0.00  0.00    -0.283 N 
ATOM     25  C   UNL     1       1.635  -3.065 -32.639  0.00  0.00    +0.022 C 
ATOM     26  C   UNL     1       1.253  -3.305 -34.106  0.00  0.00    +0.057 C 
ATOM     27  O   UNL     1       0.016  -2.653 -34.397  0.00  0.00    -0.394 OA
ATOM     28  H   UNL     1       3.616  -3.344 -33.034  0.00  0.00    +0.000 HD
ATOM     29  H   UNL     1       3.252  -3.028 -31.417  0.00  0.00    +0.000 HD
ATOM     30  H   UNL     1      -0.681  -3.009 -33.824  0.00  0.00    +0.000 HD
ENDROOT
TORSDOF 0
ENDMDL
MODEL 7
REMARK VINA RESULT:    -6.532      2.854      3.932
REMARK INTER + INTRA:          -6.532
REMARK INTER:                  -6.532
REMARK INTRA:                   0.000
REMARK UNBOUND:                 0.000
REMARK  Name = /home/vital/Documents/PhD_2021/Malaria_codes/scripts/../data/pdbqt_ligands/ligand_159_temp.pdb
REMARK                            x       y       z     vdW  Elec       q    Type
REMARK                         _______ _______ _______ _____ _____    ______ ____
ROOT
ATOM      1  C   UNL     1       3.973   9.561 -20.156  0.00  0.00    -0.047 C 
ATOM      2  C   UNL     1       2.728   8.882 -20.630  0.00  0.00    -0.087 C 
ATOM      3  C   UNL     1       2.250   7.746 -20.098  0.00  0.00    -0.066 C 
ATOM      4  C   UNL     1       1.031   7.122 -20.568  0.00  0.00    -0.054 C 
ATOM      5  C   UNL     1       0.449   5.943 -20.236  0.00  0.00    +0.007 C 
ATOM      6  C   UNL     1      -0.880   5.636 -20.840  0.00  0.00    -0.009 C 
ATOM      7  C   UNL     1      -1.874   6.695 -21.054  0.00  0.00    -0.038 C 
ATOM      8  C   UNL     1      -2.372   7.130 -22.226  0.00  0.00    +0.034 C 
ATOM      9 CL   UNL     1      -3.543   8.422 -22.182  0.00  0.00    -0.087 Cl
ATOM     10  C   UNL     1      -2.055   6.630 -23.604  0.00  0.00    +0.058 C 
ATOM     11 CL   UNL     1      -0.871   7.705 -24.390  0.00  0.00    -0.119 Cl
ATOM     12  C   UNL     1      -1.274   4.406 -21.137  0.00  0.00    +0.013 C 
ATOM     13  C   UNL     1      -2.277   3.606 -21.687  0.00  0.00    +0.070 C 
ATOM     14  N   UNL     1      -3.370   3.382 -22.241  0.00  0.00    -0.289 NA
ATOM     15  C   UNL     1      -3.639   1.967 -22.479  0.00  0.00    +0.029 C 
ATOM     16  C   UNL     1      -1.060   2.964 -21.191  0.00  0.00    +0.119 C 
ATOM     17  N   UNL     1      -1.201   2.157 -19.974  0.00  0.00    -0.282 NA
ATOM     18  C   UNL     1      -0.181   1.855 -19.234  0.00  0.00    +0.001 C 
ATOM     19  C   UNL     1       1.262   2.236 -19.407  0.00  0.00    -0.009 C 
ATOM     20  C   UNL     1       1.559   3.620 -19.966  0.00  0.00    +0.034 C 
ATOM     21  C   UNL     1       2.962   4.121 -19.618  0.00  0.00    +0.058 C 
ATOM     22  O   UNL     1       2.428   5.173 -18.799  0.00  0.00    -0.354 OA
ATOM     23  C   UNL     1       1.079   4.948 -19.272  0.00  0.00    +0.152 C 
ATOM     24  N   UNL     1       0.198   4.607 -18.145  0.00  0.00    -0.283 N 
ATOM     25  C   UNL     1       0.060   5.711 -17.185  0.00  0.00    +0.022 C 
ATOM     26  C   UNL     1       1.197   5.828 -16.162  0.00  0.00    +0.057 C 
ATOM     27  O   UNL     1       0.864   6.809 -15.178  0.00  0.00    -0.394 OA
ATOM     28  H   UNL     1       0.586   3.798 -17.659  0.00  0.00    +0.000 HD
ATOM     29  H   UNL     1      -0.728   4.407 -18.524  0.00  0.00    +0.000 HD
ATOM     30  H   UNL     1       0.734   7.668 -15.610  0.00  0.00    +0.000 HD
ENDROOT
TORSDOF 0
ENDMDL
MODEL 8
REMARK VINA RESULT:    -6.424      3.040      5.215
REMARK INTER + INTRA:          -6.424
REMARK INTER:                  -6.424
REMARK INTRA:                   0.000
REMARK UNBOUND:                 0.000
REMARK  Name = /home/vital/Documents/PhD_2021/Malaria_codes/scripts/../data/pdbqt_ligands/ligand_159_temp.pdb
REMARK                            x       y       z     vdW  Elec       q    Type
REMARK                         _______ _______ _______ _____ _____    ______ ____
ROOT
ATOM      1  C   UNL     1       4.209   2.526 -13.244  0.00  0.00    -0.047 C 
ATOM      2  C   UNL     1       3.517   2.090 -14.495  0.00  0.00    -0.087 C 
ATOM      3  C   UNL     1       2.788   2.910 -15.268  0.00  0.00    -0.066 C 
ATOM      4  C   UNL     1       2.145   2.461 -16.485  0.00  0.00    -0.054 C 
ATOM      5  C   UNL     1       1.299   3.098 -17.333  0.00  0.00    +0.007 C 
ATOM      6  C   UNL     1       0.890   2.376 -18.571  0.00  0.00    -0.009 C 
ATOM      7  C   UNL     1       1.838   1.515 -19.290  0.00  0.00    -0.038 C 
ATOM      8  C   UNL     1       1.756   0.185 -19.485  0.00  0.00    +0.034 C 
ATOM      9 CL   UNL     1       3.043  -0.585 -20.374  0.00  0.00    -0.087 Cl
ATOM     10  C   UNL     1       0.669  -0.746 -19.039  0.00  0.00    +0.058 C 
ATOM     11 CL   UNL     1       1.163  -1.596 -17.552  0.00  0.00    -0.119 Cl
ATOM     12  C   UNL     1      -0.298   2.524 -19.138  0.00  0.00    +0.013 C 
ATOM     13  C   UNL     1      -1.155   2.128 -20.167  0.00  0.00    +0.070 C 
ATOM     14  N   UNL     1      -1.492   1.471 -21.171  0.00  0.00    -0.289 NA
ATOM     15  C   UNL     1      -2.831   1.778 -21.662  0.00  0.00    +0.029 C 
ATOM     16  C   UNL     1      -1.629   3.119 -19.200  0.00  0.00    +0.119 C 
ATOM     17  N   UNL     1      -1.796   4.488 -19.702  0.00  0.00    -0.282 NA
ATOM     18  C   UNL     1      -1.839   5.507 -18.902  0.00  0.00    +0.001 C 
ATOM     19  C   UNL     1      -1.719   5.543 -17.406  0.00  0.00    -0.009 C 
ATOM     20  C   UNL     1      -0.763   4.554 -16.755  0.00  0.00    +0.034 C 
ATOM     21  C   UNL     1      -0.302   4.991 -15.363  0.00  0.00    +0.058 C 
ATOM     22  O   UNL     1       1.052   5.152 -15.817  0.00  0.00    -0.354 OA
ATOM     23  C   UNL     1       0.776   4.505 -17.082  0.00  0.00    +0.152 C 
ATOM     24  N   UNL     1       1.058   5.427 -18.193  0.00  0.00    -0.283 N 
ATOM     25  C   UNL     1       2.480   5.785 -18.278  0.00  0.00    +0.022 C 
ATOM     26  C   UNL     1       2.925   6.909 -17.333  0.00  0.00    +0.057 C 
ATOM     27  O   UNL     1       4.268   7.293 -17.635  0.00  0.00    -0.394 OA
ATOM     28  H   UNL     1       0.514   6.279 -18.058  0.00  0.00    +0.000 HD
ATOM     29  H   UNL     1       0.805   4.954 -19.061  0.00  0.00    +0.000 HD
ATOM     30  H   UNL     1       4.855   6.530 -17.520  0.00  0.00    +0.000 HD
ENDROOT
TORSDOF 0
ENDMDL
MODEL 9
REMARK VINA RESULT:    -6.167      8.818     11.870
REMARK INTER + INTRA:          -6.167
REMARK INTER:                  -6.167
REMARK INTRA:                   0.000
REMARK UNBOUND:                 0.000
REMARK  Name = /home/vital/Documents/PhD_2021/Malaria_codes/scripts/../data/pdbqt_ligands/ligand_159_temp.pdb
REMARK                            x       y       z     vdW  Elec       q    Type
REMARK                         _______ _______ _______ _____ _____    ______ ____
ROOT
ATOM      1  C   UNL     1       1.608  -6.173 -26.378  0.00  0.00    -0.047 C 
ATOM      2  C   UNL     1       2.187  -5.360 -25.265  0.00  0.00    -0.087 C 
ATOM      3  C   UNL     1       3.318  -4.644 -25.374  0.00  0.00    -0.066 C 
ATOM      4  C   UNL     1       3.844  -3.853 -24.282  0.00  0.00    -0.054 C 
ATOM      5  C   UNL     1       5.001  -3.156 -24.164  0.00  0.00    +0.007 C 
ATOM      6  C   UNL     1       5.199  -2.350 -22.925  0.00  0.00    -0.009 C 
ATOM      7  C   UNL     1       4.072  -1.651 -22.293  0.00  0.00    -0.038 C 
ATOM      8  C   UNL     1       3.551  -1.869 -21.072  0.00  0.00    +0.034 C 
ATOM      9 CL   UNL     1       2.195  -0.888 -20.581  0.00  0.00    -0.087 Cl
ATOM     10  C   UNL     1       4.000  -2.862 -20.042  0.00  0.00    +0.058 C 
ATOM     11 CL   UNL     1       2.959  -4.308 -20.090  0.00  0.00    -0.119 Cl
ATOM     12  C   UNL     1       6.386  -2.148 -22.374  0.00  0.00    +0.013 C 
ATOM     13  C   UNL     1       7.096  -1.577 -21.316  0.00  0.00    +0.070 C 
ATOM     14  N   UNL     1       7.227  -0.946 -20.250  0.00  0.00    -0.289 NA
ATOM     15  C   UNL     1       8.610  -0.814 -19.801  0.00  0.00    +0.029 C 
ATOM     16  C   UNL     1       7.834  -2.324 -22.335  0.00  0.00    +0.119 C 
ATOM     17  N   UNL     1       8.691  -1.534 -23.226  0.00  0.00    -0.282 NA
ATOM     18  C   UNL     1       9.089  -1.991 -24.371  0.00  0.00    +0.001 C 
ATOM     19  C   UNL     1       8.787  -3.310 -25.023  0.00  0.00    -0.009 C 
ATOM     20  C   UNL     1       7.397  -3.894 -24.812  0.00  0.00    +0.034 C 
ATOM     21  C   UNL     1       6.999  -4.903 -25.890  0.00  0.00    +0.058 C 
ATOM     22  O   UNL     1       5.958  -4.038 -26.374  0.00  0.00    -0.354 OA
ATOM     23  C   UNL     1       6.079  -3.148 -25.239  0.00  0.00    +0.152 C 
ATOM     24  N   UNL     1       6.423  -1.792 -25.695  0.00  0.00    -0.283 N 
ATOM     25  C   UNL     1       5.362  -1.188 -26.512  0.00  0.00    +0.022 C 
ATOM     26  C   UNL     1       5.364  -1.602 -27.989  0.00  0.00    +0.057 C 
ATOM     27  O   UNL     1       4.415  -0.818 -28.713  0.00  0.00    -0.394 OA
ATOM     28  H   UNL     1       7.277  -1.841 -26.251  0.00  0.00    +0.000 HD
ATOM     29  H   UNL     1       6.548  -1.209 -24.867  0.00  0.00    +0.000 HD
ATOM     30  H   UNL     1       3.529  -0.959 -28.344  0.00  0.00    +0.000 HD
ENDROOT
TORSDOF 0
ENDMDL
