MODEL 1
REMARK VINA RESULT:   -10.415      0.000      0.000
REMARK INTER + INTRA:         -14.253
REMARK INTER:                 -13.459
REMARK INTRA:                  -0.794
REMARK UNBOUND:                -0.794
REMARK  Name = /home/vital/Documents/PhD_2021/Malaria_codes/data/pdb_ligands_mmv/ligand_176.pdb
REMARK  5 active torsions:
REMARK  status: ('A' for Active; 'I' for Inactive)
REMARK    1  A    between atoms: C5_7  and  C23_28
REMARK    2  A    between atoms: C7_9  and  C8_10
REMARK    3  A    between atoms: N2_12  and  C9_13
REMARK    4  A    between atoms: N3_16  and  C12_17
REMARK    5  A    between atoms: C12_17  and  C13_18
REMARK                            x       y       z     vdW  Elec       q    Type
REMARK                         _______ _______ _______ _____ _____    ______ ____
ROOT
ATOM      1 CL1  UNL     1     151.823 162.074 156.883  0.00  0.00    -0.084 Cl
ATOM      2  C1  UNL     1     151.516 160.884 158.082  0.00  0.00    +0.042 A 
ATOM      3  C2  UNL     1     151.545 161.229 159.425  0.00  0.00    +0.022 A 
ATOM      4  C3  UNL     1     151.305 160.247 160.390  0.00  0.00    +0.030 A 
ATOM      5  C4  UNL     1     151.028 158.930 160.047  0.00  0.00    +0.072 A 
ATOM      6  N1  UNL     1     150.832 158.048 161.039  0.00  0.00    -0.247 NA
ATOM      7  C5  UNL     1     150.597 156.742 160.755  0.00  0.00    +0.072 A 
ATOM      8  C6  UNL     1     150.504 156.301 159.447  0.00  0.00    +0.042 A 
ATOM      9  C7  UNL     1     150.671 157.226 158.414  0.00  0.00    +0.048 A 
ATOM     10  C21 UNL     1     150.973 158.579 158.686  0.00  0.00    +0.014 A 
ATOM     11  C22 UNL     1     151.238 159.573 157.708  0.00  0.00    +0.030 A 
ENDROOT
BRANCH   7  12
ATOM     12  C23 UNL     1     150.434 155.852 161.924  0.00  0.00    +0.003 A 
ATOM     13  C24 UNL     1     150.754 156.255 163.228  0.00  0.00    +0.030 A 
ATOM     14  C25 UNL     1     150.580 155.365 164.279  0.00  0.00    +0.111 A 
ATOM     15  N4  UNL     1     150.112 154.111 164.132  0.00  0.00    -0.263 NA
ATOM     16  C26 UNL     1     149.794 153.733 162.878  0.00  0.00    +0.111 A 
ATOM     17  C27 UNL     1     149.934 154.550 161.768  0.00  0.00    +0.030 A 
ENDBRANCH   7  12
BRANCH   9  18
ATOM     18  C8  UNL     1     150.510 156.693 157.043  0.00  0.00    +0.245 C 
ATOM     19  O1  UNL     1     149.459 156.153 156.725  0.00  0.00    -0.270 OA
ATOM     20  N2  UNL     1     151.566 156.925 156.188  0.00  0.00    -0.308 N 
ATOM     21  H4  UNL     1     152.290 157.569 156.483  0.00  0.00    +0.149 HD
BRANCH  20  22
ATOM     22  C9  UNL     1     151.484 156.599 154.766  0.00  0.00    +0.076 C 
ATOM     23  C10 UNL     1     152.052 155.195 154.516  0.00  0.00    +0.037 C 
ATOM     24  C11 UNL     1     152.627 155.084 153.107  0.00  0.00    +0.086 C 
ATOM     25  N3  UNL     1     153.759 155.995 152.937  0.00  0.00    -0.298 NA
ATOM     26  C19 UNL     1     153.617 157.295 153.593  0.00  0.00    +0.086 C 
ATOM     27  C20 UNL     1     152.169 157.669 153.902  0.00  0.00    +0.037 C 
BRANCH  25  28
ATOM     28  C12 UNL     1     154.306 156.034 151.576  0.00  0.00    +0.119 C 
BRANCH  28  29
ATOM     29  C13 UNL     1     155.200 154.879 151.171  0.00  0.00    -0.033 A 
ATOM     30  C14 UNL     1     154.981 154.185 149.973  0.00  0.00    +0.005 A 
ATOM     31  C15 UNL     1     155.806 153.119 149.605  0.00  0.00    +0.000 A 
ATOM     32  C16 UNL     1     156.863 152.738 150.429  0.00  0.00    +0.000 A 
ATOM     33  C17 UNL     1     157.098 153.423 151.618  0.00  0.00    +0.000 A 
ATOM     34  C18 UNL     1     156.274 154.488 151.985  0.00  0.00    +0.005 A 
ENDBRANCH  28  29
ENDBRANCH  25  28
ENDBRANCH  20  22
ENDBRANCH   9  18
TORSDOF 5
ENDMDL
MODEL 2
REMARK VINA RESULT:   -10.069      3.813     10.721
REMARK INTER + INTRA:         -13.806
REMARK INTER:                 -12.826
REMARK INTRA:                  -0.980
REMARK UNBOUND:                -0.794
REMARK  Name = /home/vital/Documents/PhD_2021/Malaria_codes/data/pdb_ligands_mmv/ligand_176.pdb
REMARK  5 active torsions:
REMARK  status: ('A' for Active; 'I' for Inactive)
REMARK    1  A    between atoms: C5_7  and  C23_28
REMARK    2  A    between atoms: C7_9  and  C8_10
REMARK    3  A    between atoms: N2_12  and  C9_13
REMARK    4  A    between atoms: N3_16  and  C12_17
REMARK    5  A    between atoms: C12_17  and  C13_18
REMARK                            x       y       z     vdW  Elec       q    Type
REMARK                         _______ _______ _______ _____ _____    ______ ____
ROOT
ATOM      1 CL1  UNL     1     150.785 155.188 162.513  0.00  0.00    -0.084 Cl
ATOM      2  C1  UNL     1     151.143 155.338 160.841  0.00  0.00    +0.042 A 
ATOM      3  C2  UNL     1     151.559 154.231 160.118  0.00  0.00    +0.022 A 
ATOM      4  C3  UNL     1     151.858 154.372 158.760  0.00  0.00    +0.030 A 
ATOM      5  C4  UNL     1     151.744 155.591 158.104  0.00  0.00    +0.072 A 
ATOM      6  N1  UNL     1     152.073 155.640 156.804  0.00  0.00    -0.247 NA
ATOM      7  C5  UNL     1     152.014 156.816 156.129  0.00  0.00    +0.072 A 
ATOM      8  C6  UNL     1     151.569 157.971 156.745  0.00  0.00    +0.042 A 
ATOM      9  C7  UNL     1     151.191 157.912 158.088  0.00  0.00    +0.048 A 
ATOM     10  C21 UNL     1     151.298 156.713 158.825  0.00  0.00    +0.014 A 
ATOM     11  C22 UNL     1     151.015 156.572 160.209  0.00  0.00    +0.030 A 
ENDROOT
BRANCH   7  12
ATOM     12  C23 UNL     1     152.436 156.763 154.713  0.00  0.00    +0.003 A 
ATOM     13  C24 UNL     1     152.663 157.918 153.951  0.00  0.00    +0.030 A 
ATOM     14  C25 UNL     1     153.054 157.794 152.625  0.00  0.00    +0.111 A 
ATOM     15  N4  UNL     1     153.236 156.614 152.002  0.00  0.00    -0.263 NA
ATOM     16  C26 UNL     1     153.030 155.507 152.743  0.00  0.00    +0.111 A 
ATOM     17  C27 UNL     1     152.639 155.531 154.072  0.00  0.00    +0.030 A 
ENDBRANCH   7  12
BRANCH   9  18
ATOM     18  C8  UNL     1     150.680 159.174 158.667  0.00  0.00    +0.245 C 
ATOM     19  O1  UNL     1     149.549 159.552 158.389  0.00  0.00    -0.270 OA
ATOM     20  N2  UNL     1     151.521 159.802 159.560  0.00  0.00    -0.308 N 
ATOM     21  H4  UNL     1     152.336 159.298 159.887  0.00  0.00    +0.149 HD
BRANCH  20  22
ATOM     22  C9  UNL     1     151.089 160.967 160.329  0.00  0.00    +0.076 C 
ATOM     23  C10 UNL     1     152.310 161.709 160.889  0.00  0.00    +0.037 C 
ATOM     24  C11 UNL     1     151.959 162.434 162.184  0.00  0.00    +0.086 C 
ATOM     25  N3  UNL     1     151.577 161.480 163.225  0.00  0.00    -0.298 NA
ATOM     26  C19 UNL     1     150.787 160.337 162.763  0.00  0.00    +0.086 C 
ATOM     27  C20 UNL     1     150.087 160.579 161.427  0.00  0.00    +0.037 C 
BRANCH  25  28
ATOM     28  C12 UNL     1     151.117 162.097 164.473  0.00  0.00    +0.119 C 
BRANCH  28  29
ATOM     29  C13 UNL     1     152.109 162.129 165.619  0.00  0.00    -0.033 A 
ATOM     30  C14 UNL     1     151.936 163.009 166.697  0.00  0.00    +0.005 A 
ATOM     31  C15 UNL     1     152.855 163.037 167.749  0.00  0.00    +0.000 A 
ATOM     32  C16 UNL     1     153.955 162.182 167.738  0.00  0.00    +0.000 A 
ATOM     33  C17 UNL     1     154.135 161.296 166.678  0.00  0.00    +0.000 A 
ATOM     34  C18 UNL     1     153.217 161.268 165.628  0.00  0.00    +0.005 A 
ENDBRANCH  28  29
ENDBRANCH  25  28
ENDBRANCH  20  22
ENDBRANCH   9  18
TORSDOF 5
ENDMDL
MODEL 3
REMARK VINA RESULT:    -9.879      2.890     10.161
REMARK INTER + INTRA:         -13.560
REMARK INTER:                 -12.766
REMARK INTRA:                  -0.794
REMARK UNBOUND:                -0.794
REMARK  Name = /home/vital/Documents/PhD_2021/Malaria_codes/data/pdb_ligands_mmv/ligand_176.pdb
REMARK  5 active torsions:
REMARK  status: ('A' for Active; 'I' for Inactive)
REMARK    1  A    between atoms: C5_7  and  C23_28
REMARK    2  A    between atoms: C7_9  and  C8_10
REMARK    3  A    between atoms: N2_12  and  C9_13
REMARK    4  A    between atoms: N3_16  and  C12_17
REMARK    5  A    between atoms: C12_17  and  C13_18
REMARK                            x       y       z     vdW  Elec       q    Type
REMARK                         _______ _______ _______ _____ _____    ______ ____
ROOT
ATOM      1 CL1  UNL     1     150.715 159.431 162.661  0.00  0.00    -0.084 Cl
ATOM      2  C1  UNL     1     151.032 158.978 161.035  0.00  0.00    +0.042 A 
ATOM      3  C2  UNL     1     151.270 159.952 160.077  0.00  0.00    +0.022 A 
ATOM      4  C3  UNL     1     151.514 159.569 158.756  0.00  0.00    +0.030 A 
ATOM      5  C4  UNL     1     151.534 158.236 158.368  0.00  0.00    +0.072 A 
ATOM      6  N1  UNL     1     151.755 157.958 157.073  0.00  0.00    -0.247 NA
ATOM      7  C5  UNL     1     151.745 156.673 156.639  0.00  0.00    +0.072 A 
ATOM      8  C6  UNL     1     151.560 155.623 157.520  0.00  0.00    +0.042 A 
ATOM      9  C7  UNL     1     151.368 155.909 158.874  0.00  0.00    +0.048 A 
ATOM     10  C21 UNL     1     151.317 157.241 159.339  0.00  0.00    +0.014 A 
ATOM     11  C22 UNL     1     151.049 157.633 160.676  0.00  0.00    +0.030 A 
ENDROOT
BRANCH   7  12
ATOM     12  C23 UNL     1     151.960 156.486 155.189  0.00  0.00    +0.003 A 
ATOM     13  C24 UNL     1     151.612 155.303 154.522  0.00  0.00    +0.030 A 
ATOM     14  C25 UNL     1     151.846 155.194 153.158  0.00  0.00    +0.111 A 
ATOM     15  N4  UNL     1     152.397 156.169 152.410  0.00  0.00    -0.263 NA
ATOM     16  C26 UNL     1     152.717 157.310 153.053  0.00  0.00    +0.111 A 
ATOM     17  C27 UNL     1     152.521 157.510 154.411  0.00  0.00    +0.030 A 
ENDBRANCH   7  12
BRANCH   9  18
ATOM     18  C8  UNL     1     151.226 154.735 159.764  0.00  0.00    +0.245 C 
ATOM     19  O1  UNL     1     152.132 153.915 159.831  0.00  0.00    -0.270 OA
ATOM     20  N2  UNL     1     150.078 154.703 160.526  0.00  0.00    -0.308 N 
ATOM     21  H4  UNL     1     149.501 155.534 160.559  0.00  0.00    +0.149 HD
BRANCH  20  22
ATOM     22  C9  UNL     1     149.876 153.693 161.561  0.00  0.00    +0.076 C 
ATOM     23  C10 UNL     1     148.379 153.544 161.865  0.00  0.00    +0.037 C 
ATOM     24  C11 UNL     1     148.158 153.094 163.306  0.00  0.00    +0.086 C 
ATOM     25  N3  UNL     1     148.644 154.106 164.244  0.00  0.00    -0.298 NA
ATOM     26  C19 UNL     1     149.879 154.782 163.847  0.00  0.00    +0.086 C 
ATOM     27  C20 UNL     1     150.699 154.004 162.821  0.00  0.00    +0.037 C 
BRANCH  25  28
ATOM     28  C12 UNL     1     148.571 153.708 165.654  0.00  0.00    +0.119 C 
BRANCH  28  29
ATOM     29  C13 UNL     1     149.877 153.697 166.424  0.00  0.00    -0.033 A 
ATOM     30  C14 UNL     1     150.263 154.795 167.205  0.00  0.00    +0.005 A 
ATOM     31  C15 UNL     1     151.469 154.781 167.910  0.00  0.00    +0.000 A 
ATOM     32  C16 UNL     1     152.301 153.665 167.846  0.00  0.00    +0.000 A 
ATOM     33  C17 UNL     1     151.928 152.563 167.081  0.00  0.00    +0.000 A 
ATOM     34  C18 UNL     1     150.723 152.577 166.378  0.00  0.00    +0.005 A 
ENDBRANCH  28  29
ENDBRANCH  25  28
ENDBRANCH  20  22
ENDBRANCH   9  18
TORSDOF 5
ENDMDL
MODEL 4
REMARK VINA RESULT:    -9.781      4.612      8.191
REMARK INTER + INTRA:         -13.434
REMARK INTER:                 -12.359
REMARK INTRA:                  -1.075
REMARK UNBOUND:                -0.794
REMARK  Name = /home/vital/Documents/PhD_2021/Malaria_codes/data/pdb_ligands_mmv/ligand_176.pdb
REMARK  5 active torsions:
REMARK  status: ('A' for Active; 'I' for Inactive)
REMARK    1  A    between atoms: C5_7  and  C23_28
REMARK    2  A    between atoms: C7_9  and  C8_10
REMARK    3  A    between atoms: N2_12  and  C9_13
REMARK    4  A    between atoms: N3_16  and  C12_17
REMARK    5  A    between atoms: C12_17  and  C13_18
REMARK                            x       y       z     vdW  Elec       q    Type
REMARK                         _______ _______ _______ _____ _____    ______ ____
ROOT
ATOM      1 CL1  UNL     1     149.895 153.092 163.962  0.00  0.00    -0.084 Cl
ATOM      2  C1  UNL     1     150.357 154.331 165.057  0.00  0.00    +0.042 A 
ATOM      3  C2  UNL     1     150.078 154.201 166.409  0.00  0.00    +0.022 A 
ATOM      4  C3  UNL     1     150.450 155.223 167.287  0.00  0.00    +0.030 A 
ATOM      5  C4  UNL     1     151.101 156.369 166.848  0.00  0.00    +0.072 A 
ATOM      6  N1  UNL     1     151.401 157.311 167.757  0.00  0.00    -0.247 NA
ATOM      7  C5  UNL     1     152.002 158.464 167.371  0.00  0.00    +0.072 A 
ATOM      8  C6  UNL     1     152.363 158.676 166.053  0.00  0.00    +0.042 A 
ATOM      9  C7  UNL     1     152.084 157.680 165.114  0.00  0.00    +0.048 A 
ATOM     10  C21 UNL     1     151.409 156.496 165.482  0.00  0.00    +0.014 A 
ATOM     11  C22 UNL     1     151.011 155.467 164.589  0.00  0.00    +0.030 A 
ENDROOT
BRANCH   7  12
ATOM     12  C23 UNL     1     152.251 159.446 168.447  0.00  0.00    +0.003 A 
ATOM     13  C24 UNL     1     151.241 160.270 168.964  0.00  0.00    +0.030 A 
ATOM     14  C25 UNL     1     151.547 161.174 169.972  0.00  0.00    +0.111 A 
ATOM     15  N4  UNL     1     152.776 161.319 170.504  0.00  0.00    -0.263 NA
ATOM     16  C26 UNL     1     153.740 160.516 170.013  0.00  0.00    +0.111 A 
ATOM     17  C27 UNL     1     153.530 159.585 169.008  0.00  0.00    +0.030 A 
ENDBRANCH   7  12
BRANCH   9  18
ATOM     18  C8  UNL     1     152.542 157.954 163.733  0.00  0.00    +0.245 C 
ATOM     19  O1  UNL     1     153.639 157.550 163.370  0.00  0.00    -0.270 OA
ATOM     20  N2  UNL     1     151.633 158.597 162.922  0.00  0.00    -0.308 N 
ATOM     21  H4  UNL     1     150.679 158.691 163.250  0.00  0.00    +0.149 HD
BRANCH  20  22
ATOM     22  C9  UNL     1     151.883 158.791 161.496  0.00  0.00    +0.076 C 
ATOM     23  C10 UNL     1     151.197 160.077 161.013  0.00  0.00    +0.037 C 
ATOM     24  C11 UNL     1     150.826 159.974 159.537  0.00  0.00    +0.086 C 
ATOM     25  N3  UNL     1     149.845 158.909 159.323  0.00  0.00    -0.298 NA
ATOM     26  C19 UNL     1     150.041 157.709 160.137  0.00  0.00    +0.086 C 
ATOM     27  C20 UNL     1     151.462 157.562 160.677  0.00  0.00    +0.037 C 
BRANCH  25  28
ATOM     28  C12 UNL     1     149.512 158.666 157.916  0.00  0.00    +0.119 C 
BRANCH  28  29
ATOM     29  C13 UNL     1     150.548 157.927 157.092  0.00  0.00    -0.033 A 
ATOM     30  C14 UNL     1     150.534 156.528 157.003  0.00  0.00    +0.005 A 
ATOM     31  C15 UNL     1     151.492 155.851 156.244  0.00  0.00    +0.000 A 
ATOM     32  C16 UNL     1     152.474 156.567 155.562  0.00  0.00    +0.000 A 
ATOM     33  C17 UNL     1     152.496 157.957 155.634  0.00  0.00    +0.000 A 
ATOM     34  C18 UNL     1     151.538 158.633 156.391  0.00  0.00    +0.005 A 
ENDBRANCH  28  29
ENDBRANCH  25  28
ENDBRANCH  20  22
ENDBRANCH   9  18
TORSDOF 5
ENDMDL
MODEL 5
REMARK VINA RESULT:    -9.603      3.928      6.638
REMARK INTER + INTRA:         -13.203
REMARK INTER:                 -12.302
REMARK INTRA:                  -0.902
REMARK UNBOUND:                -0.794
REMARK  Name = /home/vital/Documents/PhD_2021/Malaria_codes/data/pdb_ligands_mmv/ligand_176.pdb
REMARK  5 active torsions:
REMARK  status: ('A' for Active; 'I' for Inactive)
REMARK    1  A    between atoms: C5_7  and  C23_28
REMARK    2  A    between atoms: C7_9  and  C8_10
REMARK    3  A    between atoms: N2_12  and  C9_13
REMARK    4  A    between atoms: N3_16  and  C12_17
REMARK    5  A    between atoms: C12_17  and  C13_18
REMARK                            x       y       z     vdW  Elec       q    Type
REMARK                         _______ _______ _______ _____ _____    ______ ____
ROOT
ATOM      1 CL1  UNL     1     153.130 161.445 167.031  0.00  0.00    -0.084 Cl
ATOM      2  C1  UNL     1     152.296 159.952 166.873  0.00  0.00    +0.042 A 
ATOM      3  C2  UNL     1     151.540 159.465 167.928  0.00  0.00    +0.022 A 
ATOM      4  C3  UNL     1     150.876 158.243 167.789  0.00  0.00    +0.030 A 
ATOM      5  C4  UNL     1     150.943 157.499 166.618  0.00  0.00    +0.072 A 
ATOM      6  N1  UNL     1     150.293 156.325 166.579  0.00  0.00    -0.247 NA
ATOM      7  C5  UNL     1     150.359 155.544 165.471  0.00  0.00    +0.072 A 
ATOM      8  C6  UNL     1     151.051 155.957 164.347  0.00  0.00    +0.042 A 
ATOM      9  C7  UNL     1     151.696 157.195 164.374  0.00  0.00    +0.048 A 
ATOM     10  C21 UNL     1     151.688 157.999 165.535  0.00  0.00    +0.014 A 
ATOM     11  C22 UNL     1     152.379 159.229 165.686  0.00  0.00    +0.030 A 
ENDROOT
BRANCH   7  12
ATOM     12  C23 UNL     1     149.638 154.257 165.552  0.00  0.00    +0.003 A 
ATOM     13  C24 UNL     1     149.348 153.631 166.772  0.00  0.00    +0.030 A 
ATOM     14  C25 UNL     1     148.670 152.419 166.773  0.00  0.00    +0.111 A 
ATOM     15  N4  UNL     1     148.260 151.787 165.657  0.00  0.00    -0.263 NA
ATOM     16  C26 UNL     1     148.529 152.399 164.487  0.00  0.00    +0.111 A 
ATOM     17  C27 UNL     1     149.200 153.608 164.387  0.00  0.00    +0.030 A 
ENDBRANCH   7  12
BRANCH   9  18
ATOM     18  C8  UNL     1     152.375 157.593 163.120  0.00  0.00    +0.245 C 
ATOM     19  O1  UNL     1     153.590 157.482 163.030  0.00  0.00    -0.270 OA
ATOM     20  N2  UNL     1     151.545 158.000 162.098  0.00  0.00    -0.308 N 
ATOM     21  H4  UNL     1     150.548 157.847 162.200  0.00  0.00    +0.149 HD
BRANCH  20  22
ATOM     22  C9  UNL     1     152.057 158.269 160.758  0.00  0.00    +0.076 C 
ATOM     23  C10 UNL     1     151.760 159.723 160.364  0.00  0.00    +0.037 C 
ATOM     24  C11 UNL     1     151.617 159.858 158.851  0.00  0.00    +0.086 C 
ATOM     25  N3  UNL     1     150.473 159.086 158.368  0.00  0.00    -0.298 NA
ATOM     26  C19 UNL     1     150.265 157.798 159.032  0.00  0.00    +0.086 C 
ATOM     27  C20 UNL     1     151.512 157.263 159.732  0.00  0.00    +0.037 C 
BRANCH  25  28
ATOM     28  C12 UNL     1     150.325 159.070 156.909  0.00  0.00    +0.119 C 
BRANCH  28  29
ATOM     29  C13 UNL     1     151.023 157.946 156.169  0.00  0.00    -0.033 A 
ATOM     30  C14 UNL     1     150.459 156.664 156.108  0.00  0.00    +0.005 A 
ATOM     31  C15 UNL     1     151.107 155.631 155.427  0.00  0.00    +0.000 A 
ATOM     32  C16 UNL     1     152.325 155.869 154.794  0.00  0.00    +0.000 A 
ATOM     33  C17 UNL     1     152.893 157.139 154.838  0.00  0.00    +0.000 A 
ATOM     34  C18 UNL     1     152.245 158.172 155.518  0.00  0.00    +0.005 A 
ENDBRANCH  28  29
ENDBRANCH  25  28
ENDBRANCH  20  22
ENDBRANCH   9  18
TORSDOF 5
ENDMDL
MODEL 6
REMARK VINA RESULT:    -9.599      1.577      2.467
REMARK INTER + INTRA:         -13.198
REMARK INTER:                 -12.974
REMARK INTRA:                  -0.224
REMARK UNBOUND:                -0.794
REMARK  Name = /home/vital/Documents/PhD_2021/Malaria_codes/data/pdb_ligands_mmv/ligand_176.pdb
REMARK  5 active torsions:
REMARK  status: ('A' for Active; 'I' for Inactive)
REMARK    1  A    between atoms: C5_7  and  C23_28
REMARK    2  A    between atoms: C7_9  and  C8_10
REMARK    3  A    between atoms: N2_12  and  C9_13
REMARK    4  A    between atoms: N3_16  and  C12_17
REMARK    5  A    between atoms: C12_17  and  C13_18
REMARK                            x       y       z     vdW  Elec       q    Type
REMARK                         _______ _______ _______ _____ _____    ______ ____
ROOT
ATOM      1 CL1  UNL     1     151.495 161.281 158.734  0.00  0.00    -0.084 Cl
ATOM      2  C1  UNL     1     151.227 160.093 159.944  0.00  0.00    +0.042 A 
ATOM      3  C2  UNL     1     151.232 160.452 161.282  0.00  0.00    +0.022 A 
ATOM      4  C3  UNL     1     151.025 159.472 162.256  0.00  0.00    +0.030 A 
ATOM      5  C4  UNL     1     150.803 158.141 161.925  0.00  0.00    +0.072 A 
ATOM      6  N1  UNL     1     150.635 157.262 162.925  0.00  0.00    -0.247 NA
ATOM      7  C5  UNL     1     150.455 155.945 162.653  0.00  0.00    +0.072 A 
ATOM      8  C6  UNL     1     150.389 155.487 161.350  0.00  0.00    +0.042 A 
ATOM      9  C7  UNL     1     150.526 156.407 160.308  0.00  0.00    +0.048 A 
ATOM     10  C21 UNL     1     150.772 157.774 160.567  0.00  0.00    +0.014 A 
ATOM     11  C22 UNL     1     151.005 158.767 159.581  0.00  0.00    +0.030 A 
ENDROOT
BRANCH   7  12
ATOM     12  C23 UNL     1     150.319 155.061 163.830  0.00  0.00    +0.003 A 
ATOM     13  C24 UNL     1     150.174 153.671 163.716  0.00  0.00    +0.030 A 
ATOM     14  C25 UNL     1     150.047 152.902 164.864  0.00  0.00    +0.111 A 
ATOM     15  N4  UNL     1     150.055 153.408 166.112  0.00  0.00    -0.263 NA
ATOM     16  C26 UNL     1     150.208 154.743 166.217  0.00  0.00    +0.111 A 
ATOM     17  C27 UNL     1     150.341 155.591 165.129  0.00  0.00    +0.030 A 
ENDBRANCH   7  12
BRANCH   9  18
ATOM     18  C8  UNL     1     150.397 155.855 158.941  0.00  0.00    +0.245 C 
ATOM     19  O1  UNL     1     149.624 154.929 158.736  0.00  0.00    -0.270 OA
ATOM     20  N2  UNL     1     151.127 156.500 157.967  0.00  0.00    -0.308 N 
ATOM     21  H4  UNL     1     151.561 157.386 158.201  0.00  0.00    +0.149 HD
BRANCH  20  22
ATOM     22  C9  UNL     1     150.978 156.168 156.553  0.00  0.00    +0.076 C 
ATOM     23  C10 UNL     1     152.286 155.574 156.011  0.00  0.00    +0.037 C 
ATOM     24  C11 UNL     1     152.436 155.859 154.521  0.00  0.00    +0.086 C 
ATOM     25  N3  UNL     1     152.536 157.298 154.277  0.00  0.00    -0.298 NA
ATOM     26  C19 UNL     1     151.682 158.134 155.121  0.00  0.00    +0.086 C 
ATOM     27  C20 UNL     1     150.505 157.381 155.736  0.00  0.00    +0.037 C 
BRANCH  25  28
ATOM     28  C12 UNL     1     152.574 157.671 152.859  0.00  0.00    +0.119 C 
BRANCH  28  29
ATOM     29  C13 UNL     1     153.092 156.621 151.895  0.00  0.00    -0.033 A 
ATOM     30  C14 UNL     1     152.275 156.113 150.876  0.00  0.00    +0.005 A 
ATOM     31  C15 UNL     1     152.756 155.144 149.992  0.00  0.00    +0.000 A 
ATOM     32  C16 UNL     1     154.063 154.675 150.115  0.00  0.00    +0.000 A 
ATOM     33  C17 UNL     1     154.889 155.177 151.117  0.00  0.00    +0.000 A 
ATOM     34  C18 UNL     1     154.409 156.146 151.999  0.00  0.00    +0.005 A 
ENDBRANCH  28  29
ENDBRANCH  25  28
ENDBRANCH  20  22
ENDBRANCH   9  18
TORSDOF 5
ENDMDL
MODEL 7
REMARK VINA RESULT:    -9.546      3.893     11.022
REMARK INTER + INTRA:         -13.130
REMARK INTER:                 -11.933
REMARK INTRA:                  -1.198
REMARK UNBOUND:                -0.794
REMARK  Name = /home/vital/Documents/PhD_2021/Malaria_codes/data/pdb_ligands_mmv/ligand_176.pdb
REMARK  5 active torsions:
REMARK  status: ('A' for Active; 'I' for Inactive)
REMARK    1  A    between atoms: C5_7  and  C23_28
REMARK    2  A    between atoms: C7_9  and  C8_10
REMARK    3  A    between atoms: N2_12  and  C9_13
REMARK    4  A    between atoms: N3_16  and  C12_17
REMARK    5  A    between atoms: C12_17  and  C13_18
REMARK                            x       y       z     vdW  Elec       q    Type
REMARK                         _______ _______ _______ _____ _____    ______ ____
ROOT
ATOM      1 CL1  UNL     1     150.512 155.001 163.686  0.00  0.00    -0.084 Cl
ATOM      2  C1  UNL     1     150.754 155.139 161.991  0.00  0.00    +0.042 A 
ATOM      3  C2  UNL     1     151.096 154.021 161.246  0.00  0.00    +0.022 A 
ATOM      4  C3  UNL     1     151.300 154.152 159.870  0.00  0.00    +0.030 A 
ATOM      5  C4  UNL     1     151.165 155.370 159.218  0.00  0.00    +0.072 A 
ATOM      6  N1  UNL     1     151.402 155.409 157.897  0.00  0.00    -0.247 NA
ATOM      7  C5  UNL     1     151.320 156.584 157.223  0.00  0.00    +0.072 A 
ATOM      8  C6  UNL     1     150.943 157.750 157.864  0.00  0.00    +0.042 A 
ATOM      9  C7  UNL     1     150.660 157.703 159.230  0.00  0.00    +0.048 A 
ATOM     10  C21 UNL     1     150.794 156.504 159.964  0.00  0.00    +0.014 A 
ATOM     11  C22 UNL     1     150.607 156.373 161.365  0.00  0.00    +0.030 A 
ENDROOT
BRANCH   7  12
ATOM     12  C23 UNL     1     151.639 156.518 155.781  0.00  0.00    +0.003 A 
ATOM     13  C24 UNL     1     151.690 155.307 155.076  0.00  0.00    +0.030 A 
ATOM     14  C25 UNL     1     152.000 155.319 153.723  0.00  0.00    +0.111 A 
ATOM     15  N4  UNL     1     152.261 156.439 153.021  0.00  0.00    -0.263 NA
ATOM     16  C26 UNL     1     152.197 157.601 153.701  0.00  0.00    +0.111 A 
ATOM     17  C27 UNL     1     151.896 157.688 155.051  0.00  0.00    +0.030 A 
ENDBRANCH   7  12
BRANCH   9  18
ATOM     18  C8  UNL     1     150.217 158.977 159.839  0.00  0.00    +0.245 C 
ATOM     19  O1  UNL     1     149.042 159.312 159.752  0.00  0.00    -0.270 OA
ATOM     20  N2  UNL     1     151.181 159.668 160.540  0.00  0.00    -0.308 N 
ATOM     21  H4  UNL     1     152.058 159.201 160.737  0.00  0.00    +0.149 HD
BRANCH  20  22
ATOM     22  C9  UNL     1     150.853 160.856 161.324  0.00  0.00    +0.076 C 
ATOM     23  C10 UNL     1     152.093 161.750 161.468  0.00  0.00    +0.037 C 
ATOM     24  C11 UNL     1     152.034 162.557 162.761  0.00  0.00    +0.086 C 
ATOM     25  N3  UNL     1     152.060 161.671 163.925  0.00  0.00    -0.298 NA
ATOM     26  C19 UNL     1     151.303 160.427 163.779  0.00  0.00    +0.086 C 
ATOM     27  C20 UNL     1     150.240 160.484 162.683  0.00  0.00    +0.037 C 
BRANCH  25  28
ATOM     28  C12 UNL     1     151.897 162.357 165.212  0.00  0.00    +0.119 C 
BRANCH  28  29
ATOM     29  C13 UNL     1     150.485 162.449 165.757  0.00  0.00    -0.033 A 
ATOM     30  C14 UNL     1     150.086 161.678 166.857  0.00  0.00    +0.005 A 
ATOM     31  C15 UNL     1     148.783 161.765 167.354  0.00  0.00    +0.000 A 
ATOM     32  C16 UNL     1     147.865 162.628 166.759  0.00  0.00    +0.000 A 
ATOM     33  C17 UNL     1     148.250 163.407 165.671  0.00  0.00    +0.000 A 
ATOM     34  C18 UNL     1     149.551 163.320 165.175  0.00  0.00    +0.005 A 
ENDBRANCH  28  29
ENDBRANCH  25  28
ENDBRANCH  20  22
ENDBRANCH   9  18
TORSDOF 5
ENDMDL
MODEL 8
REMARK VINA RESULT:    -9.501      2.744     10.075
REMARK INTER + INTRA:         -13.071
REMARK INTER:                 -13.071
REMARK INTRA:                  -0.000
REMARK UNBOUND:                -0.794
REMARK  Name = /home/vital/Documents/PhD_2021/Malaria_codes/data/pdb_ligands_mmv/ligand_176.pdb
REMARK  5 active torsions:
REMARK  status: ('A' for Active; 'I' for Inactive)
REMARK    1  A    between atoms: C5_7  and  C23_28
REMARK    2  A    between atoms: C7_9  and  C8_10
REMARK    3  A    between atoms: N2_12  and  C9_13
REMARK    4  A    between atoms: N3_16  and  C12_17
REMARK    5  A    between atoms: C12_17  and  C13_18
REMARK                            x       y       z     vdW  Elec       q    Type
REMARK                         _______ _______ _______ _____ _____    ______ ____
ROOT
ATOM      1 CL1  UNL     1     151.170 161.346 161.582  0.00  0.00    -0.084 Cl
ATOM      2  C1  UNL     1     151.347 160.533 160.080  0.00  0.00    +0.042 A 
ATOM      3  C2  UNL     1     151.476 161.261 158.908  0.00  0.00    +0.022 A 
ATOM      4  C3  UNL     1     151.607 160.585 157.692  0.00  0.00    +0.030 A 
ATOM      5  C4  UNL     1     151.620 159.198 157.619  0.00  0.00    +0.072 A 
ATOM      6  N1  UNL     1     151.727 158.631 156.407  0.00  0.00    -0.247 NA
ATOM      7  C5  UNL     1     151.705 157.281 156.280  0.00  0.00    +0.072 A 
ATOM      8  C6  UNL     1     151.624 156.461 157.391  0.00  0.00    +0.042 A 
ATOM      9  C7  UNL     1     151.550 157.050 158.656  0.00  0.00    +0.048 A 
ATOM     10  C21 UNL     1     151.514 158.453 158.807  0.00  0.00    +0.014 A 
ATOM     11  C22 UNL     1     151.359 159.142 160.039  0.00  0.00    +0.030 A 
ENDROOT
BRANCH   7  12
ATOM     12  C23 UNL     1     151.791 156.766 154.898  0.00  0.00    +0.003 A 
ATOM     13  C24 UNL     1     151.458 155.446 154.563  0.00  0.00    +0.030 A 
ATOM     14  C25 UNL     1     151.566 155.028 153.244  0.00  0.00    +0.111 A 
ATOM     15  N4  UNL     1     151.978 155.821 152.236  0.00  0.00    -0.263 NA
ATOM     16  C26 UNL     1     152.284 157.093 152.561  0.00  0.00    +0.111 A 
ATOM     17  C27 UNL     1     152.207 157.599 153.848  0.00  0.00    +0.030 A 
ENDBRANCH   7  12
BRANCH   9  18
ATOM     18  C8  UNL     1     151.515 156.112 159.800  0.00  0.00    +0.245 C 
ATOM     19  O1  UNL     1     151.510 154.906 159.592  0.00  0.00    -0.270 OA
ATOM     20  N2  UNL     1     151.568 156.694 161.048  0.00  0.00    -0.308 N 
ATOM     21  H4  UNL     1     151.791 157.681 161.108  0.00  0.00    +0.149 HD
BRANCH  20  22
ATOM     22  C9  UNL     1     151.700 155.892 162.261  0.00  0.00    +0.076 C 
ATOM     23  C10 UNL     1     150.336 155.310 162.658  0.00  0.00    +0.037 C 
ATOM     24  C11 UNL     1     150.255 155.095 164.166  0.00  0.00    +0.086 C 
ATOM     25  N3  UNL     1     150.352 156.370 164.877  0.00  0.00    -0.298 NA
ATOM     26  C19 UNL     1     151.293 157.333 164.303  0.00  0.00    +0.086 C 
ATOM     27  C20 UNL     1     152.347 156.695 163.401  0.00  0.00    +0.037 C 
BRANCH  25  28
ATOM     28  C12 UNL     1     150.393 156.248 166.338  0.00  0.00    +0.119 C 
BRANCH  28  29
ATOM     29  C13 UNL     1     151.403 155.272 166.908  0.00  0.00    -0.033 A 
ATOM     30  C14 UNL     1     151.156 153.892 166.902  0.00  0.00    +0.005 A 
ATOM     31  C15 UNL     1     152.089 152.998 167.431  0.00  0.00    +0.000 A 
ATOM     32  C16 UNL     1     153.283 153.472 167.969  0.00  0.00    +0.000 A 
ATOM     33  C17 UNL     1     153.548 154.839 167.974  0.00  0.00    +0.000 A 
ATOM     34  C18 UNL     1     152.616 155.733 167.445  0.00  0.00    +0.005 A 
ENDBRANCH  28  29
ENDBRANCH  25  28
ENDBRANCH  20  22
ENDBRANCH   9  18
TORSDOF 5
ENDMDL
MODEL 9
REMARK VINA RESULT:    -9.410      4.591      7.603
REMARK INTER + INTRA:         -12.954
REMARK INTER:                 -12.256
REMARK INTRA:                  -0.698
REMARK UNBOUND:                -0.794
REMARK  Name = /home/vital/Documents/PhD_2021/Malaria_codes/data/pdb_ligands_mmv/ligand_176.pdb
REMARK  5 active torsions:
REMARK  status: ('A' for Active; 'I' for Inactive)
REMARK    1  A    between atoms: C5_7  and  C23_28
REMARK    2  A    between atoms: C7_9  and  C8_10
REMARK    3  A    between atoms: N2_12  and  C9_13
REMARK    4  A    between atoms: N3_16  and  C12_17
REMARK    5  A    between atoms: C12_17  and  C13_18
REMARK                            x       y       z     vdW  Elec       q    Type
REMARK                         _______ _______ _______ _____ _____    ______ ____
ROOT
ATOM      1 CL1  UNL     1     151.595 163.366 167.649  0.00  0.00    -0.084 Cl
ATOM      2  C1  UNL     1     151.533 161.650 167.684  0.00  0.00    +0.042 A 
ATOM      3  C2  UNL     1     151.231 160.990 168.865  0.00  0.00    +0.022 A 
ATOM      4  C3  UNL     1     151.196 159.594 168.881  0.00  0.00    +0.030 A 
ATOM      5  C4  UNL     1     151.448 158.839 167.743  0.00  0.00    +0.072 A 
ATOM      6  N1  UNL     1     151.416 157.501 167.853  0.00  0.00    -0.247 NA
ATOM      7  C5  UNL     1     151.693 156.720 166.778  0.00  0.00    +0.072 A 
ATOM      8  C6  UNL     1     151.964 157.278 165.542  0.00  0.00    +0.042 A 
ATOM      9  C7  UNL     1     151.961 158.669 165.418  0.00  0.00    +0.048 A 
ATOM     10  C21 UNL     1     151.732 159.502 166.535  0.00  0.00    +0.014 A 
ATOM     11  C22 UNL     1     151.788 160.920 166.527  0.00  0.00    +0.030 A 
ENDROOT
BRANCH   7  12
ATOM     12  C23 UNL     1     151.666 155.263 167.022  0.00  0.00    +0.003 A 
ATOM     13  C24 UNL     1     152.646 154.608 167.781  0.00  0.00    +0.030 A 
ATOM     14  C25 UNL     1     152.561 153.235 167.967  0.00  0.00    +0.111 A 
ATOM     15  N4  UNL     1     151.578 152.468 167.458  0.00  0.00    -0.263 NA
ATOM     16  C26 UNL     1     150.631 153.104 166.740  0.00  0.00    +0.111 A 
ATOM     17  C27 UNL     1     150.633 154.469 166.502  0.00  0.00    +0.030 A 
ENDBRANCH   7  12
BRANCH   9  18
ATOM     18  C8  UNL     1     152.211 159.193 164.057  0.00  0.00    +0.245 C 
ATOM     19  O1  UNL     1     153.050 160.069 163.892  0.00  0.00    -0.270 OA
ATOM     20  N2  UNL     1     151.507 158.578 163.044  0.00  0.00    -0.308 N 
ATOM     21  H4  UNL     1     151.007 157.723 163.258  0.00  0.00    +0.149 HD
BRANCH  20  22
ATOM     22  C9  UNL     1     151.767 158.879 161.639  0.00  0.00    +0.076 C 
ATOM     23  C10 UNL     1     150.973 160.122 161.213  0.00  0.00    +0.037 C 
ATOM     24  C11 UNL     1     150.643 160.073 159.724  0.00  0.00    +0.086 C 
ATOM     25  N3  UNL     1     149.772 158.937 159.425  0.00  0.00    -0.298 NA
ATOM     26  C19 UNL     1     150.064 157.713 160.172  0.00  0.00    +0.086 C 
ATOM     27  C20 UNL     1     151.481 157.667 160.739  0.00  0.00    +0.037 C 
BRANCH  25  28
ATOM     28  C12 UNL     1     149.492 158.748 157.997  0.00  0.00    +0.119 C 
BRANCH  28  29
ATOM     29  C13 UNL     1     150.491 157.919 157.214  0.00  0.00    -0.033 A 
ATOM     30  C14 UNL     1     150.354 156.527 157.118  0.00  0.00    +0.005 A 
ATOM     31  C15 UNL     1     151.278 155.767 156.398  0.00  0.00    +0.000 A 
ATOM     32  C16 UNL     1     152.349 156.391 155.761  0.00  0.00    +0.000 A 
ATOM     33  C17 UNL     1     152.494 157.773 155.839  0.00  0.00    +0.000 A 
ATOM     34  C18 UNL     1     151.569 158.533 156.559  0.00  0.00    +0.005 A 
ENDBRANCH  28  29
ENDBRANCH  25  28
ENDBRANCH  20  22
ENDBRANCH   9  18
TORSDOF 5
ENDMDL
