MODEL 1
REMARK VINA RESULT:   -10.190      0.000      0.000
REMARK INTER + INTRA:         -13.471
REMARK INTER:                 -13.169
REMARK INTRA:                  -0.302
REMARK UNBOUND:                -0.302
REMARK  Name = /home/vital/Documents/PhD_2021/Malaria_codes/data/pdb_ligands_mmv/ligand_231.pdb
REMARK  6 active torsions:
REMARK  status: ('A' for Active; 'I' for Inactive)
REMARK    1  A    between atoms: C3_4  and  C4_5
REMARK    2  A    between atoms: N3_8  and  C6_9
REMARK    3  A    between atoms: C11_14  and  N4_15
REMARK    4  A    between atoms: C12_16  and  C13_17
REMARK    5  A    between atoms: C13_17  and  C14_18
REMARK    6  A    between atoms: C14_18  and  C15_19
REMARK                            x       y       z     vdW  Elec       q    Type
REMARK                         _______ _______ _______ _____ _____    ______ ____
ROOT
ATOM      1  C6  UNL     1     151.881 157.809 155.562  0.00  0.00    +0.034 A 
ATOM      2  C7  UNL     1     152.447 158.464 154.459  0.00  0.00    +0.025 A 
ATOM      3  C8  UNL     1     153.019 157.755 153.394  0.00  0.00    +0.025 A 
ATOM      4  C9  UNL     1     151.920 156.414 155.565  0.00  0.00    +0.025 A 
ATOM      5  C10 UNL     1     152.490 155.699 154.503  0.00  0.00    +0.025 A 
ATOM      6  C11 UNL     1     153.044 156.365 153.406  0.00  0.00    +0.033 A 
ENDROOT
BRANCH   1  14
ATOM      7  N1  UNL     1     151.124 157.109 158.470  0.00  0.00    -0.199 NA
ATOM      8  C1  UNL     1     150.738 156.920 159.745  0.00  0.00    +0.127 A 
ATOM      9  C2  UNL     1     150.144 157.946 160.450  0.00  0.00    +0.066 A 
ATOM     10  C3  UNL     1     149.992 159.156 159.808  0.00  0.00    +0.045 A 
ATOM     11  C4  UNL     1     149.353 160.312 160.517  0.00  0.00    +0.066 C 
ATOM     12  N2  UNL     1     150.396 159.353 158.542  0.00  0.00    -0.219 NA
ATOM     13  C5  UNL     1     150.949 158.311 157.904  0.00  0.00    +0.221 A 
ATOM     14  N3  UNL     1     151.342 158.579 156.595  0.00  0.00    -0.284 N 
ATOM     15  N5  UNL     1     150.918 155.672 160.306  0.00  0.00    -0.315 N 
ATOM     16  C21 UNL     1     151.604 154.641 159.535  0.00  0.00    +0.106 C 
ATOM     17  C22 UNL     1     151.725 153.493 160.531  0.00  0.00    +0.020 C 
ATOM     18  C23 UNL     1     151.970 154.220 161.844  0.00  0.00    +0.020 C 
ATOM     19  C24 UNL     1     151.082 155.461 161.741  0.00  0.00    +0.106 C 
ATOM     20  H5  UNL     1     151.115 159.539 156.383  0.00  0.00    +0.155 HD
ENDBRANCH   1  14
BRANCH   6  21
ATOM     21  N4  UNL     1     153.597 155.571 152.380  0.00  0.00    -0.285 N 
ATOM     22  C12 UNL     1     153.290 155.600 151.030  0.00  0.00    +0.218 C 
ATOM     23  O1  UNL     1     152.474 156.331 150.482  0.00  0.00    -0.275 OA
ATOM     24  H10 UNL     1     154.300 154.903 152.672  0.00  0.00    +0.155 HD
BRANCH  22  25
ATOM     25  C13 UNL     1     154.111 154.582 150.257  0.00  0.00    +0.101 C 
BRANCH  25  26
ATOM     26  C14 UNL     1     155.578 154.596 150.674  0.00  0.00    +0.044 C 
BRANCH  26  27
ATOM     27  C15 UNL     1     156.424 153.777 149.729  0.00  0.00    -0.047 A 
ATOM     28  C16 UNL     1     155.956 153.469 148.444  0.00  0.00    +0.003 A 
ATOM     29  C17 UNL     1     156.729 152.693 147.579  0.00  0.00    +0.000 A 
ATOM     30  C18 UNL     1     157.972 152.214 147.991  0.00  0.00    +0.000 A 
ATOM     31  C19 UNL     1     158.444 152.511 149.269  0.00  0.00    +0.000 A 
ATOM     32  C20 UNL     1     157.672 153.288 150.135  0.00  0.00    +0.003 A 
ENDBRANCH  26  27
ENDBRANCH  25  26
ENDBRANCH  22  25
ENDBRANCH   6  21
TORSDOF 5
ENDMDL
MODEL 2
REMARK VINA RESULT:    -9.754      3.695      6.914
REMARK INTER + INTRA:         -12.907
REMARK INTER:                 -12.266
REMARK INTRA:                  -0.642
REMARK UNBOUND:                -0.302
REMARK  Name = /home/vital/Documents/PhD_2021/Malaria_codes/data/pdb_ligands_mmv/ligand_231.pdb
REMARK  6 active torsions:
REMARK  status: ('A' for Active; 'I' for Inactive)
REMARK    1  A    between atoms: C3_4  and  C4_5
REMARK    2  A    between atoms: N3_8  and  C6_9
REMARK    3  A    between atoms: C11_14  and  N4_15
REMARK    4  A    between atoms: C12_16  and  C13_17
REMARK    5  A    between atoms: C13_17  and  C14_18
REMARK    6  A    between atoms: C14_18  and  C15_19
REMARK                            x       y       z     vdW  Elec       q    Type
REMARK                         _______ _______ _______ _____ _____    ______ ____
ROOT
ATOM      1  C6  UNL     1     151.006 156.232 161.962  0.00  0.00    +0.034 A 
ATOM      2  C7  UNL     1     150.431 157.444 161.553  0.00  0.00    +0.025 A 
ATOM      3  C8  UNL     1     150.321 157.788 160.198  0.00  0.00    +0.025 A 
ATOM      4  C9  UNL     1     151.479 155.380 160.963  0.00  0.00    +0.025 A 
ATOM      5  C10 UNL     1     151.371 155.718 159.606  0.00  0.00    +0.025 A 
ATOM      6  C11 UNL     1     150.790 156.926 159.212  0.00  0.00    +0.033 A 
ENDROOT
BRANCH   1  14
ATOM      7  N1  UNL     1     149.447 154.290 163.783  0.00  0.00    -0.199 NA
ATOM      8  C1  UNL     1     148.825 153.501 164.677  0.00  0.00    +0.127 A 
ATOM      9  C2  UNL     1     149.149 153.579 166.016  0.00  0.00    +0.066 A 
ATOM     10  C3  UNL     1     150.139 154.465 166.382  0.00  0.00    +0.045 A 
ATOM     11  C4  UNL     1     150.539 154.600 167.820  0.00  0.00    +0.066 C 
ATOM     12  N2  UNL     1     150.777 155.239 165.487  0.00  0.00    -0.219 NA
ATOM     13  C5  UNL     1     150.402 155.131 164.204  0.00  0.00    +0.221 A 
ATOM     14  N3  UNL     1     151.097 155.961 163.328  0.00  0.00    -0.284 N 
ATOM     15  N5  UNL     1     147.839 152.649 164.225  0.00  0.00    -0.315 N 
ATOM     16  C21 UNL     1     147.576 152.565 162.792  0.00  0.00    +0.106 C 
ATOM     17  C22 UNL     1     146.549 151.443 162.698  0.00  0.00    +0.020 C 
ATOM     18  C23 UNL     1     147.010 150.482 163.782  0.00  0.00    +0.020 C 
ATOM     19  C24 UNL     1     147.489 151.405 164.904  0.00  0.00    +0.106 C 
ATOM     20  H5  UNL     1     151.762 156.502 163.861  0.00  0.00    +0.155 HD
ENDBRANCH   1  14
BRANCH   6  21
ATOM     21  N4  UNL     1     150.720 157.189 157.829  0.00  0.00    -0.285 N 
ATOM     22  C12 UNL     1     151.237 158.279 157.148  0.00  0.00    +0.218 C 
ATOM     23  O1  UNL     1     151.854 159.219 157.635  0.00  0.00    -0.275 OA
ATOM     24  H10 UNL     1     150.234 156.496 157.273  0.00  0.00    +0.155 HD
BRANCH  22  25
ATOM     25  C13 UNL     1     150.947 158.188 155.660  0.00  0.00    +0.101 C 
BRANCH  25  26
ATOM     26  C14 UNL     1     152.125 158.667 154.817  0.00  0.00    +0.044 C 
BRANCH  26  27
ATOM     27  C15 UNL     1     152.502 157.645 153.772  0.00  0.00    -0.047 A 
ATOM     28  C16 UNL     1     153.551 157.898 152.878  0.00  0.00    +0.003 A 
ATOM     29  C17 UNL     1     153.883 156.962 151.897  0.00  0.00    +0.000 A 
ATOM     30  C18 UNL     1     153.167 155.770 151.797  0.00  0.00    +0.000 A 
ATOM     31  C19 UNL     1     152.119 155.512 152.679  0.00  0.00    +0.000 A 
ATOM     32  C20 UNL     1     151.786 156.446 153.661  0.00  0.00    +0.003 A 
ENDBRANCH  26  27
ENDBRANCH  25  26
ENDBRANCH  22  25
ENDBRANCH   6  21
TORSDOF 5
ENDMDL
MODEL 3
REMARK VINA RESULT:    -9.566      4.021      6.580
REMARK INTER + INTRA:         -12.665
REMARK INTER:                 -11.926
REMARK INTRA:                  -0.739
REMARK UNBOUND:                -0.302
REMARK  Name = /home/vital/Documents/PhD_2021/Malaria_codes/data/pdb_ligands_mmv/ligand_231.pdb
REMARK  6 active torsions:
REMARK  status: ('A' for Active; 'I' for Inactive)
REMARK    1  A    between atoms: C3_4  and  C4_5
REMARK    2  A    between atoms: N3_8  and  C6_9
REMARK    3  A    between atoms: C11_14  and  N4_15
REMARK    4  A    between atoms: C12_16  and  C13_17
REMARK    5  A    between atoms: C13_17  and  C14_18
REMARK    6  A    between atoms: C14_18  and  C15_19
REMARK                            x       y       z     vdW  Elec       q    Type
REMARK                         _______ _______ _______ _____ _____    ______ ____
ROOT
ATOM      1  C6  UNL     1     150.658 160.577 160.955  0.00  0.00    +0.034 A 
ATOM      2  C7  UNL     1     149.708 159.582 160.685  0.00  0.00    +0.025 A 
ATOM      3  C8  UNL     1     149.859 158.689 159.614  0.00  0.00    +0.025 A 
ATOM      4  C9  UNL     1     151.761 160.655 160.104  0.00  0.00    +0.025 A 
ATOM      5  C10 UNL     1     151.918 159.765 159.032  0.00  0.00    +0.025 A 
ATOM      6  C11 UNL     1     150.967 158.773 158.778  0.00  0.00    +0.033 A 
ENDROOT
BRANCH   1  14
ATOM      7  N1  UNL     1     150.797 160.145 164.006  0.00  0.00    -0.199 NA
ATOM      8  C1  UNL     1     150.805 160.074 165.349  0.00  0.00    +0.127 A 
ATOM      9  C2  UNL     1     150.429 161.165 166.105  0.00  0.00    +0.066 A 
ATOM     10  C3  UNL     1     150.079 162.317 165.433  0.00  0.00    +0.045 A 
ATOM     11  C4  UNL     1     149.660 163.538 166.193  0.00  0.00    +0.066 C 
ATOM     12  N2  UNL     1     150.092 162.396 164.091  0.00  0.00    -0.219 NA
ATOM     13  C5  UNL     1     150.447 161.295 163.413  0.00  0.00    +0.221 A 
ATOM     14  N3  UNL     1     150.436 161.442 162.028  0.00  0.00    -0.284 N 
ATOM     15  N5  UNL     1     151.158 158.878 165.940  0.00  0.00    -0.315 N 
ATOM     16  C21 UNL     1     151.602 157.775 165.096  0.00  0.00    +0.106 C 
ATOM     17  C22 UNL     1     152.025 156.717 166.109  0.00  0.00    +0.020 C 
ATOM     18  C23 UNL     1     152.634 157.554 167.223  0.00  0.00    +0.020 C 
ATOM     19  C24 UNL     1     151.738 158.792 167.277  0.00  0.00    +0.106 C 
ATOM     20  H5  UNL     1     150.143 162.383 161.809  0.00  0.00    +0.155 HD
ENDBRANCH   1  14
BRANCH   6  21
ATOM     21  N4  UNL     1     151.200 157.920 157.680  0.00  0.00    -0.285 N 
ATOM     22  C12 UNL     1     151.535 156.576 157.709  0.00  0.00    +0.218 C 
ATOM     23  O1  UNL     1     151.689 155.883 158.708  0.00  0.00    -0.275 OA
ATOM     24  H10 UNL     1     151.112 158.346 156.765  0.00  0.00    +0.155 HD
BRANCH  22  25
ATOM     25  C13 UNL     1     151.701 156.019 156.306  0.00  0.00    +0.101 C 
BRANCH  25  26
ATOM     26  C14 UNL     1     152.720 156.814 155.493  0.00  0.00    +0.044 C 
BRANCH  26  27
ATOM     27  C15 UNL     1     152.678 156.427 154.035  0.00  0.00    -0.047 A 
ATOM     28  C16 UNL     1     151.744 155.489 153.576  0.00  0.00    +0.003 A 
ATOM     29  C17 UNL     1     151.721 155.114 152.231  0.00  0.00    +0.000 A 
ATOM     30  C18 UNL     1     152.635 155.670 151.336  0.00  0.00    +0.000 A 
ATOM     31  C19 UNL     1     153.571 156.600 151.784  0.00  0.00    +0.000 A 
ATOM     32  C20 UNL     1     153.594 156.976 153.129  0.00  0.00    +0.003 A 
ENDBRANCH  26  27
ENDBRANCH  25  26
ENDBRANCH  22  25
ENDBRANCH   6  21
TORSDOF 5
ENDMDL
MODEL 4
REMARK VINA RESULT:    -9.533      5.582     11.818
REMARK INTER + INTRA:         -12.622
REMARK INTER:                 -11.734
REMARK INTRA:                  -0.888
REMARK UNBOUND:                -0.302
REMARK  Name = /home/vital/Documents/PhD_2021/Malaria_codes/data/pdb_ligands_mmv/ligand_231.pdb
REMARK  6 active torsions:
REMARK  status: ('A' for Active; 'I' for Inactive)
REMARK    1  A    between atoms: C3_4  and  C4_5
REMARK    2  A    between atoms: N3_8  and  C6_9
REMARK    3  A    between atoms: C11_14  and  N4_15
REMARK    4  A    between atoms: C12_16  and  C13_17
REMARK    5  A    between atoms: C13_17  and  C14_18
REMARK    6  A    between atoms: C14_18  and  C15_19
REMARK                            x       y       z     vdW  Elec       q    Type
REMARK                         _______ _______ _______ _____ _____    ______ ____
ROOT
ATOM      1  C6  UNL     1     150.757 155.048 159.850  0.00  0.00    +0.034 A 
ATOM      2  C7  UNL     1     149.500 154.512 160.164  0.00  0.00    +0.025 A 
ATOM      3  C8  UNL     1     149.205 154.024 161.445  0.00  0.00    +0.025 A 
ATOM      4  C9  UNL     1     151.715 155.067 160.864  0.00  0.00    +0.025 A 
ATOM      5  C10 UNL     1     151.427 154.581 162.147  0.00  0.00    +0.025 A 
ATOM      6  C11 UNL     1     150.167 154.056 162.450  0.00  0.00    +0.033 A 
ENDROOT
BRANCH   1  14
ATOM      7  N1  UNL     1     151.048 157.888 158.681  0.00  0.00    -0.199 NA
ATOM      8  C1  UNL     1     151.171 159.072 158.055  0.00  0.00    +0.127 A 
ATOM      9  C2  UNL     1     151.309 159.121 156.683  0.00  0.00    +0.066 A 
ATOM     10  C3  UNL     1     151.341 157.923 156.002  0.00  0.00    +0.045 A 
ATOM     11  C4  UNL     1     151.488 157.905 154.511  0.00  0.00    +0.066 C 
ATOM     12  N2  UNL     1     151.240 156.738 156.629  0.00  0.00    -0.219 NA
ATOM     13  C5  UNL     1     151.089 156.758 157.961  0.00  0.00    +0.221 A 
ATOM     14  N3  UNL     1     150.986 155.500 158.549  0.00  0.00    -0.284 N 
ATOM     15  N5  UNL     1     151.117 160.223 158.813  0.00  0.00    -0.315 N 
ATOM     16  C21 UNL     1     151.029 160.112 160.265  0.00  0.00    +0.106 C 
ATOM     17  C22 UNL     1     151.135 161.562 160.726  0.00  0.00    +0.020 C 
ATOM     18  C23 UNL     1     152.125 162.151 159.734  0.00  0.00    +0.020 C 
ATOM     19  C24 UNL     1     151.762 161.470 158.413  0.00  0.00    +0.106 C 
ATOM     20  H5  UNL     1     151.041 154.802 157.821  0.00  0.00    +0.155 HD
ENDBRANCH   1  14
BRANCH   6  21
ATOM     21  N4  UNL     1     149.960 153.590 163.764  0.00  0.00    -0.285 N 
ATOM     22  C12 UNL     1     149.559 154.323 164.868  0.00  0.00    +0.218 C 
ATOM     23  O1  UNL     1     149.311 155.523 164.898  0.00  0.00    -0.275 OA
ATOM     24  H10 UNL     1     150.126 152.601 163.911  0.00  0.00    +0.155 HD
BRANCH  22  25
ATOM     25  C13 UNL     1     149.454 153.446 166.103  0.00  0.00    +0.101 C 
BRANCH  25  26
ATOM     26  C14 UNL     1     149.745 154.224 167.383  0.00  0.00    +0.044 C 
BRANCH  26  27
ATOM     27  C15 UNL     1     151.229 154.412 167.583  0.00  0.00    -0.047 A 
ATOM     28  C16 UNL     1     152.064 153.306 167.791  0.00  0.00    +0.003 A 
ATOM     29  C17 UNL     1     153.433 153.484 167.999  0.00  0.00    +0.000 A 
ATOM     30  C18 UNL     1     153.978 154.767 168.007  0.00  0.00    +0.000 A 
ATOM     31  C19 UNL     1     153.155 155.874 167.806  0.00  0.00    +0.000 A 
ATOM     32  C20 UNL     1     151.786 155.698 167.597  0.00  0.00    +0.003 A 
ENDBRANCH  26  27
ENDBRANCH  25  26
ENDBRANCH  22  25
ENDBRANCH   6  21
TORSDOF 5
ENDMDL
MODEL 5
REMARK VINA RESULT:    -9.505      3.726      6.835
REMARK INTER + INTRA:         -12.586
REMARK INTER:                 -12.016
REMARK INTRA:                  -0.570
REMARK UNBOUND:                -0.302
REMARK  Name = /home/vital/Documents/PhD_2021/Malaria_codes/data/pdb_ligands_mmv/ligand_231.pdb
REMARK  6 active torsions:
REMARK  status: ('A' for Active; 'I' for Inactive)
REMARK    1  A    between atoms: C3_4  and  C4_5
REMARK    2  A    between atoms: N3_8  and  C6_9
REMARK    3  A    between atoms: C11_14  and  N4_15
REMARK    4  A    between atoms: C12_16  and  C13_17
REMARK    5  A    between atoms: C13_17  and  C14_18
REMARK    6  A    between atoms: C14_18  and  C15_19
REMARK                            x       y       z     vdW  Elec       q    Type
REMARK                         _______ _______ _______ _____ _____    ______ ____
ROOT
ATOM      1  C6  UNL     1     150.575 155.396 161.230  0.00  0.00    +0.034 A 
ATOM      2  C7  UNL     1     151.013 154.582 160.175  0.00  0.00    +0.025 A 
ATOM      3  C8  UNL     1     151.449 155.124 158.957  0.00  0.00    +0.025 A 
ATOM      4  C9  UNL     1     150.578 156.775 161.016  0.00  0.00    +0.025 A 
ATOM      5  C10 UNL     1     151.013 157.323 159.801  0.00  0.00    +0.025 A 
ATOM      6  C11 UNL     1     151.454 156.500 158.761  0.00  0.00    +0.033 A 
ENDROOT
BRANCH   1  14
ATOM      7  N1  UNL     1     150.992 156.129 164.198  0.00  0.00    -0.199 NA
ATOM      8  C1  UNL     1     151.121 156.335 165.520  0.00  0.00    +0.127 A 
ATOM      9  C2  UNL     1     150.598 155.427 166.419  0.00  0.00    +0.066 A 
ATOM     10  C3  UNL     1     149.927 154.338 165.907  0.00  0.00    +0.045 A 
ATOM     11  C4  UNL     1     149.336 153.313 166.827  0.00  0.00    +0.066 C 
ATOM     12  N2  UNL     1     149.778 154.142 164.585  0.00  0.00    -0.219 NA
ATOM     13  C5  UNL     1     150.326 155.050 163.764  0.00  0.00    +0.221 A 
ATOM     14  N3  UNL     1     150.140 154.788 162.409  0.00  0.00    -0.284 N 
ATOM     15  N5  UNL     1     151.818 157.447 165.946  0.00  0.00    -0.315 N 
ATOM     16  C21 UNL     1     152.299 158.404 164.955  0.00  0.00    +0.106 C 
ATOM     17  C22 UNL     1     152.873 159.526 165.814  0.00  0.00    +0.020 C 
ATOM     18  C23 UNL     1     151.911 159.563 166.991  0.00  0.00    +0.020 C 
ATOM     19  C24 UNL     1     151.580 158.090 167.235  0.00  0.00    +0.106 C 
ATOM     20  H5  UNL     1     149.617 153.930 162.319  0.00  0.00    +0.155 HD
ENDBRANCH   1  14
BRANCH   6  21
ATOM     21  N4  UNL     1     151.874 157.132 157.572  0.00  0.00    -0.285 N 
ATOM     22  C12 UNL     1     151.118 157.918 156.719  0.00  0.00    +0.218 C 
ATOM     23  O1  UNL     1     149.935 158.209 156.849  0.00  0.00    -0.275 OA
ATOM     24  H10 UNL     1     152.844 156.988 157.317  0.00  0.00    +0.155 HD
BRANCH  22  25
ATOM     25  C13 UNL     1     151.946 158.410 155.545  0.00  0.00    +0.101 C 
BRANCH  25  26
ATOM     26  C14 UNL     1     152.966 157.370 155.090  0.00  0.00    +0.044 C 
BRANCH  26  27
ATOM     27  C15 UNL     1     152.516 156.677 153.827  0.00  0.00    -0.047 A 
ATOM     28  C16 UNL     1     151.750 155.506 153.895  0.00  0.00    +0.003 A 
ATOM     29  C17 UNL     1     151.353 154.853 152.727  0.00  0.00    +0.000 A 
ATOM     30  C18 UNL     1     151.722 155.361 151.482  0.00  0.00    +0.000 A 
ATOM     31  C19 UNL     1     152.488 156.524 151.405  0.00  0.00    +0.000 A 
ATOM     32  C20 UNL     1     152.885 157.178 152.572  0.00  0.00    +0.003 A 
ENDBRANCH  26  27
ENDBRANCH  25  26
ENDBRANCH  22  25
ENDBRANCH   6  21
TORSDOF 5
ENDMDL
MODEL 6
REMARK VINA RESULT:    -9.488      3.945      7.046
REMARK INTER + INTRA:         -12.564
REMARK INTER:                 -11.955
REMARK INTRA:                  -0.609
REMARK UNBOUND:                -0.302
REMARK  Name = /home/vital/Documents/PhD_2021/Malaria_codes/data/pdb_ligands_mmv/ligand_231.pdb
REMARK  6 active torsions:
REMARK  status: ('A' for Active; 'I' for Inactive)
REMARK    1  A    between atoms: C3_4  and  C4_5
REMARK    2  A    between atoms: N3_8  and  C6_9
REMARK    3  A    between atoms: C11_14  and  N4_15
REMARK    4  A    between atoms: C12_16  and  C13_17
REMARK    5  A    between atoms: C13_17  and  C14_18
REMARK    6  A    between atoms: C14_18  and  C15_19
REMARK                            x       y       z     vdW  Elec       q    Type
REMARK                         _______ _______ _______ _____ _____    ______ ____
ROOT
ATOM      1  C6  UNL     1     150.793 155.816 162.000  0.00  0.00    +0.034 A 
ATOM      2  C7  UNL     1     151.277 154.899 161.056  0.00  0.00    +0.025 A 
ATOM      3  C8  UNL     1     151.506 155.265 159.722  0.00  0.00    +0.025 A 
ATOM      4  C9  UNL     1     150.534 157.113 161.556  0.00  0.00    +0.025 A 
ATOM      5  C10 UNL     1     150.762 157.486 160.224  0.00  0.00    +0.025 A 
ATOM      6  C11 UNL     1     151.251 156.564 159.295  0.00  0.00    +0.033 A 
ENDROOT
BRANCH   1  14
ATOM      7  N1  UNL     1     151.562 157.025 164.732  0.00  0.00    -0.199 NA
ATOM      8  C1  UNL     1     151.859 157.442 165.976  0.00  0.00    +0.127 A 
ATOM      9  C2  UNL     1     151.535 156.659 167.066  0.00  0.00    +0.066 A 
ATOM     10  C3  UNL     1     150.883 155.469 166.825  0.00  0.00    +0.045 A 
ATOM     11  C4  UNL     1     150.504 154.572 167.964  0.00  0.00    +0.066 C 
ATOM     12  N2  UNL     1     150.566 155.062 165.584  0.00  0.00    -0.219 NA
ATOM     13  C5  UNL     1     150.925 155.858 164.566  0.00  0.00    +0.221 A 
ATOM     14  N3  UNL     1     150.573 155.378 163.308  0.00  0.00    -0.284 N 
ATOM     15  N5  UNL     1     152.523 158.642 166.124  0.00  0.00    -0.315 N 
ATOM     16  C21 UNL     1     152.789 159.456 164.943  0.00  0.00    +0.106 C 
ATOM     17  C22 UNL     1     153.390 160.727 165.532  0.00  0.00    +0.020 C 
ATOM     18  C23 UNL     1     152.602 160.898 166.821  0.00  0.00    +0.020 C 
ATOM     19  C24 UNL     1     152.419 159.465 167.326  0.00  0.00    +0.106 C 
ATOM     20  H5  UNL     1     150.107 154.490 163.423  0.00  0.00    +0.155 HD
ENDBRANCH   1  14
BRANCH   6  21
ATOM     21  N4  UNL     1     151.452 157.021 157.976  0.00  0.00    -0.285 N 
ATOM     22  C12 UNL     1     150.718 156.695 156.847  0.00  0.00    +0.218 C 
ATOM     23  O1  UNL     1     149.752 155.943 156.796  0.00  0.00    -0.275 OA
ATOM     24  H10 UNL     1     152.226 157.661 157.845  0.00  0.00    +0.155 HD
BRANCH  22  25
ATOM     25  C13 UNL     1     151.260 157.400 155.616  0.00  0.00    +0.101 C 
BRANCH  25  26
ATOM     26  C14 UNL     1     152.634 156.872 155.214  0.00  0.00    +0.044 C 
BRANCH  26  27
ATOM     27  C15 UNL     1     152.641 156.397 153.782  0.00  0.00    -0.047 A 
ATOM     28  C16 UNL     1     151.660 155.507 153.325  0.00  0.00    +0.003 A 
ATOM     29  C17 UNL     1     151.681 155.049 152.006  0.00  0.00    +0.000 A 
ATOM     30  C18 UNL     1     152.683 155.474 151.135  0.00  0.00    +0.000 A 
ATOM     31  C19 UNL     1     153.666 156.357 151.581  0.00  0.00    +0.000 A 
ATOM     32  C20 UNL     1     153.646 156.815 152.900  0.00  0.00    +0.003 A 
ENDBRANCH  26  27
ENDBRANCH  25  26
ENDBRANCH  22  25
ENDBRANCH   6  21
TORSDOF 5
ENDMDL
MODEL 7
REMARK VINA RESULT:    -9.409      2.877      5.762
REMARK INTER + INTRA:         -12.461
REMARK INTER:                 -12.106
REMARK INTRA:                  -0.355
REMARK UNBOUND:                -0.302
REMARK  Name = /home/vital/Documents/PhD_2021/Malaria_codes/data/pdb_ligands_mmv/ligand_231.pdb
REMARK  6 active torsions:
REMARK  status: ('A' for Active; 'I' for Inactive)
REMARK    1  A    between atoms: C3_4  and  C4_5
REMARK    2  A    between atoms: N3_8  and  C6_9
REMARK    3  A    between atoms: C11_14  and  N4_15
REMARK    4  A    between atoms: C12_16  and  C13_17
REMARK    5  A    between atoms: C13_17  and  C14_18
REMARK    6  A    between atoms: C14_18  and  C15_19
REMARK                            x       y       z     vdW  Elec       q    Type
REMARK                         _______ _______ _______ _____ _____    ______ ____
ROOT
ATOM      1  C6  UNL     1     151.144 156.120 160.341  0.00  0.00    +0.034 A 
ATOM      2  C7  UNL     1     150.738 157.392 159.913  0.00  0.00    +0.025 A 
ATOM      3  C8  UNL     1     150.703 157.737 158.554  0.00  0.00    +0.025 A 
ATOM      4  C9  UNL     1     151.527 155.207 159.358  0.00  0.00    +0.025 A 
ATOM      5  C10 UNL     1     151.495 155.546 157.998  0.00  0.00    +0.025 A 
ATOM      6  C11 UNL     1     151.081 156.815 157.584  0.00  0.00    +0.033 A 
ENDROOT
BRANCH   1  14
ATOM      7  N1  UNL     1     151.429 157.968 162.795  0.00  0.00    -0.199 NA
ATOM      8  C1  UNL     1     151.567 158.666 163.936  0.00  0.00    +0.127 A 
ATOM      9  C2  UNL     1     151.633 158.011 165.149  0.00  0.00    +0.066 A 
ATOM     10  C3  UNL     1     151.528 156.636 165.137  0.00  0.00    +0.045 A 
ATOM     11  C4  UNL     1     151.593 155.862 166.418  0.00  0.00    +0.066 C 
ATOM     12  N2  UNL     1     151.369 155.938 163.999  0.00  0.00    -0.219 NA
ATOM     13  C5  UNL     1     151.331 156.632 162.853  0.00  0.00    +0.221 A 
ATOM     14  N3  UNL     1     151.169 155.851 161.711  0.00  0.00    -0.284 N 
ATOM     15  N5  UNL     1     151.676 160.039 163.855  0.00  0.00    -0.315 N 
ATOM     16  C21 UNL     1     151.541 160.685 162.554  0.00  0.00    +0.106 C 
ATOM     17  C22 UNL     1     151.579 162.169 162.903  0.00  0.00    +0.020 C 
ATOM     18  C23 UNL     1     150.833 162.214 164.228  0.00  0.00    +0.020 C 
ATOM     19  C24 UNL     1     151.279 160.935 164.938  0.00  0.00    +0.106 C 
ATOM     20  H5  UNL     1     151.118 154.883 161.991  0.00  0.00    +0.155 HD
ENDBRANCH   1  14
BRANCH   6  21
ATOM     21  N4  UNL     1     151.078 157.073 156.198  0.00  0.00    -0.285 N 
ATOM     22  C12 UNL     1     152.148 157.461 155.407  0.00  0.00    +0.218 C 
ATOM     23  O1  UNL     1     153.300 157.649 155.778  0.00  0.00    -0.275 OA
ATOM     24  H10 UNL     1     150.186 156.961 155.732  0.00  0.00    +0.155 HD
BRANCH  22  25
ATOM     25  C13 UNL     1     151.726 157.638 153.959  0.00  0.00    +0.101 C 
BRANCH  25  26
ATOM     26  C14 UNL     1     152.906 157.997 153.060  0.00  0.00    +0.044 C 
BRANCH  26  27
ATOM     27  C15 UNL     1     153.204 156.889 152.081  0.00  0.00    -0.047 A 
ATOM     28  C16 UNL     1     154.480 156.311 152.029  0.00  0.00    +0.003 A 
ATOM     29  C17 UNL     1     154.761 155.302 151.106  0.00  0.00    +0.000 A 
ATOM     30  C18 UNL     1     153.773 154.866 150.225  0.00  0.00    +0.000 A 
ATOM     31  C19 UNL     1     152.503 155.437 150.265  0.00  0.00    +0.000 A 
ATOM     32  C20 UNL     1     152.219 156.446 151.188  0.00  0.00    +0.003 A 
ENDBRANCH  26  27
ENDBRANCH  25  26
ENDBRANCH  22  25
ENDBRANCH   6  21
TORSDOF 5
ENDMDL
MODEL 8
REMARK VINA RESULT:    -9.056      3.787      6.913
REMARK INTER + INTRA:         -12.006
REMARK INTER:                 -11.533
REMARK INTRA:                  -0.473
REMARK UNBOUND:                -0.302
REMARK  Name = /home/vital/Documents/PhD_2021/Malaria_codes/data/pdb_ligands_mmv/ligand_231.pdb
REMARK  6 active torsions:
REMARK  status: ('A' for Active; 'I' for Inactive)
REMARK    1  A    between atoms: C3_4  and  C4_5
REMARK    2  A    between atoms: N3_8  and  C6_9
REMARK    3  A    between atoms: C11_14  and  N4_15
REMARK    4  A    between atoms: C12_16  and  C13_17
REMARK    5  A    between atoms: C13_17  and  C14_18
REMARK    6  A    between atoms: C14_18  and  C15_19
REMARK                            x       y       z     vdW  Elec       q    Type
REMARK                         _______ _______ _______ _____ _____    ______ ____
ROOT
ATOM      1  C6  UNL     1     151.265 155.932 162.041  0.00  0.00    +0.034 A 
ATOM      2  C7  UNL     1     151.595 154.748 161.365  0.00  0.00    +0.025 A 
ATOM      3  C8  UNL     1     151.366 154.596 159.990  0.00  0.00    +0.025 A 
ATOM      4  C9  UNL     1     150.684 156.955 161.290  0.00  0.00    +0.025 A 
ATOM      5  C10 UNL     1     150.453 156.809 159.915  0.00  0.00    +0.025 A 
ATOM      6  C11 UNL     1     150.793 155.626 159.252  0.00  0.00    +0.033 A 
ENDROOT
BRANCH   1  14
ATOM      7  N1  UNL     1     151.795 158.333 163.904  0.00  0.00    -0.199 NA
ATOM      8  C1  UNL     1     152.055 159.293 164.809  0.00  0.00    +0.127 A 
ATOM      9  C2  UNL     1     152.339 158.958 166.117  0.00  0.00    +0.066 A 
ATOM     10  C3  UNL     1     152.315 157.621 166.451  0.00  0.00    +0.045 A 
ATOM     11  C4  UNL     1     152.614 157.187 167.855  0.00  0.00    +0.066 C 
ATOM     12  N2  UNL     1     152.034 156.661 165.554  0.00  0.00    -0.219 NA
ATOM     13  C5  UNL     1     151.786 157.050 164.295  0.00  0.00    +0.221 A 
ATOM     14  N3  UNL     1     151.506 156.009 163.414  0.00  0.00    -0.284 N 
ATOM     15  N5  UNL     1     152.069 160.606 164.385  0.00  0.00    -0.315 N 
ATOM     16  C21 UNL     1     151.706 160.909 163.005  0.00  0.00    +0.106 C 
ATOM     17  C22 UNL     1     151.705 162.434 162.978  0.00  0.00    +0.020 C 
ATOM     18  C23 UNL     1     151.160 162.786 164.353  0.00  0.00    +0.020 C 
ATOM     19  C24 UNL     1     151.782 161.731 165.270  0.00  0.00    +0.106 C 
ATOM     20  H5  UNL     1     151.556 155.138 163.922  0.00  0.00    +0.155 HD
ENDBRANCH   1  14
BRANCH   6  21
ATOM     21  N4  UNL     1     150.527 155.561 157.869  0.00  0.00    -0.285 N 
ATOM     22  C12 UNL     1     151.421 155.742 156.827  0.00  0.00    +0.218 C 
ATOM     23  O1  UNL     1     152.617 155.994 156.925  0.00  0.00    -0.275 OA
ATOM     24  H10 UNL     1     149.568 155.359 157.615  0.00  0.00    +0.155 HD
BRANCH  22  25
ATOM     25  C13 UNL     1     150.735 155.590 155.480  0.00  0.00    +0.101 C 
BRANCH  25  26
ATOM     26  C14 UNL     1     151.507 154.661 154.548  0.00  0.00    +0.044 C 
BRANCH  26  27
ATOM     27  C15 UNL     1     151.844 155.349 153.247  0.00  0.00    -0.047 A 
ATOM     28  C16 UNL     1     151.211 154.965 152.057  0.00  0.00    +0.003 A 
ATOM     29  C17 UNL     1     151.540 155.585 150.850  0.00  0.00    +0.000 A 
ATOM     30  C18 UNL     1     152.506 156.590 150.822  0.00  0.00    +0.000 A 
ATOM     31  C19 UNL     1     153.144 156.976 151.999  0.00  0.00    +0.000 A 
ATOM     32  C20 UNL     1     152.816 156.357 153.207  0.00  0.00    +0.003 A 
ENDBRANCH  26  27
ENDBRANCH  25  26
ENDBRANCH  22  25
ENDBRANCH   6  21
TORSDOF 5
ENDMDL
MODEL 9
REMARK VINA RESULT:    -8.859      4.278      7.402
REMARK INTER + INTRA:         -11.751
REMARK INTER:                 -11.085
REMARK INTRA:                  -0.666
REMARK UNBOUND:                -0.302
REMARK  Name = /home/vital/Documents/PhD_2021/Malaria_codes/data/pdb_ligands_mmv/ligand_231.pdb
REMARK  6 active torsions:
REMARK  status: ('A' for Active; 'I' for Inactive)
REMARK    1  A    between atoms: C3_4  and  C4_5
REMARK    2  A    between atoms: N3_8  and  C6_9
REMARK    3  A    between atoms: C11_14  and  N4_15
REMARK    4  A    between atoms: C12_16  and  C13_17
REMARK    5  A    between atoms: C13_17  and  C14_18
REMARK    6  A    between atoms: C14_18  and  C15_19
REMARK                            x       y       z     vdW  Elec       q    Type
REMARK                         _______ _______ _______ _____ _____    ______ ____
ROOT
ATOM      1  C6  UNL     1     151.512 159.120 162.834  0.00  0.00    +0.034 A 
ATOM      2  C7  UNL     1     150.692 160.007 162.122  0.00  0.00    +0.025 A 
ATOM      3  C8  UNL     1     150.375 159.797 160.772  0.00  0.00    +0.025 A 
ATOM      4  C9  UNL     1     152.015 158.019 162.141  0.00  0.00    +0.025 A 
ATOM      5  C10 UNL     1     151.702 157.803 160.791  0.00  0.00    +0.025 A 
ATOM      6  C11 UNL     1     150.877 158.691 160.095  0.00  0.00    +0.033 A 
ENDROOT
BRANCH   1  14
ATOM      7  N1  UNL     1     151.277 157.409 165.390  0.00  0.00    -0.199 NA
ATOM      8  C1  UNL     1     151.199 156.770 166.571  0.00  0.00    +0.127 A 
ATOM      9  C2  UNL     1     151.503 157.435 167.742  0.00  0.00    +0.066 A 
ATOM     10  C3  UNL     1     151.908 158.748 167.642  0.00  0.00    +0.045 A 
ATOM     11  C4  UNL     1     152.252 159.529 168.875  0.00  0.00    +0.066 C 
ATOM     12  N2  UNL     1     152.007 159.382 166.461  0.00  0.00    -0.219 NA
ATOM     13  C5  UNL     1     151.679 158.687 165.362  0.00  0.00    +0.221 A 
ATOM     14  N3  UNL     1     151.799 159.400 164.172  0.00  0.00    -0.284 N 
ATOM     15  N5  UNL     1     150.775 155.457 166.579  0.00  0.00    -0.315 N 
ATOM     16  C21 UNL     1     150.522 154.786 165.309  0.00  0.00    +0.106 C 
ATOM     17  C22 UNL     1     150.220 153.353 165.734  0.00  0.00    +0.020 C 
ATOM     18  C23 UNL     1     151.167 153.151 166.907  0.00  0.00    +0.020 C 
ATOM     19  C24 UNL     1     151.154 154.505 167.619  0.00  0.00    +0.106 C 
ATOM     20  H5  UNL     1     152.113 160.334 164.389  0.00  0.00    +0.155 HD
ENDBRANCH   1  14
BRANCH   6  21
ATOM     21  N4  UNL     1     150.612 158.400 158.741  0.00  0.00    -0.285 N 
ATOM     22  C12 UNL     1     151.088 159.067 157.624  0.00  0.00    +0.218 C 
ATOM     23  O1  UNL     1     151.834 160.039 157.616  0.00  0.00    -0.275 OA
ATOM     24  H10 UNL     1     150.000 157.611 158.573  0.00  0.00    +0.155 HD
BRANCH  22  25
ATOM     25  C13 UNL     1     150.565 158.439 156.344  0.00  0.00    +0.101 C 
BRANCH  25  26
ATOM     26  C14 UNL     1     151.020 156.991 156.191  0.00  0.00    +0.044 C 
BRANCH  26  27
ATOM     27  C15 UNL     1     151.772 156.787 154.898  0.00  0.00    -0.047 A 
ATOM     28  C16 UNL     1     152.570 157.811 154.373  0.00  0.00    +0.003 A 
ATOM     29  C17 UNL     1     153.247 157.630 153.165  0.00  0.00    +0.000 A 
ATOM     30  C18 UNL     1     153.127 156.427 152.470  0.00  0.00    +0.000 A 
ATOM     31  C19 UNL     1     152.332 155.404 152.983  0.00  0.00    +0.000 A 
ATOM     32  C20 UNL     1     151.654 155.583 154.191  0.00  0.00    +0.003 A 
ENDBRANCH  26  27
ENDBRANCH  25  26
ENDBRANCH  22  25
ENDBRANCH   6  21
TORSDOF 5
ENDMDL
