MODEL 1
REMARK VINA RESULT:    -9.809      0.000      0.000
REMARK INTER + INTRA:         -14.063
REMARK INTER:                 -13.249
REMARK INTRA:                  -0.814
REMARK UNBOUND:                -0.814
REMARK  Name = /home/vital/Documents/PhD_2021/Malaria_codes/data/pdb_ligands_mmv/ligand_81.pdb
REMARK  7 active torsions:
REMARK  status: ('A' for Active; 'I' for Inactive)
REMARK    1  A    between atoms: C1_1  and  C2_2
REMARK    2  A    between atoms: N1_7  and  C7_8
REMARK    3  A    between atoms: C7_8  and  C8_9
REMARK    4  A    between atoms: C8_9  and  C9_10
REMARK    5  A    between atoms: C9_10  and  N2_11
REMARK    6  A    between atoms: C10_12  and  C11_14
REMARK    7  A    between atoms: C18_23  and  C20_26
REMARK                            x       y       z     vdW  Elec       q    Type
REMARK                         _______ _______ _______ _____ _____    ______ ____
ROOT
ATOM      1  C11 UNL     1     150.730 155.648 162.491  0.00  0.00    +0.038 A 
ATOM      2  C12 UNL     1     150.982 154.535 161.654  0.00  0.00    +0.015 A 
ATOM      3  C13 UNL     1     151.235 154.705 160.289  0.00  0.00    +0.028 A 
ATOM      4  C14 UNL     1     151.232 156.003 159.810  0.00  0.00    +0.062 A 
ATOM      5  C15 UNL     1     150.998 157.121 160.625  0.00  0.00    +0.040 A 
ATOM      6  C16 UNL     1     150.750 156.955 161.975  0.00  0.00    +0.030 A 
ATOM      7  S1  UNL     1     151.068 158.667 159.709  0.00  0.00    -0.049 S 
ATOM      8  C17 UNL     1     151.409 157.752 158.276  0.00  0.00    +0.179 A 
ATOM      9  N3  UNL     1     151.625 158.065 157.028  0.00  0.00    -0.221 NA
ATOM     10  C18 UNL     1     151.835 156.836 156.409  0.00  0.00    +0.090 A 
ATOM     11  C19 UNL     1     151.733 155.792 157.322  0.00  0.00    +0.122 A 
ATOM     12  N4  UNL     1     151.459 156.412 158.503  0.00  0.00    -0.293 N 
ENDROOT
BRANCH  10  13
ATOM     13  C20 UNL     1     152.119 156.718 154.984  0.00  0.00    +0.002 A 
ATOM     14  C21 UNL     1     152.733 157.791 154.315  0.00  0.00    +0.013 A 
ATOM     15  C22 UNL     1     153.020 157.716 152.950  0.00  0.00    +0.039 A 
ATOM     16  C23 UNL     1     152.694 156.564 152.247  0.00  0.00    +0.123 A 
ATOM     17  F1  UNL     1     152.968 156.488 150.938  0.00  0.00    -0.205 F 
ATOM     18  C24 UNL     1     152.086 155.489 152.883  0.00  0.00    +0.039 A 
ATOM     19  C25 UNL     1     151.799 155.565 154.250  0.00  0.00    +0.013 A 
ENDBRANCH  10  13
BRANCH   1  21
ATOM     20  N2  UNL     1     151.529 155.752 164.787  0.00  0.00    -0.311 N 
ATOM     21  C10 UNL     1     150.472 155.475 163.945  0.00  0.00    +0.244 C 
ATOM     22  O1  UNL     1     149.375 155.086 164.329  0.00  0.00    -0.270 OA
ATOM     23  H19 UNL     1     152.457 155.772 164.387  0.00  0.00    +0.149 HD
BRANCH  20  24
ATOM     24  C9  UNL     1     151.425 155.506 166.213  0.00  0.00    +0.106 C 
BRANCH  24  25
ATOM     25  C8  UNL     1     152.442 156.306 167.016  0.00  0.00    +0.034 C 
BRANCH  25  26
ATOM     26  C7  UNL     1     151.963 157.669 167.542  0.00  0.00    +0.086 C 
BRANCH  26  33
ATOM     27  C1  UNL     1     153.647 159.832 169.066  0.00  0.00    +0.024 C 
ATOM     28  C2  UNL     1     152.582 160.045 167.985  0.00  0.00    +0.054 C 
ATOM     29  C3  UNL     1     152.815 161.394 167.266  0.00  0.00    +0.018 C 
ATOM     30  C4  UNL     1     153.780 161.259 166.095  0.00  0.00    +0.003 C 
ATOM     31  C5  UNL     1     153.305 160.194 165.105  0.00  0.00    +0.015 C 
ATOM     32  C6  UNL     1     152.235 159.262 165.685  0.00  0.00    +0.084 C 
ATOM     33  N1  UNL     1     152.584 158.903 167.057  0.00  0.00    -0.300 NA
ENDBRANCH  26  33
ENDBRANCH  25  26
ENDBRANCH  24  25
ENDBRANCH  20  24
ENDBRANCH   1  21
TORSDOF 6
ENDMDL
MODEL 2
REMARK VINA RESULT:    -9.617      2.521      3.809
REMARK INTER + INTRA:         -13.805
REMARK INTER:                 -12.876
REMARK INTRA:                  -0.929
REMARK UNBOUND:                -0.814
REMARK  Name = /home/vital/Documents/PhD_2021/Malaria_codes/data/pdb_ligands_mmv/ligand_81.pdb
REMARK  7 active torsions:
REMARK  status: ('A' for Active; 'I' for Inactive)
REMARK    1  A    between atoms: C1_1  and  C2_2
REMARK    2  A    between atoms: N1_7  and  C7_8
REMARK    3  A    between atoms: C7_8  and  C8_9
REMARK    4  A    between atoms: C8_9  and  C9_10
REMARK    5  A    between atoms: C9_10  and  N2_11
REMARK    6  A    between atoms: C10_12  and  C11_14
REMARK    7  A    between atoms: C18_23  and  C20_26
REMARK                            x       y       z     vdW  Elec       q    Type
REMARK                         _______ _______ _______ _____ _____    ______ ____
ROOT
ATOM      1  C11 UNL     1     150.753 160.377 161.741  0.00  0.00    +0.038 A 
ATOM      2  C12 UNL     1     151.158 161.172 160.643  0.00  0.00    +0.015 A 
ATOM      3  C13 UNL     1     151.422 160.595 159.396  0.00  0.00    +0.028 A 
ATOM      4  C14 UNL     1     151.261 159.225 159.295  0.00  0.00    +0.062 A 
ATOM      5  C15 UNL     1     150.846 158.420 160.368  0.00  0.00    +0.040 A 
ATOM      6  C16 UNL     1     150.584 158.989 161.601  0.00  0.00    +0.030 A 
ATOM      7  S1  UNL     1     150.724 156.683 159.919  0.00  0.00    -0.049 S 
ATOM      8  C17 UNL     1     151.230 157.108 158.315  0.00  0.00    +0.179 A 
ATOM      9  N3  UNL     1     151.442 156.431 157.221  0.00  0.00    -0.221 NA
ATOM     10  C18 UNL     1     151.832 157.400 156.301  0.00  0.00    +0.090 A 
ATOM     11  C19 UNL     1     151.848 158.664 156.882  0.00  0.00    +0.122 A 
ATOM     12  N4  UNL     1     151.460 158.440 158.168  0.00  0.00    -0.293 N 
ENDROOT
BRANCH  10  13
ATOM     13  C20 UNL     1     152.169 157.077 154.920  0.00  0.00    +0.002 A 
ATOM     14  C21 UNL     1     152.784 158.053 154.117  0.00  0.00    +0.013 A 
ATOM     15  C22 UNL     1     153.122 157.781 152.789  0.00  0.00    +0.039 A 
ATOM     16  C23 UNL     1     152.847 156.528 152.258  0.00  0.00    +0.123 A 
ATOM     17  F1  UNL     1     153.169 156.263 150.986  0.00  0.00    -0.205 F 
ATOM     18  C24 UNL     1     152.240 155.545 153.029  0.00  0.00    +0.039 A 
ATOM     19  C25 UNL     1     151.902 155.818 154.360  0.00  0.00    +0.013 A 
ENDBRANCH  10  13
BRANCH   1  21
ATOM     20  N2  UNL     1     150.416 162.364 163.105  0.00  0.00    -0.311 N 
ATOM     21  C10 UNL     1     150.460 160.986 163.066  0.00  0.00    +0.244 C 
ATOM     22  O1  UNL     1     150.295 160.267 164.045  0.00  0.00    -0.270 OA
ATOM     23  H19 UNL     1     150.850 162.871 162.346  0.00  0.00    +0.149 HD
BRANCH  20  24
ATOM     24  C9  UNL     1     150.254 163.065 164.365  0.00  0.00    +0.106 C 
BRANCH  24  25
ATOM     25  C8  UNL     1     151.582 163.304 165.071  0.00  0.00    +0.034 C 
BRANCH  25  26
ATOM     26  C7  UNL     1     151.551 163.240 166.607  0.00  0.00    +0.086 C 
BRANCH  26  33
ATOM     27  C1  UNL     1     154.103 161.432 166.838  0.00  0.00    +0.024 C 
ATOM     28  C2  UNL     1     152.647 160.999 166.635  0.00  0.00    +0.054 C 
ATOM     29  C3  UNL     1     152.444 159.554 167.147  0.00  0.00    +0.018 C 
ATOM     30  C4  UNL     1     152.106 159.515 168.632  0.00  0.00    +0.003 C 
ATOM     31  C5  UNL     1     150.880 160.375 168.944  0.00  0.00    +0.015 C 
ATOM     32  C6  UNL     1     150.529 161.358 167.821  0.00  0.00    +0.084 C 
ATOM     33  N1  UNL     1     151.749 161.962 167.292  0.00  0.00    -0.300 NA
ENDBRANCH  26  33
ENDBRANCH  25  26
ENDBRANCH  24  25
ENDBRANCH  20  24
ENDBRANCH   1  21
TORSDOF 6
ENDMDL
MODEL 3
REMARK VINA RESULT:    -9.460      5.005     12.411
REMARK INTER + INTRA:         -13.592
REMARK INTER:                 -12.959
REMARK INTRA:                  -0.632
REMARK UNBOUND:                -0.814
REMARK  Name = /home/vital/Documents/PhD_2021/Malaria_codes/data/pdb_ligands_mmv/ligand_81.pdb
REMARK  7 active torsions:
REMARK  status: ('A' for Active; 'I' for Inactive)
REMARK    1  A    between atoms: C1_1  and  C2_2
REMARK    2  A    between atoms: N1_7  and  C7_8
REMARK    3  A    between atoms: C7_8  and  C8_9
REMARK    4  A    between atoms: C8_9  and  C9_10
REMARK    5  A    between atoms: C9_10  and  N2_11
REMARK    6  A    between atoms: C10_12  and  C11_14
REMARK    7  A    between atoms: C18_23  and  C20_26
REMARK                            x       y       z     vdW  Elec       q    Type
REMARK                         _______ _______ _______ _____ _____    ______ ____
ROOT
ATOM      1  C11 UNL     1     151.519 156.239 155.103  0.00  0.00    +0.038 A 
ATOM      2  C12 UNL     1     151.539 157.655 155.119  0.00  0.00    +0.015 A 
ATOM      3  C13 UNL     1     151.518 158.359 156.326  0.00  0.00    +0.028 A 
ATOM      4  C14 UNL     1     151.485 157.609 157.488  0.00  0.00    +0.062 A 
ATOM      5  C15 UNL     1     151.479 156.205 157.494  0.00  0.00    +0.040 A 
ATOM      6  C16 UNL     1     151.501 155.507 156.301  0.00  0.00    +0.030 A 
ATOM      7  S1  UNL     1     151.442 155.524 159.158  0.00  0.00    -0.049 S 
ATOM      8  C17 UNL     1     151.437 157.146 159.774  0.00  0.00    +0.179 A 
ATOM      9  N3  UNL     1     151.412 157.663 160.971  0.00  0.00    -0.221 NA
ATOM     10  C18 UNL     1     151.427 159.035 160.741  0.00  0.00    +0.090 A 
ATOM     11  C19 UNL     1     151.458 159.314 159.379  0.00  0.00    +0.122 A 
ATOM     12  N4  UNL     1     151.463 158.086 158.791  0.00  0.00    -0.293 N 
ENDROOT
BRANCH  10  13
ATOM     13  C20 UNL     1     151.409 160.010 161.825  0.00  0.00    +0.002 A 
ATOM     14  C21 UNL     1     151.239 159.563 163.147  0.00  0.00    +0.013 A 
ATOM     15  C22 UNL     1     151.216 160.466 164.213  0.00  0.00    +0.039 A 
ATOM     16  C23 UNL     1     151.363 161.823 163.960  0.00  0.00    +0.123 A 
ATOM     17  F1  UNL     1     151.342 162.692 164.978  0.00  0.00    -0.205 F 
ATOM     18  C24 UNL     1     151.533 162.292 162.664  0.00  0.00    +0.039 A 
ATOM     19  C25 UNL     1     151.557 161.387 161.596  0.00  0.00    +0.013 A 
ENDBRANCH  10  13
BRANCH   1  21
ATOM     20  N2  UNL     1     152.308 156.037 152.809  0.00  0.00    -0.311 N 
ATOM     21  C10 UNL     1     151.553 155.483 153.822  0.00  0.00    +0.244 C 
ATOM     22  O1  UNL     1     150.914 154.443 153.710  0.00  0.00    -0.270 OA
ATOM     23  H19 UNL     1     152.546 157.017 152.881  0.00  0.00    +0.149 HD
BRANCH  20  24
ATOM     24  C9  UNL     1     152.317 155.446 151.484  0.00  0.00    +0.106 C 
BRANCH  24  25
ATOM     25  C8  UNL     1     153.678 155.556 150.809  0.00  0.00    +0.034 C 
BRANCH  25  26
ATOM     26  C7  UNL     1     154.019 154.451 149.796  0.00  0.00    +0.086 C 
BRANCH  26  33
ATOM     27  C1  UNL     1     155.482 152.848 147.531  0.00  0.00    +0.024 C 
ATOM     28  C2  UNL     1     155.516 152.602 149.044  0.00  0.00    +0.054 C 
ATOM     29  C3  UNL     1     156.812 151.854 149.433  0.00  0.00    +0.018 C 
ATOM     30  C4  UNL     1     157.967 152.811 149.701  0.00  0.00    +0.003 C 
ATOM     31  C5  UNL     1     157.597 153.841 150.768  0.00  0.00    +0.015 C 
ATOM     32  C6  UNL     1     156.089 153.933 151.025  0.00  0.00    +0.084 C 
ATOM     33  N1  UNL     1     155.367 153.882 149.756  0.00  0.00    -0.300 NA
ENDBRANCH  26  33
ENDBRANCH  25  26
ENDBRANCH  24  25
ENDBRANCH  20  24
ENDBRANCH   1  21
TORSDOF 6
ENDMDL
MODEL 4
REMARK VINA RESULT:    -9.399      2.397      3.861
REMARK INTER + INTRA:         -13.510
REMARK INTER:                 -12.391
REMARK INTRA:                  -1.119
REMARK UNBOUND:                -0.814
REMARK  Name = /home/vital/Documents/PhD_2021/Malaria_codes/data/pdb_ligands_mmv/ligand_81.pdb
REMARK  7 active torsions:
REMARK  status: ('A' for Active; 'I' for Inactive)
REMARK    1  A    between atoms: C1_1  and  C2_2
REMARK    2  A    between atoms: N1_7  and  C7_8
REMARK    3  A    between atoms: C7_8  and  C8_9
REMARK    4  A    between atoms: C8_9  and  C9_10
REMARK    5  A    between atoms: C9_10  and  N2_11
REMARK    6  A    between atoms: C10_12  and  C11_14
REMARK    7  A    between atoms: C18_23  and  C20_26
REMARK                            x       y       z     vdW  Elec       q    Type
REMARK                         _______ _______ _______ _____ _____    ______ ____
ROOT
ATOM      1  C11 UNL     1     150.808 160.817 161.670  0.00  0.00    +0.038 A 
ATOM      2  C12 UNL     1     151.267 161.518 160.529  0.00  0.00    +0.015 A 
ATOM      3  C13 UNL     1     151.533 160.847 159.332  0.00  0.00    +0.028 A 
ATOM      4  C14 UNL     1     151.319 159.480 159.321  0.00  0.00    +0.062 A 
ATOM      5  C15 UNL     1     150.852 158.767 160.436  0.00  0.00    +0.040 A 
ATOM      6  C16 UNL     1     150.587 159.431 161.621  0.00  0.00    +0.030 A 
ATOM      7  S1  UNL     1     150.670 157.010 160.104  0.00  0.00    -0.049 S 
ATOM      8  C17 UNL     1     151.225 157.303 158.487  0.00  0.00    +0.179 A 
ATOM      9  N3  UNL     1     151.432 156.544 157.447  0.00  0.00    -0.221 NA
ATOM     10  C18 UNL     1     151.879 157.432 156.472  0.00  0.00    +0.090 A 
ATOM     11  C19 UNL     1     151.933 158.731 156.966  0.00  0.00    +0.122 A 
ATOM     12  N4  UNL     1     151.511 158.612 158.254  0.00  0.00    -0.293 N 
ENDROOT
BRANCH  10  13
ATOM     13  C20 UNL     1     152.232 157.001 155.125  0.00  0.00    +0.002 A 
ATOM     14  C21 UNL     1     151.984 155.671 154.743  0.00  0.00    +0.013 A 
ATOM     15  C22 UNL     1     152.309 155.220 153.461  0.00  0.00    +0.039 A 
ATOM     16  C23 UNL     1     152.884 156.100 152.554  0.00  0.00    +0.123 A 
ATOM     17  F1  UNL     1     153.197 155.672 151.324  0.00  0.00    -0.205 F 
ATOM     18  C24 UNL     1     153.140 157.419 152.905  0.00  0.00    +0.039 A 
ATOM     19  C25 UNL     1     152.814 157.870 154.189  0.00  0.00    +0.013 A 
ENDBRANCH  10  13
BRANCH   1  21
ATOM     20  N2  UNL     1     151.326 162.599 163.244  0.00  0.00    -0.311 N 
ATOM     21  C10 UNL     1     150.512 161.527 162.943  0.00  0.00    +0.244 C 
ATOM     22  O1  UNL     1     149.602 161.134 163.664  0.00  0.00    -0.270 OA
ATOM     23  H19 UNL     1     152.214 162.666 162.766  0.00  0.00    +0.149 HD
BRANCH  20  24
ATOM     24  C9  UNL     1     151.202 163.290 164.514  0.00  0.00    +0.106 C 
BRANCH  24  25
ATOM     25  C8  UNL     1     152.080 162.676 165.597  0.00  0.00    +0.034 C 
BRANCH  25  26
ATOM     26  C7  UNL     1     151.355 161.822 166.649  0.00  0.00    +0.086 C 
BRANCH  26  33
ATOM     27  C1  UNL     1     150.472 159.704 168.787  0.00  0.00    +0.024 C 
ATOM     28  C2  UNL     1     151.799 159.787 168.024  0.00  0.00    +0.054 C 
ATOM     29  C3  UNL     1     152.460 158.391 167.949  0.00  0.00    +0.018 C 
ATOM     30  C4  UNL     1     151.975 157.592 166.746  0.00  0.00    +0.003 C 
ATOM     31  C5  UNL     1     152.193 158.363 165.444  0.00  0.00    +0.015 C 
ATOM     32  C6  UNL     1     152.461 159.857 165.662  0.00  0.00    +0.084 C 
ATOM     33  N1  UNL     1     151.567 160.374 166.694  0.00  0.00    -0.300 NA
ENDBRANCH  26  33
ENDBRANCH  25  26
ENDBRANCH  24  25
ENDBRANCH  20  24
ENDBRANCH   1  21
TORSDOF 6
ENDMDL
MODEL 5
REMARK VINA RESULT:    -9.314      2.018      2.593
REMARK INTER + INTRA:         -13.396
REMARK INTER:                 -12.552
REMARK INTRA:                  -0.844
REMARK UNBOUND:                -0.814
REMARK  Name = /home/vital/Documents/PhD_2021/Malaria_codes/data/pdb_ligands_mmv/ligand_81.pdb
REMARK  7 active torsions:
REMARK  status: ('A' for Active; 'I' for Inactive)
REMARK    1  A    between atoms: C1_1  and  C2_2
REMARK    2  A    between atoms: N1_7  and  C7_8
REMARK    3  A    between atoms: C7_8  and  C8_9
REMARK    4  A    between atoms: C8_9  and  C9_10
REMARK    5  A    between atoms: C9_10  and  N2_11
REMARK    6  A    between atoms: C10_12  and  C11_14
REMARK    7  A    between atoms: C18_23  and  C20_26
REMARK                            x       y       z     vdW  Elec       q    Type
REMARK                         _______ _______ _______ _____ _____    ______ ____
ROOT
ATOM      1  C11 UNL     1     150.887 156.031 161.524  0.00  0.00    +0.038 A 
ATOM      2  C12 UNL     1     151.050 154.815 160.818  0.00  0.00    +0.015 A 
ATOM      3  C13 UNL     1     151.288 154.812 159.440  0.00  0.00    +0.028 A 
ATOM      4  C14 UNL     1     151.362 156.044 158.815  0.00  0.00    +0.062 A 
ATOM      5  C15 UNL     1     151.217 157.261 159.499  0.00  0.00    +0.040 A 
ATOM      6  C16 UNL     1     150.983 157.266 160.862  0.00  0.00    +0.030 A 
ATOM      7  S1  UNL     1     151.371 158.685 158.412  0.00  0.00    -0.049 S 
ATOM      8  C17 UNL     1     151.625 157.591 157.089  0.00  0.00    +0.179 A 
ATOM      9  N3  UNL     1     151.838 157.746 155.812  0.00  0.00    -0.221 NA
ATOM     10  C18 UNL     1     151.954 156.443 155.335  0.00  0.00    +0.090 A 
ATOM     11  C19 UNL     1     151.801 155.519 156.362  0.00  0.00    +0.122 A 
ATOM     12  N4  UNL     1     151.591 156.285 157.467  0.00  0.00    -0.293 N 
ENDROOT
BRANCH  10  13
ATOM     13  C20 UNL     1     152.203 156.145 153.930  0.00  0.00    +0.002 A 
ATOM     14  C21 UNL     1     153.326 156.706 153.298  0.00  0.00    +0.013 A 
ATOM     15  C22 UNL     1     153.598 156.444 151.952  0.00  0.00    +0.039 A 
ATOM     16  C23 UNL     1     152.746 155.619 151.232  0.00  0.00    +0.123 A 
ATOM     17  F1  UNL     1     153.002 155.365 149.943  0.00  0.00    -0.205 F 
ATOM     18  C24 UNL     1     151.629 155.051 151.832  0.00  0.00    +0.039 A 
ATOM     19  C25 UNL     1     151.357 155.313 153.180  0.00  0.00    +0.013 A 
ENDBRANCH  10  13
BRANCH   1  21
ATOM     20  N2  UNL     1     151.487 156.838 163.741  0.00  0.00    -0.311 N 
ATOM     21  C10 UNL     1     150.645 156.042 162.992  0.00  0.00    +0.244 C 
ATOM     22  O1  UNL     1     149.752 155.351 163.469  0.00  0.00    -0.270 OA
ATOM     23  H19 UNL     1     152.360 157.126 163.320  0.00  0.00    +0.149 HD
BRANCH  20  24
ATOM     24  C9  UNL     1     151.417 156.833 165.190  0.00  0.00    +0.106 C 
BRANCH  24  25
ATOM     25  C8  UNL     1     151.444 158.239 165.776  0.00  0.00    +0.034 C 
BRANCH  25  26
ATOM     26  C7  UNL     1     151.484 159.392 164.761  0.00  0.00    +0.086 C 
BRANCH  26  33
ATOM     27  C1  UNL     1     150.530 161.484 162.627  0.00  0.00    +0.024 C 
ATOM     28  C2  UNL     1     150.867 161.719 164.103  0.00  0.00    +0.054 C 
ATOM     29  C3  UNL     1     150.129 162.974 164.626  0.00  0.00    +0.018 C 
ATOM     30  C4  UNL     1     148.733 162.644 165.139  0.00  0.00    +0.003 C 
ATOM     31  C5  UNL     1     148.780 161.558 166.214  0.00  0.00    +0.015 C 
ATOM     32  C6  UNL     1     150.107 160.792 166.245  0.00  0.00    +0.084 C 
ATOM     33  N1  UNL     1     150.548 160.511 164.882  0.00  0.00    -0.300 NA
ENDBRANCH  26  33
ENDBRANCH  25  26
ENDBRANCH  24  25
ENDBRANCH  20  24
ENDBRANCH   1  21
TORSDOF 6
ENDMDL
MODEL 6
REMARK VINA RESULT:    -9.242      4.954     12.447
REMARK INTER + INTRA:         -13.298
REMARK INTER:                 -12.633
REMARK INTRA:                  -0.666
REMARK UNBOUND:                -0.814
REMARK  Name = /home/vital/Documents/PhD_2021/Malaria_codes/data/pdb_ligands_mmv/ligand_81.pdb
REMARK  7 active torsions:
REMARK  status: ('A' for Active; 'I' for Inactive)
REMARK    1  A    between atoms: C1_1  and  C2_2
REMARK    2  A    between atoms: N1_7  and  C7_8
REMARK    3  A    between atoms: C7_8  and  C8_9
REMARK    4  A    between atoms: C8_9  and  C9_10
REMARK    5  A    between atoms: C9_10  and  N2_11
REMARK    6  A    between atoms: C10_12  and  C11_14
REMARK    7  A    between atoms: C18_23  and  C20_26
REMARK                            x       y       z     vdW  Elec       q    Type
REMARK                         _______ _______ _______ _____ _____    ______ ____
ROOT
ATOM      1  C11 UNL     1     151.701 156.792 154.825  0.00  0.00    +0.038 A 
ATOM      2  C12 UNL     1     151.632 155.565 155.528  0.00  0.00    +0.015 A 
ATOM      3  C13 UNL     1     151.546 155.540 156.924  0.00  0.00    +0.028 A 
ATOM      4  C14 UNL     1     151.526 156.763 157.570  0.00  0.00    +0.062 A 
ATOM      5  C15 UNL     1     151.581 157.991 156.892  0.00  0.00    +0.040 A 
ATOM      6  C16 UNL     1     151.663 158.017 155.512  0.00  0.00    +0.030 A 
ATOM      7  S1  UNL     1     151.529 159.398 158.010  0.00  0.00    -0.049 S 
ATOM      8  C17 UNL     1     151.435 158.284 159.336  0.00  0.00    +0.179 A 
ATOM      9  N3  UNL     1     151.362 158.420 160.632  0.00  0.00    -0.221 NA
ATOM     10  C18 UNL     1     151.315 157.109 161.100  0.00  0.00    +0.090 A 
ATOM     11  C19 UNL     1     151.366 156.201 160.048  0.00  0.00    +0.122 A 
ATOM     12  N4  UNL     1     151.444 156.984 158.938  0.00  0.00    -0.293 N 
ENDROOT
BRANCH  10  13
ATOM     13  C20 UNL     1     151.225 156.789 162.519  0.00  0.00    +0.002 A 
ATOM     14  C21 UNL     1     151.883 157.611 163.451  0.00  0.00    +0.013 A 
ATOM     15  C22 UNL     1     151.822 157.336 164.819  0.00  0.00    +0.039 A 
ATOM     16  C23 UNL     1     151.099 156.237 165.263  0.00  0.00    +0.123 A 
ATOM     17  F1  UNL     1     151.037 155.971 166.573  0.00  0.00    -0.205 F 
ATOM     18  C24 UNL     1     150.439 155.409 164.364  0.00  0.00    +0.039 A 
ATOM     19  C25 UNL     1     150.501 155.684 162.993  0.00  0.00    +0.013 A 
ENDBRANCH  10  13
BRANCH   1  21
ATOM     20  N2  UNL     1     151.958 155.609 152.713  0.00  0.00    -0.311 N 
ATOM     21  C10 UNL     1     151.780 156.825 153.340  0.00  0.00    +0.244 C 
ATOM     22  O1  UNL     1     151.710 157.897 152.749  0.00  0.00    -0.270 OA
ATOM     23  H19 UNL     1     152.301 154.838 153.270  0.00  0.00    +0.149 HD
BRANCH  20  24
ATOM     24  C9  UNL     1     152.165 155.538 151.279  0.00  0.00    +0.106 C 
BRANCH  24  25
ATOM     25  C8  UNL     1     153.641 155.466 150.909  0.00  0.00    +0.034 C 
BRANCH  25  26
ATOM     26  C7  UNL     1     154.006 154.484 149.784  0.00  0.00    +0.086 C 
BRANCH  26  33
ATOM     27  C1  UNL     1     155.458 152.976 147.448  0.00  0.00    +0.024 C 
ATOM     28  C2  UNL     1     155.494 152.663 148.948  0.00  0.00    +0.054 C 
ATOM     29  C3  UNL     1     156.787 151.894 149.302  0.00  0.00    +0.018 C 
ATOM     30  C4  UNL     1     157.947 152.834 149.609  0.00  0.00    +0.003 C 
ATOM     31  C5  UNL     1     157.583 153.818 150.721  0.00  0.00    +0.015 C 
ATOM     32  C6  UNL     1     156.075 153.904 150.985  0.00  0.00    +0.084 C 
ATOM     33  N1  UNL     1     155.351 153.911 149.717  0.00  0.00    -0.300 NA
ENDBRANCH  26  33
ENDBRANCH  25  26
ENDBRANCH  24  25
ENDBRANCH  20  24
ENDBRANCH   1  21
TORSDOF 6
ENDMDL
MODEL 7
REMARK VINA RESULT:    -9.235      2.349      3.679
REMARK INTER + INTRA:         -13.289
REMARK INTER:                 -12.622
REMARK INTRA:                  -0.667
REMARK UNBOUND:                -0.814
REMARK  Name = /home/vital/Documents/PhD_2021/Malaria_codes/data/pdb_ligands_mmv/ligand_81.pdb
REMARK  7 active torsions:
REMARK  status: ('A' for Active; 'I' for Inactive)
REMARK    1  A    between atoms: C1_1  and  C2_2
REMARK    2  A    between atoms: N1_7  and  C7_8
REMARK    3  A    between atoms: C7_8  and  C8_9
REMARK    4  A    between atoms: C8_9  and  C9_10
REMARK    5  A    between atoms: C9_10  and  N2_11
REMARK    6  A    between atoms: C10_12  and  C11_14
REMARK    7  A    between atoms: C18_23  and  C20_26
REMARK                            x       y       z     vdW  Elec       q    Type
REMARK                         _______ _______ _______ _____ _____    ______ ____
ROOT
ATOM      1  C11 UNL     1     150.865 159.447 159.899  0.00  0.00    +0.038 A 
ATOM      2  C12 UNL     1     151.238 160.227 158.778  0.00  0.00    +0.015 A 
ATOM      3  C13 UNL     1     151.542 159.625 157.553  0.00  0.00    +0.028 A 
ATOM      4  C14 UNL     1     151.452 158.246 157.495  0.00  0.00    +0.062 A 
ATOM      5  C15 UNL     1     151.071 157.455 158.590  0.00  0.00    +0.040 A 
ATOM      6  C16 UNL     1     150.768 158.049 159.802  0.00  0.00    +0.030 A 
ATOM      7  S1  UNL     1     151.042 155.700 158.196  0.00  0.00    -0.049 S 
ATOM      8  C17 UNL     1     151.540 156.100 156.583  0.00  0.00    +0.179 A 
ATOM      9  N3  UNL     1     151.795 155.400 155.513  0.00  0.00    -0.221 NA
ATOM     10  C18 UNL     1     152.142 156.359 154.565  0.00  0.00    +0.090 A 
ATOM     11  C19 UNL     1     152.088 157.639 155.105  0.00  0.00    +0.122 A 
ATOM     12  N4  UNL     1     151.702 157.437 156.394  0.00  0.00    -0.293 N 
ENDROOT
BRANCH  10  13
ATOM     13  C20 UNL     1     152.508 156.009 153.198  0.00  0.00    +0.002 A 
ATOM     14  C21 UNL     1     151.494 155.813 152.244  0.00  0.00    +0.013 A 
ATOM     15  C22 UNL     1     151.805 155.476 150.924  0.00  0.00    +0.039 A 
ATOM     16  C23 UNL     1     153.135 155.334 150.552  0.00  0.00    +0.123 A 
ATOM     17  F1  UNL     1     153.437 155.012 149.288  0.00  0.00    -0.205 F 
ATOM     18  C24 UNL     1     154.157 155.522 151.474  0.00  0.00    +0.039 A 
ATOM     19  C25 UNL     1     153.845 155.859 152.796  0.00  0.00    +0.013 A 
ENDBRANCH  10  13
BRANCH   1  21
ATOM     20  N2  UNL     1     151.451 160.982 161.695  0.00  0.00    -0.311 N 
ATOM     21  C10 UNL     1     150.529 160.082 161.201  0.00  0.00    +0.244 C 
ATOM     22  O1  UNL     1     149.492 159.777 161.780  0.00  0.00    -0.270 OA
ATOM     23  H19 UNL     1     152.389 160.948 161.319  0.00  0.00    +0.149 HD
BRANCH  20  24
ATOM     24  C9  UNL     1     151.281 161.570 163.010  0.00  0.00    +0.106 C 
BRANCH  24  25
ATOM     25  C8  UNL     1     152.367 161.134 163.985  0.00  0.00    +0.034 C 
BRANCH  25  26
ATOM     26  C7  UNL     1     151.903 160.262 165.163  0.00  0.00    +0.086 C 
BRANCH  26  33
ATOM     27  C1  UNL     1     152.372 158.015 167.300  0.00  0.00    +0.024 C 
ATOM     28  C2  UNL     1     152.063 159.498 167.533  0.00  0.00    +0.054 C 
ATOM     29  C3  UNL     1     152.586 159.941 168.919  0.00  0.00    +0.018 C 
ATOM     30  C4  UNL     1     154.040 160.393 168.865  0.00  0.00    +0.003 C 
ATOM     31  C5  UNL     1     154.236 161.505 167.833  0.00  0.00    +0.015 C 
ATOM     32  C6  UNL     1     153.070 161.628 166.846  0.00  0.00    +0.084 C 
ATOM     33  N1  UNL     1     152.628 160.299 166.434  0.00  0.00    -0.300 NA
ENDBRANCH  26  33
ENDBRANCH  25  26
ENDBRANCH  24  25
ENDBRANCH  20  24
ENDBRANCH   1  21
TORSDOF 6
ENDMDL
MODEL 8
REMARK VINA RESULT:    -9.134      2.098      3.888
REMARK INTER + INTRA:         -13.152
REMARK INTER:                 -12.304
REMARK INTRA:                  -0.849
REMARK UNBOUND:                -0.814
REMARK  Name = /home/vital/Documents/PhD_2021/Malaria_codes/data/pdb_ligands_mmv/ligand_81.pdb
REMARK  7 active torsions:
REMARK  status: ('A' for Active; 'I' for Inactive)
REMARK    1  A    between atoms: C1_1  and  C2_2
REMARK    2  A    between atoms: N1_7  and  C7_8
REMARK    3  A    between atoms: C7_8  and  C8_9
REMARK    4  A    between atoms: C8_9  and  C9_10
REMARK    5  A    between atoms: C9_10  and  N2_11
REMARK    6  A    between atoms: C10_12  and  C11_14
REMARK    7  A    between atoms: C18_23  and  C20_26
REMARK                            x       y       z     vdW  Elec       q    Type
REMARK                         _______ _______ _______ _____ _____    ______ ____
ROOT
ATOM      1  C11 UNL     1     151.104 159.789 161.499  0.00  0.00    +0.038 A 
ATOM      2  C12 UNL     1     151.383 160.636 160.399  0.00  0.00    +0.015 A 
ATOM      3  C13 UNL     1     151.564 160.110 159.116  0.00  0.00    +0.028 A 
ATOM      4  C14 UNL     1     151.451 158.739 158.980  0.00  0.00    +0.062 A 
ATOM      5  C15 UNL     1     151.161 157.882 160.054  0.00  0.00    +0.040 A 
ATOM      6  C16 UNL     1     150.980 158.401 161.324  0.00  0.00    +0.030 A 
ATOM      7  S1  UNL     1     151.071 156.157 159.555  0.00  0.00    -0.049 S 
ATOM      8  C17 UNL     1     151.423 156.655 157.931  0.00  0.00    +0.179 A 
ATOM      9  N3  UNL     1     151.570 156.023 156.800  0.00  0.00    -0.221 NA
ATOM     10  C18 UNL     1     151.841 157.037 155.886  0.00  0.00    +0.090 A 
ATOM     11  C19 UNL     1     151.855 158.280 156.508  0.00  0.00    +0.122 A 
ATOM     12  N4  UNL     1     151.586 158.000 157.813  0.00  0.00    -0.293 N 
ENDROOT
BRANCH  10  13
ATOM     13  C20 UNL     1     152.074 156.772 154.471  0.00  0.00    +0.002 A 
ATOM     14  C21 UNL     1     152.692 157.757 153.682  0.00  0.00    +0.013 A 
ATOM     15  C22 UNL     1     152.932 157.541 152.322  0.00  0.00    +0.039 A 
ATOM     16  C23 UNL     1     152.554 156.336 151.746  0.00  0.00    +0.123 A 
ATOM     17  F1  UNL     1     152.782 156.124 150.444  0.00  0.00    -0.205 F 
ATOM     18  C24 UNL     1     151.942 155.345 152.503  0.00  0.00    +0.039 A 
ATOM     19  C25 UNL     1     151.702 155.562 153.865  0.00  0.00    +0.013 A 
ENDBRANCH  10  13
BRANCH   1  21
ATOM     20  N2  UNL     1     151.609 159.734 163.879  0.00  0.00    -0.311 N 
ATOM     21  C10 UNL     1     150.899 160.342 162.864  0.00  0.00    +0.244 C 
ATOM     22  O1  UNL     1     150.118 161.271 163.035  0.00  0.00    -0.270 OA
ATOM     23  H19 UNL     1     151.983 158.812 163.705  0.00  0.00    +0.149 HD
BRANCH  20  24
ATOM     24  C9  UNL     1     151.397 160.116 165.263  0.00  0.00    +0.106 C 
BRANCH  24  25
ATOM     25  C8  UNL     1     151.379 158.915 166.200  0.00  0.00    +0.034 C 
BRANCH  25  26
ATOM     26  C7  UNL     1     152.372 157.789 165.870  0.00  0.00    +0.086 C 
BRANCH  26  33
ATOM     27  C1  UNL     1     150.642 155.504 164.596  0.00  0.00    +0.024 C 
ATOM     28  C2  UNL     1     150.768 155.888 166.074  0.00  0.00    +0.054 C 
ATOM     29  C3  UNL     1     150.431 154.675 166.972  0.00  0.00    +0.018 C 
ATOM     30  C4  UNL     1     151.651 153.801 167.235  0.00  0.00    +0.003 C 
ATOM     31  C5  UNL     1     152.796 154.616 167.837  0.00  0.00    +0.015 C 
ATOM     32  C6  UNL     1     152.616 156.129 167.672  0.00  0.00    +0.084 C 
ATOM     33  N1  UNL     1     152.115 156.424 166.332  0.00  0.00    -0.300 NA
ENDBRANCH  26  33
ENDBRANCH  25  26
ENDBRANCH  24  25
ENDBRANCH  20  24
ENDBRANCH   1  21
TORSDOF 6
ENDMDL
MODEL 9
REMARK VINA RESULT:    -8.766      2.102      3.181
REMARK INTER + INTRA:         -12.654
REMARK INTER:                 -11.155
REMARK INTRA:                  -1.499
REMARK UNBOUND:                -0.814
REMARK  Name = /home/vital/Documents/PhD_2021/Malaria_codes/data/pdb_ligands_mmv/ligand_81.pdb
REMARK  7 active torsions:
REMARK  status: ('A' for Active; 'I' for Inactive)
REMARK    1  A    between atoms: C1_1  and  C2_2
REMARK    2  A    between atoms: N1_7  and  C7_8
REMARK    3  A    between atoms: C7_8  and  C8_9
REMARK    4  A    between atoms: C8_9  and  C9_10
REMARK    5  A    between atoms: C9_10  and  N2_11
REMARK    6  A    between atoms: C10_12  and  C11_14
REMARK    7  A    between atoms: C18_23  and  C20_26
REMARK                            x       y       z     vdW  Elec       q    Type
REMARK                         _______ _______ _______ _____ _____    ______ ____
ROOT
ATOM      1  C11 UNL     1     151.450 157.453 164.481  0.00  0.00    +0.038 A 
ATOM      2  C12 UNL     1     151.544 158.622 163.689  0.00  0.00    +0.015 A 
ATOM      3  C13 UNL     1     151.587 158.543 162.293  0.00  0.00    +0.028 A 
ATOM      4  C14 UNL     1     151.526 157.278 161.737  0.00  0.00    +0.062 A 
ATOM      5  C15 UNL     1     151.418 156.107 162.503  0.00  0.00    +0.040 A 
ATOM      6  C16 UNL     1     151.374 156.184 163.883  0.00  0.00    +0.030 A 
ATOM      7  S1  UNL     1     151.353 154.624 161.488  0.00  0.00    -0.049 S 
ATOM      8  C17 UNL     1     151.471 155.634 160.083  0.00  0.00    +0.179 A 
ATOM      9  N3  UNL     1     151.504 155.403 158.800  0.00  0.00    -0.221 NA
ATOM     10  C18 UNL     1     151.606 156.672 158.237  0.00  0.00    +0.090 A 
ATOM     11  C19 UNL     1     151.636 157.654 159.221  0.00  0.00    +0.122 A 
ATOM     12  N4  UNL     1     151.549 156.957 160.387  0.00  0.00    -0.293 N 
ENDROOT
BRANCH  10  13
ATOM     13  C20 UNL     1     151.671 156.885 156.796  0.00  0.00    +0.002 A 
ATOM     14  C21 UNL     1     151.684 155.772 155.938  0.00  0.00    +0.013 A 
ATOM     15  C22 UNL     1     151.747 155.936 154.551  0.00  0.00    +0.039 A 
ATOM     16  C23 UNL     1     151.797 157.216 154.017  0.00  0.00    +0.123 A 
ATOM     17  F1  UNL     1     151.856 157.377 152.690  0.00  0.00    -0.205 F 
ATOM     18  C24 UNL     1     151.785 158.333 154.843  0.00  0.00    +0.039 A 
ATOM     19  C25 UNL     1     151.722 158.169 156.231  0.00  0.00    +0.013 A 
ENDBRANCH  10  13
BRANCH   1  21
ATOM     20  N2  UNL     1     151.720 158.748 166.524  0.00  0.00    -0.311 N 
ATOM     21  C10 UNL     1     151.392 157.530 165.965  0.00  0.00    +0.244 C 
ATOM     22  O1  UNL     1     151.086 156.538 166.617  0.00  0.00    -0.270 OA
ATOM     23  H19 UNL     1     152.238 159.403 165.953  0.00  0.00    +0.149 HD
BRANCH  20  24
ATOM     24  C9  UNL     1     151.810 158.903 167.963  0.00  0.00    +0.106 C 
BRANCH  24  25
ATOM     25  C8  UNL     1     150.599 159.621 168.546  0.00  0.00    +0.034 C 
BRANCH  25  26
ATOM     26  C7  UNL     1     150.481 161.118 168.217  0.00  0.00    +0.086 C 
BRANCH  26  33
ATOM     27  C1  UNL     1     153.109 162.086 166.808  0.00  0.00    +0.024 C 
ATOM     28  C2  UNL     1     151.696 162.666 166.683  0.00  0.00    +0.054 C 
ATOM     29  C3  UNL     1     151.541 163.411 165.337  0.00  0.00    +0.018 C 
ATOM     30  C4  UNL     1     151.110 162.477 164.212  0.00  0.00    +0.003 C 
ATOM     31  C5  UNL     1     149.822 161.736 164.570  0.00  0.00    +0.015 C 
ATOM     32  C6  UNL     1     149.489 161.787 166.066  0.00  0.00    +0.084 C 
ATOM     33  N1  UNL     1     150.705 161.590 166.850  0.00  0.00    -0.300 NA
ENDBRANCH  26  33
ENDBRANCH  25  26
ENDBRANCH  24  25
ENDBRANCH  20  24
ENDBRANCH   1  21
TORSDOF 6
ENDMDL
