MODEL 1
REMARK VINA RESULT:    -9.781      0.000      0.000
REMARK INTER + INTRA:         -13.205
REMARK INTER:                 -12.640
REMARK INTRA:                  -0.565
REMARK UNBOUND:                -0.565
REMARK  Name = /home/vital/Documents/PhD_2021/Malaria_codes/data/pdb_ligands_mmv/ligand_84.pdb
REMARK  6 active torsions:
REMARK  status: ('A' for Active; 'I' for Inactive)
REMARK    1  A    between atoms: C1_1  and  C2_2
REMARK    2  A    between atoms: C5_5  and  C6_6
REMARK    3  A    between atoms: C6_6  and  N1_7
REMARK    4  A    between atoms: C16_19  and  C19_22
REMARK    5  A    between atoms: N4_24  and  C20_25
REMARK    6  A    between atoms: C20_25  and  C21_26
REMARK                            x       y       z     vdW  Elec       q    Type
REMARK                         _______ _______ _______ _____ _____    ______ ____
ROOT
ATOM      1  N1  UNL     1     150.651 157.574 157.284  0.00  0.00    -0.307 N 
ATOM      2  C7  UNL     1     150.936 156.493 158.091  0.00  0.00    +0.200 A 
ATOM      3  N2  UNL     1     151.662 155.604 157.454  0.00  0.00    -0.214 NA
ATOM      4  C8  UNL     1     151.903 156.140 156.216  0.00  0.00    +0.091 A 
ATOM      5  C9  UNL     1     152.644 155.612 155.148  0.00  0.00    +0.030 A 
ATOM      6  C10 UNL     1     152.751 156.357 153.967  0.00  0.00    +0.002 A 
ATOM      7  C11 UNL     1     152.130 157.601 153.852  0.00  0.00    +0.002 A 
ATOM      8  C12 UNL     1     151.385 158.143 154.906  0.00  0.00    +0.028 A 
ATOM      9  C13 UNL     1     151.293 157.383 156.078  0.00  0.00    +0.070 A 
ATOM     10  N3  UNL     1     150.474 156.408 159.373  0.00  0.00    -0.301 N 
ATOM     11  C14 UNL     1     149.973 155.070 159.748  0.00  0.00    +0.108 C 
ATOM     12  C15 UNL     1     151.014 154.282 160.537  0.00  0.00    +0.032 C 
ATOM     13  C16 UNL     1     151.383 155.000 161.847  0.00  0.00    +0.078 C 
ATOM     14  C17 UNL     1     151.103 156.510 161.766  0.00  0.00    +0.032 C 
ATOM     15  C18 UNL     1     151.375 157.035 160.363  0.00  0.00    +0.108 C 
ENDROOT
BRANCH  13  16
ATOM     16  C19 UNL     1     150.671 154.370 163.040  0.00  0.00    +0.216 C 
ATOM     17  O1  UNL     1     149.975 153.362 162.963  0.00  0.00    -0.276 OA
ATOM     18  N4  UNL     1     150.874 155.041 164.225  0.00  0.00    -0.310 N 
ATOM     19  H21 UNL     1     151.255 155.978 164.196  0.00  0.00    +0.149 HD
BRANCH  18  20
ATOM     20  C20 UNL     1     150.175 154.642 165.424  0.00  0.00    +0.146 C 
BRANCH  20  21
ATOM     21  C21 UNL     1     151.187 154.200 166.430  0.00  0.00    +0.007 A 
ATOM     22  C22 UNL     1     152.039 154.982 167.184  0.00  0.00    +0.013 A 
ATOM     23  C23 UNL     1     152.866 154.208 168.047  0.00  0.00    +0.008 A 
ATOM     24  C24 UNL     1     152.618 152.860 167.924  0.00  0.00    +0.045 A 
ATOM     25  S1  UNL     1     151.395 152.534 166.775  0.00  0.00    -0.100 S 
ENDBRANCH  20  21
ENDBRANCH  18  20
ENDBRANCH  13  16
BRANCH   1  26
ATOM     26  C6  UNL     1     149.820 158.715 157.632  0.00  0.00    +0.160 C 
BRANCH  26  31
ATOM     27  C1  UNL     1     152.170 162.043 161.806  0.00  0.00    +0.044 C 
ATOM     28  C2  UNL     1     151.553 161.199 160.731  0.00  0.00    -0.050 A 
ATOM     29  C3  UNL     1     150.283 160.636 160.898  0.00  0.00    +0.004 A 
ATOM     30  C4  UNL     1     149.727 159.835 159.897  0.00  0.00    +0.005 A 
ATOM     31  C5  UNL     1     150.434 159.572 158.716  0.00  0.00    -0.028 A 
ATOM     32  C25 UNL     1     151.701 160.146 158.549  0.00  0.00    +0.005 A 
ATOM     33  C26 UNL     1     152.258 160.946 159.550  0.00  0.00    +0.004 A 
ENDBRANCH  26  31
ENDBRANCH   1  26
TORSDOF 5
ENDMDL
MODEL 2
REMARK VINA RESULT:    -9.620      5.161     10.080
REMARK INTER + INTRA:         -12.997
REMARK INTER:                 -12.139
REMARK INTRA:                  -0.858
REMARK UNBOUND:                -0.565
REMARK  Name = /home/vital/Documents/PhD_2021/Malaria_codes/data/pdb_ligands_mmv/ligand_84.pdb
REMARK  6 active torsions:
REMARK  status: ('A' for Active; 'I' for Inactive)
REMARK    1  A    between atoms: C1_1  and  C2_2
REMARK    2  A    between atoms: C5_5  and  C6_6
REMARK    3  A    between atoms: C6_6  and  N1_7
REMARK    4  A    between atoms: C16_19  and  C19_22
REMARK    5  A    between atoms: N4_24  and  C20_25
REMARK    6  A    between atoms: C20_25  and  C21_26
REMARK                            x       y       z     vdW  Elec       q    Type
REMARK                         _______ _______ _______ _____ _____    ______ ____
ROOT
ATOM      1  N1  UNL     1     150.843 157.684 157.163  0.00  0.00    -0.307 N 
ATOM      2  C7  UNL     1     151.612 157.859 156.032  0.00  0.00    +0.200 A 
ATOM      3  N2  UNL     1     152.262 158.999 156.072  0.00  0.00    -0.214 NA
ATOM      4  C8  UNL     1     151.951 159.561 157.283  0.00  0.00    +0.091 A 
ATOM      5  C9  UNL     1     152.391 160.772 157.839  0.00  0.00    +0.030 A 
ATOM      6  C10 UNL     1     151.931 161.136 159.110  0.00  0.00    +0.002 A 
ATOM      7  C11 UNL     1     151.049 160.313 159.811  0.00  0.00    +0.002 A 
ATOM      8  C12 UNL     1     150.597 159.103 159.271  0.00  0.00    +0.028 A 
ATOM      9  C13 UNL     1     151.072 158.756 158.000  0.00  0.00    +0.070 A 
ATOM     10  N3  UNL     1     151.635 156.937 155.025  0.00  0.00    -0.301 N 
ATOM     11  C14 UNL     1     151.597 157.520 153.669  0.00  0.00    +0.108 C 
ATOM     12  C15 UNL     1     152.988 157.587 153.047  0.00  0.00    +0.032 C 
ATOM     13  C16 UNL     1     153.605 156.184 152.908  0.00  0.00    +0.078 C 
ATOM     14  C17 UNL     1     152.988 155.190 153.906  0.00  0.00    +0.032 C 
ATOM     15  C18 UNL     1     152.653 155.882 155.220  0.00  0.00    +0.108 C 
ENDROOT
BRANCH  13  16
ATOM     16  C19 UNL     1     153.489 155.670 151.475  0.00  0.00    +0.216 C 
ATOM     17  O1  UNL     1     152.509 155.860 150.762  0.00  0.00    -0.276 OA
ATOM     18  N4  UNL     1     154.590 154.963 151.050  0.00  0.00    -0.310 N 
ATOM     19  H21 UNL     1     155.259 154.640 151.737  0.00  0.00    +0.149 HD
BRANCH  18  20
ATOM     20  C20 UNL     1     154.590 154.310 149.761  0.00  0.00    +0.146 C 
BRANCH  20  21
ATOM     21  C21 UNL     1     155.814 153.459 149.668  0.00  0.00    +0.007 A 
ATOM     22  C22 UNL     1     156.532 152.880 150.697  0.00  0.00    +0.013 A 
ATOM     23  C23 UNL     1     157.646 152.129 150.226  0.00  0.00    +0.008 A 
ATOM     24  C24 UNL     1     157.742 152.157 148.853  0.00  0.00    +0.045 A 
ATOM     25  S1  UNL     1     156.496 153.085 148.140  0.00  0.00    -0.100 S 
ENDBRANCH  20  21
ENDBRANCH  18  20
ENDBRANCH  13  16
BRANCH   1  26
ATOM     26  C6  UNL     1     149.946 156.572 157.432  0.00  0.00    +0.160 C 
BRANCH  26  31
ATOM     27  C1  UNL     1     151.455 153.544 162.183  0.00  0.00    +0.044 C 
ATOM     28  C2  UNL     1     151.066 154.307 160.952  0.00  0.00    -0.050 A 
ATOM     29  C3  UNL     1     151.868 154.284 159.807  0.00  0.00    +0.004 A 
ATOM     30  C4  UNL     1     151.505 155.016 158.673  0.00  0.00    +0.005 A 
ATOM     31  C5  UNL     1     150.339 155.794 158.667  0.00  0.00    -0.028 A 
ATOM     32  C25 UNL     1     149.534 155.806 159.813  0.00  0.00    +0.005 A 
ATOM     33  C26 UNL     1     149.898 155.076 160.947  0.00  0.00    +0.004 A 
ENDBRANCH  26  31
ENDBRANCH   1  26
TORSDOF 5
ENDMDL
MODEL 3
REMARK VINA RESULT:    -9.475      3.450      9.467
REMARK INTER + INTRA:         -12.809
REMARK INTER:                 -12.119
REMARK INTRA:                  -0.690
REMARK UNBOUND:                -0.565
REMARK  Name = /home/vital/Documents/PhD_2021/Malaria_codes/data/pdb_ligands_mmv/ligand_84.pdb
REMARK  6 active torsions:
REMARK  status: ('A' for Active; 'I' for Inactive)
REMARK    1  A    between atoms: C1_1  and  C2_2
REMARK    2  A    between atoms: C5_5  and  C6_6
REMARK    3  A    between atoms: C6_6  and  N1_7
REMARK    4  A    between atoms: C16_19  and  C19_22
REMARK    5  A    between atoms: N4_24  and  C20_25
REMARK    6  A    between atoms: C20_25  and  C21_26
REMARK                            x       y       z     vdW  Elec       q    Type
REMARK                         _______ _______ _______ _____ _____    ______ ____
ROOT
ATOM      1  N1  UNL     1     151.535 157.966 165.582  0.00  0.00    -0.307 N 
ATOM      2  C7  UNL     1     151.770 158.049 164.226  0.00  0.00    +0.200 A 
ATOM      3  N2  UNL     1     152.514 159.091 163.936  0.00  0.00    -0.214 NA
ATOM      4  C8  UNL     1     152.819 159.675 165.138  0.00  0.00    +0.091 A 
ATOM      5  C9  UNL     1     153.601 160.809 165.402  0.00  0.00    +0.030 A 
ATOM      6  C10 UNL     1     153.772 161.217 166.730  0.00  0.00    +0.002 A 
ATOM      7  C11 UNL     1     153.172 160.512 167.774  0.00  0.00    +0.002 A 
ATOM      8  C12 UNL     1     152.385 159.380 167.530  0.00  0.00    +0.028 A 
ATOM      9  C13 UNL     1     152.230 158.987 166.195  0.00  0.00    +0.070 A 
ATOM     10  N3  UNL     1     151.248 157.145 163.346  0.00  0.00    -0.301 N 
ATOM     11  C14 UNL     1     150.714 157.744 162.107  0.00  0.00    +0.108 C 
ATOM     12  C15 UNL     1     151.708 157.630 160.955  0.00  0.00    +0.032 C 
ATOM     13  C16 UNL     1     152.025 156.158 160.635  0.00  0.00    +0.078 C 
ATOM     14  C17 UNL     1     151.767 155.245 161.844  0.00  0.00    +0.032 C 
ATOM     15  C18 UNL     1     152.110 155.960 163.144  0.00  0.00    +0.108 C 
ENDROOT
BRANCH  13  16
ATOM     16  C19 UNL     1     151.251 155.682 159.409  0.00  0.00    +0.216 C 
ATOM     17  O1  UNL     1     150.156 155.133 159.467  0.00  0.00    -0.276 OA
ATOM     18  N4  UNL     1     151.898 155.921 158.217  0.00  0.00    -0.310 N 
ATOM     19  H21 UNL     1     152.881 156.159 158.235  0.00  0.00    +0.149 HD
BRANCH  18  20
ATOM     20  C20 UNL     1     151.354 155.426 156.975  0.00  0.00    +0.146 C 
BRANCH  20  21
ATOM     21  C21 UNL     1     151.563 156.468 155.925  0.00  0.00    +0.007 A 
ATOM     22  C22 UNL     1     151.225 157.806 155.972  0.00  0.00    +0.013 A 
ATOM     23  C23 UNL     1     151.583 158.499 154.781  0.00  0.00    +0.008 A 
ATOM     24  C24 UNL     1     152.183 157.668 153.863  0.00  0.00    +0.045 A 
ATOM     25  S1  UNL     1     152.312 156.063 154.438  0.00  0.00    -0.100 S 
ENDBRANCH  20  21
ENDBRANCH  18  20
ENDBRANCH  13  16
BRANCH   1  26
ATOM     26  C6  UNL     1     150.703 156.981 166.255  0.00  0.00    +0.160 C 
BRANCH  26  31
ATOM     27  C1  UNL     1     153.799 152.480 168.296  0.00  0.00    +0.044 C 
ATOM     28  C2  UNL     1     153.017 153.642 167.761  0.00  0.00    -0.050 A 
ATOM     29  C3  UNL     1     153.445 154.956 167.972  0.00  0.00    +0.004 A 
ATOM     30  C4  UNL     1     152.697 156.032 167.486  0.00  0.00    +0.005 A 
ATOM     31  C5  UNL     1     151.500 155.814 166.789  0.00  0.00    -0.028 A 
ATOM     32  C25 UNL     1     151.081 154.495 166.571  0.00  0.00    +0.005 A 
ATOM     33  C26 UNL     1     151.827 153.420 167.059  0.00  0.00    +0.004 A 
ENDBRANCH  26  31
ENDBRANCH   1  26
TORSDOF 5
ENDMDL
MODEL 4
REMARK VINA RESULT:    -9.411      4.301      9.032
REMARK INTER + INTRA:         -12.727
REMARK INTER:                 -11.655
REMARK INTRA:                  -1.072
REMARK UNBOUND:                -0.565
REMARK  Name = /home/vital/Documents/PhD_2021/Malaria_codes/data/pdb_ligands_mmv/ligand_84.pdb
REMARK  6 active torsions:
REMARK  status: ('A' for Active; 'I' for Inactive)
REMARK    1  A    between atoms: C1_1  and  C2_2
REMARK    2  A    between atoms: C5_5  and  C6_6
REMARK    3  A    between atoms: C6_6  and  N1_7
REMARK    4  A    between atoms: C16_19  and  C19_22
REMARK    5  A    between atoms: N4_24  and  C20_25
REMARK    6  A    between atoms: C20_25  and  C21_26
REMARK                            x       y       z     vdW  Elec       q    Type
REMARK                         _______ _______ _______ _____ _____    ______ ____
ROOT
ATOM      1  N1  UNL     1     151.284 161.570 165.267  0.00  0.00    -0.307 N 
ATOM      2  C7  UNL     1     150.654 161.455 164.047  0.00  0.00    +0.200 A 
ATOM      3  N2  UNL     1     149.437 161.947 164.093  0.00  0.00    -0.214 NA
ATOM      4  C8  UNL     1     149.286 162.445 165.361  0.00  0.00    +0.091 A 
ATOM      5  C9  UNL     1     148.184 163.095 165.935  0.00  0.00    +0.030 A 
ATOM      6  C10 UNL     1     148.268 163.520 167.266  0.00  0.00    +0.002 A 
ATOM      7  C11 UNL     1     149.427 163.300 168.011  0.00  0.00    +0.002 A 
ATOM      8  C12 UNL     1     150.537 162.651 167.456  0.00  0.00    +0.028 A 
ATOM      9  C13 UNL     1     150.432 162.236 166.123  0.00  0.00    +0.070 A 
ATOM     10  N3  UNL     1     151.262 160.873 162.972  0.00  0.00    -0.301 N 
ATOM     11  C14 UNL     1     150.387 159.974 162.194  0.00  0.00    +0.108 C 
ATOM     12  C15 UNL     1     149.834 160.665 160.951  0.00  0.00    +0.032 C 
ATOM     13  C16 UNL     1     150.968 161.106 160.008  0.00  0.00    +0.078 C 
ATOM     14  C17 UNL     1     152.297 161.285 160.760  0.00  0.00    +0.032 C 
ATOM     15  C18 UNL     1     152.056 161.824 162.163  0.00  0.00    +0.108 C 
ENDROOT
BRANCH  13  16
ATOM     16  C19 UNL     1     151.120 160.136 158.839  0.00  0.00    +0.216 C 
ATOM     17  O1  UNL     1     151.135 160.484 157.663  0.00  0.00    -0.276 OA
ATOM     18  N4  UNL     1     151.235 158.819 159.224  0.00  0.00    -0.310 N 
ATOM     19  H21 UNL     1     150.988 158.564 160.171  0.00  0.00    +0.149 HD
BRANCH  18  20
ATOM     20  C20 UNL     1     151.268 157.766 158.236  0.00  0.00    +0.146 C 
BRANCH  20  21
ATOM     21  C21 UNL     1     151.399 156.460 158.949  0.00  0.00    +0.007 A 
ATOM     22  C22 UNL     1     151.635 155.212 158.407  0.00  0.00    +0.013 A 
ATOM     23  C23 UNL     1     151.703 154.193 159.399  0.00  0.00    +0.008 A 
ATOM     24  C24 UNL     1     151.517 154.696 160.667  0.00  0.00    +0.045 A 
ATOM     25  S1  UNL     1     151.263 156.387 160.656  0.00  0.00    -0.100 S 
ENDBRANCH  20  21
ENDBRANCH  18  20
ENDBRANCH  13  16
BRANCH   1  26
ATOM     26  C6  UNL     1     152.611 161.078 165.603  0.00  0.00    +0.160 C 
BRANCH  26  31
ATOM     27  C1  UNL     1     152.532 155.704 167.868  0.00  0.00    +0.044 C 
ATOM     28  C2  UNL     1     152.568 157.089 167.293  0.00  0.00    -0.050 A 
ATOM     29  C3  UNL     1     152.598 158.213 168.124  0.00  0.00    +0.004 A 
ATOM     30  C4  UNL     1     152.611 159.498 167.577  0.00  0.00    +0.005 A 
ATOM     31  C5  UNL     1     152.583 159.685 166.188  0.00  0.00    -0.028 A 
ATOM     32  C25 UNL     1     152.564 158.555 165.359  0.00  0.00    +0.005 A 
ATOM     33  C26 UNL     1     152.548 157.270 165.907  0.00  0.00    +0.004 A 
ENDBRANCH  26  31
ENDBRANCH   1  26
TORSDOF 5
ENDMDL
MODEL 5
REMARK VINA RESULT:    -9.334      1.919      2.465
REMARK INTER + INTRA:         -12.626
REMARK INTER:                 -12.174
REMARK INTRA:                  -0.452
REMARK UNBOUND:                -0.565
REMARK  Name = /home/vital/Documents/PhD_2021/Malaria_codes/data/pdb_ligands_mmv/ligand_84.pdb
REMARK  6 active torsions:
REMARK  status: ('A' for Active; 'I' for Inactive)
REMARK    1  A    between atoms: C1_1  and  C2_2
REMARK    2  A    between atoms: C5_5  and  C6_6
REMARK    3  A    between atoms: C6_6  and  N1_7
REMARK    4  A    between atoms: C16_19  and  C19_22
REMARK    5  A    between atoms: N4_24  and  C20_25
REMARK    6  A    between atoms: C20_25  and  C21_26
REMARK                            x       y       z     vdW  Elec       q    Type
REMARK                         _______ _______ _______ _____ _____    ______ ____
ROOT
ATOM      1  N1  UNL     1     150.381 157.754 158.310  0.00  0.00    -0.307 N 
ATOM      2  C7  UNL     1     150.621 156.722 159.191  0.00  0.00    +0.200 A 
ATOM      3  N2  UNL     1     151.281 155.746 158.611  0.00  0.00    -0.214 NA
ATOM      4  C8  UNL     1     151.526 156.174 157.331  0.00  0.00    +0.091 A 
ATOM      5  C9  UNL     1     152.212 155.526 156.294  0.00  0.00    +0.030 A 
ATOM      6  C10 UNL     1     152.336 156.173 155.059  0.00  0.00    +0.002 A 
ATOM      7  C11 UNL     1     151.786 157.440 154.861  0.00  0.00    +0.002 A 
ATOM      8  C12 UNL     1     151.095 158.101 155.884  0.00  0.00    +0.028 A 
ATOM      9  C13 UNL     1     150.985 157.437 157.111  0.00  0.00    +0.070 A 
ATOM     10  N3  UNL     1     150.182 156.759 160.483  0.00  0.00    -0.301 N 
ATOM     11  C14 UNL     1     149.613 155.485 160.967  0.00  0.00    +0.108 C 
ATOM     12  C15 UNL     1     150.624 154.697 161.795  0.00  0.00    +0.032 C 
ATOM     13  C16 UNL     1     151.062 155.488 163.040  0.00  0.00    +0.078 C 
ATOM     14  C17 UNL     1     150.867 157.001 162.851  0.00  0.00    +0.032 C 
ATOM     15  C18 UNL     1     151.139 157.404 161.408  0.00  0.00    +0.108 C 
ENDROOT
BRANCH  13  16
ATOM     16  C19 UNL     1     150.340 154.990 164.290  0.00  0.00    +0.216 C 
ATOM     17  O1  UNL     1     149.566 155.678 164.947  0.00  0.00    -0.276 OA
ATOM     18  N4  UNL     1     150.642 153.689 164.623  0.00  0.00    -0.310 N 
ATOM     19  H21 UNL     1     151.446 153.249 164.196  0.00  0.00    +0.149 HD
BRANCH  18  20
ATOM     20  C20 UNL     1     150.134 153.108 165.844  0.00  0.00    +0.146 C 
BRANCH  20  21
ATOM     21  C21 UNL     1     148.971 152.236 165.498  0.00  0.00    +0.007 A 
ATOM     22  C22 UNL     1     148.642 151.701 164.269  0.00  0.00    +0.013 A 
ATOM     23  C23 UNL     1     147.458 150.911 164.320  0.00  0.00    +0.008 A 
ATOM     24  C24 UNL     1     146.923 150.868 165.587  0.00  0.00    +0.045 A 
ATOM     25  S1  UNL     1     147.844 151.776 166.705  0.00  0.00    -0.100 S 
ENDBRANCH  20  21
ENDBRANCH  18  20
ENDBRANCH  13  16
BRANCH   1  26
ATOM     26  C6  UNL     1     149.624 158.965 158.585  0.00  0.00    +0.160 C 
BRANCH  26  31
ATOM     27  C1  UNL     1     152.081 162.289 162.701  0.00  0.00    +0.044 C 
ATOM     28  C2  UNL     1     151.437 161.446 161.640  0.00  0.00    -0.050 A 
ATOM     29  C3  UNL     1     150.124 160.988 161.784  0.00  0.00    +0.004 A 
ATOM     30  C4  UNL     1     149.542 160.187 160.797  0.00  0.00    +0.005 A 
ATOM     31  C5  UNL     1     150.265 159.820 159.654  0.00  0.00    -0.028 A 
ATOM     32  C25 UNL     1     151.577 160.291 159.510  0.00  0.00    +0.005 A 
ATOM     33  C26 UNL     1     152.160 161.090 160.497  0.00  0.00    +0.004 A 
ENDBRANCH  26  31
ENDBRANCH   1  26
TORSDOF 5
ENDMDL
MODEL 6
REMARK VINA RESULT:    -9.320      3.840      8.661
REMARK INTER + INTRA:         -12.609
REMARK INTER:                 -11.640
REMARK INTRA:                  -0.969
REMARK UNBOUND:                -0.565
REMARK  Name = /home/vital/Documents/PhD_2021/Malaria_codes/data/pdb_ligands_mmv/ligand_84.pdb
REMARK  6 active torsions:
REMARK  status: ('A' for Active; 'I' for Inactive)
REMARK    1  A    between atoms: C1_1  and  C2_2
REMARK    2  A    between atoms: C5_5  and  C6_6
REMARK    3  A    between atoms: C6_6  and  N1_7
REMARK    4  A    between atoms: C16_19  and  C19_22
REMARK    5  A    between atoms: N4_24  and  C20_25
REMARK    6  A    between atoms: C20_25  and  C21_26
REMARK                            x       y       z     vdW  Elec       q    Type
REMARK                         _______ _______ _______ _____ _____    ______ ____
ROOT
ATOM      1  N1  UNL     1     151.877 157.196 164.417  0.00  0.00    -0.307 N 
ATOM      2  C7  UNL     1     151.280 157.165 163.176  0.00  0.00    +0.200 A 
ATOM      3  N2  UNL     1     150.348 156.242 163.120  0.00  0.00    -0.214 NA
ATOM      4  C8  UNL     1     150.298 155.690 164.374  0.00  0.00    +0.091 A 
ATOM      5  C9  UNL     1     149.464 154.674 164.865  0.00  0.00    +0.030 A 
ATOM      6  C10 UNL     1     149.600 154.275 166.200  0.00  0.00    +0.002 A 
ATOM      7  C11 UNL     1     150.549 154.875 167.028  0.00  0.00    +0.002 A 
ATOM      8  C12 UNL     1     151.391 155.889 166.556  0.00  0.00    +0.028 A 
ATOM      9  C13 UNL     1     151.237 156.274 165.218  0.00  0.00    +0.070 A 
ATOM     10  N3  UNL     1     151.668 157.999 162.167  0.00  0.00    -0.301 N 
ATOM     11  C14 UNL     1     151.762 157.348 160.845  0.00  0.00    +0.108 C 
ATOM     12  C15 UNL     1     150.522 157.616 159.997  0.00  0.00    +0.032 C 
ATOM     13  C16 UNL     1     150.339 159.122 159.737  0.00  0.00    +0.078 C 
ATOM     14  C17 UNL     1     151.035 159.973 160.811  0.00  0.00    +0.032 C 
ATOM     15  C18 UNL     1     150.956 159.296 162.173  0.00  0.00    +0.108 C 
ENDROOT
BRANCH  13  16
ATOM     16  C19 UNL     1     150.815 159.501 158.337  0.00  0.00    +0.216 C 
ATOM     17  O1  UNL     1     151.183 160.629 158.027  0.00  0.00    -0.276 OA
ATOM     18  N4  UNL     1     150.791 158.456 157.442  0.00  0.00    -0.310 N 
ATOM     19  H21 UNL     1     150.270 157.621 157.679  0.00  0.00    +0.149 HD
BRANCH  18  20
ATOM     20  C20 UNL     1     151.099 158.676 156.048  0.00  0.00    +0.146 C 
BRANCH  20  21
ATOM     21  C21 UNL     1     151.398 157.355 155.420  0.00  0.00    +0.007 A 
ATOM     22  C22 UNL     1     151.164 156.094 155.933  0.00  0.00    +0.013 A 
ATOM     23  C23 UNL     1     151.579 155.061 155.045  0.00  0.00    +0.008 A 
ATOM     24  C24 UNL     1     152.115 155.567 153.883  0.00  0.00    +0.045 A 
ATOM     25  S1  UNL     1     152.117 157.276 153.866  0.00  0.00    -0.100 S 
ENDBRANCH  20  21
ENDBRANCH  18  20
ENDBRANCH  13  16
BRANCH   1  26
ATOM     26  C6  UNL     1     152.988 158.045 164.820  0.00  0.00    +0.160 C 
BRANCH  26  31
ATOM     27  C1  UNL     1     151.261 163.249 166.807  0.00  0.00    +0.044 C 
ATOM     28  C2  UNL     1     151.722 161.914 166.301  0.00  0.00    -0.050 A 
ATOM     29  C3  UNL     1     152.673 161.820 165.281  0.00  0.00    +0.004 A 
ATOM     30  C4  UNL     1     153.080 160.571 164.805  0.00  0.00    +0.005 A 
ATOM     31  C5  UNL     1     152.534 159.392 165.331  0.00  0.00    -0.028 A 
ATOM     32  C25 UNL     1     151.588 159.492 166.360  0.00  0.00    +0.005 A 
ATOM     33  C26 UNL     1     151.181 160.740 166.835  0.00  0.00    +0.004 A 
ENDBRANCH  26  31
ENDBRANCH   1  26
TORSDOF 5
ENDMDL
MODEL 7
REMARK VINA RESULT:    -9.060      4.083      9.826
REMARK INTER + INTRA:         -12.273
REMARK INTER:                 -11.655
REMARK INTRA:                  -0.618
REMARK UNBOUND:                -0.565
REMARK  Name = /home/vital/Documents/PhD_2021/Malaria_codes/data/pdb_ligands_mmv/ligand_84.pdb
REMARK  6 active torsions:
REMARK  status: ('A' for Active; 'I' for Inactive)
REMARK    1  A    between atoms: C1_1  and  C2_2
REMARK    2  A    between atoms: C5_5  and  C6_6
REMARK    3  A    between atoms: C6_6  and  N1_7
REMARK    4  A    between atoms: C16_19  and  C19_22
REMARK    5  A    between atoms: N4_24  and  C20_25
REMARK    6  A    between atoms: C20_25  and  C21_26
REMARK                            x       y       z     vdW  Elec       q    Type
REMARK                         _______ _______ _______ _____ _____    ______ ____
ROOT
ATOM      1  N1  UNL     1     151.683 159.158 166.461  0.00  0.00    -0.307 N 
ATOM      2  C7  UNL     1     151.895 159.615 165.178  0.00  0.00    +0.200 A 
ATOM      3  N2  UNL     1     152.863 160.502 165.144  0.00  0.00    -0.214 NA
ATOM      4  C8  UNL     1     153.331 160.590 166.430  0.00  0.00    +0.091 A 
ATOM      5  C9  UNL     1     154.372 161.376 166.944  0.00  0.00    +0.030 A 
ATOM      6  C10 UNL     1     154.671 161.292 168.309  0.00  0.00    +0.002 A 
ATOM      7  C11 UNL     1     153.945 160.442 169.145  0.00  0.00    +0.002 A 
ATOM      8  C12 UNL     1     152.901 159.651 168.650  0.00  0.00    +0.028 A 
ATOM      9  C13 UNL     1     152.621 159.750 167.282  0.00  0.00    +0.070 A 
ATOM     10  N3  UNL     1     151.147 159.178 164.123  0.00  0.00    -0.301 N 
ATOM     11  C14 UNL     1     150.742 160.244 163.185  0.00  0.00    +0.108 C 
ATOM     12  C15 UNL     1     151.649 160.285 161.958  0.00  0.00    +0.032 C 
ATOM     13  C16 UNL     1     151.591 158.961 161.176  0.00  0.00    +0.078 C 
ATOM     14  C17 UNL     1     151.150 157.791 162.071  0.00  0.00    +0.032 C 
ATOM     15  C18 UNL     1     151.690 157.959 163.485  0.00  0.00    +0.108 C 
ENDROOT
BRANCH  13  16
ATOM     16  C19 UNL     1     150.692 159.085 159.949  0.00  0.00    +0.216 C 
ATOM     17  O1  UNL     1     149.477 158.918 159.975  0.00  0.00    -0.276 OA
ATOM     18  N4  UNL     1     151.372 159.399 158.794  0.00  0.00    -0.310 N 
ATOM     19  H21 UNL     1     152.379 159.298 158.777  0.00  0.00    +0.149 HD
BRANCH  18  20
ATOM     20  C20 UNL     1     150.685 159.436 157.524  0.00  0.00    +0.146 C 
BRANCH  20  21
ATOM     21  C21 UNL     1     150.974 158.163 156.798  0.00  0.00    +0.007 A 
ATOM     22  C22 UNL     1     150.288 156.966 156.868  0.00  0.00    +0.013 A 
ATOM     23  C23 UNL     1     150.853 155.967 156.026  0.00  0.00    +0.008 A 
ATOM     24  C24 UNL     1     151.951 156.433 155.339  0.00  0.00    +0.045 A 
ATOM     25  S1  UNL     1     152.295 158.066 155.710  0.00  0.00    -0.100 S 
ENDBRANCH  20  21
ENDBRANCH  18  20
ENDBRANCH  13  16
BRANCH   1  26
ATOM     26  C6  UNL     1     150.655 158.221 166.885  0.00  0.00    +0.160 C 
BRANCH  26  31
ATOM     27  C1  UNL     1     152.662 152.780 167.497  0.00  0.00    +0.044 C 
ATOM     28  C2  UNL     1     152.133 154.175 167.351  0.00  0.00    -0.050 A 
ATOM     29  C3  UNL     1     150.829 154.409 166.904  0.00  0.00    +0.004 A 
ATOM     30  C4  UNL     1     150.355 155.714 166.753  0.00  0.00    +0.005 A 
ATOM     31  C5  UNL     1     151.179 156.812 167.037  0.00  0.00    -0.028 A 
ATOM     32  C25 UNL     1     152.481 156.573 167.495  0.00  0.00    +0.005 A 
ATOM     33  C26 UNL     1     152.956 155.268 167.644  0.00  0.00    +0.004 A 
ENDBRANCH  26  31
ENDBRANCH   1  26
TORSDOF 5
ENDMDL
MODEL 8
REMARK VINA RESULT:    -8.878      3.809      9.272
REMARK INTER + INTRA:         -12.038
REMARK INTER:                 -10.930
REMARK INTRA:                  -1.108
REMARK UNBOUND:                -0.565
REMARK  Name = /home/vital/Documents/PhD_2021/Malaria_codes/data/pdb_ligands_mmv/ligand_84.pdb
REMARK  6 active torsions:
REMARK  status: ('A' for Active; 'I' for Inactive)
REMARK    1  A    between atoms: C1_1  and  C2_2
REMARK    2  A    between atoms: C5_5  and  C6_6
REMARK    3  A    between atoms: C6_6  and  N1_7
REMARK    4  A    between atoms: C16_19  and  C19_22
REMARK    5  A    between atoms: N4_24  and  C20_25
REMARK    6  A    between atoms: C20_25  and  C21_26
REMARK                            x       y       z     vdW  Elec       q    Type
REMARK                         _______ _______ _______ _____ _____    ______ ____
ROOT
ATOM      1  N1  UNL     1     151.496 159.511 164.050  0.00  0.00    -0.307 N 
ATOM      2  C7  UNL     1     150.814 159.732 162.873  0.00  0.00    +0.200 A 
ATOM      3  N2  UNL     1     150.030 160.781 162.969  0.00  0.00    -0.214 NA
ATOM      4  C8  UNL     1     150.245 161.291 164.223  0.00  0.00    +0.091 A 
ATOM      5  C9  UNL     1     149.676 162.419 164.833  0.00  0.00    +0.030 A 
ATOM      6  C10 UNL     1     150.059 162.746 166.139  0.00  0.00    +0.002 A 
ATOM      7  C11 UNL     1     150.988 161.963 166.825  0.00  0.00    +0.002 A 
ATOM      8  C12 UNL     1     151.564 160.832 166.234  0.00  0.00    +0.028 A 
ATOM      9  C13 UNL     1     151.169 160.525 164.926  0.00  0.00    +0.070 A 
ATOM     10  N3  UNL     1     150.960 158.915 161.790  0.00  0.00    -0.301 N 
ATOM     11  C14 UNL     1     149.696 158.592 161.098  0.00  0.00    +0.108 C 
ATOM     12  C15 UNL     1     149.493 159.464 159.863  0.00  0.00    +0.032 C 
ATOM     13  C16 UNL     1     150.623 159.253 158.840  0.00  0.00    +0.078 C 
ATOM     14  C17 UNL     1     151.903 158.723 159.507  0.00  0.00    +0.032 C 
ATOM     15  C18 UNL     1     152.071 159.316 160.900  0.00  0.00    +0.108 C 
ENDROOT
BRANCH  13  16
ATOM     16  C19 UNL     1     150.174 158.337 157.704  0.00  0.00    +0.216 C 
ATOM     17  O1  UNL     1     149.083 158.425 157.151  0.00  0.00    -0.276 OA
ATOM     18  N4  UNL     1     151.109 157.390 157.353  0.00  0.00    -0.310 N 
ATOM     19  H21 UNL     1     151.883 157.211 157.980  0.00  0.00    +0.149 HD
BRANCH  18  20
ATOM     20  C20 UNL     1     150.793 156.373 156.377  0.00  0.00    +0.146 C 
BRANCH  20  21
ATOM     21  C21 UNL     1     151.594 156.641 155.146  0.00  0.00    +0.007 A 
ATOM     22  C22 UNL     1     152.146 157.837 154.731  0.00  0.00    +0.013 A 
ATOM     23  C23 UNL     1     152.852 157.711 153.500  0.00  0.00    +0.008 A 
ATOM     24  C24 UNL     1     152.818 156.423 153.017  0.00  0.00    +0.045 A 
ATOM     25  S1  UNL     1     151.938 155.375 154.043  0.00  0.00    -0.100 S 
ENDBRANCH  20  21
ENDBRANCH  18  20
ENDBRANCH  13  16
BRANCH   1  26
ATOM     26  C6  UNL     1     152.400 158.406 164.329  0.00  0.00    +0.160 C 
BRANCH  26  31
ATOM     27  C1  UNL     1     149.717 153.838 166.769  0.00  0.00    +0.044 C 
ATOM     28  C2  UNL     1     150.422 155.008 166.149  0.00  0.00    -0.050 A 
ATOM     29  C3  UNL     1     151.010 155.997 166.943  0.00  0.00    +0.004 A 
ATOM     30  C4  UNL     1     151.647 157.093 166.354  0.00  0.00    +0.005 A 
ATOM     31  C5  UNL     1     151.698 157.226 164.960  0.00  0.00    -0.028 A 
ATOM     32  C25 UNL     1     151.117 156.226 164.168  0.00  0.00    +0.005 A 
ATOM     33  C26 UNL     1     150.479 155.132 164.757  0.00  0.00    +0.004 A 
ENDBRANCH  26  31
ENDBRANCH   1  26
TORSDOF 5
ENDMDL
MODEL 9
REMARK VINA RESULT:    -8.869      3.829      8.645
REMARK INTER + INTRA:         -12.025
REMARK INTER:                 -11.147
REMARK INTRA:                  -0.878
REMARK UNBOUND:                -0.565
REMARK  Name = /home/vital/Documents/PhD_2021/Malaria_codes/data/pdb_ligands_mmv/ligand_84.pdb
REMARK  6 active torsions:
REMARK  status: ('A' for Active; 'I' for Inactive)
REMARK    1  A    between atoms: C1_1  and  C2_2
REMARK    2  A    between atoms: C5_5  and  C6_6
REMARK    3  A    between atoms: C6_6  and  N1_7
REMARK    4  A    between atoms: C16_19  and  C19_22
REMARK    5  A    between atoms: N4_24  and  C20_25
REMARK    6  A    between atoms: C20_25  and  C21_26
REMARK                            x       y       z     vdW  Elec       q    Type
REMARK                         _______ _______ _______ _____ _____    ______ ____
ROOT
ATOM      1  N1  UNL     1     151.194 155.969 163.738  0.00  0.00    -0.307 N 
ATOM      2  C7  UNL     1     150.752 156.105 162.439  0.00  0.00    +0.200 A 
ATOM      3  N2  UNL     1     149.817 155.225 162.162  0.00  0.00    -0.214 NA
ATOM      4  C8  UNL     1     149.604 154.531 163.324  0.00  0.00    +0.091 A 
ATOM      5  C9  UNL     1     148.699 153.491 163.585  0.00  0.00    +0.030 A 
ATOM      6  C10 UNL     1     148.664 152.934 164.869  0.00  0.00    +0.002 A 
ATOM      7  C11 UNL     1     149.515 153.400 165.871  0.00  0.00    +0.002 A 
ATOM      8  C12 UNL     1     150.427 154.434 165.628  0.00  0.00    +0.028 A 
ATOM      9  C13 UNL     1     150.444 154.980 164.339  0.00  0.00    +0.070 A 
ATOM     10  N3  UNL     1     151.275 157.039 161.592  0.00  0.00    -0.301 N 
ATOM     11  C14 UNL     1     151.518 156.546 160.222  0.00  0.00    +0.108 C 
ATOM     12  C15 UNL     1     150.396 156.953 159.271  0.00  0.00    +0.032 C 
ATOM     13  C16 UNL     1     150.273 158.484 159.176  0.00  0.00    +0.078 C 
ATOM     14  C17 UNL     1     150.848 159.180 160.421  0.00  0.00    +0.032 C 
ATOM     15  C18 UNL     1     150.591 158.349 161.671  0.00  0.00    +0.108 C 
ENDROOT
BRANCH  13  16
ATOM     16  C19 UNL     1     150.923 159.010 157.900  0.00  0.00    +0.216 C 
ATOM     17  O1  UNL     1     151.338 160.157 157.771  0.00  0.00    -0.276 OA
ATOM     18  N4  UNL     1     150.999 158.077 156.891  0.00  0.00    -0.310 N 
ATOM     19  H21 UNL     1     150.444 157.234 156.963  0.00  0.00    +0.149 HD
BRANCH  18  20
ATOM     20  C20 UNL     1     151.480 158.449 155.581  0.00  0.00    +0.146 C 
BRANCH  20  21
ATOM     21  C21 UNL     1     151.773 157.200 154.818  0.00  0.00    +0.007 A 
ATOM     22  C22 UNL     1     151.480 155.896 155.169  0.00  0.00    +0.013 A 
ATOM     23  C23 UNL     1     151.909 154.960 154.186  0.00  0.00    +0.008 A 
ATOM     24  C24 UNL     1     152.516 155.578 153.116  0.00  0.00    +0.045 A 
ATOM     25  S1  UNL     1     152.566 157.277 153.300  0.00  0.00    -0.100 S 
ENDBRANCH  20  21
ENDBRANCH  18  20
ENDBRANCH  13  16
BRANCH   1  26
ATOM     26  C6  UNL     1     152.262 156.727 164.369  0.00  0.00    +0.160 C 
BRANCH  26  31
ATOM     27  C1  UNL     1     150.292 161.169 167.595  0.00  0.00    +0.044 C 
ATOM     28  C2  UNL     1     150.814 160.035 166.764  0.00  0.00    -0.050 A 
ATOM     29  C3  UNL     1     151.272 160.249 165.461  0.00  0.00    +0.004 A 
ATOM     30  C4  UNL     1     151.738 159.180 164.690  0.00  0.00    +0.005 A 
ATOM     31  C5  UNL     1     151.744 157.876 165.204  0.00  0.00    -0.028 A 
ATOM     32  C25 UNL     1     151.294 157.669 166.514  0.00  0.00    +0.005 A 
ATOM     33  C26 UNL     1     150.826 158.737 167.284  0.00  0.00    +0.004 A 
ENDBRANCH  26  31
ENDBRANCH   1  26
TORSDOF 5
ENDMDL
