MODEL 1
REMARK VINA RESULT:    -9.533      0.000      0.000
REMARK INTER + INTRA:         -10.826
REMARK INTER:                 -10.648
REMARK INTRA:                  -0.178
REMARK UNBOUND:                -0.178
REMARK  Name = /home/vital/Documents/PhD_2021/Malaria_codes/data/pdb_ligands_mmv/ligand_314.pdb
REMARK  2 active torsions:
REMARK  status: ('A' for Active; 'I' for Inactive)
REMARK    1  A    between atoms: C4_5  and  N1_6
REMARK    2  A    between atoms: N4_17  and  C13_18
REMARK                            x       y       z     vdW  Elec       q    Type
REMARK                         _______ _______ _______ _____ _____    ______ ____
ROOT
ATOM      1  N1  UNL     1     151.351 155.872 156.922  0.00  0.00    -0.297 N 
ATOM      2  C5  UNL     1     151.326 156.918 157.891  0.00  0.00    +0.164 A 
ATOM      3  N2  UNL     1     151.604 158.195 157.547  0.00  0.00    -0.227 NA
ATOM      4  C6  UNL     1     151.535 159.123 158.517  0.00  0.00    +0.091 A 
ATOM      5  C7  UNL     1     151.803 160.451 158.209  0.00  0.00    +0.030 A 
ATOM      6  C8  UNL     1     151.742 161.450 159.182  0.00  0.00    +0.002 A 
ATOM      7  C9  UNL     1     151.407 161.114 160.487  0.00  0.00    +0.002 A 
ATOM      8  C10 UNL     1     151.136 159.783 160.807  0.00  0.00    +0.030 A 
ATOM      9  C11 UNL     1     151.194 158.781 159.846  0.00  0.00    +0.091 A 
ATOM     10  N3  UNL     1     150.928 157.511 160.200  0.00  0.00    -0.227 NA
ATOM     11  C12 UNL     1     151.006 156.571 159.233  0.00  0.00    +0.164 A 
ATOM     12  N4  UNL     1     150.764 155.195 159.523  0.00  0.00    -0.297 N 
ATOM     13  H3  UNL     1     150.497 155.330 157.036  0.00  0.00    +0.154 HD
ATOM     14  H8  UNL     1     151.520 154.657 159.105  0.00  0.00    +0.154 HD
ENDROOT
BRANCH   1  19
ATOM     15 BR1  UNL     1     153.239 155.782 151.109  0.00  0.00    -0.050 Br
ATOM     16  C1  UNL     1     152.656 155.830 152.906  0.00  0.00    +0.018 A 
ATOM     17  C2  UNL     1     151.573 155.053 153.305  0.00  0.00    +0.017 A 
ATOM     18  C3  UNL     1     151.147 155.091 154.637  0.00  0.00    +0.024 A 
ATOM     19  C4  UNL     1     151.777 155.921 155.578  0.00  0.00    +0.033 A 
ATOM     20  C19 UNL     1     152.887 156.665 155.159  0.00  0.00    +0.024 A 
ATOM     21  C20 UNL     1     153.319 156.633 153.828  0.00  0.00    +0.017 A 
ENDBRANCH   1  19
BRANCH  12  22
ATOM     22  C13 UNL     1     150.290 154.614 160.717  0.00  0.00    +0.033 A 
ATOM     23  C14 UNL     1     151.046 154.571 161.895  0.00  0.00    +0.024 A 
ATOM     24  C15 UNL     1     150.514 154.048 163.079  0.00  0.00    +0.017 A 
ATOM     25  C16 UNL     1     149.203 153.584 163.100  0.00  0.00    +0.018 A 
ATOM     26 BR2  UNL     1     148.479 152.880 164.698  0.00  0.00    -0.050 Br
ATOM     27  C17 UNL     1     148.418 153.648 161.954  0.00  0.00    +0.017 A 
ATOM     28  C18 UNL     1     148.958 154.172 160.774  0.00  0.00    +0.024 A 
ENDBRANCH  12  22
TORSDOF 2
ENDMDL
MODEL 2
REMARK VINA RESULT:    -9.513      0.081      7.227
REMARK INTER + INTRA:         -10.803
REMARK INTER:                 -10.632
REMARK INTRA:                  -0.171
REMARK UNBOUND:                -0.178
REMARK  Name = /home/vital/Documents/PhD_2021/Malaria_codes/data/pdb_ligands_mmv/ligand_314.pdb
REMARK  2 active torsions:
REMARK  status: ('A' for Active; 'I' for Inactive)
REMARK    1  A    between atoms: C4_5  and  N1_6
REMARK    2  A    between atoms: N4_17  and  C13_18
REMARK                            x       y       z     vdW  Elec       q    Type
REMARK                         _______ _______ _______ _____ _____    ______ ____
ROOT
ATOM      1  N1  UNL     1     150.760 155.236 159.566  0.00  0.00    -0.297 N 
ATOM      2  C5  UNL     1     150.982 156.610 159.257  0.00  0.00    +0.164 A 
ATOM      3  N2  UNL     1     150.890 157.564 160.209  0.00  0.00    -0.227 NA
ATOM      4  C6  UNL     1     151.137 158.832 159.837  0.00  0.00    +0.091 A 
ATOM      5  C7  UNL     1     151.064 159.847 160.784  0.00  0.00    +0.030 A 
ATOM      6  C8  UNL     1     151.315 161.177 160.445  0.00  0.00    +0.002 A 
ATOM      7  C9  UNL     1     151.645 161.499 159.135  0.00  0.00    +0.002 A 
ATOM      8  C10 UNL     1     151.720 160.488 158.177  0.00  0.00    +0.030 A 
ATOM      9  C11 UNL     1     151.472 159.160 158.503  0.00  0.00    +0.091 A 
ATOM     10  N3  UNL     1     151.554 158.219 157.547  0.00  0.00    -0.227 NA
ATOM     11  C12 UNL     1     151.296 156.943 157.910  0.00  0.00    +0.164 A 
ATOM     12  N4  UNL     1     151.336 155.883 156.956  0.00  0.00    -0.297 N 
ATOM     13  H3  UNL     1     151.524 154.703 159.157  0.00  0.00    +0.154 HD
ATOM     14  H8  UNL     1     150.491 155.330 157.079  0.00  0.00    +0.154 HD
ENDROOT
BRANCH   1  19
ATOM     15 BR1  UNL     1     148.506 152.947 164.767  0.00  0.00    -0.050 Br
ATOM     16  C1  UNL     1     149.221 153.644 163.163  0.00  0.00    +0.018 A 
ATOM     17  C2  UNL     1     148.458 153.626 161.999  0.00  0.00    +0.017 A 
ATOM     18  C3  UNL     1     148.991 154.146 160.814  0.00  0.00    +0.024 A 
ATOM     19  C4  UNL     1     150.295 154.664 160.769  0.00  0.00    +0.033 A 
ATOM     20  C19 UNL     1     151.027 154.703 161.962  0.00  0.00    +0.024 A 
ATOM     21  C20 UNL     1     150.502 154.186 163.152  0.00  0.00    +0.017 A 
ENDBRANCH   1  19
BRANCH  12  22
ATOM     22  C13 UNL     1     151.761 155.920 155.612  0.00  0.00    +0.033 A 
ATOM     23  C14 UNL     1     152.885 156.640 155.187  0.00  0.00    +0.024 A 
ATOM     24  C15 UNL     1     153.314 156.595 153.857  0.00  0.00    +0.017 A 
ATOM     25  C16 UNL     1     152.634 155.802 152.938  0.00  0.00    +0.018 A 
ATOM     26 BR2  UNL     1     153.213 155.736 151.140  0.00  0.00    -0.050 Br
ATOM     27  C17 UNL     1     151.537 155.049 153.341  0.00  0.00    +0.017 A 
ATOM     28  C18 UNL     1     151.114 155.100 154.674  0.00  0.00    +0.024 A 
ENDBRANCH  12  22
TORSDOF 2
ENDMDL
MODEL 3
REMARK VINA RESULT:    -8.963      0.858      7.319
REMARK INTER + INTRA:         -10.190
REMARK INTER:                 -10.333
REMARK INTRA:                   0.143
REMARK UNBOUND:                -0.178
REMARK  Name = /home/vital/Documents/PhD_2021/Malaria_codes/data/pdb_ligands_mmv/ligand_314.pdb
REMARK  2 active torsions:
REMARK  status: ('A' for Active; 'I' for Inactive)
REMARK    1  A    between atoms: C4_5  and  N1_6
REMARK    2  A    between atoms: N4_17  and  C13_18
REMARK                            x       y       z     vdW  Elec       q    Type
REMARK                         _______ _______ _______ _____ _____    ______ ____
ROOT
ATOM      1  N1  UNL     1     150.500 155.327 160.115  0.00  0.00    -0.297 N 
ATOM      2  C5  UNL     1     150.877 156.696 159.982  0.00  0.00    +0.164 A 
ATOM      3  N2  UNL     1     150.834 157.539 161.037  0.00  0.00    -0.227 NA
ATOM      4  C6  UNL     1     151.228 158.806 160.829  0.00  0.00    +0.091 A 
ATOM      5  C7  UNL     1     151.210 159.708 161.887  0.00  0.00    +0.030 A 
ATOM      6  C8  UNL     1     151.613 161.033 161.720  0.00  0.00    +0.002 A 
ATOM      7  C9  UNL     1     152.041 161.467 160.472  0.00  0.00    +0.002 A 
ATOM      8  C10 UNL     1     152.061 160.570 159.403  0.00  0.00    +0.030 A 
ATOM      9  C11 UNL     1     151.663 159.248 159.558  0.00  0.00    +0.091 A 
ATOM     10  N3  UNL     1     151.698 158.420 158.500  0.00  0.00    -0.227 NA
ATOM     11  C12 UNL     1     151.292 157.146 158.698  0.00  0.00    +0.164 A 
ATOM     12  N4  UNL     1     151.273 156.204 157.625  0.00  0.00    -0.297 N 
ATOM     13  H3  UNL     1     151.226 154.766 159.675  0.00  0.00    +0.154 HD
ATOM     14  H8  UNL     1     150.370 155.735 157.649  0.00  0.00    +0.154 HD
ENDROOT
BRANCH   1  19
ATOM     15 BR1  UNL     1     148.215 152.303 164.911  0.00  0.00    -0.050 Br
ATOM     16  C1  UNL     1     148.903 153.248 163.426  0.00  0.00    +0.018 A 
ATOM     17  C2  UNL     1     150.177 153.804 163.489  0.00  0.00    +0.017 A 
ATOM     18  C3  UNL     1     150.683 154.501 162.386  0.00  0.00    +0.024 A 
ATOM     19  C4  UNL     1     149.918 154.674 161.222  0.00  0.00    +0.033 A 
ATOM     20  C19 UNL     1     148.654 154.073 161.172  0.00  0.00    +0.024 A 
ATOM     21  C20 UNL     1     148.140 153.375 162.271  0.00  0.00    +0.017 A 
ENDBRANCH   1  19
BRANCH  12  22
ATOM     22  C13 UNL     1     151.768 156.349 156.313  0.00  0.00    +0.033 A 
ATOM     23  C14 UNL     1     152.385 157.521 155.857  0.00  0.00    +0.024 A 
ATOM     24  C15 UNL     1     152.926 157.601 154.569  0.00  0.00    +0.017 A 
ATOM     25  C16 UNL     1     152.876 156.493 153.729  0.00  0.00    +0.018 A 
ATOM     26 BR2  UNL     1     153.608 156.596 151.990  0.00  0.00    -0.050 Br
ATOM     27  C17 UNL     1     152.301 155.306 154.170  0.00  0.00    +0.017 A 
ATOM     28  C18 UNL     1     151.762 155.235 155.460  0.00  0.00    +0.024 A 
ENDBRANCH  12  22
TORSDOF 2
ENDMDL
MODEL 4
REMARK VINA RESULT:    -8.707      5.842      9.191
REMARK INTER + INTRA:          -9.903
REMARK INTER:                  -9.904
REMARK INTRA:                   0.001
REMARK UNBOUND:                -0.178
REMARK  Name = /home/vital/Documents/PhD_2021/Malaria_codes/data/pdb_ligands_mmv/ligand_314.pdb
REMARK  2 active torsions:
REMARK  status: ('A' for Active; 'I' for Inactive)
REMARK    1  A    between atoms: C4_5  and  N1_6
REMARK    2  A    between atoms: N4_17  and  C13_18
REMARK                            x       y       z     vdW  Elec       q    Type
REMARK                         _______ _______ _______ _____ _____    ______ ____
ROOT
ATOM      1  N1  UNL     1     150.281 155.319 166.267  0.00  0.00    -0.297 N 
ATOM      2  C5  UNL     1     150.059 155.018 164.891  0.00  0.00    +0.164 A 
ATOM      3  N2  UNL     1     150.679 155.716 163.913  0.00  0.00    -0.227 NA
ATOM      4  C6  UNL     1     150.430 155.352 162.644  0.00  0.00    +0.091 A 
ATOM      5  C7  UNL     1     151.052 156.034 161.605  0.00  0.00    +0.030 A 
ATOM      6  C8  UNL     1     150.827 155.689 160.272  0.00  0.00    +0.002 A 
ATOM      7  C9  UNL     1     149.964 154.645 159.971  0.00  0.00    +0.002 A 
ATOM      8  C10 UNL     1     149.334 153.954 161.006  0.00  0.00    +0.030 A 
ATOM      9  C11 UNL     1     149.550 154.288 162.338  0.00  0.00    +0.091 A 
ATOM     10  N3  UNL     1     148.920 153.596 163.303  0.00  0.00    -0.227 NA
ATOM     11  C12 UNL     1     149.155 153.963 164.582  0.00  0.00    +0.164 A 
ATOM     12  N4  UNL     1     148.511 153.301 165.669  0.00  0.00    -0.297 N 
ATOM     13  H3  UNL     1     150.464 154.440 166.746  0.00  0.00    +0.154 HD
ATOM     14  H8  UNL     1     148.142 154.019 166.288  0.00  0.00    +0.154 HD
ENDROOT
BRANCH   1  19
ATOM     15 BR1  UNL     1     153.425 159.811 168.970  0.00  0.00    -0.050 Br
ATOM     16  C1  UNL     1     152.448 158.435 168.119  0.00  0.00    +0.018 A 
ATOM     17  C2  UNL     1     153.012 157.171 167.975  0.00  0.00    +0.017 A 
ATOM     18  C3  UNL     1     152.284 156.156 167.346  0.00  0.00    +0.024 A 
ATOM     19  C4  UNL     1     150.999 156.394 166.832  0.00  0.00    +0.033 A 
ATOM     20  C19 UNL     1     150.441 157.664 167.023  0.00  0.00    +0.024 A 
ATOM     21  C20 UNL     1     151.163 158.686 167.650  0.00  0.00    +0.017 A 
ENDBRANCH   1  19
BRANCH  12  22
ATOM     22  C13 UNL     1     147.701 152.146 165.645  0.00  0.00    +0.033 A 
ATOM     23  C14 UNL     1     147.469 151.403 164.481  0.00  0.00    +0.024 A 
ATOM     24  C15 UNL     1     146.717 150.224 164.513  0.00  0.00    +0.017 A 
ATOM     25  C16 UNL     1     146.208 149.762 165.722  0.00  0.00    +0.018 A 
ATOM     26 BR2  UNL     1     145.193 148.168 165.769  0.00  0.00    -0.050 Br
ATOM     27  C17 UNL     1     146.455 150.461 166.898  0.00  0.00    +0.017 A 
ATOM     28  C18 UNL     1     147.208 151.640 166.858  0.00  0.00    +0.024 A 
ENDBRANCH  12  22
TORSDOF 2
ENDMDL
MODEL 5
REMARK VINA RESULT:    -8.422      5.834      9.470
REMARK INTER + INTRA:          -9.585
REMARK INTER:                  -9.577
REMARK INTRA:                  -0.008
REMARK UNBOUND:                -0.178
REMARK  Name = /home/vital/Documents/PhD_2021/Malaria_codes/data/pdb_ligands_mmv/ligand_314.pdb
REMARK  2 active torsions:
REMARK  status: ('A' for Active; 'I' for Inactive)
REMARK    1  A    between atoms: C4_5  and  N1_6
REMARK    2  A    between atoms: N4_17  and  C13_18
REMARK                            x       y       z     vdW  Elec       q    Type
REMARK                         _______ _______ _______ _____ _____    ______ ____
ROOT
ATOM      1  N1  UNL     1     148.510 153.267 165.602  0.00  0.00    -0.297 N 
ATOM      2  C5  UNL     1     149.227 153.933 164.565  0.00  0.00    +0.164 A 
ATOM      3  N2  UNL     1     149.062 153.589 163.268  0.00  0.00    -0.227 NA
ATOM      4  C6  UNL     1     149.759 154.283 162.353  0.00  0.00    +0.091 A 
ATOM      5  C7  UNL     1     149.615 153.972 161.007  0.00  0.00    +0.030 A 
ATOM      6  C8  UNL     1     150.316 154.667 160.020  0.00  0.00    +0.002 A 
ATOM      7  C9  UNL     1     151.178 155.692 160.387  0.00  0.00    +0.002 A 
ATOM      8  C10 UNL     1     151.331 156.012 161.736  0.00  0.00    +0.030 A 
ATOM      9  C11 UNL     1     150.637 155.327 162.727  0.00  0.00    +0.091 A 
ATOM     10  N3  UNL     1     150.818 155.668 164.014  0.00  0.00    -0.227 NA
ATOM     11  C12 UNL     1     150.129 154.967 164.942  0.00  0.00    +0.164 A 
ATOM     12  N4  UNL     1     150.276 155.245 166.334  0.00  0.00    -0.297 N 
ATOM     13  H3  UNL     1     148.117 153.983 166.209  0.00  0.00    +0.154 HD
ATOM     14  H8  UNL     1     150.414 154.355 166.809  0.00  0.00    +0.154 HD
ENDROOT
BRANCH   1  19
ATOM     15 BR1  UNL     1     145.100 148.197 165.435  0.00  0.00    -0.050 Br
ATOM     16  C1  UNL     1     146.144 149.771 165.469  0.00  0.00    +0.018 A 
ATOM     17  C2  UNL     1     146.314 150.465 166.664  0.00  0.00    +0.017 A 
ATOM     18  C3  UNL     1     147.090 151.628 166.684  0.00  0.00    +0.024 A 
ATOM     19  C4  UNL     1     147.683 152.128 165.514  0.00  0.00    +0.033 A 
ATOM     20  C19 UNL     1     147.527 151.391 164.333  0.00  0.00    +0.024 A 
ATOM     21  C20 UNL     1     146.751 150.226 164.304  0.00  0.00    +0.017 A 
ENDBRANCH   1  19
BRANCH  12  22
ATOM     22  C13 UNL     1     150.978 156.298 166.956  0.00  0.00    +0.033 A 
ATOM     23  C14 UNL     1     152.318 156.193 167.348  0.00  0.00    +0.024 A 
ATOM     24  C15 UNL     1     152.999 157.285 167.898  0.00  0.00    +0.017 A 
ATOM     25  C16 UNL     1     152.348 158.506 168.037  0.00  0.00    +0.018 A 
ATOM     26 BR2  UNL     1     153.266 159.984 168.777  0.00  0.00    -0.050 Br
ATOM     27  C17 UNL     1     151.029 158.647 167.621  0.00  0.00    +0.017 A 
ATOM     28  C18 UNL     1     150.354 157.551 167.072  0.00  0.00    +0.024 A 
ENDBRANCH  12  22
TORSDOF 2
ENDMDL
MODEL 6
REMARK VINA RESULT:    -8.080      4.607      9.455
REMARK INTER + INTRA:          -9.203
REMARK INTER:                  -8.886
REMARK INTRA:                  -0.317
REMARK UNBOUND:                -0.178
REMARK  Name = /home/vital/Documents/PhD_2021/Malaria_codes/data/pdb_ligands_mmv/ligand_314.pdb
REMARK  2 active torsions:
REMARK  status: ('A' for Active; 'I' for Inactive)
REMARK    1  A    between atoms: C4_5  and  N1_6
REMARK    2  A    between atoms: N4_17  and  C13_18
REMARK                            x       y       z     vdW  Elec       q    Type
REMARK                         _______ _______ _______ _____ _____    ______ ____
ROOT
ATOM      1  N1  UNL     1     151.707 159.547 164.264  0.00  0.00    -0.297 N 
ATOM      2  C5  UNL     1     151.273 158.191 164.344  0.00  0.00    +0.164 A 
ATOM      3  N2  UNL     1     151.097 157.582 165.537  0.00  0.00    -0.227 NA
ATOM      4  C6  UNL     1     150.664 156.310 165.522  0.00  0.00    +0.091 A 
ATOM      5  C7  UNL     1     150.460 155.645 166.725  0.00  0.00    +0.030 A 
ATOM      6  C8  UNL     1     150.008 154.325 166.758  0.00  0.00    +0.002 A 
ATOM      7  C9  UNL     1     149.757 153.657 165.568  0.00  0.00    +0.002 A 
ATOM      8  C10 UNL     1     149.959 154.315 164.354  0.00  0.00    +0.030 A 
ATOM      9  C11 UNL     1     150.408 155.629 164.309  0.00  0.00    +0.091 A 
ATOM     10  N3  UNL     1     150.592 156.223 163.117  0.00  0.00    -0.227 NA
ATOM     11  C12 UNL     1     151.038 157.499 163.123  0.00  0.00    +0.164 A 
ATOM     12  N4  UNL     1     151.283 158.199 161.904  0.00  0.00    -0.297 N 
ATOM     13  H3  UNL     1     151.094 160.026 163.607  0.00  0.00    +0.154 HD
ATOM     14  H8  UNL     1     152.198 158.638 161.984  0.00  0.00    +0.154 HD
ENDROOT
BRANCH   1  19
ATOM     15 BR1  UNL     1     153.455 163.458 168.625  0.00  0.00    -0.050 Br
ATOM     16  C1  UNL     1     152.928 162.235 167.284  0.00  0.00    +0.018 A 
ATOM     17  C2  UNL     1     151.576 162.022 167.032  0.00  0.00    +0.017 A 
ATOM     18  C3  UNL     1     151.192 161.117 166.037  0.00  0.00    +0.024 A 
ATOM     19  C4  UNL     1     152.146 160.397 165.301  0.00  0.00    +0.033 A 
ATOM     20  C19 UNL     1     153.499 160.657 165.549  0.00  0.00    +0.024 A 
ATOM     21  C20 UNL     1     153.893 161.560 166.543  0.00  0.00    +0.017 A 
ENDBRANCH   1  19
BRANCH  12  22
ATOM     22  C13 UNL     1     150.993 157.802 160.583  0.00  0.00    +0.033 A 
ATOM     23  C14 UNL     1     150.261 158.596 159.692  0.00  0.00    +0.024 A 
ATOM     24  C15 UNL     1     150.055 158.197 158.367  0.00  0.00    +0.017 A 
ATOM     25  C16 UNL     1     150.605 157.003 157.912  0.00  0.00    +0.018 A 
ATOM     26 BR2  UNL     1     150.331 156.462 156.122  0.00  0.00    -0.050 Br
ATOM     27  C17 UNL     1     151.367 156.213 158.766  0.00  0.00    +0.017 A 
ATOM     28  C18 UNL     1     151.568 156.620 160.090  0.00  0.00    +0.024 A 
ENDBRANCH  12  22
TORSDOF 2
ENDMDL
MODEL 7
REMARK VINA RESULT:    -7.742      4.749      7.644
REMARK INTER + INTRA:          -8.825
REMARK INTER:                  -8.694
REMARK INTRA:                  -0.132
REMARK UNBOUND:                -0.178
REMARK  Name = /home/vital/Documents/PhD_2021/Malaria_codes/data/pdb_ligands_mmv/ligand_314.pdb
REMARK  2 active torsions:
REMARK  status: ('A' for Active; 'I' for Inactive)
REMARK    1  A    between atoms: C4_5  and  N1_6
REMARK    2  A    between atoms: N4_17  and  C13_18
REMARK                            x       y       z     vdW  Elec       q    Type
REMARK                         _______ _______ _______ _____ _____    ______ ____
ROOT
ATOM      1  N1  UNL     1     151.454 158.234 162.127  0.00  0.00    -0.297 N 
ATOM      2  C5  UNL     1     151.277 157.483 163.327  0.00  0.00    +0.164 A 
ATOM      3  N2  UNL     1     150.913 156.182 163.289  0.00  0.00    -0.227 NA
ATOM      4  C6  UNL     1     150.791 155.543 164.465  0.00  0.00    +0.091 A 
ATOM      5  C7  UNL     1     150.427 154.202 164.476  0.00  0.00    +0.030 A 
ATOM      6  C8  UNL     1     150.291 153.495 165.672  0.00  0.00    +0.002 A 
ATOM      7  C9  UNL     1     150.522 154.142 166.879  0.00  0.00    +0.002 A 
ATOM      8  C10 UNL     1     150.886 155.489 166.879  0.00  0.00    +0.030 A 
ATOM      9  C11 UNL     1     151.025 156.201 165.694  0.00  0.00    +0.091 A 
ATOM     10  N3  UNL     1     151.376 157.498 165.742  0.00  0.00    -0.227 NA
ATOM     11  C12 UNL     1     151.490 158.152 164.564  0.00  0.00    +0.164 A 
ATOM     12  N4  UNL     1     151.835 159.536 164.521  0.00  0.00    -0.297 N 
ATOM     13  H3  UNL     1     152.341 158.729 162.205  0.00  0.00    +0.154 HD
ATOM     14  H8  UNL     1     151.181 159.993 163.888  0.00  0.00    +0.154 HD
ENDROOT
BRANCH   1  19
ATOM     15 BR1  UNL     1     150.498 156.528 156.337  0.00  0.00    -0.050 Br
ATOM     16  C1  UNL     1     150.775 157.064 158.127  0.00  0.00    +0.018 A 
ATOM     17  C2  UNL     1     151.285 156.158 159.051  0.00  0.00    +0.017 A 
ATOM     18  C3  UNL     1     151.490 156.561 160.375  0.00  0.00    +0.024 A 
ATOM     19  C4  UNL     1     151.166 157.859 160.799  0.00  0.00    +0.033 A 
ATOM     20  C19 UNL     1     150.688 158.762 159.840  0.00  0.00    +0.024 A 
ATOM     21  C20 UNL     1     150.480 158.367 158.514  0.00  0.00    +0.017 A 
ENDBRANCH   1  19
BRANCH  12  22
ATOM     22  C13 UNL     1     152.238 160.380 165.576  0.00  0.00    +0.033 A 
ATOM     23  C14 UNL     1     153.581 160.644 165.869  0.00  0.00    +0.024 A 
ATOM     24  C15 UNL     1     153.939 161.542 166.881  0.00  0.00    +0.017 A 
ATOM     25  C16 UNL     1     152.949 162.208 167.595  0.00  0.00    +0.018 A 
ATOM     26 BR2  UNL     1     153.428 163.425 168.959  0.00  0.00    -0.050 Br
ATOM     27  C17 UNL     1     151.607 161.992 167.299  0.00  0.00    +0.017 A 
ATOM     28  C18 UNL     1     151.258 161.092 166.286  0.00  0.00    +0.024 A 
ENDBRANCH  12  22
TORSDOF 2
ENDMDL
