MODEL 1
REMARK VINA RESULT:    -9.205      0.000      0.000
REMARK INTER + INTRA:         -13.823
REMARK INTER:                 -12.972
REMARK INTRA:                  -0.851
REMARK UNBOUND:                -0.851
REMARK  Name = /home/vital/Documents/PhD_2021/Malaria_codes/data/pdb_ligands_mmv/ligand_322.pdb
REMARK  9 active torsions:
REMARK  status: ('A' for Active; 'I' for Inactive)
REMARK    1  A    between atoms: N2_5  and  C4_6
REMARK    2  A    between atoms: C4_6  and  C5_7
REMARK    3  A    between atoms: C5_7  and  C6_8
REMARK    4  A    between atoms: C6_8  and  N3_9
REMARK    5  A    between atoms: C21_27  and  C22_28
REMARK    6  A    between atoms: C25_31  and  O2_32
REMARK    7  A    between atoms: O2_32  and  C26_33
REMARK    8  A    between atoms: C27_34  and  O3_35
REMARK    9  A    between atoms: O3_35  and  C28_36
REMARK                            x       y       z     vdW  Elec       q    Type
REMARK                         _______ _______ _______ _____ _____    ______ ____
ROOT
ATOM      1  C1  UNL     1     151.582 157.094 162.310  0.00  0.00    +0.068 A 
ATOM      2  C2  UNL     1     151.195 158.172 161.600  0.00  0.00    +0.229 A 
ATOM      3  N1  UNL     1     151.079 159.450 162.111  0.00  0.00    -0.202 NA
ATOM      4  C3  UNL     1     151.401 159.605 163.351  0.00  0.00    +0.204 A 
ATOM      5  N2  UNL     1     151.868 158.628 164.206  0.00  0.00    -0.317 N 
ATOM      6  C10 UNL     1     152.009 157.333 163.724  0.00  0.00    +0.136 A 
ATOM      7  N5  UNL     1     152.498 156.326 164.380  0.00  0.00    -0.283 NA
ATOM      8  O1  UNL     1     150.852 158.062 160.255  0.00  0.00    -0.437 OA
ATOM      9  C11 UNL     1     151.198 156.927 159.549  0.00  0.00    +0.142 A 
ATOM     10  C12 UNL     1     151.600 155.758 160.207  0.00  0.00    +0.008 A 
ATOM     11  C13 UNL     1     151.941 154.631 159.449  0.00  0.00    +0.009 A 
ATOM     12  C14 UNL     1     151.877 154.674 158.056  0.00  0.00    +0.009 A 
ATOM     13  C15 UNL     1     151.467 155.838 157.389  0.00  0.00    -0.014 A 
ATOM     14  C16 UNL     1     151.398 155.874 155.986  0.00  0.00    +0.008 A 
ATOM     15  C17 UNL     1     150.991 157.029 155.318  0.00  0.00    +0.001 A 
ATOM     16  C18 UNL     1     150.647 158.163 156.044  0.00  0.00    +0.001 A 
ATOM     17  C19 UNL     1     150.710 158.142 157.439  0.00  0.00    +0.012 A 
ATOM     18  C20 UNL     1     151.119 156.987 158.138  0.00  0.00    +0.025 A 
ATOM     19  C21 UNL     1     151.632 155.714 161.725  0.00  0.00    +0.091 C 
ATOM     20  H11 UNL     1     152.737 156.554 165.341  0.00  0.00    +0.188 HD
ENDROOT
BRANCH  19  21
ATOM     21  C22 UNL     1     150.523 154.815 162.282  0.00  0.00    -0.032 A 
ATOM     22  C23 UNL     1     149.321 154.614 161.587  0.00  0.00    +0.008 A 
ATOM     23  C24 UNL     1     148.321 153.791 162.113  0.00  0.00    +0.050 A 
ATOM     24  C25 UNL     1     148.499 153.157 163.346  0.00  0.00    +0.162 A 
ATOM     25  C27 UNL     1     149.696 153.354 164.060  0.00  0.00    +0.162 A 
ATOM     26  C29 UNL     1     150.694 154.179 163.525  0.00  0.00    +0.054 A 
BRANCH  24  27
ATOM     27  O2  UNL     1     147.571 152.332 163.935  0.00  0.00    -0.491 OA
ATOM     28  C26 UNL     1     147.309 151.086 163.308  0.00  0.00    +0.277 C 
ENDBRANCH  24  27
BRANCH  25  29
ATOM     29  O3  UNL     1     149.794 152.702 165.265  0.00  0.00    -0.491 OA
ATOM     30  C28 UNL     1     150.724 151.632 165.361  0.00  0.00    +0.277 C 
ENDBRANCH  25  29
ENDBRANCH  19  21
BRANCH   5  31
ATOM     31  C4  UNL     1     152.265 159.026 165.557  0.00  0.00    +0.126 C 
BRANCH  31  32
ATOM     32  C5  UNL     1     151.474 158.270 166.626  0.00  0.00    +0.043 C 
BRANCH  32  33
ATOM     33  C6  UNL     1     152.344 157.741 167.766  0.00  0.00    +0.124 C 
BRANCH  33  34
ATOM     34  N3  UNL     1     152.403 156.292 167.767  0.00  0.00    -0.337 N 
ATOM     35  C7  UNL     1     153.533 155.529 167.836  0.00  0.00    +0.106 A 
ATOM     36  C8  UNL     1     153.082 154.231 167.799  0.00  0.00    +0.130 A 
ATOM     37  N4  UNL     1     151.715 154.193 167.713  0.00  0.00    -0.244 NA
ATOM     38  C9  UNL     1     151.332 155.449 167.706  0.00  0.00    +0.199 A 
ENDBRANCH  33  34
ENDBRANCH  32  33
ENDBRANCH  31  32
ENDBRANCH   5  31
TORSDOF 7
ENDMDL
MODEL 2
REMARK VINA RESULT:    -9.154      2.468      7.967
REMARK INTER + INTRA:         -13.751
REMARK INTER:                 -12.857
REMARK INTRA:                  -0.894
REMARK UNBOUND:                -0.851
REMARK  Name = /home/vital/Documents/PhD_2021/Malaria_codes/data/pdb_ligands_mmv/ligand_322.pdb
REMARK  9 active torsions:
REMARK  status: ('A' for Active; 'I' for Inactive)
REMARK    1  A    between atoms: N2_5  and  C4_6
REMARK    2  A    between atoms: C4_6  and  C5_7
REMARK    3  A    between atoms: C5_7  and  C6_8
REMARK    4  A    between atoms: C6_8  and  N3_9
REMARK    5  A    between atoms: C21_27  and  C22_28
REMARK    6  A    between atoms: C25_31  and  O2_32
REMARK    7  A    between atoms: O2_32  and  C26_33
REMARK    8  A    between atoms: C27_34  and  O3_35
REMARK    9  A    between atoms: O3_35  and  C28_36
REMARK                            x       y       z     vdW  Elec       q    Type
REMARK                         _______ _______ _______ _____ _____    ______ ____
ROOT
ATOM      1  C1  UNL     1     151.334 156.718 164.237  0.00  0.00    +0.068 A 
ATOM      2  C2  UNL     1     152.344 157.559 163.938  0.00  0.00    +0.229 A 
ATOM      3  N1  UNL     1     152.985 157.614 162.715  0.00  0.00    -0.202 NA
ATOM      4  C3  UNL     1     152.545 156.818 161.799  0.00  0.00    +0.204 A 
ATOM      5  N2  UNL     1     151.491 155.937 161.915  0.00  0.00    -0.317 N 
ATOM      6  C10 UNL     1     150.815 155.861 163.127  0.00  0.00    +0.136 A 
ATOM      7  N5  UNL     1     149.767 155.137 163.369  0.00  0.00    -0.283 NA
ATOM      8  O1  UNL     1     152.844 158.449 164.885  0.00  0.00    -0.437 OA
ATOM      9  C11 UNL     1     152.121 158.708 166.033  0.00  0.00    +0.142 A 
ATOM     10  C12 UNL     1     151.063 157.878 166.426  0.00  0.00    +0.008 A 
ATOM     11  C13 UNL     1     150.359 158.180 167.598  0.00  0.00    +0.009 A 
ATOM     12  C14 UNL     1     150.712 159.291 168.365  0.00  0.00    +0.009 A 
ATOM     13  C15 UNL     1     151.775 160.122 167.983  0.00  0.00    -0.014 A 
ATOM     14  C16 UNL     1     152.130 161.237 168.761  0.00  0.00    +0.008 A 
ATOM     15  C17 UNL     1     153.187 162.066 168.386  0.00  0.00    +0.001 A 
ATOM     16  C18 UNL     1     153.903 161.792 167.227  0.00  0.00    +0.001 A 
ATOM     17  C19 UNL     1     153.563 160.688 166.443  0.00  0.00    +0.012 A 
ATOM     18  C20 UNL     1     152.498 159.834 166.801  0.00  0.00    +0.025 A 
ATOM     19  C21 UNL     1     150.713 156.652 165.602  0.00  0.00    +0.091 C 
ATOM     20  H11 UNL     1     149.490 154.559 162.580  0.00  0.00    +0.188 HD
ENDROOT
BRANCH  19  21
ATOM     21  C22 UNL     1     151.082 155.359 166.336  0.00  0.00    -0.032 A 
ATOM     22  C23 UNL     1     152.252 155.257 167.103  0.00  0.00    +0.008 A 
ATOM     23  C24 UNL     1     152.572 154.069 167.766  0.00  0.00    +0.050 A 
ATOM     24  C25 UNL     1     151.732 152.956 167.671  0.00  0.00    +0.162 A 
ATOM     25  C27 UNL     1     150.556 153.038 166.900  0.00  0.00    +0.162 A 
ATOM     26  C29 UNL     1     150.243 154.234 166.240  0.00  0.00    +0.054 A 
BRANCH  24  27
ATOM     27  O2  UNL     1     151.967 151.751 168.288  0.00  0.00    -0.491 OA
ATOM     28  C26 UNL     1     153.269 151.522 168.805  0.00  0.00    +0.277 C 
ENDBRANCH  24  27
BRANCH  25  29
ATOM     29  O3  UNL     1     149.785 151.902 166.851  0.00  0.00    -0.491 OA
ATOM     30  C28 UNL     1     148.383 152.064 166.691  0.00  0.00    +0.277 C 
ENDBRANCH  25  29
ENDBRANCH  19  21
BRANCH   5  31
ATOM     31  C4  UNL     1     151.089 155.181 160.728  0.00  0.00    +0.126 C 
BRANCH  31  32
ATOM     32  C5  UNL     1     150.615 156.103 159.603  0.00  0.00    +0.043 C 
BRANCH  32  33
ATOM     33  C6  UNL     1     151.499 156.049 158.358  0.00  0.00    +0.124 C 
BRANCH  33  34
ATOM     34  N3  UNL     1     151.500 157.312 157.646  0.00  0.00    -0.337 N 
ATOM     35  C7  UNL     1     151.499 157.475 156.290  0.00  0.00    +0.106 A 
ATOM     36  C8  UNL     1     151.507 158.837 156.102  0.00  0.00    +0.130 A 
ATOM     37  N4  UNL     1     151.510 159.495 157.304  0.00  0.00    -0.244 NA
ATOM     38  C9  UNL     1     151.495 158.551 158.216  0.00  0.00    +0.199 A 
ENDBRANCH  33  34
ENDBRANCH  32  33
ENDBRANCH  31  32
ENDBRANCH   5  31
TORSDOF 7
ENDMDL
MODEL 3
REMARK VINA RESULT:    -8.925      3.117      8.667
REMARK INTER + INTRA:         -13.428
REMARK INTER:                 -12.254
REMARK INTRA:                  -1.175
REMARK UNBOUND:                -0.851
REMARK  Name = /home/vital/Documents/PhD_2021/Malaria_codes/data/pdb_ligands_mmv/ligand_322.pdb
REMARK  9 active torsions:
REMARK  status: ('A' for Active; 'I' for Inactive)
REMARK    1  A    between atoms: N2_5  and  C4_6
REMARK    2  A    between atoms: C4_6  and  C5_7
REMARK    3  A    between atoms: C5_7  and  C6_8
REMARK    4  A    between atoms: C6_8  and  N3_9
REMARK    5  A    between atoms: C21_27  and  C22_28
REMARK    6  A    between atoms: C25_31  and  O2_32
REMARK    7  A    between atoms: O2_32  and  C26_33
REMARK    8  A    between atoms: C27_34  and  O3_35
REMARK    9  A    between atoms: O3_35  and  C28_36
REMARK                            x       y       z     vdW  Elec       q    Type
REMARK                         _______ _______ _______ _____ _____    ______ ____
ROOT
ATOM      1  C1  UNL     1     151.486 157.689 163.979  0.00  0.00    +0.068 A 
ATOM      2  C2  UNL     1     150.808 156.556 163.708  0.00  0.00    +0.229 A 
ATOM      3  N1  UNL     1     150.153 156.298 162.519  0.00  0.00    -0.202 NA
ATOM      4  C3  UNL     1     150.239 157.206 161.606  0.00  0.00    +0.204 A 
ATOM      5  N2  UNL     1     150.935 158.394 161.693  0.00  0.00    -0.317 N 
ATOM      6  C10 UNL     1     151.614 158.684 162.869  0.00  0.00    +0.136 A 
ATOM      7  N5  UNL     1     152.366 159.721 163.078  0.00  0.00    -0.283 NA
ATOM      8  O1  UNL     1     150.699 155.539 164.653  0.00  0.00    -0.437 OA
ATOM      9  C11 UNL     1     151.534 155.532 165.753  0.00  0.00    +0.142 A 
ATOM     10  C12 UNL     1     152.267 156.669 166.115  0.00  0.00    +0.008 A 
ATOM     11  C13 UNL     1     153.100 156.615 167.239  0.00  0.00    +0.009 A 
ATOM     12  C14 UNL     1     153.194 155.442 167.989  0.00  0.00    +0.009 A 
ATOM     13  C15 UNL     1     152.457 154.301 167.639  0.00  0.00    -0.014 A 
ATOM     14  C16 UNL     1     152.551 153.125 168.401  0.00  0.00    +0.008 A 
ATOM     15  C17 UNL     1     151.820 151.988 168.057  0.00  0.00    +0.001 A 
ATOM     16  C18 UNL     1     150.985 152.012 166.946  0.00  0.00    +0.001 A 
ATOM     17  C19 UNL     1     150.881 153.174 166.179  0.00  0.00    +0.012 A 
ATOM     18  C20 UNL     1     151.610 154.337 166.506  0.00  0.00    +0.025 A 
ATOM     19  C21 UNL     1     152.128 157.950 165.311  0.00  0.00    +0.091 C 
ATOM     20  H11 UNL     1     152.381 160.366 162.293  0.00  0.00    +0.188 HD
ENDROOT
BRANCH  19  21
ATOM     21  C22 UNL     1     151.384 159.031 166.102  0.00  0.00    -0.032 A 
ATOM     22  C23 UNL     1     150.182 158.757 166.770  0.00  0.00    +0.008 A 
ATOM     23  C24 UNL     1     149.518 159.757 167.486  0.00  0.00    +0.050 A 
ATOM     24  C25 UNL     1     150.040 161.052 167.546  0.00  0.00    +0.162 A 
ATOM     25  C27 UNL     1     151.243 161.346 166.876  0.00  0.00    +0.162 A 
ATOM     26  C29 UNL     1     151.902 160.337 166.161  0.00  0.00    +0.054 A 
BRANCH  24  27
ATOM     27  O2  UNL     1     149.456 162.094 168.226  0.00  0.00    -0.491 OA
ATOM     28  C26 UNL     1     148.312 162.699 167.642  0.00  0.00    +0.277 C 
ENDBRANCH  24  27
BRANCH  25  29
ATOM     29  O3  UNL     1     151.689 162.642 166.977  0.00  0.00    -0.491 OA
ATOM     30  C28 UNL     1     151.618 163.454 165.814  0.00  0.00    +0.277 C 
ENDBRANCH  25  29
ENDBRANCH  19  21
BRANCH   5  31
ATOM     31  C4  UNL     1     150.983 159.253 160.509  0.00  0.00    +0.126 C 
BRANCH  31  32
ATOM     32  C5  UNL     1     150.135 158.692 159.366  0.00  0.00    +0.043 C 
BRANCH  32  33
ATOM     33  C6  UNL     1     150.763 158.895 157.988  0.00  0.00    +0.124 C 
BRANCH  33  34
ATOM     34  N3  UNL     1     151.266 157.651 157.439  0.00  0.00    -0.337 N 
ATOM     35  C7  UNL     1     151.742 157.459 156.174  0.00  0.00    +0.106 A 
ATOM     36  C8  UNL     1     152.089 156.129 156.128  0.00  0.00    +0.130 A 
ATOM     37  N4  UNL     1     151.839 155.519 157.329  0.00  0.00    -0.244 NA
ATOM     38  C9  UNL     1     151.353 156.462 158.103  0.00  0.00    +0.199 A 
ENDBRANCH  33  34
ENDBRANCH  32  33
ENDBRANCH  31  32
ENDBRANCH   5  31
TORSDOF 7
ENDMDL
MODEL 4
REMARK VINA RESULT:    -8.743      2.239      2.932
REMARK INTER + INTRA:         -13.172
REMARK INTER:                 -13.230
REMARK INTRA:                   0.058
REMARK UNBOUND:                -0.851
REMARK  Name = /home/vital/Documents/PhD_2021/Malaria_codes/data/pdb_ligands_mmv/ligand_322.pdb
REMARK  9 active torsions:
REMARK  status: ('A' for Active; 'I' for Inactive)
REMARK    1  A    between atoms: N2_5  and  C4_6
REMARK    2  A    between atoms: C4_6  and  C5_7
REMARK    3  A    between atoms: C5_7  and  C6_8
REMARK    4  A    between atoms: C6_8  and  N3_9
REMARK    5  A    between atoms: C21_27  and  C22_28
REMARK    6  A    between atoms: C25_31  and  O2_32
REMARK    7  A    between atoms: O2_32  and  C26_33
REMARK    8  A    between atoms: C27_34  and  O3_35
REMARK    9  A    between atoms: O3_35  and  C28_36
REMARK                            x       y       z     vdW  Elec       q    Type
REMARK                         _______ _______ _______ _____ _____    ______ ____
ROOT
ATOM      1  C1  UNL     1     151.527 157.298 163.258  0.00  0.00    +0.068 A 
ATOM      2  C2  UNL     1     151.031 158.347 162.572  0.00  0.00    +0.229 A 
ATOM      3  N1  UNL     1     150.949 159.637 163.060  0.00  0.00    -0.202 NA
ATOM      4  C3  UNL     1     151.416 159.833 164.247  0.00  0.00    +0.204 A 
ATOM      5  N2  UNL     1     152.006 158.891 165.063  0.00  0.00    -0.317 N 
ATOM      6  C10 UNL     1     152.116 157.586 164.602  0.00  0.00    +0.136 A 
ATOM      7  N5  UNL     1     152.705 156.608 165.220  0.00  0.00    -0.283 NA
ATOM      8  O1  UNL     1     150.529 158.191 161.282  0.00  0.00    -0.437 OA
ATOM      9  C11 UNL     1     150.813 157.043 160.569  0.00  0.00    +0.142 A 
ATOM     10  C12 UNL     1     151.319 155.902 161.204  0.00  0.00    +0.008 A 
ATOM     11  C13 UNL     1     151.591 154.760 160.440  0.00  0.00    +0.009 A 
ATOM     12  C14 UNL     1     151.356 154.761 159.065  0.00  0.00    +0.009 A 
ATOM     13  C15 UNL     1     150.842 155.897 158.422  0.00  0.00    -0.014 A 
ATOM     14  C16 UNL     1     150.602 155.892 157.038  0.00  0.00    +0.008 A 
ATOM     15  C17 UNL     1     150.090 157.019 156.395  0.00  0.00    +0.001 A 
ATOM     16  C18 UNL     1     149.812 158.166 157.127  0.00  0.00    +0.001 A 
ATOM     17  C19 UNL     1     150.044 158.187 158.503  0.00  0.00    +0.012 A 
ATOM     18  C20 UNL     1     150.561 157.060 159.177  0.00  0.00    +0.025 A 
ATOM     19  C21 UNL     1     151.536 155.902 162.707  0.00  0.00    +0.091 C 
ATOM     20  H11 UNL     1     153.053 156.869 166.137  0.00  0.00    +0.188 HD
ENDROOT
BRANCH  19  21
ATOM     21  C22 UNL     1     150.524 154.999 163.420  0.00  0.00    -0.032 A 
ATOM     22  C23 UNL     1     149.526 154.313 162.713  0.00  0.00    +0.008 A 
ATOM     23  C24 UNL     1     148.611 153.494 163.381  0.00  0.00    +0.050 A 
ATOM     24  C25 UNL     1     148.671 153.348 164.769  0.00  0.00    +0.162 A 
ATOM     25  C27 UNL     1     149.663 154.035 165.496  0.00  0.00    +0.162 A 
ATOM     26  C29 UNL     1     150.577 154.853 164.817  0.00  0.00    +0.054 A 
BRANCH  24  27
ATOM     27  O2  UNL     1     147.815 152.565 165.506  0.00  0.00    -0.491 OA
ATOM     28  C26 UNL     1     147.711 151.195 165.151  0.00  0.00    +0.277 C 
ENDBRANCH  24  27
BRANCH  25  29
ATOM     29  O3  UNL     1     149.655 153.845 166.856  0.00  0.00    -0.491 OA
ATOM     30  C28 UNL     1     150.652 154.510 167.619  0.00  0.00    +0.277 C 
ENDBRANCH  25  29
ENDBRANCH  19  21
BRANCH   5  31
ATOM     31  C4  UNL     1     152.555 159.336 166.345  0.00  0.00    +0.126 C 
BRANCH  31  32
ATOM     32  C5  UNL     1     151.451 159.665 167.351  0.00  0.00    +0.043 C 
BRANCH  32  33
ATOM     33  C6  UNL     1     151.426 161.135 167.766  0.00  0.00    +0.124 C 
BRANCH  33  34
ATOM     34  N3  UNL     1     151.899 161.317 169.125  0.00  0.00    -0.337 N 
ATOM     35  C7  UNL     1     152.492 160.368 169.908  0.00  0.00    +0.106 A 
ATOM     36  C8  UNL     1     152.752 161.008 171.097  0.00  0.00    +0.130 A 
ATOM     37  N4  UNL     1     152.336 162.313 171.048  0.00  0.00    -0.244 NA
ATOM     38  C9  UNL     1     151.836 162.474 169.845  0.00  0.00    +0.199 A 
ENDBRANCH  33  34
ENDBRANCH  32  33
ENDBRANCH  31  32
ENDBRANCH   5  31
TORSDOF 7
ENDMDL
MODEL 5
REMARK VINA RESULT:    -8.739      3.262      8.812
REMARK INTER + INTRA:         -13.166
REMARK INTER:                 -12.388
REMARK INTRA:                  -0.778
REMARK UNBOUND:                -0.851
REMARK  Name = /home/vital/Documents/PhD_2021/Malaria_codes/data/pdb_ligands_mmv/ligand_322.pdb
REMARK  9 active torsions:
REMARK  status: ('A' for Active; 'I' for Inactive)
REMARK    1  A    between atoms: N2_5  and  C4_6
REMARK    2  A    between atoms: C4_6  and  C5_7
REMARK    3  A    between atoms: C5_7  and  C6_8
REMARK    4  A    between atoms: C6_8  and  N3_9
REMARK    5  A    between atoms: C21_27  and  C22_28
REMARK    6  A    between atoms: C25_31  and  O2_32
REMARK    7  A    between atoms: O2_32  and  C26_33
REMARK    8  A    between atoms: C27_34  and  O3_35
REMARK    9  A    between atoms: O3_35  and  C28_36
REMARK                            x       y       z     vdW  Elec       q    Type
REMARK                         _______ _______ _______ _____ _____    ______ ____
ROOT
ATOM      1  C1  UNL     1     151.468 158.289 161.956  0.00  0.00    +0.068 A 
ATOM      2  C2  UNL     1     150.625 157.247 161.810  0.00  0.00    +0.229 A 
ATOM      3  N1  UNL     1     150.004 156.899 160.626  0.00  0.00    -0.202 NA
ATOM      4  C3  UNL     1     150.292 157.616 159.593  0.00  0.00    +0.204 A 
ATOM      5  N2  UNL     1     151.172 158.678 159.550  0.00  0.00    -0.317 N 
ATOM      6  C10 UNL     1     151.824 159.051 160.718  0.00  0.00    +0.136 A 
ATOM      7  N5  UNL     1     152.726 159.977 160.824  0.00  0.00    -0.283 NA
ATOM      8  O1  UNL     1     150.294 156.433 162.890  0.00  0.00    -0.437 OA
ATOM      9  C11 UNL     1     151.053 156.480 164.043  0.00  0.00    +0.142 A 
ATOM     10  C12 UNL     1     151.945 157.532 164.281  0.00  0.00    +0.008 A 
ATOM     11  C13 UNL     1     152.694 157.538 165.465  0.00  0.00    +0.009 A 
ATOM     12  C14 UNL     1     152.547 156.507 166.395  0.00  0.00    +0.009 A 
ATOM     13  C15 UNL     1     151.650 155.453 166.168  0.00  0.00    -0.014 A 
ATOM     14  C16 UNL     1     151.502 154.422 167.109  0.00  0.00    +0.008 A 
ATOM     15  C17 UNL     1     150.610 153.372 166.888  0.00  0.00    +0.001 A 
ATOM     16  C18 UNL     1     149.855 153.339 165.722  0.00  0.00    +0.001 A 
ATOM     17  C19 UNL     1     149.991 154.358 164.777  0.00  0.00    +0.012 A 
ATOM     18  C20 UNL     1     150.886 155.431 164.977  0.00  0.00    +0.025 A 
ATOM     19  C21 UNL     1     152.069 158.665 163.278  0.00  0.00    +0.091 C 
ATOM     20  H11 UNL     1     152.893 160.471 159.952  0.00  0.00    +0.188 HD
ENDROOT
BRANCH  19  21
ATOM     21  C22 UNL     1     151.475 159.967 163.827  0.00  0.00    -0.032 A 
ATOM     22  C23 UNL     1     150.303 160.523 163.292  0.00  0.00    +0.008 A 
ATOM     23  C24 UNL     1     149.777 161.712 163.806  0.00  0.00    +0.050 A 
ATOM     24  C25 UNL     1     150.413 162.371 164.861  0.00  0.00    +0.162 A 
ATOM     25  C27 UNL     1     151.594 161.830 165.406  0.00  0.00    +0.162 A 
ATOM     26  C29 UNL     1     152.114 160.638 164.885  0.00  0.00    +0.054 A 
BRANCH  24  27
ATOM     27  O2  UNL     1     149.967 163.541 165.427  0.00  0.00    -0.491 OA
ATOM     28  C26 UNL     1     148.767 163.487 166.184  0.00  0.00    +0.277 C 
ENDBRANCH  24  27
BRANCH  25  29
ATOM     29  O3  UNL     1     152.163 162.539 166.436  0.00  0.00    -0.491 OA
ATOM     30  C28 UNL     1     152.144 161.950 167.728  0.00  0.00    +0.277 C 
ENDBRANCH  25  29
ENDBRANCH  19  21
BRANCH   5  31
ATOM     31  C4  UNL     1     151.430 159.308 158.254  0.00  0.00    +0.126 C 
BRANCH  31  32
ATOM     32  C5  UNL     1     150.843 158.493 157.100  0.00  0.00    +0.043 C 
BRANCH  32  33
ATOM     33  C6  UNL     1     151.737 158.463 155.861  0.00  0.00    +0.124 C 
BRANCH  33  34
ATOM     34  N3  UNL     1     151.714 157.165 155.215  0.00  0.00    -0.337 N 
ATOM     35  C7  UNL     1     152.286 156.849 154.016  0.00  0.00    +0.106 A 
ATOM     36  C8  UNL     1     151.992 155.520 153.827  0.00  0.00    +0.130 A 
ATOM     37  N4  UNL     1     151.263 155.028 154.879  0.00  0.00    -0.244 NA
ATOM     38  C9  UNL     1     151.120 156.039 155.704  0.00  0.00    +0.199 A 
ENDBRANCH  33  34
ENDBRANCH  32  33
ENDBRANCH  31  32
ENDBRANCH   5  31
TORSDOF 7
ENDMDL
MODEL 6
REMARK VINA RESULT:    -8.732      1.557      2.284
REMARK INTER + INTRA:         -13.157
REMARK INTER:                 -13.033
REMARK INTRA:                  -0.123
REMARK UNBOUND:                -0.851
REMARK  Name = /home/vital/Documents/PhD_2021/Malaria_codes/data/pdb_ligands_mmv/ligand_322.pdb
REMARK  9 active torsions:
REMARK  status: ('A' for Active; 'I' for Inactive)
REMARK    1  A    between atoms: N2_5  and  C4_6
REMARK    2  A    between atoms: C4_6  and  C5_7
REMARK    3  A    between atoms: C5_7  and  C6_8
REMARK    4  A    between atoms: C6_8  and  N3_9
REMARK    5  A    between atoms: C21_27  and  C22_28
REMARK    6  A    between atoms: C25_31  and  O2_32
REMARK    7  A    between atoms: O2_32  and  C26_33
REMARK    8  A    between atoms: C27_34  and  O3_35
REMARK    9  A    between atoms: O3_35  and  C28_36
REMARK                            x       y       z     vdW  Elec       q    Type
REMARK                         _______ _______ _______ _____ _____    ______ ____
ROOT
ATOM      1  C1  UNL     1     151.614 157.212 162.742  0.00  0.00    +0.068 A 
ATOM      2  C2  UNL     1     151.190 158.261 162.008  0.00  0.00    +0.229 A 
ATOM      3  N1  UNL     1     151.098 159.559 162.472  0.00  0.00    -0.202 NA
ATOM      4  C3  UNL     1     151.481 159.764 163.687  0.00  0.00    +0.204 A 
ATOM      5  N2  UNL     1     151.991 158.823 164.557  0.00  0.00    -0.317 N 
ATOM      6  C10 UNL     1     152.109 157.508 164.122  0.00  0.00    +0.136 A 
ATOM      7  N5  UNL     1     152.631 156.529 164.794  0.00  0.00    -0.283 NA
ATOM      8  O1  UNL     1     150.781 158.095 160.687  0.00  0.00    -0.437 OA
ATOM      9  C11 UNL     1     151.093 156.932 160.012  0.00  0.00    +0.142 A 
ATOM     10  C12 UNL     1     151.529 155.791 160.697  0.00  0.00    +0.008 A 
ATOM     11  C13 UNL     1     151.834 154.634 159.970  0.00  0.00    +0.009 A 
ATOM     12  C14 UNL     1     151.700 154.620 158.581  0.00  0.00    +0.009 A 
ATOM     13  C15 UNL     1     151.257 155.755 157.888  0.00  0.00    -0.014 A 
ATOM     14  C16 UNL     1     151.118 155.734 156.490  0.00  0.00    +0.008 A 
ATOM     15  C17 UNL     1     150.677 156.861 155.797  0.00  0.00    +0.001 A 
ATOM     16  C18 UNL     1     150.368 158.024 156.491  0.00  0.00    +0.001 A 
ATOM     17  C19 UNL     1     150.500 158.061 157.881  0.00  0.00    +0.012 A 
ATOM     18  C20 UNL     1     150.944 156.934 158.605  0.00  0.00    +0.025 A 
ATOM     19  C21 UNL     1     151.636 155.809 162.212  0.00  0.00    +0.091 C 
ATOM     20  H11 UNL     1     152.917 156.797 165.731  0.00  0.00    +0.188 HD
ENDROOT
BRANCH  19  21
ATOM     21  C22 UNL     1     150.557 154.935 162.860  0.00  0.00    -0.032 A 
ATOM     22  C23 UNL     1     149.539 154.340 162.100  0.00  0.00    +0.008 A 
ATOM     23  C24 UNL     1     148.563 153.546 162.710  0.00  0.00    +0.050 A 
ATOM     24  C25 UNL     1     148.581 153.336 164.092  0.00  0.00    +0.162 A 
ATOM     25  C27 UNL     1     149.592 153.932 164.870  0.00  0.00    +0.162 A 
ATOM     26  C29 UNL     1     150.567 154.724 164.250  0.00  0.00    +0.054 A 
BRANCH  24  27
ATOM     27  O2  UNL     1     147.664 152.572 164.773  0.00  0.00    -0.491 OA
ATOM     28  C26 UNL     1     147.643 151.178 164.503  0.00  0.00    +0.277 C 
ENDBRANCH  24  27
BRANCH  25  29
ATOM     29  O3  UNL     1     149.540 153.682 166.220  0.00  0.00    -0.491 OA
ATOM     30  C28 UNL     1     150.575 152.890 166.784  0.00  0.00    +0.277 C 
ENDBRANCH  25  29
ENDBRANCH  19  21
BRANCH   5  31
ATOM     31  C4  UNL     1     152.453 159.275 165.869  0.00  0.00    +0.126 C 
BRANCH  31  32
ATOM     32  C5  UNL     1     152.342 160.793 166.018  0.00  0.00    +0.043 C 
BRANCH  32  33
ATOM     33  C6  UNL     1     151.771 161.232 167.365  0.00  0.00    +0.124 C 
BRANCH  33  34
ATOM     34  N3  UNL     1     150.632 160.423 167.754  0.00  0.00    -0.337 N 
ATOM     35  C7  UNL     1     149.394 160.439 167.177  0.00  0.00    +0.106 A 
ATOM     36  C8  UNL     1     148.665 159.515 167.888  0.00  0.00    +0.130 A 
ATOM     37  N4  UNL     1     149.429 158.943 168.871  0.00  0.00    -0.244 NA
ATOM     38  C9  UNL     1     150.612 159.502 168.760  0.00  0.00    +0.199 A 
ENDBRANCH  33  34
ENDBRANCH  32  33
ENDBRANCH  31  32
ENDBRANCH   5  31
TORSDOF 7
ENDMDL
MODEL 7
REMARK VINA RESULT:    -8.710      3.488      8.751
REMARK INTER + INTRA:         -13.126
REMARK INTER:                 -11.803
REMARK INTRA:                  -1.322
REMARK UNBOUND:                -0.851
REMARK  Name = /home/vital/Documents/PhD_2021/Malaria_codes/data/pdb_ligands_mmv/ligand_322.pdb
REMARK  9 active torsions:
REMARK  status: ('A' for Active; 'I' for Inactive)
REMARK    1  A    between atoms: N2_5  and  C4_6
REMARK    2  A    between atoms: C4_6  and  C5_7
REMARK    3  A    between atoms: C5_7  and  C6_8
REMARK    4  A    between atoms: C6_8  and  N3_9
REMARK    5  A    between atoms: C21_27  and  C22_28
REMARK    6  A    between atoms: C25_31  and  O2_32
REMARK    7  A    between atoms: O2_32  and  C26_33
REMARK    8  A    between atoms: C27_34  and  O3_35
REMARK    9  A    between atoms: O3_35  and  C28_36
REMARK                            x       y       z     vdW  Elec       q    Type
REMARK                         _______ _______ _______ _____ _____    ______ ____
ROOT
ATOM      1  C1  UNL     1     151.935 158.840 164.341  0.00  0.00    +0.068 A 
ATOM      2  C2  UNL     1     151.107 157.910 163.827  0.00  0.00    +0.229 A 
ATOM      3  N1  UNL     1     150.497 157.998 162.590  0.00  0.00    -0.202 NA
ATOM      4  C3  UNL     1     150.782 159.039 161.882  0.00  0.00    +0.204 A 
ATOM      5  N2  UNL     1     151.648 160.055 162.227  0.00  0.00    -0.317 N 
ATOM      6  C10 UNL     1     152.288 159.996 163.458  0.00  0.00    +0.136 A 
ATOM      7  N5  UNL     1     153.177 160.833 163.895  0.00  0.00    -0.283 NA
ATOM      8  O1  UNL     1     150.780 156.762 164.544  0.00  0.00    -0.437 OA
ATOM      9  C11 UNL     1     151.532 156.404 165.646  0.00  0.00    +0.142 A 
ATOM     10  C12 UNL     1     152.409 157.312 166.252  0.00  0.00    +0.008 A 
ATOM     11  C13 UNL     1     153.149 156.905 167.368  0.00  0.00    +0.009 A 
ATOM     12  C14 UNL     1     153.011 155.610 167.870  0.00  0.00    +0.009 A 
ATOM     13  C15 UNL     1     152.129 154.696 167.274  0.00  0.00    -0.014 A 
ATOM     14  C16 UNL     1     151.989 153.396 167.787  0.00  0.00    +0.008 A 
ATOM     15  C17 UNL     1     151.113 152.484 167.198  0.00  0.00    +0.001 A 
ATOM     16  C18 UNL     1     150.365 152.860 166.089  0.00  0.00    +0.001 A 
ATOM     17  C19 UNL     1     150.493 154.149 165.568  0.00  0.00    +0.012 A 
ATOM     18  C20 UNL     1     151.372 155.090 166.145  0.00  0.00    +0.025 A 
ATOM     19  C21 UNL     1     152.523 158.729 165.717  0.00  0.00    +0.091 C 
ATOM     20  H11 UNL     1     153.344 161.606 163.257  0.00  0.00    +0.188 HD
ENDROOT
BRANCH  19  21
ATOM     21  C22 UNL     1     151.909 159.745 166.686  0.00  0.00    -0.032 A 
ATOM     22  C23 UNL     1     150.523 159.948 166.757  0.00  0.00    +0.008 A 
ATOM     23  C24 UNL     1     149.981 160.880 167.647  0.00  0.00    +0.050 A 
ATOM     24  C25 UNL     1     150.814 161.631 168.481  0.00  0.00    +0.162 A 
ATOM     25  C27 UNL     1     152.209 161.445 168.418  0.00  0.00    +0.162 A 
ATOM     26  C29 UNL     1     152.742 160.508 167.523  0.00  0.00    +0.054 A 
BRANCH  24  27
ATOM     27  O2  UNL     1     150.369 162.566 169.384  0.00  0.00    -0.491 OA
ATOM     28  C26 UNL     1     149.413 163.513 168.931  0.00  0.00    +0.277 C 
ENDBRANCH  24  27
BRANCH  25  29
ATOM     29  O3  UNL     1     152.960 162.224 169.264  0.00  0.00    -0.491 OA
ATOM     30  C28 UNL     1     153.525 161.597 170.407  0.00  0.00    +0.277 C 
ENDBRANCH  25  29
ENDBRANCH  19  21
BRANCH   5  31
ATOM     31  C4  UNL     1     151.905 161.107 161.242  0.00  0.00    +0.126 C 
BRANCH  31  32
ATOM     32  C5  UNL     1     152.420 160.533 159.921  0.00  0.00    +0.043 C 
BRANCH  32  33
ATOM     33  C6  UNL     1     151.460 160.745 158.751  0.00  0.00    +0.124 C 
BRANCH  33  34
ATOM     34  N3  UNL     1     151.336 159.552 157.937  0.00  0.00    -0.337 N 
ATOM     35  C7  UNL     1     151.862 159.364 156.691  0.00  0.00    +0.106 A 
ATOM     36  C8  UNL     1     151.474 158.095 156.333  0.00  0.00    +0.130 A 
ATOM     37  N4  UNL     1     150.733 157.514 157.329  0.00  0.00    -0.244 NA
ATOM     38  C9  UNL     1     150.675 158.410 158.287  0.00  0.00    +0.199 A 
ENDBRANCH  33  34
ENDBRANCH  32  33
ENDBRANCH  31  32
ENDBRANCH   5  31
TORSDOF 7
ENDMDL
MODEL 8
REMARK VINA RESULT:    -8.519      3.594      8.856
REMARK INTER + INTRA:         -12.856
REMARK INTER:                 -11.522
REMARK INTRA:                  -1.334
REMARK UNBOUND:                -0.851
REMARK  Name = /home/vital/Documents/PhD_2021/Malaria_codes/data/pdb_ligands_mmv/ligand_322.pdb
REMARK  9 active torsions:
REMARK  status: ('A' for Active; 'I' for Inactive)
REMARK    1  A    between atoms: N2_5  and  C4_6
REMARK    2  A    between atoms: C4_6  and  C5_7
REMARK    3  A    between atoms: C5_7  and  C6_8
REMARK    4  A    between atoms: C6_8  and  N3_9
REMARK    5  A    between atoms: C21_27  and  C22_28
REMARK    6  A    between atoms: C25_31  and  O2_32
REMARK    7  A    between atoms: O2_32  and  C26_33
REMARK    8  A    between atoms: C27_34  and  O3_35
REMARK    9  A    between atoms: O3_35  and  C28_36
REMARK                            x       y       z     vdW  Elec       q    Type
REMARK                         _______ _______ _______ _____ _____    ______ ____
ROOT
ATOM      1  C1  UNL     1     151.477 159.388 163.631  0.00  0.00    +0.068 A 
ATOM      2  C2  UNL     1     150.836 158.280 163.211  0.00  0.00    +0.229 A 
ATOM      3  N1  UNL     1     150.345 158.093 161.933  0.00  0.00    -0.202 NA
ATOM      4  C3  UNL     1     150.557 159.047 161.090  0.00  0.00    +0.204 A 
ATOM      5  N2  UNL     1     151.240 160.220 161.333  0.00  0.00    -0.317 N 
ATOM      6  C10 UNL     1     151.757 160.439 162.603  0.00  0.00    +0.136 A 
ATOM      7  N5  UNL     1     152.479 161.454 162.966  0.00  0.00    -0.283 NA
ATOM      8  O1  UNL     1     150.597 157.216 164.077  0.00  0.00    -0.437 OA
ATOM      9  C11 UNL     1     151.277 157.140 165.276  0.00  0.00    +0.142 A 
ATOM     10  C12 UNL     1     151.960 158.248 165.793  0.00  0.00    +0.008 A 
ATOM     11  C13 UNL     1     152.636 158.124 167.014  0.00  0.00    +0.009 A 
ATOM     12  C14 UNL     1     152.623 156.912 167.705  0.00  0.00    +0.009 A 
ATOM     13  C15 UNL     1     151.935 155.800 167.198  0.00  0.00    -0.014 A 
ATOM     14  C16 UNL     1     151.920 154.583 167.901  0.00  0.00    +0.008 A 
ATOM     15  C17 UNL     1     151.236 153.475 167.401  0.00  0.00    +0.001 A 
ATOM     16  C18 UNL     1     150.558 153.568 166.192  0.00  0.00    +0.001 A 
ATOM     17  C19 UNL     1     150.563 154.770 165.482  0.00  0.00    +0.012 A 
ATOM     18  C20 UNL     1     151.247 155.906 165.966  0.00  0.00    +0.025 A 
ATOM     19  C21 UNL     1     151.936 159.570 165.048  0.00  0.00    +0.091 C 
ATOM     20  H11 UNL     1     152.602 162.140 162.227  0.00  0.00    +0.188 HD
ENDROOT
BRANCH  19  21
ATOM     21  C22 UNL     1     151.099 160.617 165.791  0.00  0.00    -0.032 A 
ATOM     22  C23 UNL     1     149.704 160.670 165.659  0.00  0.00    +0.008 A 
ATOM     23  C24 UNL     1     148.957 161.633 166.344  0.00  0.00    +0.050 A 
ATOM     24  C25 UNL     1     149.590 162.564 167.172  0.00  0.00    +0.162 A 
ATOM     25  C27 UNL     1     150.991 162.529 167.311  0.00  0.00    +0.162 A 
ATOM     26  C29 UNL     1     151.731 161.560 166.621  0.00  0.00    +0.054 A 
BRANCH  24  27
ATOM     27  O2  UNL     1     148.936 163.542 167.882  0.00  0.00    -0.491 OA
ATOM     28  C26 UNL     1     147.517 163.504 167.897  0.00  0.00    +0.277 C 
ENDBRANCH  24  27
BRANCH  25  29
ATOM     29  O3  UNL     1     151.539 163.480 168.137  0.00  0.00    -0.491 OA
ATOM     30  C28 UNL     1     152.178 163.031 169.323  0.00  0.00    +0.277 C 
ENDBRANCH  25  29
ENDBRANCH  19  21
BRANCH   5  31
ATOM     31  C4  UNL     1     151.450 161.140 160.215  0.00  0.00    +0.126 C 
BRANCH  31  32
ATOM     32  C5  UNL     1     152.182 160.465 159.054  0.00  0.00    +0.043 C 
BRANCH  32  33
ATOM     33  C6  UNL     1     151.377 160.449 157.755  0.00  0.00    +0.124 C 
BRANCH  33  34
ATOM     34  N3  UNL     1     151.206 159.102 157.247  0.00  0.00    -0.337 N 
ATOM     35  C7  UNL     1     152.009 158.471 156.340  0.00  0.00    +0.106 A 
ATOM     36  C8  UNL     1     151.442 157.230 156.174  0.00  0.00    +0.130 A 
ATOM     37  N4  UNL     1     150.324 157.096 156.956  0.00  0.00    -0.244 NA
ATOM     38  C9  UNL     1     150.213 158.235 157.600  0.00  0.00    +0.199 A 
ENDBRANCH  33  34
ENDBRANCH  32  33
ENDBRANCH  31  32
ENDBRANCH   5  31
TORSDOF 7
ENDMDL
MODEL 9
REMARK VINA RESULT:    -8.351      2.202      3.097
REMARK INTER + INTRA:         -12.619
REMARK INTER:                 -12.740
REMARK INTRA:                   0.121
REMARK UNBOUND:                -0.851
REMARK  Name = /home/vital/Documents/PhD_2021/Malaria_codes/data/pdb_ligands_mmv/ligand_322.pdb
REMARK  9 active torsions:
REMARK  status: ('A' for Active; 'I' for Inactive)
REMARK    1  A    between atoms: N2_5  and  C4_6
REMARK    2  A    between atoms: C4_6  and  C5_7
REMARK    3  A    between atoms: C5_7  and  C6_8
REMARK    4  A    between atoms: C6_8  and  N3_9
REMARK    5  A    between atoms: C21_27  and  C22_28
REMARK    6  A    between atoms: C25_31  and  O2_32
REMARK    7  A    between atoms: O2_32  and  C26_33
REMARK    8  A    between atoms: C27_34  and  O3_35
REMARK    9  A    between atoms: O3_35  and  C28_36
REMARK                            x       y       z     vdW  Elec       q    Type
REMARK                         _______ _______ _______ _____ _____    ______ ____
ROOT
ATOM      1  C1  UNL     1     151.477 157.200 163.306  0.00  0.00    +0.068 A 
ATOM      2  C2  UNL     1     151.006 158.274 162.642  0.00  0.00    +0.229 A 
ATOM      3  N1  UNL     1     150.932 159.551 163.165  0.00  0.00    -0.202 NA
ATOM      4  C3  UNL     1     151.383 159.708 164.364  0.00  0.00    +0.204 A 
ATOM      5  N2  UNL     1     151.948 158.736 165.163  0.00  0.00    -0.317 N 
ATOM      6  C10 UNL     1     152.049 157.442 164.667  0.00  0.00    +0.136 A 
ATOM      7  N5  UNL     1     152.614 156.440 165.266  0.00  0.00    -0.283 NA
ATOM      8  O1  UNL     1     150.522 158.161 161.341  0.00  0.00    -0.437 OA
ATOM      9  C11 UNL     1     150.802 157.029 160.601  0.00  0.00    +0.142 A 
ATOM     10  C12 UNL     1     151.283 155.864 161.212  0.00  0.00    +0.008 A 
ATOM     11  C13 UNL     1     151.552 154.740 160.420  0.00  0.00    +0.009 A 
ATOM     12  C14 UNL     1     151.339 154.783 159.042  0.00  0.00    +0.009 A 
ATOM     13  C15 UNL     1     150.850 155.943 158.424  0.00  0.00    -0.014 A 
ATOM     14  C16 UNL     1     150.632 155.979 157.036  0.00  0.00    +0.008 A 
ATOM     15  C17 UNL     1     150.145 157.130 156.417  0.00  0.00    +0.001 A 
ATOM     16  C18 UNL     1     149.870 158.261 157.176  0.00  0.00    +0.001 A 
ATOM     17  C19 UNL     1     150.081 158.240 158.556  0.00  0.00    +0.012 A 
ATOM     18  C20 UNL     1     150.573 157.088 159.207  0.00  0.00    +0.025 A 
ATOM     19  C21 UNL     1     151.476 155.820 162.717  0.00  0.00    +0.091 C 
ATOM     20  H11 UNL     1     152.952 156.671 166.196  0.00  0.00    +0.188 HD
ENDROOT
BRANCH  19  21
ATOM     21  C22 UNL     1     150.442 154.911 163.388  0.00  0.00    -0.032 A 
ATOM     22  C23 UNL     1     150.465 154.665 164.769  0.00  0.00    +0.008 A 
ATOM     23  C24 UNL     1     149.513 153.832 165.363  0.00  0.00    +0.050 A 
ATOM     24  C25 UNL     1     148.520 153.224 164.589  0.00  0.00    +0.162 A 
ATOM     25  C27 UNL     1     148.486 153.455 163.200  0.00  0.00    +0.162 A 
ATOM     26  C29 UNL     1     149.444 154.292 162.613  0.00  0.00    +0.054 A 
BRANCH  24  27
ATOM     27  O2  UNL     1     147.546 152.393 165.088  0.00  0.00    -0.491 OA
ATOM     28  C26 UNL     1     147.885 151.580 166.201  0.00  0.00    +0.277 C 
ENDBRANCH  24  27
BRANCH  25  29
ATOM     29  O3  UNL     1     147.485 152.818 162.507  0.00  0.00    -0.491 OA
ATOM     30  C28 UNL     1     146.331 153.577 162.174  0.00  0.00    +0.277 C 
ENDBRANCH  25  29
ENDBRANCH  19  21
BRANCH   5  31
ATOM     31  C4  UNL     1     152.482 159.137 166.464  0.00  0.00    +0.126 C 
BRANCH  31  32
ATOM     32  C5  UNL     1     152.250 160.624 166.739  0.00  0.00    +0.043 C 
BRANCH  32  33
ATOM     33  C6  UNL     1     153.320 161.253 167.630  0.00  0.00    +0.124 C 
BRANCH  33  34
ATOM     34  N3  UNL     1     152.937 161.226 169.028  0.00  0.00    -0.337 N 
ATOM     35  C7  UNL     1     153.444 160.400 169.990  0.00  0.00    +0.106 A 
ATOM     36  C8  UNL     1     152.771 160.745 171.138  0.00  0.00    +0.130 A 
ATOM     37  N4  UNL     1     151.877 161.755 170.894  0.00  0.00    -0.244 NA
ATOM     38  C9  UNL     1     152.007 162.032 169.617  0.00  0.00    +0.199 A 
ENDBRANCH  33  34
ENDBRANCH  32  33
ENDBRANCH  31  32
ENDBRANCH   5  31
TORSDOF 7
ENDMDL
