MODEL 1
REMARK VINA RESULT:    -4.305      0.000      0.000
REMARK INTER + INTRA:          -4.305
REMARK INTER:                  -4.305
REMARK INTRA:                   0.000
REMARK UNBOUND:                 0.000
REMARK  Name = /home/vital/Documents/PhD_2021/Malaria_codes/scripts/../data/pdbqt_ligands/ligand_405_temp.pdb
REMARK                            x       y       z     vdW  Elec       q    Type
REMARK                         _______ _______ _______ _____ _____    ______ ____
ROOT
ATOM      1  C1  UNL     1     143.187 124.050 108.799  0.00  0.00    -0.063 C 
ATOM      2  C2  UNL     1     141.729 124.494 108.877  0.00  0.00    -0.047 C 
ATOM      3  C3  UNL     1     140.850 123.359 109.403  0.00  0.00    -0.063 C 
ATOM      4  C4  UNL     1     141.197 125.124 107.573  0.00  0.00    -0.051 C 
ATOM      5  C5  UNL     1     140.736 124.199 106.442  0.00  0.00    -0.053 C 
ATOM      6  C6  UNL     1     141.788 123.442 105.623  0.00  0.00    -0.050 C 
ATOM      7  C7  UNL     1     142.712 124.223 104.647  0.00  0.00    -0.041 C 
ATOM      8  C8  UNL     1     143.921 124.814 105.375  0.00  0.00    -0.062 C 
ATOM      9  C9  UNL     1     141.926 125.190 103.720  0.00  0.00    -0.033 C 
ATOM     10  C10 UNL     1     141.812 126.670 104.173  0.00  0.00    -0.049 C 
ATOM     11  C11 UNL     1     141.599 127.501 102.892  0.00  0.00    -0.049 C 
ATOM     12  C12 UNL     1     141.461 126.461 101.786  0.00  0.00    -0.032 C 
ATOM     13  C13 UNL     1     141.687 126.894 100.334  0.00  0.00    -0.031 C 
ATOM     14  C14 UNL     1     140.760 128.061  99.955  0.00  0.00    -0.031 C 
ATOM     15  C15 UNL     1     140.474 128.183  98.490  0.00  0.00    -0.084 C 
ATOM     16  C16 UNL     1     140.862 127.300  97.550  0.00  0.00    -0.065 C 
ATOM     17  C17 UNL     1     140.330 127.447  96.140  0.00  0.00    -0.005 C 
ATOM     18  C18 UNL     1     141.137 126.700  95.076  0.00  0.00    +0.062 C 
ATOM     19  O1  UNL     1     140.431 126.815  93.830  0.00  0.00    -0.374 OA
ATOM     20  C19 UNL     1     141.237 126.486  92.691  0.00  0.00    +0.071 C 
ATOM     21  C20 UNL     1     140.381 126.685  91.444  0.00  0.00    +0.068 C 
ATOM     22  O2  UNL     1     139.952 128.044  91.368  0.00  0.00    -0.393 OA
ATOM     23  C21 UNL     1     141.343 125.225  95.447  0.00  0.00    -0.026 C 
ATOM     24  C22 UNL     1     141.257 124.915  96.949  0.00  0.00    -0.041 C 
ATOM     25  C23 UNL     1     141.709 126.068  97.882  0.00  0.00    -0.008 C 
ATOM     26  C24 UNL     1     143.203 126.383  97.628  0.00  0.00    -0.056 C 
ATOM     27  C25 UNL     1     141.465 125.670  99.392  0.00  0.00    -0.029 C 
ATOM     28  C26 UNL     1     142.249 124.414  99.860  0.00  0.00    -0.049 C 
ATOM     29  C27 UNL     1     142.081 124.097 101.357  0.00  0.00    -0.047 C 
ATOM     30  C28 UNL     1     142.396 125.316 102.238  0.00  0.00    -0.026 C 
ATOM     31  C29 UNL     1     143.900 125.661 102.133  0.00  0.00    -0.059 C 
ATOM     32  H   UNL     1     139.429 128.263  92.155  0.00  0.00    +0.000 HD
ENDROOT
TORSDOF 0
ENDMDL
MODEL 2
REMARK VINA RESULT:    -4.223      1.287      1.654
REMARK INTER + INTRA:          -4.223
REMARK INTER:                  -4.223
REMARK INTRA:                   0.000
REMARK UNBOUND:                 0.000
REMARK  Name = /home/vital/Documents/PhD_2021/Malaria_codes/scripts/../data/pdbqt_ligands/ligand_405_temp.pdb
REMARK                            x       y       z     vdW  Elec       q    Type
REMARK                         _______ _______ _______ _____ _____    ______ ____
ROOT
ATOM      1  C1  UNL     1     143.254 122.446 109.728  0.00  0.00    -0.063 C 
ATOM      2  C2  UNL     1     141.755 122.707 109.836  0.00  0.00    -0.047 C 
ATOM      3  C3  UNL     1     141.001 121.407 110.117  0.00  0.00    -0.063 C 
ATOM      4  C4  UNL     1     141.172 123.506 108.650  0.00  0.00    -0.051 C 
ATOM      5  C5  UNL     1     140.833 122.761 107.356  0.00  0.00    -0.053 C 
ATOM      6  C6  UNL     1     141.975 122.285 106.449  0.00  0.00    -0.050 C 
ATOM      7  C7  UNL     1     142.817 123.328 105.662  0.00  0.00    -0.041 C 
ATOM      8  C8  UNL     1     143.942 123.902 106.526  0.00  0.00    -0.062 C 
ATOM      9  C9  UNL     1     141.940 124.359 104.901  0.00  0.00    -0.033 C 
ATOM     10  C10 UNL     1     141.655 125.709 105.610  0.00  0.00    -0.049 C 
ATOM     11  C11 UNL     1     141.367 126.734 104.495  0.00  0.00    -0.049 C 
ATOM     12  C12 UNL     1     141.361 125.906 103.215  0.00  0.00    -0.032 C 
ATOM     13  C13 UNL     1     141.556 126.621 101.875  0.00  0.00    -0.031 C 
ATOM     14  C14 UNL     1     140.509 127.731 101.683  0.00  0.00    -0.031 C 
ATOM     15  C15 UNL     1     140.230 128.089 100.255  0.00  0.00    -0.084 C 
ATOM     16  C16 UNL     1     140.728 127.442  99.184  0.00  0.00    -0.065 C 
ATOM     17  C17 UNL     1     140.201 127.787  97.807  0.00  0.00    -0.005 C 
ATOM     18  C18 UNL     1     141.101 127.341  96.653  0.00  0.00    +0.062 C 
ATOM     19  O1  UNL     1     140.404 127.606  95.426  0.00  0.00    -0.374 OA
ATOM     20  C19 UNL     1     141.257 127.582  94.274  0.00  0.00    +0.071 C 
ATOM     21  C20 UNL     1     140.400 127.914  93.056  0.00  0.00    +0.068 C 
ATOM     22  O2  UNL     1     139.822 129.209  93.213  0.00  0.00    -0.393 OA
ATOM     23  C21 UNL     1     141.467 125.853  96.757  0.00  0.00    -0.026 C 
ATOM     24  C22 UNL     1     141.396 125.265  98.174  0.00  0.00    -0.041 C 
ATOM     25  C23 UNL     1     141.703 126.268  99.315  0.00  0.00    -0.008 C 
ATOM     26  C24 UNL     1     143.155 126.784  99.173  0.00  0.00    -0.056 C 
ATOM     27  C25 UNL     1     141.486 125.575 100.718  0.00  0.00    -0.029 C 
ATOM     28  C26 UNL     1     142.399 124.347 100.977  0.00  0.00    -0.049 C 
ATOM     29  C27 UNL     1     142.249 123.743 102.385  0.00  0.00    -0.047 C 
ATOM     30  C28 UNL     1     142.412 124.806 103.483  0.00  0.00    -0.026 C 
ATOM     31  C29 UNL     1     143.869 125.324 103.493  0.00  0.00    -0.059 C 
ATOM     32  H   UNL     1     139.267 129.221  94.008  0.00  0.00    +0.000 HD
ENDROOT
TORSDOF 0
ENDMDL
MODEL 3
REMARK VINA RESULT:    -4.005      7.488     13.959
REMARK INTER + INTRA:          -4.005
REMARK INTER:                  -4.005
REMARK INTRA:                   0.000
REMARK UNBOUND:                 0.000
REMARK  Name = /home/vital/Documents/PhD_2021/Malaria_codes/scripts/../data/pdbqt_ligands/ligand_405_temp.pdb
REMARK                            x       y       z     vdW  Elec       q    Type
REMARK                         _______ _______ _______ _____ _____    ______ ____
ROOT
ATOM      1  C1  UNL     1     133.176 121.246  85.130  0.00  0.00    -0.063 C 
ATOM      2  C2  UNL     1     132.533 120.773  86.430  0.00  0.00    -0.047 C 
ATOM      3  C3  UNL     1     131.145 121.390  86.598  0.00  0.00    -0.063 C 
ATOM      4  C4  UNL     1     133.433 120.946  87.672  0.00  0.00    -0.051 C 
ATOM      5  C5  UNL     1     133.506 122.321  88.343  0.00  0.00    -0.053 C 
ATOM      6  C6  UNL     1     134.281 123.448  87.649  0.00  0.00    -0.050 C 
ATOM      7  C7  UNL     1     135.831 123.376  87.562  0.00  0.00    -0.041 C 
ATOM      8  C8  UNL     1     136.284 122.532  86.369  0.00  0.00    -0.062 C 
ATOM      9  C9  UNL     1     136.495 123.049  88.927  0.00  0.00    -0.033 C 
ATOM     10  C10 UNL     1     136.835 121.562  89.214  0.00  0.00    -0.049 C 
ATOM     11  C11 UNL     1     137.990 121.568  90.234  0.00  0.00    -0.049 C 
ATOM     12  C12 UNL     1     138.169 123.040  90.591  0.00  0.00    -0.032 C 
ATOM     13  C13 UNL     1     139.492 123.490  91.218  0.00  0.00    -0.031 C 
ATOM     14  C14 UNL     1     139.800 122.690  92.494  0.00  0.00    -0.031 C 
ATOM     15  C15 UNL     1     140.701 123.385  93.468  0.00  0.00    -0.084 C 
ATOM     16  C16 UNL     1     141.132 124.655  93.351  0.00  0.00    -0.065 C 
ATOM     17  C17 UNL     1     141.872 125.290  94.510  0.00  0.00    -0.005 C 
ATOM     18  C18 UNL     1     142.684 126.533  94.141  0.00  0.00    +0.062 C 
ATOM     19  O1  UNL     1     143.200 127.096  95.357  0.00  0.00    -0.374 OA
ATOM     20  C19 UNL     1     144.264 128.033  95.140  0.00  0.00    +0.071 C 
ATOM     21  C20 UNL     1     144.739 128.519  96.506  0.00  0.00    +0.068 C 
ATOM     22  O2  UNL     1     145.207 127.412  97.274  0.00  0.00    -0.393 OA
ATOM     23  C21 UNL     1     141.836 127.565  93.384  0.00  0.00    -0.026 C 
ATOM     24  C22 UNL     1     140.615 126.989  92.652  0.00  0.00    -0.041 C 
ATOM     25  C23 UNL     1     140.781 125.533  92.146  0.00  0.00    -0.008 C 
ATOM     26  C24 UNL     1     141.929 125.474  91.110  0.00  0.00    -0.056 C 
ATOM     27  C25 UNL     1     139.425 125.021  91.517  0.00  0.00    -0.029 C 
ATOM     28  C26 UNL     1     138.935 125.840  90.293  0.00  0.00    -0.049 C 
ATOM     29  C27 UNL     1     137.668 125.271  89.628  0.00  0.00    -0.047 C 
ATOM     30  C28 UNL     1     137.826 123.782  89.280  0.00  0.00    -0.026 C 
ATOM     31  C29 UNL     1     138.891 123.616  88.172  0.00  0.00    -0.059 C 
ATOM     32  H   UNL     1     144.487 126.774  97.394  0.00  0.00    +0.000 HD
ENDROOT
TORSDOF 0
ENDMDL
MODEL 4
REMARK VINA RESULT:    -3.757      4.417      5.724
REMARK INTER + INTRA:          -3.757
REMARK INTER:                  -3.757
REMARK INTRA:                   0.000
REMARK UNBOUND:                 0.000
REMARK  Name = /home/vital/Documents/PhD_2021/Malaria_codes/scripts/../data/pdbqt_ligands/ligand_405_temp.pdb
REMARK                            x       y       z     vdW  Elec       q    Type
REMARK                         _______ _______ _______ _____ _____    ______ ____
ROOT
ATOM      1  C1  UNL     1     140.296 121.281 107.904  0.00  0.00    -0.063 C 
ATOM      2  C2  UNL     1     140.947 122.144 108.982  0.00  0.00    -0.047 C 
ATOM      3  C3  UNL     1     139.906 122.604 110.003  0.00  0.00    -0.063 C 
ATOM      4  C4  UNL     1     141.806 123.299 108.424  0.00  0.00    -0.051 C 
ATOM      5  C5  UNL     1     141.107 124.586 107.975  0.00  0.00    -0.053 C 
ATOM      6  C6  UNL     1     140.302 124.581 106.670  0.00  0.00    -0.050 C 
ATOM      7  C7  UNL     1     141.044 124.475 105.308  0.00  0.00    -0.041 C 
ATOM      8  C8  UNL     1     141.348 123.018 104.952  0.00  0.00    -0.062 C 
ATOM      9  C9  UNL     1     142.226 125.474 105.188  0.00  0.00    -0.033 C 
ATOM     10  C10 UNL     1     143.640 124.948 105.553  0.00  0.00    -0.049 C 
ATOM     11  C11 UNL     1     144.644 125.828 104.780  0.00  0.00    -0.049 C 
ATOM     12  C12 UNL     1     143.779 126.897 104.123  0.00  0.00    -0.032 C 
ATOM     13  C13 UNL     1     144.345 127.672 102.929  0.00  0.00    -0.031 C 
ATOM     14  C14 UNL     1     145.678 128.347 103.290  0.00  0.00    -0.031 C 
ATOM     15  C15 UNL     1     146.020 129.544 102.457  0.00  0.00    -0.084 C 
ATOM     16  C16 UNL     1     145.209 130.105 101.540  0.00  0.00    -0.065 C 
ATOM     17  C17 UNL     1     145.607 131.428 100.918  0.00  0.00    -0.005 C 
ATOM     18  C18 UNL     1     144.880 131.761  99.614  0.00  0.00    +0.062 C 
ATOM     19  O1  UNL     1     145.252 133.094  99.233  0.00  0.00    -0.374 OA
ATOM     20  C19 UNL     1     144.944 133.398  97.866  0.00  0.00    +0.071 C 
ATOM     21  C20 UNL     1     145.423 134.820  97.588  0.00  0.00    +0.068 C 
ATOM     22  O2  UNL     1     146.831 134.904  97.806  0.00  0.00    -0.393 OA
ATOM     23  C21 UNL     1     143.356 131.647  99.765  0.00  0.00    -0.026 C 
ATOM     24  C22 UNL     1     142.883 130.717 100.893  0.00  0.00    -0.041 C 
ATOM     25  C23 UNL     1     143.830 129.530 101.204  0.00  0.00    -0.008 C 
ATOM     26  C24 UNL     1     143.939 128.617  99.958  0.00  0.00    -0.056 C 
ATOM     27  C25 UNL     1     143.294 128.721 102.450  0.00  0.00    -0.029 C 
ATOM     28  C26 UNL     1     141.885 128.099 102.255  0.00  0.00    -0.049 C 
ATOM     29  C27 UNL     1     141.417 127.231 103.438  0.00  0.00    -0.047 C 
ATOM     30  C28 UNL     1     142.458 126.161 103.807  0.00  0.00    -0.026 C 
ATOM     31  C29 UNL     1     142.576 125.132 102.660  0.00  0.00    -0.059 C 
ATOM     32  H   UNL     1     147.030 134.672  98.726  0.00  0.00    +0.000 HD
ENDROOT
TORSDOF 0
ENDMDL
MODEL 5
REMARK VINA RESULT:    -3.567     10.310     14.244
REMARK INTER + INTRA:          -3.567
REMARK INTER:                  -3.567
REMARK INTRA:                   0.000
REMARK UNBOUND:                 0.000
REMARK  Name = /home/vital/Documents/PhD_2021/Malaria_codes/scripts/../data/pdbqt_ligands/ligand_405_temp.pdb
REMARK                            x       y       z     vdW  Elec       q    Type
REMARK                         _______ _______ _______ _____ _____    ______ ____
ROOT
ATOM      1  C1  UNL     1     132.960 121.393  86.160  0.00  0.00    -0.063 C 
ATOM      2  C2  UNL     1     132.532 121.352  87.624  0.00  0.00    -0.047 C 
ATOM      3  C3  UNL     1     131.088 121.830  87.775  0.00  0.00    -0.063 C 
ATOM      4  C4  UNL     1     133.513 122.061  88.582  0.00  0.00    -0.051 C 
ATOM      5  C5  UNL     1     133.436 123.584  88.721  0.00  0.00    -0.053 C 
ATOM      6  C6  UNL     1     133.951 124.463  87.574  0.00  0.00    -0.050 C 
ATOM      7  C7  UNL     1     135.477 124.538  87.288  0.00  0.00    -0.041 C 
ATOM      8  C8  UNL     1     135.935 123.376  86.404  0.00  0.00    -0.062 C 
ATOM      9  C9  UNL     1     136.317 124.801  88.567  0.00  0.00    -0.033 C 
ATOM     10  C10 UNL     1     136.912 123.566  89.293  0.00  0.00    -0.049 C 
ATOM     11  C11 UNL     1     138.149 124.068  90.065  0.00  0.00    -0.049 C 
ATOM     12  C12 UNL     1     138.129 125.580  89.864  0.00  0.00    -0.032 C 
ATOM     13  C13 UNL     1     139.421 126.370  90.093  0.00  0.00    -0.031 C 
ATOM     14  C14 UNL     1     139.977 126.123  91.505  0.00  0.00    -0.031 C 
ATOM     15  C15 UNL     1     140.850 127.219  92.035  0.00  0.00    -0.084 C 
ATOM     16  C16 UNL     1     141.063 128.400  91.426  0.00  0.00    -0.065 C 
ATOM     17  C17 UNL     1     141.806 129.489  92.173  0.00  0.00    -0.005 C 
ATOM     18  C18 UNL     1     142.372 130.597  91.283  0.00  0.00    +0.062 C 
ATOM     19  O1  UNL     1     142.913 131.615  92.140  0.00  0.00    -0.374 OA
ATOM     20  C19 UNL     1     143.789 132.521  91.458  0.00  0.00    +0.071 C 
ATOM     21  C20 UNL     1     144.316 133.518  92.487  0.00  0.00    +0.068 C 
ATOM     22  O2  UNL     1     145.026 132.822  93.510  0.00  0.00    -0.393 OA
ATOM     23  C21 UNL     1     141.302 131.185  90.353  0.00  0.00    -0.026 C 
ATOM     24  C22 UNL     1     140.119 130.252  90.053  0.00  0.00    -0.041 C 
ATOM     25  C23 UNL     1     140.459 128.740  90.060  0.00  0.00    -0.008 C 
ATOM     26  C24 UNL     1     141.493 128.438  88.948  0.00  0.00    -0.056 C 
ATOM     27  C25 UNL     1     139.145 127.887  89.854  0.00  0.00    -0.029 C 
ATOM     28  C26 UNL     1     138.413 128.150  88.511  0.00  0.00    -0.049 C 
ATOM     29  C27 UNL     1     137.191 127.242  88.279  0.00  0.00    -0.047 C 
ATOM     30  C28 UNL     1     137.545 125.755  88.444  0.00  0.00    -0.026 C 
ATOM     31  C29 UNL     1     138.507 125.320  87.315  0.00  0.00    -0.059 C 
ATOM     32  H   UNL     1     144.431 132.194  93.948  0.00  0.00    +0.000 HD
ENDROOT
TORSDOF 0
ENDMDL
MODEL 6
REMARK VINA RESULT:    -3.565      6.421     13.039
REMARK INTER + INTRA:          -3.565
REMARK INTER:                  -3.565
REMARK INTRA:                   0.000
REMARK UNBOUND:                 0.000
REMARK  Name = /home/vital/Documents/PhD_2021/Malaria_codes/scripts/../data/pdbqt_ligands/ligand_405_temp.pdb
REMARK                            x       y       z     vdW  Elec       q    Type
REMARK                         _______ _______ _______ _____ _____    ______ ____
ROOT
ATOM      1  C1  UNL     1     134.599 124.151  85.818  0.00  0.00    -0.063 C 
ATOM      2  C2  UNL     1     133.709 123.763  86.995  0.00  0.00    -0.047 C 
ATOM      3  C3  UNL     1     132.560 124.759  87.151  0.00  0.00    -0.063 C 
ATOM      4  C4  UNL     1     134.481 123.511  88.307  0.00  0.00    -0.051 C 
ATOM      5  C5  UNL     1     134.892 124.714  89.162  0.00  0.00    -0.053 C 
ATOM      6  C6  UNL     1     136.038 125.612  88.682  0.00  0.00    -0.050 C 
ATOM      7  C7  UNL     1     137.496 125.071  88.692  0.00  0.00    -0.041 C 
ATOM      8  C8  UNL     1     137.799 124.263  87.428  0.00  0.00    -0.062 C 
ATOM      9  C9  UNL     1     137.882 124.408  90.041  0.00  0.00    -0.033 C 
ATOM     10  C10 UNL     1     137.727 122.867  90.145  0.00  0.00    -0.049 C 
ATOM     11  C11 UNL     1     138.716 122.403  91.233  0.00  0.00    -0.049 C 
ATOM     12  C12 UNL     1     139.289 123.698  91.798  0.00  0.00    -0.032 C 
ATOM     13  C13 UNL     1     140.612 123.643  92.569  0.00  0.00    -0.031 C 
ATOM     14  C14 UNL     1     140.528 122.653  93.741  0.00  0.00    -0.031 C 
ATOM     15  C15 UNL     1     141.487 122.923  94.860  0.00  0.00    -0.084 C 
ATOM     16  C16 UNL     1     142.290 124.001  94.946  0.00  0.00    -0.065 C 
ATOM     17  C17 UNL     1     143.058 124.244  96.229  0.00  0.00    -0.005 C 
ATOM     18  C18 UNL     1     144.240 125.205  96.088  0.00  0.00    +0.062 C 
ATOM     19  O1  UNL     1     144.769 125.444  97.402  0.00  0.00    -0.374 OA
ATOM     20  C19 UNL     1     146.082 126.021  97.387  0.00  0.00    +0.071 C 
ATOM     21  C20 UNL     1     146.533 126.184  98.835  0.00  0.00    +0.068 C 
ATOM     22  O2  UNL     1     146.563 124.909  99.476  0.00  0.00    -0.393 OA
ATOM     23  C21 UNL     1     143.826 126.525  95.423  0.00  0.00    -0.026 C 
ATOM     24  C22 UNL     1     142.574 126.442  94.538  0.00  0.00    -0.041 C 
ATOM     25  C23 UNL     1     142.348 125.070  93.851  0.00  0.00    -0.008 C 
ATOM     26  C24 UNL     1     143.528 124.770  92.896  0.00  0.00    -0.056 C 
ATOM     27  C25 UNL     1     140.976 125.077  93.067  0.00  0.00    -0.029 C 
ATOM     28  C26 UNL     1     140.887 126.136  91.936  0.00  0.00    -0.049 C 
ATOM     29  C27 UNL     1     139.586 126.065  91.116  0.00  0.00    -0.047 C 
ATOM     30  C28 UNL     1     139.326 124.647  90.580  0.00  0.00    -0.026 C 
ATOM     31  C29 UNL     1     140.404 124.280  89.534  0.00  0.00    -0.059 C 
ATOM     32  H   UNL     1     145.676 124.518  99.458  0.00  0.00    +0.000 HD
ENDROOT
TORSDOF 0
ENDMDL
MODEL 7
REMARK VINA RESULT:    -3.561      8.871     12.921
REMARK INTER + INTRA:          -3.561
REMARK INTER:                  -3.561
REMARK INTRA:                   0.000
REMARK UNBOUND:                 0.000
REMARK  Name = /home/vital/Documents/PhD_2021/Malaria_codes/scripts/../data/pdbqt_ligands/ligand_405_temp.pdb
REMARK                            x       y       z     vdW  Elec       q    Type
REMARK                         _______ _______ _______ _____ _____    ______ ____
ROOT
ATOM      1  C1  UNL     1     136.589 123.268  87.064  0.00  0.00    -0.063 C 
ATOM      2  C2  UNL     1     135.781 123.303  88.358  0.00  0.00    -0.047 C 
ATOM      3  C3  UNL     1     134.366 123.817  88.094  0.00  0.00    -0.063 C 
ATOM      4  C4  UNL     1     136.490 124.034  89.518  0.00  0.00    -0.051 C 
ATOM      5  C5  UNL     1     136.428 125.564  89.572  0.00  0.00    -0.053 C 
ATOM      6  C6  UNL     1     137.261 126.379  88.574  0.00  0.00    -0.050 C 
ATOM      7  C7  UNL     1     138.809 126.408  88.709  0.00  0.00    -0.041 C 
ATOM      8  C8  UNL     1     139.451 125.198  88.027  0.00  0.00    -0.062 C 
ATOM      9  C9  UNL     1     139.282 126.713  90.156  0.00  0.00    -0.033 C 
ATOM     10  C10 UNL     1     139.620 125.500  91.063  0.00  0.00    -0.049 C 
ATOM     11  C11 UNL     1     140.618 126.011  92.120  0.00  0.00    -0.049 C 
ATOM     12  C12 UNL     1     140.702 127.512  91.863  0.00  0.00    -0.032 C 
ATOM     13  C13 UNL     1     141.910 128.285  92.403  0.00  0.00    -0.031 C 
ATOM     14  C14 UNL     1     142.057 128.092  93.921  0.00  0.00    -0.031 C 
ATOM     15  C15 UNL     1     142.790 129.192  94.625  0.00  0.00    -0.084 C 
ATOM     16  C16 UNL     1     143.197 130.340  94.051  0.00  0.00    -0.065 C 
ATOM     17  C17 UNL     1     143.746 131.446  94.929  0.00  0.00    -0.005 C 
ATOM     18  C18 UNL     1     144.566 132.500  94.183  0.00  0.00    +0.062 C 
ATOM     19  O1  UNL     1     144.888 133.544  95.114  0.00  0.00    -0.374 OA
ATOM     20  C19 UNL     1     145.945 134.401  94.661  0.00  0.00    +0.071 C 
ATOM     21  C20 UNL     1     146.207 135.432  95.754  0.00  0.00    +0.068 C 
ATOM     22  O2  UNL     1     146.593 134.769  96.957  0.00  0.00    -0.393 OA
ATOM     23  C21 UNL     1     143.805 133.067  92.976  0.00  0.00    -0.026 C 
ATOM     24  C22 UNL     1     142.717 132.146  92.404  0.00  0.00    -0.041 C 
ATOM     25  C23 UNL     1     142.994 130.629  92.560  0.00  0.00    -0.008 C 
ATOM     26  C24 UNL     1     144.279 130.255  91.782  0.00  0.00    -0.056 C 
ATOM     27  C25 UNL     1     141.757 129.795  92.040  0.00  0.00    -0.029 C 
ATOM     28  C26 UNL     1     141.422 130.012  90.540  0.00  0.00    -0.049 C 
ATOM     29  C27 UNL     1     140.280 129.119  90.021  0.00  0.00    -0.047 C 
ATOM     30  C28 UNL     1     140.528 127.635  90.333  0.00  0.00    -0.026 C 
ATOM     31  C29 UNL     1     141.744 127.129  89.524  0.00  0.00    -0.059 C 
ATOM     32  H   UNL     1     145.882 134.175  97.241  0.00  0.00    +0.000 HD
ENDROOT
TORSDOF 0
ENDMDL
MODEL 8
REMARK VINA RESULT:    -3.505     11.427     14.907
REMARK INTER + INTRA:          -3.505
REMARK INTER:                  -3.505
REMARK INTRA:                   0.000
REMARK UNBOUND:                 0.000
REMARK  Name = /home/vital/Documents/PhD_2021/Malaria_codes/scripts/../data/pdbqt_ligands/ligand_405_temp.pdb
REMARK                            x       y       z     vdW  Elec       q    Type
REMARK                         _______ _______ _______ _____ _____    ______ ____
ROOT
ATOM      1  C1  UNL     1     143.861 136.786  87.233  0.00  0.00    -0.063 C 
ATOM      2  C2  UNL     1     142.535 137.256  87.824  0.00  0.00    -0.047 C 
ATOM      3  C3  UNL     1     142.773 138.082  89.088  0.00  0.00    -0.063 C 
ATOM      4  C4  UNL     1     141.501 136.127  88.018  0.00  0.00    -0.051 C 
ATOM      5  C5  UNL     1     141.608 135.237  89.260  0.00  0.00    -0.053 C 
ATOM      6  C6  UNL     1     142.731 134.195  89.336  0.00  0.00    -0.050 C 
ATOM      7  C7  UNL     1     142.687 132.947  88.410  0.00  0.00    -0.041 C 
ATOM      8  C8  UNL     1     143.270 133.257  87.030  0.00  0.00    -0.062 C 
ATOM      9  C9  UNL     1     141.309 132.232  88.430  0.00  0.00    -0.033 C 
ATOM     10  C10 UNL     1     140.297 132.608  87.314  0.00  0.00    -0.049 C 
ATOM     11  C11 UNL     1     139.358 131.396  87.153  0.00  0.00    -0.049 C 
ATOM     12  C12 UNL     1     139.778 130.443  88.266  0.00  0.00    -0.032 C 
ATOM     13  C13 UNL     1     139.392 128.965  88.155  0.00  0.00    -0.031 C 
ATOM     14  C14 UNL     1     137.873 128.801  87.988  0.00  0.00    -0.031 C 
ATOM     15  C15 UNL     1     137.332 127.477  88.435  0.00  0.00    -0.084 C 
ATOM     16  C16 UNL     1     138.047 126.520  89.056  0.00  0.00    -0.065 C 
ATOM     17  C17 UNL     1     137.325 125.319  89.630  0.00  0.00    -0.005 C 
ATOM     18  C18 UNL     1     138.223 124.113  89.913  0.00  0.00    +0.062 C 
ATOM     19  O1  UNL     1     137.428 123.121  90.581  0.00  0.00    -0.374 OA
ATOM     20  C19 UNL     1     138.029 121.820  90.579  0.00  0.00    +0.071 C 
ATOM     21  C20 UNL     1     137.068 120.865  91.281  0.00  0.00    +0.068 C 
ATOM     22  O2  UNL     1     135.824 120.834  90.583  0.00  0.00    -0.393 OA
ATOM     23  C21 UNL     1     139.440 124.497  90.768  0.00  0.00    -0.026 C 
ATOM     24  C22 UNL     1     139.849 125.976  90.688  0.00  0.00    -0.041 C 
ATOM     25  C23 UNL     1     139.547 126.666  89.333  0.00  0.00    -0.008 C 
ATOM     26  C24 UNL     1     140.351 125.971  88.208  0.00  0.00    -0.056 C 
ATOM     27  C25 UNL     1     139.905 128.202  89.416  0.00  0.00    -0.029 C 
ATOM     28  C26 UNL     1     141.399 128.498  89.718  0.00  0.00    -0.049 C 
ATOM     29  C27 UNL     1     141.755 129.996  89.697  0.00  0.00    -0.047 C 
ATOM     30  C28 UNL     1     141.301 130.673  88.394  0.00  0.00    -0.026 C 
ATOM     31  C29 UNL     1     142.118 130.115  87.205  0.00  0.00    -0.059 C 
ATOM     32  H   UNL     1     135.439 121.725  90.569  0.00  0.00    +0.000 HD
ENDROOT
TORSDOF 0
ENDMDL
MODEL 9
REMARK VINA RESULT:    -3.318      4.911     12.706
REMARK INTER + INTRA:          -3.318
REMARK INTER:                  -3.318
REMARK INTRA:                   0.000
REMARK UNBOUND:                 0.000
REMARK  Name = /home/vital/Documents/PhD_2021/Malaria_codes/scripts/../data/pdbqt_ligands/ligand_405_temp.pdb
REMARK                            x       y       z     vdW  Elec       q    Type
REMARK                         _______ _______ _______ _____ _____    ______ ____
ROOT
ATOM      1  C1  UNL     1     136.752 125.521  85.597  0.00  0.00    -0.063 C 
ATOM      2  C2  UNL     1     135.655 124.930  86.479  0.00  0.00    -0.047 C 
ATOM      3  C3  UNL     1     134.434 125.849  86.505  0.00  0.00    -0.063 C 
ATOM      4  C4  UNL     1     136.139 124.518  87.885  0.00  0.00    -0.051 C 
ATOM      5  C5  UNL     1     136.269 125.596  88.965  0.00  0.00    -0.053 C 
ATOM      6  C6  UNL     1     137.428 126.598  88.882  0.00  0.00    -0.050 C 
ATOM      7  C7  UNL     1     138.882 126.117  89.147  0.00  0.00    -0.041 C 
ATOM      8  C8  UNL     1     139.508 125.515  87.887  0.00  0.00    -0.062 C 
ATOM      9  C9  UNL     1     139.010 125.276  90.446  0.00  0.00    -0.033 C 
ATOM     10  C10 UNL     1     138.943 123.733  90.304  0.00  0.00    -0.049 C 
ATOM     11  C11 UNL     1     139.701 123.151  91.513  0.00  0.00    -0.049 C 
ATOM     12  C12 UNL     1     140.046 124.369  92.363  0.00  0.00    -0.032 C 
ATOM     13  C13 UNL     1     141.170 124.252  93.397  0.00  0.00    -0.031 C 
ATOM     14  C14 UNL     1     140.902 123.097  94.376  0.00  0.00    -0.031 C 
ATOM     15  C15 UNL     1     141.573 123.236  95.708  0.00  0.00    -0.084 C 
ATOM     16  C16 UNL     1     142.261 124.318  96.118  0.00  0.00    -0.065 C 
ATOM     17  C17 UNL     1     142.712 124.399  97.562  0.00  0.00    -0.005 C 
ATOM     18  C18 UNL     1     143.827 125.414  97.823  0.00  0.00    +0.062 C 
ATOM     19  O1  UNL     1     144.039 125.477  99.241  0.00  0.00    -0.374 OA
ATOM     20  C19 UNL     1     145.280 126.098  99.601  0.00  0.00    +0.071 C 
ATOM     21  C20 UNL     1     145.392 126.064 101.122  0.00  0.00    +0.068 C 
ATOM     22  O2  UNL     1     145.371 124.711 101.575  0.00  0.00    -0.393 OA
ATOM     23  C21 UNL     1     143.477 126.801  97.266  0.00  0.00    -0.026 C 
ATOM     24  C22 UNL     1     142.457 126.802  96.118  0.00  0.00    -0.041 C 
ATOM     25  C23 UNL     1     142.481 125.539  95.219  0.00  0.00    -0.008 C 
ATOM     26  C24 UNL     1     143.860 125.426  94.524  0.00  0.00    -0.056 C 
ATOM     27  C25 UNL     1     141.316 125.609  94.154  0.00  0.00    -0.029 C 
ATOM     28  C26 UNL     1     141.403 126.819  93.186  0.00  0.00    -0.049 C 
ATOM     29  C27 UNL     1     140.320 126.820  92.091  0.00  0.00    -0.047 C 
ATOM     30  C28 UNL     1     140.281 125.489  91.324  0.00  0.00    -0.026 C 
ATOM     31  C29 UNL     1     141.584 125.320  90.509  0.00  0.00    -0.059 C 
ATOM     32  H   UNL     1     144.538 124.293 101.305  0.00  0.00    +0.000 HD
ENDROOT
TORSDOF 0
ENDMDL
