MODEL 1
REMARK VINA RESULT:    -5.930      0.000      0.000
REMARK INTER + INTRA:          -5.930
REMARK INTER:                  -5.930
REMARK INTRA:                   0.000
REMARK UNBOUND:                 0.000
REMARK  Name = /home/vital/Documents/PhD_2021/Malaria_codes/scripts/../data/pdbqt_ligands/ligand_474_temp.pdb
REMARK                            x       y       z     vdW  Elec       q    Type
REMARK                         _______ _______ _______ _____ _____    ______ ____
ROOT
ATOM      1  C1  UNL     1     123.504 131.834  87.120  0.00  0.00    -0.026 C 
ATOM      2  C2  UNL     1     124.530 131.975  85.996  0.00  0.00    +0.110 C 
ATOM      3  N1  UNL     1     125.865 131.895  86.591  0.00  0.00    -0.274 NA
ATOM      4  C3  UNL     1     126.749 132.002  85.657  0.00  0.00    +0.005 C 
ATOM      5  C4  UNL     1     128.084 132.585  85.980  0.00  0.00    +0.017 C 
ATOM      6  C5  UNL     1     127.803 134.061  86.273  0.00  0.00    +0.094 C 
ATOM      7  O1  UNL     1     126.875 134.579  85.296  0.00  0.00    -0.490 OA
ATOM      8  C6  UNL     1     125.741 135.086  85.896  0.00  0.00    +0.141 A 
ATOM      9  C7  UNL     1     125.860 136.336  86.521  0.00  0.00    -0.018 A 
ATOM     10  C8  UNL     1     124.745 136.952  87.082  0.00  0.00    -0.058 A 
ATOM     11  C9  UNL     1     123.503 136.330  87.006  0.00  0.00    -0.060 A 
ATOM     12  C10 UNL     1     123.376 135.095  86.362  0.00  0.00    -0.037 A 
ATOM     13  C11 UNL     1     124.484 134.447  85.786  0.00  0.00    +0.071 A 
ATOM     14  N2  UNL     1     124.284 133.184  85.178  0.00  0.00    -0.320 N 
ATOM     15  H   UNL     1     123.991 133.112  84.241  0.00  0.00    +0.000 HD
ENDROOT
TORSDOF 0
ENDMDL
MODEL 2
REMARK VINA RESULT:    -4.440     20.674     22.425
REMARK INTER + INTRA:          -4.440
REMARK INTER:                  -4.440
REMARK INTRA:                   0.000
REMARK UNBOUND:                 0.000
REMARK  Name = /home/vital/Documents/PhD_2021/Malaria_codes/scripts/../data/pdbqt_ligands/ligand_474_temp.pdb
REMARK                            x       y       z     vdW  Elec       q    Type
REMARK                         _______ _______ _______ _____ _____    ______ ____
ROOT
ATOM      1  C1  UNL     1     143.860 127.878 100.706  0.00  0.00    -0.026 C 
ATOM      2  C2  UNL     1     142.582 128.142 101.501  0.00  0.00    +0.110 C 
ATOM      3  N1  UNL     1     141.442 127.821 100.641  0.00  0.00    -0.274 NA
ATOM      4  C3  UNL     1     140.349 128.027 101.296  0.00  0.00    +0.005 C 
ATOM      5  C4  UNL     1     139.113 128.407 100.551  0.00  0.00    +0.017 C 
ATOM      6  C5  UNL     1     139.395 129.816 100.023  0.00  0.00    +0.094 C 
ATOM      7  O1  UNL     1     140.028 130.601 101.056  0.00  0.00    -0.490 OA
ATOM      8  C6  UNL     1     141.253 131.083 100.643  0.00  0.00    +0.141 A 
ATOM      9  C7  UNL     1     141.240 132.169  99.755  0.00  0.00    -0.018 A 
ATOM     10  C8  UNL     1     142.433 132.764  99.353  0.00  0.00    -0.058 A 
ATOM     11  C9  UNL     1     143.642 132.288  99.850  0.00  0.00    -0.060 A 
ATOM     12  C10 UNL     1     143.657 131.222 100.755  0.00  0.00    -0.037 A 
ATOM     13  C11 UNL     1     142.468 130.600 101.180  0.00  0.00    +0.071 A 
ATOM     14  N2  UNL     1     142.564 129.506 102.075  0.00  0.00    -0.320 N 
ATOM     15  H   UNL     1     142.618 129.649 103.047  0.00  0.00    +0.000 HD
ENDROOT
TORSDOF 0
ENDMDL
MODEL 3
REMARK VINA RESULT:    -4.313     20.549     21.246
REMARK INTER + INTRA:          -4.313
REMARK INTER:                  -4.313
REMARK INTRA:                   0.000
REMARK UNBOUND:                 0.000
REMARK  Name = /home/vital/Documents/PhD_2021/Malaria_codes/scripts/../data/pdbqt_ligands/ligand_474_temp.pdb
REMARK                            x       y       z     vdW  Elec       q    Type
REMARK                         _______ _______ _______ _____ _____    ______ ____
ROOT
ATOM      1  C1  UNL     1     141.248 132.813  99.161  0.00  0.00    -0.026 C 
ATOM      2  C2  UNL     1     142.277 131.683  99.173  0.00  0.00    +0.110 C 
ATOM      3  N1  UNL     1     142.206 130.995  97.882  0.00  0.00    -0.274 NA
ATOM      4  C3  UNL     1     143.074 130.042  97.865  0.00  0.00    +0.005 C 
ATOM      5  C4  UNL     1     142.815 128.833  97.029  0.00  0.00    +0.017 C 
ATOM      6  C5  UNL     1     141.639 128.131  97.715  0.00  0.00    +0.094 C 
ATOM      7  O1  UNL     1     141.843 128.136  99.144  0.00  0.00    -0.490 OA
ATOM      8  C6  UNL     1     140.798 128.755  99.800  0.00  0.00    +0.141 A 
ATOM      9  C7  UNL     1     139.605 128.027  99.920  0.00  0.00    -0.018 A 
ATOM     10  C8  UNL     1     138.530 128.549 100.635  0.00  0.00    -0.058 A 
ATOM     11  C9  UNL     1     138.650 129.792 101.248  0.00  0.00    -0.060 A 
ATOM     12  C10 UNL     1     139.846 130.510 101.150  0.00  0.00    -0.037 A 
ATOM     13  C11 UNL     1     140.949 130.010 100.435  0.00  0.00    +0.071 A 
ATOM     14  N2  UNL     1     142.117 130.807 100.354  0.00  0.00    -0.320 N 
ATOM     15  H   UNL     1     142.800 130.779 101.062  0.00  0.00    +0.000 HD
ENDROOT
TORSDOF 0
ENDMDL
MODEL 4
REMARK VINA RESULT:    -4.271     19.981     21.853
REMARK INTER + INTRA:          -4.271
REMARK INTER:                  -4.271
REMARK INTRA:                   0.000
REMARK UNBOUND:                 0.000
REMARK  Name = /home/vital/Documents/PhD_2021/Malaria_codes/scripts/../data/pdbqt_ligands/ligand_474_temp.pdb
REMARK                            x       y       z     vdW  Elec       q    Type
REMARK                         _______ _______ _______ _____ _____    ______ ____
ROOT
ATOM      1  C1  UNL     1     141.227 131.785  99.773  0.00  0.00    -0.026 C 
ATOM      2  C2  UNL     1     141.434 130.838 100.955  0.00  0.00    +0.110 C 
ATOM      3  N1  UNL     1     142.663 130.081 100.716  0.00  0.00    -0.274 NA
ATOM      4  C3  UNL     1     142.864 129.280 101.708  0.00  0.00    +0.005 C 
ATOM      5  C4  UNL     1     143.600 128.003 101.478  0.00  0.00    +0.017 C 
ATOM      6  C5  UNL     1     142.654 127.158 100.620  0.00  0.00    +0.094 C 
ATOM      7  O1  UNL     1     141.309 127.272 101.132  0.00  0.00    -0.490 OA
ATOM      8  C6  UNL     1     140.442 127.747 100.170  0.00  0.00    +0.141 A 
ATOM      9  C7  UNL     1     140.042 126.843  99.175  0.00  0.00    -0.018 A 
ATOM     10  C8  UNL     1     139.109 127.222  98.213  0.00  0.00    -0.058 A 
ATOM     11  C9  UNL     1     138.558 128.499  98.253  0.00  0.00    -0.060 A 
ATOM     12  C10 UNL     1     138.937 129.395  99.258  0.00  0.00    -0.037 A 
ATOM     13  C11 UNL     1     139.877 129.042 100.244  0.00  0.00    +0.071 A 
ATOM     14  N2  UNL     1     140.233 130.012 101.212  0.00  0.00    -0.320 N 
ATOM     15  H   UNL     1     139.700 130.133 102.030  0.00  0.00    +0.000 HD
ENDROOT
TORSDOF 0
ENDMDL
MODEL 5
REMARK VINA RESULT:    -4.242     12.624     13.473
REMARK INTER + INTRA:          -4.242
REMARK INTER:                  -4.242
REMARK INTRA:                   0.000
REMARK UNBOUND:                 0.000
REMARK  Name = /home/vital/Documents/PhD_2021/Malaria_codes/scripts/../data/pdbqt_ligands/ligand_474_temp.pdb
REMARK                            x       y       z     vdW  Elec       q    Type
REMARK                         _______ _______ _______ _____ _____    ______ ____
ROOT
ATOM      1  C1  UNL     1     133.240 121.611  90.850  0.00  0.00    -0.026 C 
ATOM      2  C2  UNL     1     132.019 122.087  90.063  0.00  0.00    +0.110 C 
ATOM      3  N1  UNL     1     132.005 121.378  88.782  0.00  0.00    -0.274 NA
ATOM      4  C3  UNL     1     130.976 121.757  88.103  0.00  0.00    +0.005 C 
ATOM      5  C4  UNL     1     131.034 121.729  86.612  0.00  0.00    +0.017 C 
ATOM      6  C5  UNL     1     132.036 122.826  86.242  0.00  0.00    +0.094 C 
ATOM      7  O1  UNL     1     131.791 123.996  87.051  0.00  0.00    -0.490 OA
ATOM      8  C6  UNL     1     132.909 124.352  87.775  0.00  0.00    +0.141 A 
ATOM      9  C7  UNL     1     133.943 124.991  87.073  0.00  0.00    -0.018 A 
ATOM     10  C8  UNL     1     135.071 125.451  87.746  0.00  0.00    -0.058 A 
ATOM     11  C9  UNL     1     135.164 125.292  89.125  0.00  0.00    -0.060 A 
ATOM     12  C10 UNL     1     134.125 124.678  89.831  0.00  0.00    -0.037 A 
ATOM     13  C11 UNL     1     132.972 124.201  89.180  0.00  0.00    +0.071 A 
ATOM     14  N2  UNL     1     131.976 123.563  89.957  0.00  0.00    -0.320 N 
ATOM     15  H   UNL     1     131.276 124.084  90.413  0.00  0.00    +0.000 HD
ENDROOT
TORSDOF 0
ENDMDL
MODEL 6
REMARK VINA RESULT:    -4.229     20.459     22.118
REMARK INTER + INTRA:          -4.229
REMARK INTER:                  -4.229
REMARK INTRA:                   0.000
REMARK UNBOUND:                 0.000
REMARK  Name = /home/vital/Documents/PhD_2021/Malaria_codes/scripts/../data/pdbqt_ligands/ligand_474_temp.pdb
REMARK                            x       y       z     vdW  Elec       q    Type
REMARK                         _______ _______ _______ _____ _____    ______ ____
ROOT
ATOM      1  C1  UNL     1     143.835 129.126 102.080  0.00  0.00    -0.026 C 
ATOM      2  C2  UNL     1     143.895 129.742 100.682  0.00  0.00    +0.110 C 
ATOM      3  N1  UNL     1     143.597 131.170 100.807  0.00  0.00    -0.274 NA
ATOM      4  C3  UNL     1     143.651 131.715  99.639  0.00  0.00    +0.005 C 
ATOM      5  C4  UNL     1     142.812 132.915  99.353  0.00  0.00    +0.017 C 
ATOM      6  C5  UNL     1     141.373 132.391  99.354  0.00  0.00    +0.094 C 
ATOM      7  O1  UNL     1     141.316 131.137  98.640  0.00  0.00    -0.490 OA
ATOM      8  C6  UNL     1     140.820 130.126  99.437  0.00  0.00    +0.141 A 
ATOM      9  C7  UNL     1     139.436 130.118  99.664  0.00  0.00    -0.018 A 
ATOM     10  C8  UNL     1     138.847 129.088 100.392  0.00  0.00    -0.058 A 
ATOM     11  C9  UNL     1     139.636 128.052 100.881  0.00  0.00    -0.060 A 
ATOM     12  C10 UNL     1     141.012 128.043 100.636  0.00  0.00    -0.037 A 
ATOM     13  C11 UNL     1     141.637 129.070  99.904  0.00  0.00    +0.071 A 
ATOM     14  N2  UNL     1     143.040 129.009  99.723  0.00  0.00    -0.320 N 
ATOM     15  H   UNL     1     143.435 128.495  98.981  0.00  0.00    +0.000 HD
ENDROOT
TORSDOF 0
ENDMDL
MODEL 7
REMARK VINA RESULT:    -3.716     13.226     14.289
REMARK INTER + INTRA:          -3.716
REMARK INTER:                  -3.716
REMARK INTRA:                   0.000
REMARK UNBOUND:                 0.000
REMARK  Name = /home/vital/Documents/PhD_2021/Malaria_codes/scripts/../data/pdbqt_ligands/ligand_474_temp.pdb
REMARK                            x       y       z     vdW  Elec       q    Type
REMARK                         _______ _______ _______ _____ _____    ______ ____
ROOT
ATOM      1  C1  UNL     1     136.274 122.827  86.462  0.00  0.00    -0.026 C 
ATOM      2  C2  UNL     1     135.312 123.915  86.937  0.00  0.00    +0.110 C 
ATOM      3  N1  UNL     1     135.046 123.691  88.359  0.00  0.00    -0.274 NA
ATOM      4  C3  UNL     1     134.242 124.606  88.786  0.00  0.00    +0.005 C 
ATOM      5  C4  UNL     1     133.324 124.299  89.922  0.00  0.00    +0.017 C 
ATOM      6  C5  UNL     1     132.325 123.288  89.352  0.00  0.00    +0.094 C 
ATOM      7  O1  UNL     1     131.917 123.707  88.031  0.00  0.00    -0.490 OA
ATOM      8  C6  UNL     1     132.191 122.737  87.089  0.00  0.00    +0.141 A 
ATOM      9  C7  UNL     1     131.336 121.625  87.056  0.00  0.00    -0.018 A 
ATOM     10  C8  UNL     1     131.498 120.641  86.084  0.00  0.00    -0.058 A 
ATOM     11  C9  UNL     1     132.501 120.774  85.130  0.00  0.00    -0.060 A 
ATOM     12  C10 UNL     1     133.339 121.893  85.144  0.00  0.00    -0.037 A 
ATOM     13  C11 UNL     1     133.202 122.904  86.114  0.00  0.00    +0.071 A 
ATOM     14  N2  UNL     1     134.106 123.993  86.083  0.00  0.00    -0.320 N 
ATOM     15  H   UNL     1     133.938 124.777  85.512  0.00  0.00    +0.000 HD
ENDROOT
TORSDOF 0
ENDMDL
MODEL 8
REMARK VINA RESULT:    -3.587     12.982     13.954
REMARK INTER + INTRA:          -3.587
REMARK INTER:                  -3.587
REMARK INTRA:                   0.000
REMARK UNBOUND:                 0.000
REMARK  Name = /home/vital/Documents/PhD_2021/Malaria_codes/scripts/../data/pdbqt_ligands/ligand_474_temp.pdb
REMARK                            x       y       z     vdW  Elec       q    Type
REMARK                         _______ _______ _______ _____ _____    ______ ____
ROOT
ATOM      1  C1  UNL     1     134.927 124.621  85.732  0.00  0.00    -0.026 C 
ATOM      2  C2  UNL     1     134.572 123.135  85.777  0.00  0.00    +0.110 C 
ATOM      3  N1  UNL     1     133.270 122.963  85.131  0.00  0.00    -0.274 NA
ATOM      4  C3  UNL     1     132.953 121.713  85.148  0.00  0.00    +0.005 C 
ATOM      5  C4  UNL     1     131.513 121.324  85.172  0.00  0.00    +0.017 C 
ATOM      6  C5  UNL     1     131.015 121.760  86.553  0.00  0.00    +0.094 C 
ATOM      7  O1  UNL     1     131.997 121.408  87.551  0.00  0.00    -0.490 OA
ATOM      8  C6  UNL     1     132.420 122.517  88.254  0.00  0.00    +0.141 A 
ATOM      9  C7  UNL     1     131.542 123.028  89.222  0.00  0.00    -0.018 A 
ATOM     10  C8  UNL     1     131.927 124.096  90.028  0.00  0.00    -0.058 A 
ATOM     11  C9  UNL     1     133.196 124.647  89.883  0.00  0.00    -0.060 A 
ATOM     12  C10 UNL     1     134.082 124.125  88.935  0.00  0.00    -0.037 A 
ATOM     13  C11 UNL     1     133.723 123.046  88.106  0.00  0.00    +0.071 A 
ATOM     14  N2  UNL     1     134.663 122.591  87.149  0.00  0.00    -0.320 N 
ATOM     15  H   UNL     1     135.355 121.933  87.390  0.00  0.00    +0.000 HD
ENDROOT
TORSDOF 0
ENDMDL
MODEL 9
REMARK VINA RESULT:    -3.533     13.326     14.544
REMARK INTER + INTRA:          -3.533
REMARK INTER:                  -3.533
REMARK INTRA:                   0.000
REMARK UNBOUND:                 0.000
REMARK  Name = /home/vital/Documents/PhD_2021/Malaria_codes/scripts/../data/pdbqt_ligands/ligand_474_temp.pdb
REMARK                            x       y       z     vdW  Elec       q    Type
REMARK                         _______ _______ _______ _____ _____    ______ ____
ROOT
ATOM      1  C1  UNL     1     131.382 120.601  85.377  0.00  0.00    -0.026 C 
ATOM      2  C2  UNL     1     132.582 121.515  85.130  0.00  0.00    +0.110 C 
ATOM      3  N1  UNL     1     133.797 120.748  85.410  0.00  0.00    -0.274 NA
ATOM      4  C3  UNL     1     134.825 121.498  85.199  0.00  0.00    +0.005 C 
ATOM      5  C4  UNL     1     136.079 121.252  85.970  0.00  0.00    +0.017 C 
ATOM      6  C5  UNL     1     135.733 121.646  87.409  0.00  0.00    +0.094 C 
ATOM      7  O1  UNL     1     134.978 122.876  87.404  0.00  0.00    -0.490 OA
ATOM      8  C6  UNL     1     133.753 122.718  88.017  0.00  0.00    +0.141 A 
ATOM      9  C7  UNL     1     133.747 122.661  89.419  0.00  0.00    -0.018 A 
ATOM     10  C8  UNL     1     132.545 122.581  90.116  0.00  0.00    -0.058 A 
ATOM     11  C9  UNL     1     131.342 122.576  89.417  0.00  0.00    -0.060 A 
ATOM     12  C10 UNL     1     131.342 122.658  88.021  0.00  0.00    -0.037 A 
ATOM     13  C11 UNL     1     132.541 122.739  87.288  0.00  0.00    +0.071 A 
ATOM     14  N2  UNL     1     132.463 122.788  85.875  0.00  0.00    -0.320 N 
ATOM     15  H   UNL     1     132.335 123.643  85.402  0.00  0.00    +0.000 HD
ENDROOT
TORSDOF 0
ENDMDL
