MODEL 1
REMARK VINA RESULT:    -4.974      0.000      0.000
REMARK INTER + INTRA:          -4.974
REMARK INTER:                  -4.974
REMARK INTRA:                   0.000
REMARK UNBOUND:                 0.000
REMARK  Name = /home/vital/Documents/PhD_2021/Malaria_codes/scripts/../data/pdbqt_ligands/ligand_253_temp.pdb
REMARK                            x       y       z     vdW  Elec       q    Type
REMARK                         _______ _______ _______ _____ _____    ______ ____
ROOT
ATOM      1  C   UNL     1     143.556 128.089 101.567  0.00  0.00    -0.046 C 
ATOM      2  C   UNL     1     142.132 128.385 102.055  0.00  0.00    +0.030 C 
ATOM      3  N   UNL     1     141.823 127.723 103.330  0.00  0.00    -0.306 N 
ATOM      4  C   UNL     1     141.828 126.263 103.292  0.00  0.00    +0.023 C 
ATOM      5  C   UNL     1     141.498 125.698 104.657  0.00  0.00    -0.012 A 
ATOM      6  C   UNL     1     140.148 125.451 104.974  0.00  0.00    -0.056 A 
ATOM      7  C   UNL     1     139.783 124.948 106.224  0.00  0.00    -0.058 A 
ATOM      8  C   UNL     1     140.758 124.688 107.183  0.00  0.00    -0.019 A 
ATOM      9  C   UNL     1     142.099 124.936 106.889  0.00  0.00    +0.135 A 
ATOM     10  O   UNL     1     143.051 124.679 107.840  0.00  0.00    -0.505 OA
ATOM     11  C   UNL     1     142.478 125.443 105.635  0.00  0.00    +0.087 A 
ATOM     12 CL   UNL     1     144.157 125.746 105.319  0.00  0.00    -0.079 Cl
ATOM     13  C   UNL     1     141.032 128.187 101.019  0.00  0.00    -0.031 A 
ATOM     14  C   UNL     1     139.861 128.960 101.112  0.00  0.00    -0.056 A 
ATOM     15  C   UNL     1     138.818 128.799 100.196  0.00  0.00    -0.043 A 
ATOM     16  C   UNL     1     138.933 127.859  99.177  0.00  0.00    +0.041 A 
ATOM     17 CL   UNL     1     137.649 127.657  98.050  0.00  0.00    -0.084 Cl
ATOM     18  C   UNL     1     140.080 127.080  99.068  0.00  0.00    -0.043 A 
ATOM     19  C   UNL     1     141.124 127.240  99.985  0.00  0.00    -0.056 A 
ATOM     20  H   UNL     1     140.896 128.027 103.627  0.00  0.00    +0.000 HD
ATOM     21  H   UNL     1     142.568 127.990 103.973  0.00  0.00    +0.000 HD
ATOM     22  H   UNL     1     142.798 124.340 108.676  0.00  0.00    +0.000 HD
ENDROOT
TORSDOF 0
ENDMDL
MODEL 2
REMARK VINA RESULT:    -4.796      6.693      8.266
REMARK INTER + INTRA:          -4.796
REMARK INTER:                  -4.796
REMARK INTRA:                   0.000
REMARK UNBOUND:                 0.000
REMARK  Name = /home/vital/Documents/PhD_2021/Malaria_codes/scripts/../data/pdbqt_ligands/ligand_253_temp.pdb
REMARK                            x       y       z     vdW  Elec       q    Type
REMARK                         _______ _______ _______ _____ _____    ______ ____
ROOT
ATOM      1  C   UNL     1     145.489 132.333  95.367  0.00  0.00    -0.046 C 
ATOM      2  C   UNL     1     143.993 132.674  95.357  0.00  0.00    +0.030 C 
ATOM      3  N   UNL     1     143.366 132.497  96.673  0.00  0.00    -0.306 N 
ATOM      4  C   UNL     1     143.355 131.128  97.181  0.00  0.00    +0.023 C 
ATOM      5  C   UNL     1     142.686 131.072  98.538  0.00  0.00    -0.012 A 
ATOM      6  C   UNL     1     141.295 130.854  98.592  0.00  0.00    -0.056 A 
ATOM      7  C   UNL     1     140.621 130.811  99.814  0.00  0.00    -0.058 A 
ATOM      8  C   UNL     1     141.322 130.992 101.003  0.00  0.00    -0.019 A 
ATOM      9  C   UNL     1     142.698 131.220 100.966  0.00  0.00    +0.135 A 
ATOM     10  O   UNL     1     143.378 131.399 102.142  0.00  0.00    -0.505 OA
ATOM     11  C   UNL     1     143.386 131.266  99.743  0.00  0.00    +0.087 A 
ATOM     12 CL   UNL     1     145.096 131.562  99.746  0.00  0.00    -0.079 Cl
ATOM     13  C   UNL     1     143.184 132.029  94.238  0.00  0.00    -0.031 A 
ATOM     14  C   UNL     1     142.039 132.690  93.757  0.00  0.00    -0.056 A 
ATOM     15  C   UNL     1     141.256 132.128  92.746  0.00  0.00    -0.043 A 
ATOM     16  C   UNL     1     141.606 130.895  92.206  0.00  0.00    +0.041 A 
ATOM     17 CL   UNL     1     140.641 130.199  90.963  0.00  0.00    -0.084 Cl
ATOM     18  C   UNL     1     142.731 130.220  92.670  0.00  0.00    -0.043 A 
ATOM     19  C   UNL     1     143.515 130.782  93.682  0.00  0.00    -0.056 A 
ATOM     20  H   UNL     1     142.399 132.816  96.607  0.00  0.00    +0.000 HD
ATOM     21  H   UNL     1     143.930 133.036  97.329  0.00  0.00    +0.000 HD
ATOM     22  H   UNL     1     142.918 131.368 102.958  0.00  0.00    +0.000 HD
ENDROOT
TORSDOF 0
ENDMDL
MODEL 3
REMARK VINA RESULT:    -4.773      5.337      8.121
REMARK INTER + INTRA:          -4.773
REMARK INTER:                  -4.773
REMARK INTRA:                   0.000
REMARK UNBOUND:                 0.000
REMARK  Name = /home/vital/Documents/PhD_2021/Malaria_codes/scripts/../data/pdbqt_ligands/ligand_253_temp.pdb
REMARK                            x       y       z     vdW  Elec       q    Type
REMARK                         _______ _______ _______ _____ _____    ______ ____
ROOT
ATOM      1  C   UNL     1     139.457 130.288 100.819  0.00  0.00    -0.046 C 
ATOM      2  C   UNL     1     140.826 129.595 100.778  0.00  0.00    +0.030 C 
ATOM      3  N   UNL     1     141.873 130.449 100.202  0.00  0.00    -0.306 N 
ATOM      4  C   UNL     1     141.682 130.812  98.800  0.00  0.00    +0.023 C 
ATOM      5  C   UNL     1     142.818 131.688  98.321  0.00  0.00    -0.012 A 
ATOM      6  C   UNL     1     143.954 131.070  97.761  0.00  0.00    -0.056 A 
ATOM      7  C   UNL     1     145.041 131.827  97.319  0.00  0.00    -0.058 A 
ATOM      8  C   UNL     1     145.016 133.214  97.434  0.00  0.00    -0.019 A 
ATOM      9  C   UNL     1     143.904 133.842  97.995  0.00  0.00    +0.135 A 
ATOM     10  O   UNL     1     143.891 135.207  98.105  0.00  0.00    -0.505 OA
ATOM     11  C   UNL     1     142.805 133.091  98.444  0.00  0.00    +0.087 A 
ATOM     12 CL   UNL     1     141.449 133.915  99.144  0.00  0.00    -0.079 Cl
ATOM     13  C   UNL     1     140.829 128.192 100.183  0.00  0.00    -0.031 A 
ATOM     14  C   UNL     1     141.795 127.268 100.623  0.00  0.00    -0.056 A 
ATOM     15  C   UNL     1     141.849 125.977 100.093  0.00  0.00    -0.043 A 
ATOM     16  C   UNL     1     140.940 125.595  99.111  0.00  0.00    +0.041 A 
ATOM     17 CL   UNL     1     141.007 124.006  98.454  0.00  0.00    -0.084 Cl
ATOM     18  C   UNL     1     139.980 126.493  98.656  0.00  0.00    -0.043 A 
ATOM     19  C   UNL     1     139.926 127.786  99.188  0.00  0.00    -0.056 A 
ATOM     20  H   UNL     1     142.762 129.954 100.280  0.00  0.00    +0.000 HD
ATOM     21  H   UNL     1     141.844 131.323 100.726  0.00  0.00    +0.000 HD
ATOM     22  H   UNL     1     144.624 135.708  97.805  0.00  0.00    +0.000 HD
ENDROOT
TORSDOF 0
ENDMDL
MODEL 4
REMARK VINA RESULT:    -4.732      3.545      6.734
REMARK INTER + INTRA:          -4.732
REMARK INTER:                  -4.732
REMARK INTRA:                   0.000
REMARK UNBOUND:                 0.000
REMARK  Name = /home/vital/Documents/PhD_2021/Malaria_codes/scripts/../data/pdbqt_ligands/ligand_253_temp.pdb
REMARK                            x       y       z     vdW  Elec       q    Type
REMARK                         _______ _______ _______ _____ _____    ______ ____
ROOT
ATOM      1  C   UNL     1     144.149 126.309 103.211  0.00  0.00    -0.046 C 
ATOM      2  C   UNL     1     142.834 125.657 102.765  0.00  0.00    +0.030 C 
ATOM      3  N   UNL     1     142.116 126.460 101.766  0.00  0.00    -0.306 N 
ATOM      4  C   UNL     1     141.658 127.768 102.228  0.00  0.00    +0.023 C 
ATOM      5  C   UNL     1     140.936 128.498 101.116  0.00  0.00    -0.012 A 
ATOM      6  C   UNL     1     139.545 128.319 100.987  0.00  0.00    -0.056 A 
ATOM      7  C   UNL     1     138.830 128.953  99.969  0.00  0.00    -0.058 A 
ATOM      8  C   UNL     1     139.491 129.772  99.058  0.00  0.00    -0.019 A 
ATOM      9  C   UNL     1     140.870 129.952  99.166  0.00  0.00    +0.135 A 
ATOM     10  O   UNL     1     141.512 130.759  98.263  0.00  0.00    -0.505 OA
ATOM     11  C   UNL     1     141.601 129.319 100.185  0.00  0.00    +0.087 A 
ATOM     12 CL   UNL     1     143.315 129.565 100.273  0.00  0.00    -0.079 Cl
ATOM     13  C   UNL     1     141.923 125.187 103.893  0.00  0.00    -0.031 A 
ATOM     14  C   UNL     1     141.063 124.097 103.666  0.00  0.00    -0.056 A 
ATOM     15  C   UNL     1     140.197 123.643 104.664  0.00  0.00    -0.043 A 
ATOM     16  C   UNL     1     140.178 124.278 105.902  0.00  0.00    +0.041 A 
ATOM     17 CL   UNL     1     139.109 123.724 107.131  0.00  0.00    -0.084 Cl
ATOM     18  C   UNL     1     141.015 125.362 106.148  0.00  0.00    -0.043 A 
ATOM     19  C   UNL     1     141.882 125.816 105.149  0.00  0.00    -0.056 A 
ATOM     20  H   UNL     1     141.299 125.930 101.463  0.00  0.00    +0.000 HD
ATOM     21  H   UNL     1     142.785 126.644 101.019  0.00  0.00    +0.000 HD
ATOM     22  H   UNL     1     141.024 131.182  97.584  0.00  0.00    +0.000 HD
ENDROOT
TORSDOF 0
ENDMDL
MODEL 5
REMARK VINA RESULT:    -4.726      4.746      6.761
REMARK INTER + INTRA:          -4.726
REMARK INTER:                  -4.726
REMARK INTRA:                   0.000
REMARK UNBOUND:                 0.000
REMARK  Name = /home/vital/Documents/PhD_2021/Malaria_codes/scripts/../data/pdbqt_ligands/ligand_253_temp.pdb
REMARK                            x       y       z     vdW  Elec       q    Type
REMARK                         _______ _______ _______ _____ _____    ______ ____
ROOT
ATOM      1  C   UNL     1     143.792 126.109  96.279  0.00  0.00    -0.046 C 
ATOM      2  C   UNL     1     142.736 127.119  95.812  0.00  0.00    +0.030 C 
ATOM      3  N   UNL     1     141.912 127.625  96.918  0.00  0.00    -0.306 N 
ATOM      4  C   UNL     1     141.089 126.625  97.591  0.00  0.00    +0.023 C 
ATOM      5  C   UNL     1     140.289 127.262  98.707  0.00  0.00    -0.012 A 
ATOM      6  C   UNL     1     139.010 127.772  98.410  0.00  0.00    -0.056 A 
ATOM      7  C   UNL     1     138.234 128.387  99.394  0.00  0.00    -0.058 A 
ATOM      8  C   UNL     1     138.724 128.510 100.692  0.00  0.00    -0.019 A 
ATOM      9  C   UNL     1     139.993 128.020 101.000  0.00  0.00    +0.135 A 
ATOM     10  O   UNL     1     140.466 128.148 102.280  0.00  0.00    -0.505 OA
ATOM     11  C   UNL     1     140.782 127.400 100.018  0.00  0.00    +0.087 A 
ATOM     12 CL   UNL     1     142.358 126.814 100.447  0.00  0.00    -0.079 Cl
ATOM     13  C   UNL     1     141.897 126.681  94.617  0.00  0.00    -0.031 A 
ATOM     14  C   UNL     1     141.378 127.663  93.753  0.00  0.00    -0.056 A 
ATOM     15  C   UNL     1     140.588 127.310  92.656  0.00  0.00    -0.043 A 
ATOM     16  C   UNL     1     140.303 125.970  92.413  0.00  0.00    +0.041 A 
ATOM     17 CL   UNL     1     139.327 125.534  91.065  0.00  0.00    -0.084 Cl
ATOM     18  C   UNL     1     140.801 124.982  93.257  0.00  0.00    -0.043 A 
ATOM     19  C   UNL     1     141.592 125.336  94.355  0.00  0.00    -0.056 A 
ATOM     20  H   UNL     1     141.292 128.344  96.545  0.00  0.00    +0.000 HD
ATOM     21  H   UNL     1     142.565 127.972  97.620  0.00  0.00    +0.000 HD
ATOM     22  H   UNL     1     139.939 128.561 102.935  0.00  0.00    +0.000 HD
ENDROOT
TORSDOF 0
ENDMDL
MODEL 6
REMARK VINA RESULT:    -4.595      6.669      9.318
REMARK INTER + INTRA:          -4.595
REMARK INTER:                  -4.595
REMARK INTRA:                   0.000
REMARK UNBOUND:                 0.000
REMARK  Name = /home/vital/Documents/PhD_2021/Malaria_codes/scripts/../data/pdbqt_ligands/ligand_253_temp.pdb
REMARK                            x       y       z     vdW  Elec       q    Type
REMARK                         _______ _______ _______ _____ _____    ______ ____
ROOT
ATOM      1  C   UNL     1     142.960 131.279 100.846  0.00  0.00    -0.046 C 
ATOM      2  C   UNL     1     142.955 130.329  99.642  0.00  0.00    +0.030 C 
ATOM      3  N   UNL     1     143.626 130.902  98.468  0.00  0.00    -0.306 N 
ATOM      4  C   UNL     1     142.995 132.095  97.909  0.00  0.00    +0.023 C 
ATOM      5  C   UNL     1     143.774 132.592  96.710  0.00  0.00    -0.012 A 
ATOM      6  C   UNL     1     143.430 132.100  95.435  0.00  0.00    -0.056 A 
ATOM      7  C   UNL     1     144.125 132.508  94.295  0.00  0.00    -0.058 A 
ATOM      8  C   UNL     1     145.180 133.410  94.408  0.00  0.00    -0.019 A 
ATOM      9  C   UNL     1     145.539 133.900  95.664  0.00  0.00    +0.135 A 
ATOM     10  O   UNL     1     146.580 134.785  95.763  0.00  0.00    -0.505 OA
ATOM     11  C   UNL     1     144.848 133.495  96.817  0.00  0.00    +0.087 A 
ATOM     12 CL   UNL     1     145.338 134.123  98.359  0.00  0.00    -0.079 Cl
ATOM     13  C   UNL     1     141.600 129.722  99.296  0.00  0.00    -0.031 A 
ATOM     14  C   UNL     1     141.558 128.457  98.680  0.00  0.00    -0.056 A 
ATOM     15  C   UNL     1     140.341 127.870  98.327  0.00  0.00    -0.043 A 
ATOM     16  C   UNL     1     139.150 128.543  98.582  0.00  0.00    +0.041 A 
ATOM     17 CL   UNL     1     137.649 127.822  98.145  0.00  0.00    -0.084 Cl
ATOM     18  C   UNL     1     139.167 129.796  99.185  0.00  0.00    -0.043 A 
ATOM     19  C   UNL     1     140.386 130.384  99.538  0.00  0.00    -0.056 A 
ATOM     20  H   UNL     1     143.652 130.189  97.739  0.00  0.00    +0.000 HD
ATOM     21  H   UNL     1     144.549 131.195  98.787  0.00  0.00    +0.000 HD
ATOM     22  H   UNL     1     147.040 135.055  94.993  0.00  0.00    +0.000 HD
ENDROOT
TORSDOF 0
ENDMDL
MODEL 7
REMARK VINA RESULT:    -4.506      2.364      2.904
REMARK INTER + INTRA:          -4.506
REMARK INTER:                  -4.506
REMARK INTRA:                   0.000
REMARK UNBOUND:                 0.000
REMARK  Name = /home/vital/Documents/PhD_2021/Malaria_codes/scripts/../data/pdbqt_ligands/ligand_253_temp.pdb
REMARK                            x       y       z     vdW  Elec       q    Type
REMARK                         _______ _______ _______ _____ _____    ______ ____
ROOT
ATOM      1  C   UNL     1     143.098 130.739 100.270  0.00  0.00    -0.046 C 
ATOM      2  C   UNL     1     141.968 130.088 101.079  0.00  0.00    +0.030 C 
ATOM      3  N   UNL     1     142.471 129.227 102.158  0.00  0.00    -0.306 N 
ATOM      4  C   UNL     1     143.235 128.061 101.722  0.00  0.00    +0.023 C 
ATOM      5  C   UNL     1     143.698 127.256 102.917  0.00  0.00    -0.012 A 
ATOM      6  C   UNL     1     142.860 126.232 103.402  0.00  0.00    -0.056 A 
ATOM      7  C   UNL     1     143.227 125.469 104.512  0.00  0.00    -0.058 A 
ATOM      8  C   UNL     1     144.434 125.717 105.161  0.00  0.00    -0.019 A 
ATOM      9  C   UNL     1     145.270 126.734 104.699  0.00  0.00    +0.135 A 
ATOM     10  O   UNL     1     146.454 126.972 105.347  0.00  0.00    -0.505 OA
ATOM     11  C   UNL     1     144.911 127.509 103.585  0.00  0.00    +0.087 A 
ATOM     12 CL   UNL     1     145.978 128.769 103.053  0.00  0.00    -0.079 Cl
ATOM     13  C   UNL     1     140.882 129.408 100.254  0.00  0.00    -0.031 A 
ATOM     14  C   UNL     1     139.577 129.334 100.775  0.00  0.00    -0.056 A 
ATOM     15  C   UNL     1     138.553 128.703 100.064  0.00  0.00    -0.043 A 
ATOM     16  C   UNL     1     138.824 128.135  98.823  0.00  0.00    +0.041 A 
ATOM     17 CL   UNL     1     137.566 127.354  97.947  0.00  0.00    -0.084 Cl
ATOM     18  C   UNL     1     140.108 128.190  98.290  0.00  0.00    -0.043 A 
ATOM     19  C   UNL     1     141.133 128.822  99.003  0.00  0.00    -0.056 A 
ATOM     20  H   UNL     1     141.671 128.896 102.697  0.00  0.00    +0.000 HD
ATOM     21  H   UNL     1     143.118 129.802 102.698  0.00  0.00    +0.000 HD
ATOM     22  H   UNL     1     146.693 126.454 106.090  0.00  0.00    +0.000 HD
ENDROOT
TORSDOF 0
ENDMDL
MODEL 8
REMARK VINA RESULT:    -4.187     16.601     17.846
REMARK INTER + INTRA:          -4.187
REMARK INTER:                  -4.187
REMARK INTRA:                   0.000
REMARK UNBOUND:                 0.000
REMARK  Name = /home/vital/Documents/PhD_2021/Malaria_codes/scripts/../data/pdbqt_ligands/ligand_253_temp.pdb
REMARK                            x       y       z     vdW  Elec       q    Type
REMARK                         _______ _______ _______ _____ _____    ______ ____
ROOT
ATOM      1  C   UNL     1     133.305 126.006  85.181  0.00  0.00    -0.046 C 
ATOM      2  C   UNL     1     134.021 124.678  85.461  0.00  0.00    +0.030 C 
ATOM      3  N   UNL     1     133.366 123.895  86.517  0.00  0.00    -0.306 N 
ATOM      4  C   UNL     1     133.359 124.514  87.840  0.00  0.00    +0.023 C 
ATOM      5  C   UNL     1     132.659 123.618  88.839  0.00  0.00    -0.012 A 
ATOM      6  C   UNL     1     133.427 122.671  89.545  0.00  0.00    -0.056 A 
ATOM      7  C   UNL     1     132.833 121.806  90.466  0.00  0.00    -0.058 A 
ATOM      8  C   UNL     1     131.460 121.866  90.694  0.00  0.00    -0.019 A 
ATOM      9  C   UNL     1     130.684 122.792  89.996  0.00  0.00    +0.135 A 
ATOM     10  O   UNL     1     129.335 122.841  90.226  0.00  0.00    -0.505 OA
ATOM     11  C   UNL     1     131.271 123.666  89.066  0.00  0.00    +0.087 A 
ATOM     12 CL   UNL     1     130.264 124.793  88.215  0.00  0.00    -0.079 Cl
ATOM     13  C   UNL     1     135.528 124.779  85.665  0.00  0.00    -0.031 A 
ATOM     14  C   UNL     1     136.337 123.680  85.324  0.00  0.00    -0.056 A 
ATOM     15  C   UNL     1     137.721 123.720  85.512  0.00  0.00    -0.043 A 
ATOM     16  C   UNL     1     138.312 124.860  86.049  0.00  0.00    +0.041 A 
ATOM     17 CL   UNL     1     140.016 124.910  86.285  0.00  0.00    -0.084 Cl
ATOM     18  C   UNL     1     137.532 125.957  86.399  0.00  0.00    -0.043 A 
ATOM     19  C   UNL     1     136.146 125.916  86.211  0.00  0.00    -0.056 A 
ATOM     20  H   UNL     1     133.848 122.999  86.591  0.00  0.00    +0.000 HD
ATOM     21  H   UNL     1     132.388 123.812  86.240  0.00  0.00    +0.000 HD
ATOM     22  H   UNL     1     128.944 122.258  90.846  0.00  0.00    +0.000 HD
ENDROOT
TORSDOF 0
ENDMDL
MODEL 9
REMARK VINA RESULT:    -4.136      5.734      7.560
REMARK INTER + INTRA:          -4.136
REMARK INTER:                  -4.136
REMARK INTRA:                   0.000
REMARK UNBOUND:                 0.000
REMARK  Name = /home/vital/Documents/PhD_2021/Malaria_codes/scripts/../data/pdbqt_ligands/ligand_253_temp.pdb
REMARK                            x       y       z     vdW  Elec       q    Type
REMARK                         _______ _______ _______ _____ _____    ______ ____
ROOT
ATOM      1  C   UNL     1     146.515 130.598  99.833  0.00  0.00    -0.046 C 
ATOM      2  C   UNL     1     145.554 131.777  99.632  0.00  0.00    +0.030 C 
ATOM      3  N   UNL     1     144.172 131.449 100.009  0.00  0.00    -0.306 N 
ATOM      4  C   UNL     1     143.537 130.407  99.207  0.00  0.00    +0.023 C 
ATOM      5  C   UNL     1     142.124 130.157  99.688  0.00  0.00    -0.012 A 
ATOM      6  C   UNL     1     141.077 130.907  99.115  0.00  0.00    -0.056 A 
ATOM      7  C   UNL     1     139.756 130.733  99.532  0.00  0.00    -0.058 A 
ATOM      8  C   UNL     1     139.457 129.812 100.532  0.00  0.00    -0.019 A 
ATOM      9  C   UNL     1     140.482 129.068 101.116  0.00  0.00    +0.135 A 
ATOM     10  O   UNL     1     140.177 128.166 102.101  0.00  0.00    -0.505 OA
ATOM     11  C   UNL     1     141.815 129.236 100.706  0.00  0.00    +0.087 A 
ATOM     12 CL   UNL     1     143.058 128.296 101.469  0.00  0.00    -0.079 Cl
ATOM     13  C   UNL     1     145.637 132.462  98.273  0.00  0.00    -0.031 A 
ATOM     14  C   UNL     1     145.309 133.827  98.178  0.00  0.00    -0.056 A 
ATOM     15  C   UNL     1     145.351 134.492  96.950  0.00  0.00    -0.043 A 
ATOM     16  C   UNL     1     145.718 133.798  95.801  0.00  0.00    +0.041 A 
ATOM     17 CL   UNL     1     145.768 134.614  94.287  0.00  0.00    -0.084 Cl
ATOM     18  C   UNL     1     146.042 132.447  95.870  0.00  0.00    -0.043 A 
ATOM     19  C   UNL     1     145.999 131.781  97.100  0.00  0.00    -0.056 A 
ATOM     20  H   UNL     1     143.612 132.297  99.924  0.00  0.00    +0.000 HD
ATOM     21  H   UNL     1     144.219 131.083 100.960  0.00  0.00    +0.000 HD
ATOM     22  H   UNL     1     139.288 128.055 102.374  0.00  0.00    +0.000 HD
ENDROOT
TORSDOF 0
ENDMDL
