MODEL 1
REMARK VINA RESULT:    -3.998      0.000      0.000
REMARK INTER + INTRA:          -3.998
REMARK INTER:                  -3.998
REMARK INTRA:                   0.000
REMARK UNBOUND:                 0.000
REMARK  Name = /home/vital/Documents/PhD_2021/Malaria_codes/scripts/../data/pdbqt_ligands/ligand_25_temp.pdb
REMARK                            x       y       z     vdW  Elec       q    Type
REMARK                         _______ _______ _______ _____ _____    ______ ____
ROOT
ATOM      1  C1  UNL     1     129.307 129.063  87.725  0.00  0.00    -0.018 C 
ATOM      2  S1  UNL     1     128.288 130.508  88.100  0.00  0.00    -0.159 S 
ATOM      3  C2  UNL     1     128.078 131.135  86.406  0.00  0.00    +0.019 C 
ATOM      4  C3  UNL     1     127.237 132.386  86.386  0.00  0.00    -0.033 A 
ATOM      5  C4  UNL     1     125.844 132.302  86.219  0.00  0.00    -0.012 A 
ATOM      6  C5  UNL     1     125.113 133.474  86.221  0.00  0.00    +0.168 A 
ATOM      7  C6  UNL     1     125.703 134.706  86.385  0.00  0.00    +0.180 A 
ATOM      8  C7  UNL     1     127.067 134.820  86.558  0.00  0.00    +0.064 A 
ATOM      9 BR1  UNL     1     127.896 136.500  86.790  0.00  0.00    -0.046 Br
ATOM     10  C8  UNL     1     127.839 133.654  86.562  0.00  0.00    -0.040 A 
ATOM     11  O1  UNL     1     124.790 135.715  86.351  0.00  0.00    -0.451 OA
ATOM     12  C9  UNL     1     123.565 134.980  86.164  0.00  0.00    +0.233 C 
ATOM     13  O2  UNL     1     123.763 133.555  86.067  0.00  0.00    -0.453 OA
ENDROOT
TORSDOF 0
ENDMDL
MODEL 2
REMARK VINA RESULT:    -3.967      3.892      5.652
REMARK INTER + INTRA:          -3.967
REMARK INTER:                  -3.967
REMARK INTRA:                   0.000
REMARK UNBOUND:                 0.000
REMARK  Name = /home/vital/Documents/PhD_2021/Malaria_codes/scripts/../data/pdbqt_ligands/ligand_25_temp.pdb
REMARK                            x       y       z     vdW  Elec       q    Type
REMARK                         _______ _______ _______ _____ _____    ______ ____
ROOT
ATOM      1  C1  UNL     1     124.948 135.839  85.635  0.00  0.00    -0.018 C 
ATOM      2  S1  UNL     1     126.548 135.140  86.103  0.00  0.00    -0.159 S 
ATOM      3  C2  UNL     1     126.058 133.393  86.207  0.00  0.00    +0.019 C 
ATOM      4  C3  UNL     1     127.224 132.519  86.593  0.00  0.00    -0.033 A 
ATOM      5  C4  UNL     1     128.031 131.935  85.602  0.00  0.00    -0.012 A 
ATOM      6  C5  UNL     1     129.097 131.153  86.003  0.00  0.00    +0.168 A 
ATOM      7  C6  UNL     1     129.390 130.938  87.330  0.00  0.00    +0.180 A 
ATOM      8  C7  UNL     1     128.622 131.504  88.325  0.00  0.00    +0.064 A 
ATOM      9 BR1  UNL     1     129.009 131.226  90.152  0.00  0.00    -0.046 Br
ATOM     10  C8  UNL     1     127.534 132.302  87.956  0.00  0.00    -0.040 A 
ATOM     11  O1  UNL     1     130.480 130.137  87.485  0.00  0.00    -0.451 OA
ATOM     12  C9  UNL     1     130.844 129.887  86.114  0.00  0.00    +0.233 C 
ATOM     13  O2  UNL     1     129.963 130.519  85.165  0.00  0.00    -0.453 OA
ENDROOT
TORSDOF 0
ENDMDL
MODEL 3
REMARK VINA RESULT:    -3.555     19.780     20.981
REMARK INTER + INTRA:          -3.555
REMARK INTER:                  -3.555
REMARK INTRA:                   0.000
REMARK UNBOUND:                 0.000
REMARK  Name = /home/vital/Documents/PhD_2021/Malaria_codes/scripts/../data/pdbqt_ligands/ligand_25_temp.pdb
REMARK                            x       y       z     vdW  Elec       q    Type
REMARK                         _______ _______ _______ _____ _____    ______ ____
ROOT
ATOM      1  C1  UNL     1     145.072 134.152  97.183  0.00  0.00    -0.018 C 
ATOM      2  S1  UNL     1     144.289 132.581  97.614  0.00  0.00    -0.159 S 
ATOM      3  C2  UNL     1     143.378 133.129  99.088  0.00  0.00    +0.019 C 
ATOM      4  C3  UNL     1     142.592 131.997  99.699  0.00  0.00    -0.033 A 
ATOM      5  C4  UNL     1     141.260 131.769  99.314  0.00  0.00    -0.012 A 
ATOM      6  C5  UNL     1     140.585 130.711  99.891  0.00  0.00    +0.168 A 
ATOM      7  C6  UNL     1     141.175 129.881 100.816  0.00  0.00    +0.180 A 
ATOM      8  C7  UNL     1     142.483 130.074 101.208  0.00  0.00    +0.064 A 
ATOM      9 BR1  UNL     1     143.314 128.945 102.472  0.00  0.00    -0.046 Br
ATOM     10  C8  UNL     1     143.198 131.136 100.644  0.00  0.00    -0.040 A 
ATOM     11  O1  UNL     1     140.321 128.912 101.247  0.00  0.00    -0.451 OA
ATOM     12  C9  UNL     1     139.140 129.216 100.480  0.00  0.00    +0.233 C 
ATOM     13  O2  UNL     1     139.295 130.366  99.625  0.00  0.00    -0.453 OA
ENDROOT
TORSDOF 0
ENDMDL
MODEL 4
REMARK VINA RESULT:    -3.371     12.278     12.760
REMARK INTER + INTRA:          -3.371
REMARK INTER:                  -3.371
REMARK INTRA:                   0.000
REMARK UNBOUND:                 0.000
REMARK  Name = /home/vital/Documents/PhD_2021/Malaria_codes/scripts/../data/pdbqt_ligands/ligand_25_temp.pdb
REMARK                            x       y       z     vdW  Elec       q    Type
REMARK                         _______ _______ _______ _____ _____    ______ ____
ROOT
ATOM      1  C1  UNL     1     136.958 125.641  85.314  0.00  0.00    -0.018 C 
ATOM      2  S1  UNL     1     135.214 125.323  85.667  0.00  0.00    -0.159 S 
ATOM      3  C2  UNL     1     135.410 123.799  86.638  0.00  0.00    +0.019 C 
ATOM      4  C3  UNL     1     134.076 123.267  87.097  0.00  0.00    -0.033 A 
ATOM      5  C4  UNL     1     133.549 123.650  88.341  0.00  0.00    -0.012 A 
ATOM      6  C5  UNL     1     132.318 123.147  88.713  0.00  0.00    +0.168 A 
ATOM      7  C6  UNL     1     131.598 122.297  87.906  0.00  0.00    +0.180 A 
ATOM      8  C7  UNL     1     132.085 121.909  86.675  0.00  0.00    +0.064 A 
ATOM      9 BR1  UNL     1     131.113 120.748  85.548  0.00  0.00    -0.046 Br
ATOM     10  C8  UNL     1     133.330 122.398  86.265  0.00  0.00    -0.040 A 
ATOM     11  O1  UNL     1     130.418 121.931  88.477  0.00  0.00    -0.451 OA
ATOM     12  C9  UNL     1     130.471 122.656  89.721  0.00  0.00    +0.233 C 
ATOM     13  O2  UNL     1     131.681 123.422  89.885  0.00  0.00    -0.453 OA
ENDROOT
TORSDOF 0
ENDMDL
MODEL 5
REMARK VINA RESULT:    -3.326     20.110     21.674
REMARK INTER + INTRA:          -3.326
REMARK INTER:                  -3.326
REMARK INTRA:                   0.000
REMARK UNBOUND:                 0.000
REMARK  Name = /home/vital/Documents/PhD_2021/Malaria_codes/scripts/../data/pdbqt_ligands/ligand_25_temp.pdb
REMARK                            x       y       z     vdW  Elec       q    Type
REMARK                         _______ _______ _______ _____ _____    ______ ____
ROOT
ATOM      1  C1  UNL     1     145.323 126.075 102.740  0.00  0.00    -0.018 C 
ATOM      2  S1  UNL     1     144.472 127.023 101.457  0.00  0.00    -0.159 S 
ATOM      3  C2  UNL     1     143.531 128.146 102.534  0.00  0.00    +0.019 C 
ATOM      4  C3  UNL     1     142.688 129.100 101.726  0.00  0.00    -0.033 A 
ATOM      5  C4  UNL     1     143.199 130.354 101.350  0.00  0.00    -0.012 A 
ATOM      6  C5  UNL     1     142.396 131.189 100.599  0.00  0.00    +0.168 A 
ATOM      7  C6  UNL     1     141.126 130.830 100.208  0.00  0.00    +0.180 A 
ATOM      8  C7  UNL     1     140.600 129.603 100.556  0.00  0.00    +0.064 A 
ATOM      9 BR1  UNL     1     138.863 129.087 100.027  0.00  0.00    -0.046 Br
ATOM     10  C8  UNL     1     141.386 128.731 101.316  0.00  0.00    -0.040 A 
ATOM     11  O1  UNL     1     140.523 131.809  99.479  0.00  0.00    -0.451 OA
ATOM     12  C9  UNL     1     141.557 132.811  99.443  0.00  0.00    +0.233 C 
ATOM     13  O2  UNL     1     142.746 132.430 100.163  0.00  0.00    -0.453 OA
ENDROOT
TORSDOF 0
ENDMDL
MODEL 6
REMARK VINA RESULT:    -3.263     26.598     27.296
REMARK INTER + INTRA:          -3.263
REMARK INTER:                  -3.263
REMARK INTRA:                   0.000
REMARK UNBOUND:                 0.000
REMARK  Name = /home/vital/Documents/PhD_2021/Malaria_codes/scripts/../data/pdbqt_ligands/ligand_25_temp.pdb
REMARK                            x       y       z     vdW  Elec       q    Type
REMARK                         _______ _______ _______ _____ _____    ______ ____
ROOT
ATOM      1  C1  UNL     1     144.483 138.537 109.402  0.00  0.00    -0.018 C 
ATOM      2  S1  UNL     1     143.592 140.110 109.358  0.00  0.00    -0.159 S 
ATOM      3  C2  UNL     1     142.044 139.520 108.609  0.00  0.00    +0.019 C 
ATOM      4  C3  UNL     1     141.056 140.646 108.436  0.00  0.00    -0.033 A 
ATOM      5  C4  UNL     1     140.122 140.931 109.446  0.00  0.00    -0.012 A 
ATOM      6  C5  UNL     1     139.245 141.981 109.250  0.00  0.00    +0.168 A 
ATOM      7  C6  UNL     1     139.266 142.749 108.109  0.00  0.00    +0.180 A 
ATOM      8  C7  UNL     1     140.176 142.499 107.103  0.00  0.00    +0.064 A 
ATOM      9 BR1  UNL     1     140.225 143.544 105.532  0.00  0.00    -0.046 Br
ATOM     10  C8  UNL     1     141.079 141.444 107.268  0.00  0.00    -0.040 A 
ATOM     11  O1  UNL     1     138.313 143.722 108.135  0.00  0.00    -0.451 OA
ATOM     12  C9  UNL     1     137.707 143.488 109.420  0.00  0.00    +0.233 C 
ATOM     13  O2  UNL     1     138.285 142.375 110.130  0.00  0.00    -0.453 OA
ENDROOT
TORSDOF 0
ENDMDL
MODEL 7
REMARK VINA RESULT:    -3.233     19.584     21.078
REMARK INTER + INTRA:          -3.233
REMARK INTER:                  -3.233
REMARK INTRA:                   0.000
REMARK UNBOUND:                 0.000
REMARK  Name = /home/vital/Documents/PhD_2021/Malaria_codes/scripts/../data/pdbqt_ligands/ligand_25_temp.pdb
REMARK                            x       y       z     vdW  Elec       q    Type
REMARK                         _______ _______ _______ _____ _____    ______ ____
ROOT
ATOM      1  C1  UNL     1     142.527 124.359 103.353  0.00  0.00    -0.018 C 
ATOM      2  S1  UNL     1     142.565 125.501 101.952  0.00  0.00    -0.159 S 
ATOM      3  C2  UNL     1     141.323 126.691 102.542  0.00  0.00    +0.019 C 
ATOM      4  C3  UNL     1     141.124 127.810 101.552  0.00  0.00    -0.033 A 
ATOM      5  C4  UNL     1     141.881 128.990 101.652  0.00  0.00    -0.012 A 
ATOM      6  C5  UNL     1     141.673 129.982 100.714  0.00  0.00    +0.168 A 
ATOM      7  C6  UNL     1     140.761 129.847  99.693  0.00  0.00    +0.180 A 
ATOM      8  C7  UNL     1     140.008 128.699  99.563  0.00  0.00    +0.064 A 
ATOM      9 BR1  UNL     1     138.755 128.490  98.168  0.00  0.00    -0.046 Br
ATOM     10  C8  UNL     1     140.192 127.672 100.496  0.00  0.00    -0.040 A 
ATOM     11  O1  UNL     1     140.726 130.949  98.894  0.00  0.00    -0.451 OA
ATOM     12  C9  UNL     1     141.725 131.779  99.516  0.00  0.00    +0.233 C 
ATOM     13  O2  UNL     1     142.323 131.177 100.681  0.00  0.00    -0.453 OA
ENDROOT
TORSDOF 0
ENDMDL
MODEL 8
REMARK VINA RESULT:    -3.145     19.269     20.732
REMARK INTER + INTRA:          -3.145
REMARK INTER:                  -3.145
REMARK INTRA:                   0.000
REMARK UNBOUND:                 0.000
REMARK  Name = /home/vital/Documents/PhD_2021/Malaria_codes/scripts/../data/pdbqt_ligands/ligand_25_temp.pdb
REMARK                            x       y       z     vdW  Elec       q    Type
REMARK                         _______ _______ _______ _____ _____    ______ ____
ROOT
ATOM      1  C1  UNL     1     143.548 123.685 100.712  0.00  0.00    -0.018 C 
ATOM      2  S1  UNL     1     143.143 125.216  99.842  0.00  0.00    -0.159 S 
ATOM      3  C2  UNL     1     141.966 125.906 101.045  0.00  0.00    +0.019 C 
ATOM      4  C3  UNL     1     141.430 127.238 100.584  0.00  0.00    -0.033 A 
ATOM      5  C4  UNL     1     142.071 128.429 100.963  0.00  0.00    -0.012 A 
ATOM      6  C5  UNL     1     141.552 129.625 100.507  0.00  0.00    +0.168 A 
ATOM      7  C6  UNL     1     140.442 129.681  99.696  0.00  0.00    +0.180 A 
ATOM      8  C7  UNL     1     139.796 128.528  99.301  0.00  0.00    +0.064 A 
ATOM      9 BR1  UNL     1     138.274 128.581  98.185  0.00  0.00    -0.046 Br
ATOM     10  C8  UNL     1     140.293 127.298  99.745  0.00  0.00    -0.040 A 
ATOM     11  O1  UNL     1     140.113 130.962  99.373  0.00  0.00    -0.451 OA
ATOM     12  C9  UNL     1     141.145 131.698 100.056  0.00  0.00    +0.233 C 
ATOM     13  O2  UNL     1     142.057 130.857 100.790  0.00  0.00    -0.453 OA
ENDROOT
TORSDOF 0
ENDMDL
MODEL 9
REMARK VINA RESULT:    -3.009     19.489     21.165
REMARK INTER + INTRA:          -3.009
REMARK INTER:                  -3.009
REMARK INTRA:                   0.000
REMARK UNBOUND:                 0.000
REMARK  Name = /home/vital/Documents/PhD_2021/Malaria_codes/scripts/../data/pdbqt_ligands/ligand_25_temp.pdb
REMARK                            x       y       z     vdW  Elec       q    Type
REMARK                         _______ _______ _______ _____ _____    ______ ____
ROOT
ATOM      1  C1  UNL     1     146.169 131.600 101.125  0.00  0.00    -0.018 C 
ATOM      2  S1  UNL     1     144.552 131.335 100.361  0.00  0.00    -0.159 S 
ATOM      3  C2  UNL     1     144.154 129.732 101.122  0.00  0.00    +0.019 C 
ATOM      4  C3  UNL     1     142.809 129.227 100.664  0.00  0.00    -0.033 A 
ATOM      5  C4  UNL     1     141.650 129.536 101.394  0.00  0.00    -0.012 A 
ATOM      6  C5  UNL     1     140.438 129.063 100.929  0.00  0.00    +0.168 A 
ATOM      7  C6  UNL     1     140.336 128.312  99.781  0.00  0.00    +0.180 A 
ATOM      8  C7  UNL     1     141.456 127.999  99.038  0.00  0.00    +0.064 A 
ATOM      9 BR1  UNL     1     141.339 126.974  97.457  0.00  0.00    -0.046 Br
ATOM     10  C8  UNL     1     142.700 128.461  99.479  0.00  0.00    -0.040 A 
ATOM     11  O1  UNL     1     139.048 127.957  99.518  0.00  0.00    -0.451 OA
ATOM     12  C9  UNL     1     138.356 128.579 100.617  0.00  0.00    +0.233 C 
ATOM     13  O2  UNL     1     139.233 129.274 101.525  0.00  0.00    -0.453 OA
ENDROOT
TORSDOF 0
ENDMDL
