MODEL 1
REMARK VINA RESULT:    -5.670      0.000      0.000
REMARK INTER + INTRA:          -5.670
REMARK INTER:                  -5.670
REMARK INTRA:                   0.000
REMARK UNBOUND:                 0.000
REMARK  Name = /home/vital/Documents/PhD_2021/Malaria_codes/scripts/../data/pdbqt_ligands/ligand_6_temp.pdb
REMARK                            x       y       z     vdW  Elec       q    Type
REMARK                         _______ _______ _______ _____ _____    ______ ____
ROOT
ATOM      1  C1  UNL     1     144.419 134.638  98.214  0.00  0.00    +0.079 C 
ATOM      2  O1  UNL     1     144.578 133.229  98.107  0.00  0.00    -0.495 OA
ATOM      3  C2  UNL     1     143.508 132.449  98.464  0.00  0.00    +0.123 A 
ATOM      4  C3  UNL     1     142.258 132.939  98.856  0.00  0.00    -0.019 A 
ATOM      5  C4  UNL     1     141.225 132.058  99.196  0.00  0.00    -0.049 A 
ATOM      6  C5  UNL     1     141.430 130.675  99.158  0.00  0.00    +0.008 A 
ATOM      7  C6  UNL     1     140.341 129.762  99.475  0.00  0.00    +0.156 A 
ATOM      8  N1  UNL     1     139.178 129.865  98.813  0.00  0.00    -0.047 NA
ATOM      9  O2  UNL     1     138.422 128.780  99.216  0.00  0.00    -0.240 OA
ATOM     10  N2  UNL     1     139.108 128.003 100.131  0.00  0.00    -0.033 NA
ATOM     11  C7  UNL     1     140.265 128.635 100.344  0.00  0.00    +0.197 A 
ATOM     12  N3  UNL     1     141.132 128.100 101.275  0.00  0.00    -0.262 N 
ATOM     13  C8  UNL     1     142.142 128.761 101.926  0.00  0.00    +0.253 C 
ATOM     14  O3  UNL     1     142.394 129.954 101.795  0.00  0.00    -0.270 OA
ATOM     15  C9  UNL     1     142.967 127.950 102.886  0.00  0.00    +0.079 A 
ATOM     16  C10 UNL     1     144.168 128.542 103.323  0.00  0.00    -0.046 A 
ATOM     17  C11 UNL     1     145.017 127.877 104.207  0.00  0.00    -0.061 A 
ATOM     18  C12 UNL     1     144.674 126.611 104.668  0.00  0.00    -0.058 A 
ATOM     19  C13 UNL     1     143.483 126.011 104.251  0.00  0.00    -0.019 A 
ATOM     20  C14 UNL     1     142.617 126.668 103.364  0.00  0.00    +0.132 A 
ATOM     21  O4  UNL     1     141.430 126.129 102.931  0.00  0.00    -0.494 OA
ATOM     22  C15 UNL     1     141.017 124.887 103.495  0.00  0.00    +0.079 C 
ATOM     23  C16 UNL     1     142.676 130.183  98.750  0.00  0.00    -0.046 A 
ATOM     24  C17 UNL     1     143.721 131.059  98.410  0.00  0.00    -0.008 A 
ATOM     25  C18 UNL     1     145.051 130.502  97.983  0.00  0.00    -0.036 C 
ATOM     26  H   UNL     1     141.014 127.147 101.494  0.00  0.00    +0.000 HD
ENDROOT
TORSDOF 0
ENDMDL
MODEL 2
REMARK VINA RESULT:    -5.359      3.776      5.756
REMARK INTER + INTRA:          -5.359
REMARK INTER:                  -5.359
REMARK INTRA:                   0.000
REMARK UNBOUND:                 0.000
REMARK  Name = /home/vital/Documents/PhD_2021/Malaria_codes/scripts/../data/pdbqt_ligands/ligand_6_temp.pdb
REMARK                            x       y       z     vdW  Elec       q    Type
REMARK                         _______ _______ _______ _____ _____    ______ ____
ROOT
ATOM      1  C1  UNL     1     139.205 127.508  97.119  0.00  0.00    +0.079 C 
ATOM      2  O1  UNL     1     138.934 127.984  98.431  0.00  0.00    -0.495 OA
ATOM      3  C2  UNL     1     139.955 127.920  99.344  0.00  0.00    +0.123 A 
ATOM      4  C3  UNL     1     141.254 127.489  99.060  0.00  0.00    -0.019 A 
ATOM      5  C4  UNL     1     142.231 127.466 100.063  0.00  0.00    -0.049 A 
ATOM      6  C5  UNL     1     141.919 127.866 101.366  0.00  0.00    +0.008 A 
ATOM      7  C6  UNL     1     142.947 127.878 102.397  0.00  0.00    +0.156 A 
ATOM      8  N1  UNL     1     144.085 128.558 102.188  0.00  0.00    -0.047 NA
ATOM      9  O2  UNL     1     144.772 128.513 103.386  0.00  0.00    -0.240 OA
ATOM     10  N2  UNL     1     144.068 127.804 104.341  0.00  0.00    -0.033 NA
ATOM     11  C7  UNL     1     142.973 127.355 103.722  0.00  0.00    +0.197 A 
ATOM     12  N3  UNL     1     142.108 126.552 104.439  0.00  0.00    -0.262 N 
ATOM     13  C8  UNL     1     141.182 125.684 103.921  0.00  0.00    +0.253 C 
ATOM     14  O3  UNL     1     141.016 125.470 102.725  0.00  0.00    -0.270 OA
ATOM     15  C9  UNL     1     140.339 124.931 104.913  0.00  0.00    +0.079 A 
ATOM     16  C10 UNL     1     139.207 124.276 104.391  0.00  0.00    -0.046 A 
ATOM     17  C11 UNL     1     138.349 123.555 105.220  0.00  0.00    -0.061 A 
ATOM     18  C12 UNL     1     138.612 123.478 106.582  0.00  0.00    -0.058 A 
ATOM     19  C13 UNL     1     139.735 124.115 107.117  0.00  0.00    -0.019 A 
ATOM     20  C14 UNL     1     140.610 124.842 106.295  0.00  0.00    +0.132 A 
ATOM     21  O4  UNL     1     141.732 125.479 106.767  0.00  0.00    -0.494 OA
ATOM     22  C15 UNL     1     142.073 125.302 108.139  0.00  0.00    +0.079 C 
ATOM     23  C16 UNL     1     140.622 128.314 101.648  0.00  0.00    -0.046 A 
ATOM     24  C17 UNL     1     139.633 128.337 100.649  0.00  0.00    -0.008 A 
ATOM     25  C18 UNL     1     138.248 128.815 100.984  0.00  0.00    -0.036 C 
ATOM     26  H   UNL     1     142.163 126.608 105.420  0.00  0.00    +0.000 HD
ENDROOT
TORSDOF 0
ENDMDL
MODEL 3
REMARK VINA RESULT:    -5.336     13.148     15.452
REMARK INTER + INTRA:          -5.336
REMARK INTER:                  -5.336
REMARK INTRA:                   0.000
REMARK UNBOUND:                 0.000
REMARK  Name = /home/vital/Documents/PhD_2021/Malaria_codes/scripts/../data/pdbqt_ligands/ligand_6_temp.pdb
REMARK                            x       y       z     vdW  Elec       q    Type
REMARK                         _______ _______ _______ _____ _____    ______ ____
ROOT
ATOM      1  C1  UNL     1     131.361 120.925  86.009  0.00  0.00    +0.079 C 
ATOM      2  O1  UNL     1     131.610 121.678  87.189  0.00  0.00    -0.495 OA
ATOM      3  C2  UNL     1     132.539 122.684  87.108  0.00  0.00    +0.123 A 
ATOM      4  C3  UNL     1     133.202 123.064  85.937  0.00  0.00    -0.019 A 
ATOM      5  C4  UNL     1     134.131 124.111  85.956  0.00  0.00    -0.049 A 
ATOM      6  C5  UNL     1     134.416 124.786  87.147  0.00  0.00    +0.008 A 
ATOM      7  C6  UNL     1     135.355 125.899  87.155  0.00  0.00    +0.156 A 
ATOM      8  N1  UNL     1     135.163 126.931  86.319  0.00  0.00    -0.047 NA
ATOM      9  O2  UNL     1     136.105 127.878  86.673  0.00  0.00    -0.240 OA
ATOM     10  N2  UNL     1     136.886 127.440  87.725  0.00  0.00    -0.033 NA
ATOM     11  C7  UNL     1     136.473 126.196  87.986  0.00  0.00    +0.197 A 
ATOM     12  N3  UNL     1     137.135 125.489  88.970  0.00  0.00    -0.262 N 
ATOM     13  C8  UNL     1     137.155 124.126  89.122  0.00  0.00    +0.253 C 
ATOM     14  O3  UNL     1     136.608 123.331  88.366  0.00  0.00    -0.270 OA
ATOM     15  C9  UNL     1     137.937 123.592  90.290  0.00  0.00    +0.079 A 
ATOM     16  C10 UNL     1     137.717 122.239  90.614  0.00  0.00    -0.046 A 
ATOM     17  C11 UNL     1     138.380 121.640  91.684  0.00  0.00    -0.061 A 
ATOM     18  C12 UNL     1     139.274 122.386  92.443  0.00  0.00    -0.058 A 
ATOM     19  C13 UNL     1     139.511 123.728  92.132  0.00  0.00    -0.019 A 
ATOM     20  C14 UNL     1     138.853 124.344  91.056  0.00  0.00    +0.132 A 
ATOM     21  O4  UNL     1     139.055 125.655  90.701  0.00  0.00    -0.494 OA
ATOM     22  C15 UNL     1     140.059 126.388  91.399  0.00  0.00    +0.079 C 
ATOM     23  C16 UNL     1     133.740 124.416  88.318  0.00  0.00    -0.046 A 
ATOM     24  C17 UNL     1     132.808 123.364  88.310  0.00  0.00    -0.008 A 
ATOM     25  C18 UNL     1     132.103 122.984  89.582  0.00  0.00    -0.036 C 
ATOM     26  H   UNL     1     137.643 126.015  89.628  0.00  0.00    +0.000 HD
ENDROOT
TORSDOF 0
ENDMDL
MODEL 4
REMARK VINA RESULT:    -5.016      2.441      8.053
REMARK INTER + INTRA:          -5.016
REMARK INTER:                  -5.016
REMARK INTRA:                   0.000
REMARK UNBOUND:                 0.000
REMARK  Name = /home/vital/Documents/PhD_2021/Malaria_codes/scripts/../data/pdbqt_ligands/ligand_6_temp.pdb
REMARK                            x       y       z     vdW  Elec       q    Type
REMARK                         _______ _______ _______ _____ _____    ______ ____
ROOT
ATOM      1  C1  UNL     1     140.070 122.439 106.456  0.00  0.00    +0.079 C 
ATOM      2  O1  UNL     1     140.559 122.643 105.136  0.00  0.00    -0.495 OA
ATOM      3  C2  UNL     1     141.410 123.700 104.940  0.00  0.00    +0.123 A 
ATOM      4  C3  UNL     1     141.884 124.542 105.951  0.00  0.00    -0.019 A 
ATOM      5  C4  UNL     1     142.758 125.593 105.648  0.00  0.00    -0.049 A 
ATOM      6  C5  UNL     1     143.163 125.821 104.329  0.00  0.00    +0.008 A 
ATOM      7  C6  UNL     1     144.102 126.891 104.024  0.00  0.00    +0.156 A 
ATOM      8  N1  UNL     1     145.282 126.938 104.663  0.00  0.00    -0.047 NA
ATOM      9  O2  UNL     1     145.998 127.949 104.051  0.00  0.00    -0.240 OA
ATOM     10  N2  UNL     1     145.269 128.535 103.034  0.00  0.00    -0.033 NA
ATOM     11  C7  UNL     1     144.077 127.933 103.052  0.00  0.00    +0.197 A 
ATOM     12  N3  UNL     1     143.116 128.374 102.165  0.00  0.00    -0.262 N 
ATOM     13  C8  UNL     1     141.761 128.196 102.273  0.00  0.00    +0.253 C 
ATOM     14  O3  UNL     1     141.202 127.641 103.213  0.00  0.00    -0.270 OA
ATOM     15  C9  UNL     1     140.918 128.756 101.161  0.00  0.00    +0.079 A 
ATOM     16  C10 UNL     1     139.579 128.323 101.120  0.00  0.00    -0.046 A 
ATOM     17  C11 UNL     1     138.709 128.769 100.127  0.00  0.00    -0.061 A 
ATOM     18  C12 UNL     1     139.166 129.658  99.161  0.00  0.00    -0.058 A 
ATOM     19  C13 UNL     1     140.490 130.105  99.189  0.00  0.00    -0.019 A 
ATOM     20  C14 UNL     1     141.377 129.667 100.184  0.00  0.00    +0.132 A 
ATOM     21  O4  UNL     1     142.684 130.082 100.264  0.00  0.00    -0.494 OA
ATOM     22  C15 UNL     1     143.123 131.084  99.351  0.00  0.00    +0.079 C 
ATOM     23  C16 UNL     1     142.702 124.969 103.318  0.00  0.00    -0.046 A 
ATOM     24  C17 UNL     1     141.821 123.913 103.611  0.00  0.00    -0.008 A 
ATOM     25  C18 UNL     1     141.337 123.019 102.504  0.00  0.00    -0.036 C 
ATOM     26  H   UNL     1     143.436 128.866 101.375  0.00  0.00    +0.000 HD
ENDROOT
TORSDOF 0
ENDMDL
MODEL 5
REMARK VINA RESULT:    -4.778      2.887      6.803
REMARK INTER + INTRA:          -4.778
REMARK INTER:                  -4.778
REMARK INTRA:                   0.000
REMARK UNBOUND:                 0.000
REMARK  Name = /home/vital/Documents/PhD_2021/Malaria_codes/scripts/../data/pdbqt_ligands/ligand_6_temp.pdb
REMARK                            x       y       z     vdW  Elec       q    Type
REMARK                         _______ _______ _______ _____ _____    ______ ____
ROOT
ATOM      1  C1  UNL     1     142.762 122.904  98.011  0.00  0.00    +0.079 C 
ATOM      2  O1  UNL     1     143.392 123.980  98.694  0.00  0.00    -0.495 OA
ATOM      3  C2  UNL     1     142.602 125.042  99.054  0.00  0.00    +0.123 A 
ATOM      4  C3  UNL     1     141.219 125.109  98.862  0.00  0.00    -0.019 A 
ATOM      5  C4  UNL     1     140.499 126.238  99.272  0.00  0.00    -0.049 A 
ATOM      6  C5  UNL     1     141.154 127.318  99.872  0.00  0.00    +0.008 A 
ATOM      7  C6  UNL     1     140.397 128.474 100.331  0.00  0.00    +0.156 A 
ATOM      8  N1  UNL     1     139.372 128.297 101.179  0.00  0.00    -0.047 NA
ATOM      9  O2  UNL     1     138.969 129.567 101.547  0.00  0.00    -0.240 OA
ATOM     10  N2  UNL     1     139.738 130.536 100.930  0.00  0.00    -0.033 NA
ATOM     11  C7  UNL     1     140.578 129.873 100.130  0.00  0.00    +0.197 A 
ATOM     12  N3  UNL     1     141.433 130.611  99.337  0.00  0.00    -0.262 N 
ATOM     13  C8  UNL     1     142.064 130.183  98.197  0.00  0.00    +0.253 C 
ATOM     14  O3  UNL     1     141.922 129.073  97.695  0.00  0.00    -0.270 OA
ATOM     15  C9  UNL     1     142.967 131.173  97.516  0.00  0.00    +0.079 A 
ATOM     16  C10 UNL     1     143.830 130.650  96.533  0.00  0.00    -0.046 A 
ATOM     17  C11 UNL     1     144.717 131.475  95.844  0.00  0.00    -0.061 A 
ATOM     18  C12 UNL     1     144.753 132.835  96.127  0.00  0.00    -0.058 A 
ATOM     19  C13 UNL     1     143.899 133.374  97.093  0.00  0.00    -0.019 A 
ATOM     20  C14 UNL     1     142.998 132.557  97.794  0.00  0.00    +0.132 A 
ATOM     21  O4  UNL     1     142.131 133.035  98.745  0.00  0.00    -0.494 OA
ATOM     22  C15 UNL     1     142.078 134.445  98.952  0.00  0.00    +0.079 C 
ATOM     23  C16 UNL     1     142.538 127.245 100.079  0.00  0.00    -0.046 A 
ATOM     24  C17 UNL     1     143.270 126.118  99.668  0.00  0.00    -0.008 A 
ATOM     25  C18 UNL     1     144.756 126.071  99.896  0.00  0.00    -0.036 C 
ATOM     26  H   UNL     1     141.608 131.538  99.617  0.00  0.00    +0.000 HD
ENDROOT
TORSDOF 0
ENDMDL
MODEL 6
REMARK VINA RESULT:    -4.608      3.389      5.198
REMARK INTER + INTRA:          -4.608
REMARK INTER:                  -4.608
REMARK INTRA:                   0.000
REMARK UNBOUND:                 0.000
REMARK  Name = /home/vital/Documents/PhD_2021/Malaria_codes/scripts/../data/pdbqt_ligands/ligand_6_temp.pdb
REMARK                            x       y       z     vdW  Elec       q    Type
REMARK                         _______ _______ _______ _____ _____    ______ ____
ROOT
ATOM      1  C1  UNL     1     142.447 133.163  99.129  0.00  0.00    +0.079 C 
ATOM      2  O1  UNL     1     141.385 132.227  99.265  0.00  0.00    -0.495 OA
ATOM      3  C2  UNL     1     141.613 131.132 100.059  0.00  0.00    +0.123 A 
ATOM      4  C3  UNL     1     142.781 130.908 100.794  0.00  0.00    -0.019 A 
ATOM      5  C4  UNL     1     142.914 129.759 101.582  0.00  0.00    -0.049 A 
ATOM      6  C5  UNL     1     141.885 128.813 101.638  0.00  0.00    +0.008 A 
ATOM      7  C6  UNL     1     142.012 127.638 102.488  0.00  0.00    +0.156 A 
ATOM      8  N1  UNL     1     142.286 127.793 103.793  0.00  0.00    -0.047 NA
ATOM      9  O2  UNL     1     142.184 126.532 104.348  0.00  0.00    -0.240 OA
ATOM     10  N2  UNL     1     141.850 125.589 103.394  0.00  0.00    -0.033 NA
ATOM     11  C7  UNL     1     141.806 126.252 102.234  0.00  0.00    +0.197 A 
ATOM     12  N3  UNL     1     141.550 125.529 101.086  0.00  0.00    -0.262 N 
ATOM     13  C8  UNL     1     141.846 125.904  99.802  0.00  0.00    +0.253 C 
ATOM     14  O3  UNL     1     142.426 126.940  99.493  0.00  0.00    -0.270 OA
ATOM     15  C9  UNL     1     141.448 124.948  98.712  0.00  0.00    +0.079 A 
ATOM     16  C10 UNL     1     141.482 125.456  97.399  0.00  0.00    -0.046 A 
ATOM     17  C11 UNL     1     141.123 124.661  96.312  0.00  0.00    -0.061 A 
ATOM     18  C12 UNL     1     140.728 123.345  96.523  0.00  0.00    -0.058 A 
ATOM     19  C13 UNL     1     140.695 122.821  97.818  0.00  0.00    -0.019 A 
ATOM     20  C14 UNL     1     141.056 123.608  98.923  0.00  0.00    +0.132 A 
ATOM     21  O4  UNL     1     141.051 123.140 100.214  0.00  0.00    -0.494 OA
ATOM     22  C15 UNL     1     140.765 121.760 100.423  0.00  0.00    +0.079 C 
ATOM     23  C16 UNL     1     140.708 129.045 100.914  0.00  0.00    -0.046 A 
ATOM     24  C17 UNL     1     140.566 130.194 100.117  0.00  0.00    -0.008 A 
ATOM     25  C18 UNL     1     139.294 130.412  99.346  0.00  0.00    -0.036 C 
ATOM     26  H   UNL     1     141.110 124.656 101.202  0.00  0.00    +0.000 HD
ENDROOT
TORSDOF 0
ENDMDL
MODEL 7
REMARK VINA RESULT:    -4.513      4.081      8.393
REMARK INTER + INTRA:          -4.513
REMARK INTER:                  -4.513
REMARK INTRA:                   0.000
REMARK UNBOUND:                 0.000
REMARK  Name = /home/vital/Documents/PhD_2021/Malaria_codes/scripts/../data/pdbqt_ligands/ligand_6_temp.pdb
REMARK                            x       y       z     vdW  Elec       q    Type
REMARK                         _______ _______ _______ _____ _____    ______ ____
ROOT
ATOM      1  C1  UNL     1     138.368 128.378  99.609  0.00  0.00    +0.079 C 
ATOM      2  O1  UNL     1     139.524 128.100  98.829  0.00  0.00    -0.495 OA
ATOM      3  C2  UNL     1     140.603 128.931  98.990  0.00  0.00    +0.123 A 
ATOM      4  C3  UNL     1     140.671 129.982  99.909  0.00  0.00    -0.019 A 
ATOM      5  C4  UNL     1     141.823 130.772 100.001  0.00  0.00    -0.049 A 
ATOM      6  C5  UNL     1     142.920 130.527  99.168  0.00  0.00    +0.008 A 
ATOM      7  C6  UNL     1     144.130 131.326  99.293  0.00  0.00    +0.156 A 
ATOM      8  N1  UNL     1     144.736 131.427 100.487  0.00  0.00    -0.047 NA
ATOM      9  O2  UNL     1     145.918 132.101 100.250  0.00  0.00    -0.240 OA
ATOM     10  N2  UNL     1     146.052 132.425  98.913  0.00  0.00    -0.033 NA
ATOM     11  C7  UNL     1     144.925 132.008  98.328  0.00  0.00    +0.197 A 
ATOM     12  N3  UNL     1     144.764 132.264  96.981  0.00  0.00    -0.262 N 
ATOM     13  C8  UNL     1     143.579 132.294  96.291  0.00  0.00    +0.253 C 
ATOM     14  O3  UNL     1     142.473 132.132  96.796  0.00  0.00    -0.270 OA
ATOM     15  C9  UNL     1     143.666 132.578  94.817  0.00  0.00    +0.079 A 
ATOM     16  C10 UNL     1     142.502 132.319  94.068  0.00  0.00    -0.046 A 
ATOM     17  C11 UNL     1     142.471 132.537  92.691  0.00  0.00    -0.061 A 
ATOM     18  C12 UNL     1     143.604 133.017  92.045  0.00  0.00    -0.058 A 
ATOM     19  C13 UNL     1     144.766 133.287  92.774  0.00  0.00    -0.019 A 
ATOM     20  C14 UNL     1     144.812 133.076  94.160  0.00  0.00    +0.132 A 
ATOM     21  O4  UNL     1     145.924 133.333  94.925  0.00  0.00    -0.494 OA
ATOM     22  C15 UNL     1     147.045 133.940  94.288  0.00  0.00    +0.079 C 
ATOM     23  C16 UNL     1     142.859 129.464  98.258  0.00  0.00    -0.046 A 
ATOM     24  C17 UNL     1     141.705 128.668  98.155  0.00  0.00    -0.008 A 
ATOM     25  C18 UNL     1     141.665 127.539  97.163  0.00  0.00    -0.036 C 
ATOM     26  H   UNL     1     145.582 132.442  96.463  0.00  0.00    +0.000 HD
ENDROOT
TORSDOF 0
ENDMDL
MODEL 8
REMARK VINA RESULT:    -4.494      3.815      5.088
REMARK INTER + INTRA:          -4.494
REMARK INTER:                  -4.494
REMARK INTRA:                   0.000
REMARK UNBOUND:                 0.000
REMARK  Name = /home/vital/Documents/PhD_2021/Malaria_codes/scripts/../data/pdbqt_ligands/ligand_6_temp.pdb
REMARK                            x       y       z     vdW  Elec       q    Type
REMARK                         _______ _______ _______ _____ _____    ______ ____
ROOT
ATOM      1  C1  UNL     1     147.144 135.212  98.672  0.00  0.00    +0.079 C 
ATOM      2  O1  UNL     1     146.896 133.927  99.227  0.00  0.00    -0.495 OA
ATOM      3  C2  UNL     1     146.300 132.997  98.415  0.00  0.00    +0.123 A 
ATOM      4  C3  UNL     1     145.984 133.200  97.068  0.00  0.00    -0.019 A 
ATOM      5  C4  UNL     1     145.380 132.183  96.319  0.00  0.00    -0.049 A 
ATOM      6  C5  UNL     1     145.075 130.952  96.910  0.00  0.00    +0.008 A 
ATOM      7  C6  UNL     1     144.482 129.884  96.118  0.00  0.00    +0.156 A 
ATOM      8  N1  UNL     1     145.089 129.481  94.991  0.00  0.00    -0.047 NA
ATOM      9  O2  UNL     1     144.386 128.370  94.565  0.00  0.00    -0.240 OA
ATOM     10  N2  UNL     1     143.339 128.081  95.420  0.00  0.00    -0.033 NA
ATOM     11  C7  UNL     1     143.352 129.046  96.344  0.00  0.00    +0.197 A 
ATOM     12  N3  UNL     1     142.360 129.035  97.303  0.00  0.00    -0.262 N 
ATOM     13  C8  UNL     1     141.950 130.098  98.066  0.00  0.00    +0.253 C 
ATOM     14  O3  UNL     1     142.392 131.237  97.972  0.00  0.00    -0.270 OA
ATOM     15  C9  UNL     1     140.856 129.828  99.063  0.00  0.00    +0.079 A 
ATOM     16  C10 UNL     1     140.645 130.826 100.034  0.00  0.00    -0.046 A 
ATOM     17  C11 UNL     1     139.665 130.678 101.014  0.00  0.00    -0.061 A 
ATOM     18  C12 UNL     1     138.880 129.530 101.034  0.00  0.00    -0.058 A 
ATOM     19  C13 UNL     1     139.070 128.533 100.074  0.00  0.00    -0.019 A 
ATOM     20  C14 UNL     1     140.051 128.669  99.079  0.00  0.00    +0.132 A 
ATOM     21  O4  UNL     1     140.273 127.725  98.107  0.00  0.00    -0.494 OA
ATOM     22  C15 UNL     1     139.392 126.606  98.049  0.00  0.00    +0.079 C 
ATOM     23  C16 UNL     1     145.406 130.742  98.255  0.00  0.00    -0.046 A 
ATOM     24  C17 UNL     1     146.009 131.759  99.016  0.00  0.00    -0.008 A 
ATOM     25  C18 UNL     1     146.345 131.507 100.460  0.00  0.00    -0.036 C 
ATOM     26  H   UNL     1     141.900 128.178  97.455  0.00  0.00    +0.000 HD
ENDROOT
TORSDOF 0
ENDMDL
MODEL 9
REMARK VINA RESULT:    -4.307      3.152      6.155
REMARK INTER + INTRA:          -4.307
REMARK INTER:                  -4.307
REMARK INTRA:                   0.000
REMARK UNBOUND:                 0.000
REMARK  Name = /home/vital/Documents/PhD_2021/Malaria_codes/scripts/../data/pdbqt_ligands/ligand_6_temp.pdb
REMARK                            x       y       z     vdW  Elec       q    Type
REMARK                         _______ _______ _______ _____ _____    ______ ____
ROOT
ATOM      1  C1  UNL     1     145.413 127.690 104.544  0.00  0.00    +0.079 C 
ATOM      2  O1  UNL     1     145.162 128.571 103.456  0.00  0.00    -0.495 OA
ATOM      3  C2  UNL     1     143.979 128.412 102.781  0.00  0.00    +0.123 A 
ATOM      4  C3  UNL     1     142.978 127.500 103.128  0.00  0.00    -0.019 A 
ATOM      5  C4  UNL     1     141.800 127.419 102.377  0.00  0.00    -0.049 A 
ATOM      6  C5  UNL     1     141.610 128.243 101.263  0.00  0.00    +0.008 A 
ATOM      7  C6  UNL     1     140.367 128.183 100.507  0.00  0.00    +0.156 A 
ATOM      8  N1  UNL     1     139.197 128.345 101.145  0.00  0.00    -0.047 NA
ATOM      9  O2  UNL     1     138.235 128.397 100.154  0.00  0.00    -0.240 OA
ATOM     10  N2  UNL     1     138.801 128.264  98.899  0.00  0.00    -0.033 NA
ATOM     11  C7  UNL     1     140.105 128.068  99.111  0.00  0.00    +0.197 A 
ATOM     12  N3  UNL     1     140.911 127.842  98.014  0.00  0.00    -0.262 N 
ATOM     13  C8  UNL     1     142.143 127.239  98.016  0.00  0.00    +0.253 C 
ATOM     14  O3  UNL     1     142.692 126.775  99.010  0.00  0.00    -0.270 OA
ATOM     15  C9  UNL     1     142.838 127.125  96.688  0.00  0.00    +0.079 A 
ATOM     16  C10 UNL     1     144.203 126.783  96.731  0.00  0.00    -0.046 A 
ATOM     17  C11 UNL     1     144.950 126.659  95.560  0.00  0.00    -0.061 A 
ATOM     18  C12 UNL     1     144.340 126.873  94.330  0.00  0.00    -0.058 A 
ATOM     19  C13 UNL     1     142.984 127.206  94.266  0.00  0.00    -0.019 A 
ATOM     20  C14 UNL     1     142.219 127.332  95.436  0.00  0.00    +0.132 A 
ATOM     21  O4  UNL     1     140.882 127.646  95.430  0.00  0.00    -0.494 OA
ATOM     22  C15 UNL     1     140.225 127.747  94.169  0.00  0.00    +0.079 C 
ATOM     23  C16 UNL     1     142.605 129.170 100.924  0.00  0.00    -0.046 A 
ATOM     24  C17 UNL     1     143.794 129.256 101.670  0.00  0.00    -0.008 A 
ATOM     25  C18 UNL     1     144.847 130.254 101.278  0.00  0.00    -0.036 C 
ATOM     26  H   UNL     1     140.567 128.143  97.142  0.00  0.00    +0.000 HD
ENDROOT
TORSDOF 0
ENDMDL
