MODEL 1
REMARK VINA RESULT:    -5.626      0.000      0.000
REMARK INTER + INTRA:          -5.626
REMARK INTER:                  -5.626
REMARK INTRA:                   0.000
REMARK UNBOUND:                 0.000
REMARK  Name = /home/vital/Documents/PhD_2021/Malaria_codes/scripts/../data/pdbqt_ligands/ligand_280_temp.pdb
REMARK                            x       y       z     vdW  Elec       q    Type
REMARK                         _______ _______ _______ _____ _____    ______ ____
ROOT
ATOM      1  C1  UNL     1     144.832 122.931  91.338  0.00  0.00    +0.079 C 
ATOM      2  O1  UNL     1     145.471 123.335  92.543  0.00  0.00    -0.495 OA
ATOM      3  C2  UNL     1     145.039 124.502  93.108  0.00  0.00    +0.120 A 
ATOM      4  C3  UNL     1     144.011 125.314  92.635  0.00  0.00    -0.018 A 
ATOM      5  C4  UNL     1     143.666 126.492  93.314  0.00  0.00    -0.037 A 
ATOM      6  C5  UNL     1     144.345 126.873  94.471  0.00  0.00    +0.034 A 
ATOM      7  N1  UNL     1     144.058 128.036  95.213  0.00  0.00    -0.280 N 
ATOM      8  C6  UNL     1     143.111 129.008  94.941  0.00  0.00    +0.266 C 
ATOM      9  O2  UNL     1     142.370 129.025  93.965  0.00  0.00    -0.268 OA
ATOM     10  C7  UNL     1     143.078 130.041  95.952  0.00  0.00    +0.118 A 
ATOM     11  C8  UNL     1     143.173 131.443  95.832  0.00  0.00    +0.018 A 
ATOM     12  C9  UNL     1     143.379 132.133  94.569  0.00  0.00    -0.015 A 
ATOM     13  C10 UNL     1     144.564 132.843  94.348  0.00  0.00    -0.051 A 
ATOM     14  C11 UNL     1     144.765 133.533  93.146  0.00  0.00    -0.019 A 
ATOM     15  C12 UNL     1     143.781 133.521  92.158  0.00  0.00    +0.120 A 
ATOM     16  O3  UNL     1     143.849 134.154  90.947  0.00  0.00    -0.495 OA
ATOM     17  C13 UNL     1     145.044 134.866  90.659  0.00  0.00    +0.079 C 
ATOM     18  C14 UNL     1     142.597 132.815  92.383  0.00  0.00    -0.019 A 
ATOM     19  C15 UNL     1     142.393 132.126  93.581  0.00  0.00    -0.051 A 
ATOM     20  C16 UNL     1     143.100 132.028  97.147  0.00  0.00    +0.004 A 
ATOM     21  C17 UNL     1     142.970 130.963  97.975  0.00  0.00    +0.123 A 
ATOM     22  N2  UNL     1     142.898 129.796  97.286  0.00  0.00    -0.295 N 
ATOM     23  C18 UNL     1     142.647 128.756  98.168  0.00  0.00    +0.036 A 
ATOM     24  C19 UNL     1     142.563 129.310  99.405  0.00  0.00    +0.067 A 
ATOM     25  C20 UNL     1     142.306 128.614 100.661  0.00  0.00    -0.000 A 
ATOM     26  C21 UNL     1     143.158 128.794 101.759  0.00  0.00    -0.053 A 
ATOM     27  C22 UNL     1     142.919 128.125 102.962  0.00  0.00    -0.061 A 
ATOM     28  C23 UNL     1     141.826 127.268 103.077  0.00  0.00    -0.062 A 
ATOM     29  C24 UNL     1     140.971 127.080 101.991  0.00  0.00    -0.061 A 
ATOM     30  C25 UNL     1     141.211 127.749 100.789  0.00  0.00    -0.053 A 
ATOM     31  N3  UNL     1     142.794 130.703  99.293  0.00  0.00    -0.325 N 
ATOM     32  C26 UNL     1     142.481 131.794 100.205  0.00  0.00    +0.025 C 
ATOM     33  C27 UNL     1     141.463 132.777  99.599  0.00  0.00    -0.035 C 
ATOM     34  C28 UNL     1     141.987 133.807  98.570  0.00  0.00    -0.047 C 
ATOM     35  C29 UNL     1     143.145 133.429  97.630  0.00  0.00    -0.024 C 
ATOM     36  C30 UNL     1     145.377 126.054  94.943  0.00  0.00    -0.037 A 
ATOM     37  C31 UNL     1     145.718 124.879  94.267  0.00  0.00    -0.018 A 
ATOM     38  H   UNL     1     144.598 128.174  96.025  0.00  0.00    +0.000 HD
ENDROOT
TORSDOF 0
ENDMDL
MODEL 2
REMARK VINA RESULT:    -5.612      3.343      7.238
REMARK INTER + INTRA:          -5.612
REMARK INTER:                  -5.612
REMARK INTRA:                   0.000
REMARK UNBOUND:                 0.000
REMARK  Name = /home/vital/Documents/PhD_2021/Malaria_codes/scripts/../data/pdbqt_ligands/ligand_280_temp.pdb
REMARK                            x       y       z     vdW  Elec       q    Type
REMARK                         _______ _______ _______ _____ _____    ______ ____
ROOT
ATOM      1  C1  UNL     1     142.811 126.618  88.541  0.00  0.00    +0.079 C 
ATOM      2  O1  UNL     1     142.012 127.561  89.246  0.00  0.00    -0.495 OA
ATOM      3  C2  UNL     1     142.038 127.492  90.611  0.00  0.00    +0.120 A 
ATOM      4  C3  UNL     1     142.799 126.611  91.375  0.00  0.00    -0.018 A 
ATOM      5  C4  UNL     1     142.733 126.646  92.776  0.00  0.00    -0.037 A 
ATOM      6  C5  UNL     1     141.905 127.560  93.429  0.00  0.00    +0.034 A 
ATOM      7  N1  UNL     1     141.784 127.663  94.828  0.00  0.00    -0.280 N 
ATOM      8  C6  UNL     1     142.408 126.894  95.796  0.00  0.00    +0.266 C 
ATOM      9  O2  UNL     1     143.164 125.955  95.579  0.00  0.00    -0.268 OA
ATOM     10  C7  UNL     1     142.070 127.318  97.136  0.00  0.00    +0.118 A 
ATOM     11  C8  UNL     1     141.564 126.583  98.229  0.00  0.00    +0.018 A 
ATOM     12  C9  UNL     1     141.233 125.169  98.166  0.00  0.00    -0.015 A 
ATOM     13  C10 UNL     1     139.904 124.757  98.312  0.00  0.00    -0.051 A 
ATOM     14  C11 UNL     1     139.573 123.397  98.278  0.00  0.00    -0.019 A 
ATOM     15  C12 UNL     1     140.571 122.438  98.103  0.00  0.00    +0.120 A 
ATOM     16  O3  UNL     1     140.385 121.083  98.056  0.00  0.00    -0.495 OA
ATOM     17  C13 UNL     1     139.049 120.613  98.170  0.00  0.00    +0.079 C 
ATOM     18  C14 UNL     1     141.897 122.851  97.961  0.00  0.00    -0.019 A 
ATOM     19  C15 UNL     1     142.230 124.208  97.995  0.00  0.00    -0.051 A 
ATOM     20  C16 UNL     1     141.381 127.476  99.345  0.00  0.00    +0.004 A 
ATOM     21  C17 UNL     1     141.778 128.682  98.871  0.00  0.00    +0.123 A 
ATOM     22  N2  UNL     1     142.238 128.596  97.597  0.00  0.00    -0.295 N 
ATOM     23  C18 UNL     1     142.740 129.827  97.205  0.00  0.00    +0.036 A 
ATOM     24  C19 UNL     1     142.582 130.663  98.262  0.00  0.00    +0.067 A 
ATOM     25  C20 UNL     1     142.963 132.070  98.331  0.00  0.00    -0.000 A 
ATOM     26  C21 UNL     1     142.035 133.038  98.737  0.00  0.00    -0.053 A 
ATOM     27  C22 UNL     1     142.395 134.386  98.800  0.00  0.00    -0.061 A 
ATOM     28  C23 UNL     1     143.687 134.779  98.455  0.00  0.00    -0.062 A 
ATOM     29  C24 UNL     1     144.619 133.826  98.049  0.00  0.00    -0.061 A 
ATOM     30  C25 UNL     1     144.259 132.477  97.986  0.00  0.00    -0.053 A 
ATOM     31  N3  UNL     1     141.947 129.952  99.310  0.00  0.00    -0.325 N 
ATOM     32  C26 UNL     1     141.864 130.237 100.736  0.00  0.00    +0.025 C 
ATOM     33  C27 UNL     1     142.571 129.161 101.579  0.00  0.00    -0.035 C 
ATOM     34  C28 UNL     1     141.821 127.828 101.817  0.00  0.00    -0.047 C 
ATOM     35  C29 UNL     1     140.887 127.272 100.728  0.00  0.00    -0.024 C 
ATOM     36  C30 UNL     1     141.143 128.443  92.656  0.00  0.00    -0.037 A 
ATOM     37  C31 UNL     1     141.212 128.409  91.260  0.00  0.00    -0.018 A 
ATOM     38  H   UNL     1     141.182 128.368  95.159  0.00  0.00    +0.000 HD
ENDROOT
TORSDOF 0
ENDMDL
MODEL 3
REMARK VINA RESULT:    -5.413      3.608      9.548
REMARK INTER + INTRA:          -5.413
REMARK INTER:                  -5.413
REMARK INTRA:                   0.000
REMARK UNBOUND:                 0.000
REMARK  Name = /home/vital/Documents/PhD_2021/Malaria_codes/scripts/../data/pdbqt_ligands/ligand_280_temp.pdb
REMARK                            x       y       z     vdW  Elec       q    Type
REMARK                         _______ _______ _______ _____ _____    ______ ____
ROOT
ATOM      1  C1  UNL     1     146.315 139.255  99.069  0.00  0.00    +0.079 C 
ATOM      2  O1  UNL     1     146.798 138.456  97.995  0.00  0.00    -0.495 OA
ATOM      3  C2  UNL     1     146.219 137.228  97.833  0.00  0.00    +0.120 A 
ATOM      4  C3  UNL     1     145.181 136.701  98.598  0.00  0.00    -0.018 A 
ATOM      5  C4  UNL     1     144.677 135.421  98.324  0.00  0.00    -0.037 A 
ATOM      6  C5  UNL     1     145.206 134.652  97.286  0.00  0.00    +0.034 A 
ATOM      7  N1  UNL     1     144.755 133.362  96.945  0.00  0.00    -0.280 N 
ATOM      8  C6  UNL     1     143.764 132.615  97.559  0.00  0.00    +0.266 C 
ATOM      9  O2  UNL     1     143.124 132.959  98.546  0.00  0.00    -0.268 OA
ATOM     10  C7  UNL     1     143.548 131.345  96.905  0.00  0.00    +0.118 A 
ATOM     11  C8  UNL     1     143.541 130.035  97.428  0.00  0.00    +0.018 A 
ATOM     12  C9  UNL     1     143.815 129.720  98.820  0.00  0.00    -0.015 A 
ATOM     13  C10 UNL     1     144.955 128.983  99.157  0.00  0.00    -0.051 A 
ATOM     14  C11 UNL     1     145.218 128.651 100.492  0.00  0.00    -0.019 A 
ATOM     15  C12 UNL     1     144.340 129.051 101.499  0.00  0.00    +0.120 A 
ATOM     16  O3  UNL     1     144.476 128.791 102.835  0.00  0.00    -0.495 OA
ATOM     17  C13 UNL     1     145.633 128.070 103.235  0.00  0.00    +0.079 C 
ATOM     18  C14 UNL     1     143.201 129.784 101.160  0.00  0.00    -0.019 A 
ATOM     19  C15 UNL     1     142.935 130.116  99.828  0.00  0.00    -0.051 A 
ATOM     20  C16 UNL     1     143.292 129.107  96.353  0.00  0.00    +0.004 A 
ATOM     21  C17 UNL     1     143.167 129.896  95.258  0.00  0.00    +0.123 A 
ATOM     22  N2  UNL     1     143.258 131.212  95.573  0.00  0.00    -0.295 N 
ATOM     23  C18 UNL     1     143.005 131.974  94.443  0.00  0.00    +0.036 A 
ATOM     24  C19 UNL     1     142.755 131.100  93.436  0.00  0.00    +0.067 A 
ATOM     25  C20 UNL     1     142.432 131.428  92.051  0.00  0.00    -0.000 A 
ATOM     26  C21 UNL     1     143.154 130.850  90.998  0.00  0.00    -0.053 A 
ATOM     27  C22 UNL     1     142.852 131.165  89.671  0.00  0.00    -0.061 A 
ATOM     28  C23 UNL     1     141.825 132.063  89.385  0.00  0.00    -0.062 A 
ATOM     29  C24 UNL     1     141.100 132.646  90.424  0.00  0.00    -0.061 A 
ATOM     30  C25 UNL     1     141.403 132.330  91.751  0.00  0.00    -0.053 A 
ATOM     31  N3  UNL     1     142.884 129.782  93.938  0.00  0.00    -0.325 N 
ATOM     32  C26 UNL     1     142.395 128.514  93.414  0.00  0.00    +0.025 C 
ATOM     33  C27 UNL     1     141.367 127.861  94.355  0.00  0.00    -0.035 C 
ATOM     34  C28 UNL     1     141.905 127.121  95.603  0.00  0.00    -0.047 C 
ATOM     35  C29 UNL     1     143.177 127.629  96.305  0.00  0.00    -0.024 C 
ATOM     36  C30 UNL     1     146.248 135.187  96.521  0.00  0.00    -0.037 A 
ATOM     37  C31 UNL     1     146.748 136.464  96.793  0.00  0.00    -0.018 A 
ATOM     38  H   UNL     1     145.198 132.940  96.174  0.00  0.00    +0.000 HD
ENDROOT
TORSDOF 0
ENDMDL
MODEL 4
REMARK VINA RESULT:    -5.396      6.514     11.855
REMARK INTER + INTRA:          -5.396
REMARK INTER:                  -5.396
REMARK INTRA:                   0.000
REMARK UNBOUND:                 0.000
REMARK  Name = /home/vital/Documents/PhD_2021/Malaria_codes/scripts/../data/pdbqt_ligands/ligand_280_temp.pdb
REMARK                            x       y       z     vdW  Elec       q    Type
REMARK                         _______ _______ _______ _____ _____    ______ ____
ROOT
ATOM      1  C1  UNL     1     136.516 120.662 105.325  0.00  0.00    +0.079 C 
ATOM      2  O1  UNL     1     136.550 122.079 105.441  0.00  0.00    -0.495 OA
ATOM      3  C2  UNL     1     137.761 122.684 105.243  0.00  0.00    +0.120 A 
ATOM      4  C3  UNL     1     138.953 122.047 104.907  0.00  0.00    -0.018 A 
ATOM      5  C4  UNL     1     140.130 122.790 104.732  0.00  0.00    -0.037 A 
ATOM      6  C5  UNL     1     140.131 124.175 104.894  0.00  0.00    +0.034 A 
ATOM      7  N1  UNL     1     141.266 124.993 104.734  0.00  0.00    -0.280 N 
ATOM      8  C6  UNL     1     142.560 124.604 104.429  0.00  0.00    +0.266 C 
ATOM      9  O2  UNL     1     142.937 123.448 104.275  0.00  0.00    -0.268 OA
ATOM     10  C7  UNL     1     143.457 125.731 104.306  0.00  0.00    +0.118 A 
ATOM     11  C8  UNL     1     144.693 125.989 104.935  0.00  0.00    +0.018 A 
ATOM     12  C9  UNL     1     145.296 125.110 105.923  0.00  0.00    -0.015 A 
ATOM     13  C10 UNL     1     145.451 125.547 107.243  0.00  0.00    -0.051 A 
ATOM     14  C11 UNL     1     146.053 124.720 108.199  0.00  0.00    -0.019 A 
ATOM     15  C12 UNL     1     146.507 123.450 107.841  0.00  0.00    +0.120 A 
ATOM     16  O3  UNL     1     147.112 122.549 108.673  0.00  0.00    -0.495 OA
ATOM     17  C13 UNL     1     147.269 122.931 110.032  0.00  0.00    +0.079 C 
ATOM     18  C14 UNL     1     146.354 123.017 106.522  0.00  0.00    -0.019 A 
ATOM     19  C15 UNL     1     145.755 123.841 105.565  0.00  0.00    -0.051 A 
ATOM     20  C16 UNL     1     145.187 127.266 104.483  0.00  0.00    +0.004 A 
ATOM     21  C17 UNL     1     144.234 127.701 103.622  0.00  0.00    +0.123 A 
ATOM     22  N2  UNL     1     143.243 126.789 103.464  0.00  0.00    -0.295 N 
ATOM     23  C18 UNL     1     142.362 127.230 102.489  0.00  0.00    +0.036 A 
ATOM     24  C19 UNL     1     142.836 128.425 102.053  0.00  0.00    +0.067 A 
ATOM     25  C20 UNL     1     142.249 129.277 101.024  0.00  0.00    -0.000 A 
ATOM     26  C21 UNL     1     141.998 130.631 101.283  0.00  0.00    -0.053 A 
ATOM     27  C22 UNL     1     141.431 131.449 100.303  0.00  0.00    -0.061 A 
ATOM     28  C23 UNL     1     141.109 130.920  99.054  0.00  0.00    -0.062 A 
ATOM     29  C24 UNL     1     141.354 129.574  98.785  0.00  0.00    -0.061 A 
ATOM     30  C25 UNL     1     141.920 128.756  99.766  0.00  0.00    -0.053 A 
ATOM     31  N3  UNL     1     144.005 128.742 102.786  0.00  0.00    -0.325 N 
ATOM     32  C26 UNL     1     145.079 129.684 102.500  0.00  0.00    +0.025 C 
ATOM     33  C27 UNL     1     146.428 128.973 102.294  0.00  0.00    -0.035 C 
ATOM     34  C28 UNL     1     147.193 128.507 103.555  0.00  0.00    -0.047 C 
ATOM     35  C29 UNL     1     146.411 128.041 104.796  0.00  0.00    -0.024 C 
ATOM     36  C30 UNL     1     138.930 124.810 105.232  0.00  0.00    -0.037 A 
ATOM     37  C31 UNL     1     137.757 124.069 105.403  0.00  0.00    -0.018 A 
ATOM     38  H   UNL     1     141.123 125.960 104.853  0.00  0.00    +0.000 HD
ENDROOT
TORSDOF 0
ENDMDL
MODEL 5
REMARK VINA RESULT:    -5.259      2.941      7.399
REMARK INTER + INTRA:          -5.259
REMARK INTER:                  -5.259
REMARK INTRA:                   0.000
REMARK UNBOUND:                 0.000
REMARK  Name = /home/vital/Documents/PhD_2021/Malaria_codes/scripts/../data/pdbqt_ligands/ligand_280_temp.pdb
REMARK                            x       y       z     vdW  Elec       q    Type
REMARK                         _______ _______ _______ _____ _____    ______ ____
ROOT
ATOM      1  C1  UNL     1     143.905 133.962  90.018  0.00  0.00    +0.079 C 
ATOM      2  O1  UNL     1     142.662 133.620  90.620  0.00  0.00    -0.495 OA
ATOM      3  C2  UNL     1     142.599 132.412  91.258  0.00  0.00    +0.120 A 
ATOM      4  C3  UNL     1     143.644 131.503  91.403  0.00  0.00    -0.018 A 
ATOM      5  C4  UNL     1     143.443 130.293  92.085  0.00  0.00    -0.037 A 
ATOM      6  C5  UNL     1     142.197 129.977  92.625  0.00  0.00    +0.034 A 
ATOM      7  N1  UNL     1     141.914 128.788  93.326  0.00  0.00    -0.280 N 
ATOM      8  C6  UNL     1     142.765 127.726  93.580  0.00  0.00    +0.266 C 
ATOM      9  O2  UNL     1     143.926 127.639  93.198  0.00  0.00    -0.268 OA
ATOM     10  C7  UNL     1     142.132 126.691  94.366  0.00  0.00    +0.118 A 
ATOM     11  C8  UNL     1     142.011 125.306  94.127  0.00  0.00    +0.018 A 
ATOM     12  C9  UNL     1     142.508 124.646  92.932  0.00  0.00    -0.015 A 
ATOM     13  C10 UNL     1     141.609 124.061  92.034  0.00  0.00    -0.051 A 
ATOM     14  C11 UNL     1     142.075 123.400  90.890  0.00  0.00    -0.019 A 
ATOM     15  C12 UNL     1     143.444 123.317  90.639  0.00  0.00    +0.120 A 
ATOM     16  O3  UNL     1     144.030 122.700  89.567  0.00  0.00    -0.495 OA
ATOM     17  C13 UNL     1     143.160 122.114  88.609  0.00  0.00    +0.079 C 
ATOM     18  C14 UNL     1     144.340 123.899  91.538  0.00  0.00    -0.019 A 
ATOM     19  C15 UNL     1     143.878 124.559  92.681  0.00  0.00    -0.051 A 
ATOM     20  C16 UNL     1     141.272 124.711  95.212  0.00  0.00    +0.004 A 
ATOM     21  C17 UNL     1     140.991 125.754  96.031  0.00  0.00    +0.123 A 
ATOM     22  N2  UNL     1     141.537 126.910  95.578  0.00  0.00    -0.295 N 
ATOM     23  C18 UNL     1     141.322 127.916  96.509  0.00  0.00    +0.036 A 
ATOM     24  C19 UNL     1     140.640 127.350  97.537  0.00  0.00    +0.067 A 
ATOM     25  C20 UNL     1     140.188 128.012  98.757  0.00  0.00    -0.000 A 
ATOM     26  C21 UNL     1     138.851 127.914  99.164  0.00  0.00    -0.053 A 
ATOM     27  C22 UNL     1     138.413 128.549 100.328  0.00  0.00    -0.061 A 
ATOM     28  C23 UNL     1     139.309 129.291 101.096  0.00  0.00    -0.062 A 
ATOM     29  C24 UNL     1     140.642 129.397 100.701  0.00  0.00    -0.061 A 
ATOM     30  C25 UNL     1     141.079 128.761  99.537  0.00  0.00    -0.053 A 
ATOM     31  N3  UNL     1     140.403 125.989  97.228  0.00  0.00    -0.325 N 
ATOM     32  C26 UNL     1     140.050 124.868  98.089  0.00  0.00    +0.025 C 
ATOM     33  C27 UNL     1     141.149 123.790  98.108  0.00  0.00    -0.035 C 
ATOM     34  C28 UNL     1     141.225 122.822  96.903  0.00  0.00    -0.047 C 
ATOM     35  C29 UNL     1     140.846 123.320  95.497  0.00  0.00    -0.024 C 
ATOM     36  C30 UNL     1     141.151 130.895  92.477  0.00  0.00    -0.037 A 
ATOM     37  C31 UNL     1     141.353 132.101  91.800  0.00  0.00    -0.018 A 
ATOM     38  H   UNL     1     140.998 128.702  93.677  0.00  0.00    +0.000 HD
ENDROOT
TORSDOF 0
ENDMDL
MODEL 6
REMARK VINA RESULT:    -5.249      7.743     11.626
REMARK INTER + INTRA:          -5.249
REMARK INTER:                  -5.249
REMARK INTRA:                   0.000
REMARK UNBOUND:                 0.000
REMARK  Name = /home/vital/Documents/PhD_2021/Malaria_codes/scripts/../data/pdbqt_ligands/ligand_280_temp.pdb
REMARK                            x       y       z     vdW  Elec       q    Type
REMARK                         _______ _______ _______ _____ _____    ______ ____
ROOT
ATOM      1  C1  UNL     1     141.602 121.464  94.101  0.00  0.00    +0.079 C 
ATOM      2  O1  UNL     1     142.271 122.199  93.083  0.00  0.00    -0.495 OA
ATOM      3  C2  UNL     1     141.498 123.015  92.304  0.00  0.00    +0.120 A 
ATOM      4  C3  UNL     1     140.126 123.218  92.436  0.00  0.00    -0.018 A 
ATOM      5  C4  UNL     1     139.451 124.088  91.566  0.00  0.00    -0.037 A 
ATOM      6  C5  UNL     1     140.137 124.759  90.554  0.00  0.00    +0.034 A 
ATOM      7  N1  UNL     1     139.535 125.650  89.643  0.00  0.00    -0.280 N 
ATOM      8  C6  UNL     1     138.198 125.998  89.549  0.00  0.00    +0.266 C 
ATOM      9  O2  UNL     1     137.296 125.550  90.247  0.00  0.00    -0.268 OA
ATOM     10  C7  UNL     1     137.957 126.975  88.511  0.00  0.00    +0.118 A 
ATOM     11  C8  UNL     1     137.051 126.958  87.430  0.00  0.00    +0.018 A 
ATOM     12  C9  UNL     1     136.167 125.842  87.136  0.00  0.00    -0.015 A 
ATOM     13  C10 UNL     1     136.338 125.111  85.955  0.00  0.00    -0.051 A 
ATOM     14  C11 UNL     1     135.478 124.049  85.646  0.00  0.00    -0.019 A 
ATOM     15  C12 UNL     1     134.440 123.714  86.515  0.00  0.00    +0.120 A 
ATOM     16  O3  UNL     1     133.531 122.707  86.332  0.00  0.00    -0.495 OA
ATOM     17  C13 UNL     1     133.677 121.914  85.162  0.00  0.00    +0.079 C 
ATOM     18  C14 UNL     1     134.269 124.447  87.691  0.00  0.00    -0.019 A 
ATOM     19  C15 UNL     1     135.125 125.508  88.001  0.00  0.00    -0.051 A 
ATOM     20  C16 UNL     1     137.212 128.172  86.670  0.00  0.00    +0.004 A 
ATOM     21  C17 UNL     1     138.192 128.842  87.322  0.00  0.00    +0.123 A 
ATOM     22  N2  UNL     1     138.600 128.181  88.435  0.00  0.00    -0.295 N 
ATOM     23  C18 UNL     1     139.513 128.963  89.125  0.00  0.00    +0.036 A 
ATOM     24  C19 UNL     1     139.652 130.112  88.416  0.00  0.00    +0.067 A 
ATOM     25  C20 UNL     1     140.506 131.248  88.748  0.00  0.00    -0.000 A 
ATOM     26  C21 UNL     1     141.403 131.761  87.801  0.00  0.00    -0.053 A 
ATOM     27  C22 UNL     1     142.226 132.845  88.116  0.00  0.00    -0.061 A 
ATOM     28  C23 UNL     1     142.160 133.425  89.382  0.00  0.00    -0.062 A 
ATOM     29  C24 UNL     1     141.273 132.922  90.333  0.00  0.00    -0.061 A 
ATOM     30  C25 UNL     1     140.451 131.838  90.017  0.00  0.00    -0.053 A 
ATOM     31  N3  UNL     1     138.840 130.030  87.259  0.00  0.00    -0.325 N 
ATOM     32  C26 UNL     1     138.345 131.073  86.371  0.00  0.00    +0.025 C 
ATOM     33  C27 UNL     1     136.809 131.174  86.404  0.00  0.00    -0.035 C 
ATOM     34  C28 UNL     1     136.004 130.126  85.598  0.00  0.00    -0.047 C 
ATOM     35  C29 UNL     1     136.545 128.693  85.452  0.00  0.00    -0.024 C 
ATOM     36  C30 UNL     1     141.515 124.552  90.427  0.00  0.00    -0.037 A 
ATOM     37  C31 UNL     1     142.187 123.688  91.297  0.00  0.00    -0.018 A 
ATOM     38  H   UNL     1     140.139 126.077  88.993  0.00  0.00    +0.000 HD
ENDROOT
TORSDOF 0
ENDMDL
MODEL 7
REMARK VINA RESULT:    -5.128      5.546      9.909
REMARK INTER + INTRA:          -5.128
REMARK INTER:                  -5.128
REMARK INTRA:                   0.000
REMARK UNBOUND:                 0.000
REMARK  Name = /home/vital/Documents/PhD_2021/Malaria_codes/scripts/../data/pdbqt_ligands/ligand_280_temp.pdb
REMARK                            x       y       z     vdW  Elec       q    Type
REMARK                         _______ _______ _______ _____ _____    ______ ____
ROOT
ATOM      1  C1  UNL     1     135.585 121.480  88.133  0.00  0.00    +0.079 C 
ATOM      2  O1  UNL     1     135.293 122.867  88.249  0.00  0.00    -0.495 OA
ATOM      3  C2  UNL     1     136.262 123.656  88.805  0.00  0.00    +0.120 A 
ATOM      4  C3  UNL     1     137.518 123.235  89.236  0.00  0.00    -0.018 A 
ATOM      5  C4  UNL     1     138.423 124.152  89.791  0.00  0.00    -0.037 A 
ATOM      6  C5  UNL     1     138.083 125.498  89.925  0.00  0.00    +0.034 A 
ATOM      7  N1  UNL     1     138.933 126.481  90.467  0.00  0.00    -0.280 N 
ATOM      8  C6  UNL     1     140.207 126.316  90.983  0.00  0.00    +0.266 C 
ATOM      9  O2  UNL     1     140.802 125.249  91.079  0.00  0.00    -0.268 OA
ATOM     10  C7  UNL     1     140.791 127.565  91.417  0.00  0.00    +0.118 A 
ATOM     11  C8  UNL     1     141.362 127.929  92.654  0.00  0.00    +0.018 A 
ATOM     12  C9  UNL     1     141.424 127.044  93.805  0.00  0.00    -0.015 A 
ATOM     13  C10 UNL     1     140.704 127.355  94.963  0.00  0.00    -0.051 A 
ATOM     14  C11 UNL     1     140.774 126.525  96.089  0.00  0.00    -0.019 A 
ATOM     15  C12 UNL     1     141.568 125.379  96.065  0.00  0.00    +0.120 A 
ATOM     16  O3  UNL     1     141.727 124.489  97.093  0.00  0.00    -0.495 OA
ATOM     17  C13 UNL     1     140.994 124.743  98.283  0.00  0.00    +0.079 C 
ATOM     18  C14 UNL     1     142.289 125.072  94.909  0.00  0.00    -0.019 A 
ATOM     19  C15 UNL     1     142.222 125.899  93.785  0.00  0.00    -0.051 A 
ATOM     20  C16 UNL     1     141.790 129.304  92.583  0.00  0.00    +0.004 A 
ATOM     21  C17 UNL     1     141.455 129.688  91.327  0.00  0.00    +0.123 A 
ATOM     22  N2  UNL     1     140.921 128.666  90.613  0.00  0.00    -0.295 N 
ATOM     23  C18 UNL     1     140.709 129.078  89.306  0.00  0.00    +0.036 A 
ATOM     24  C19 UNL     1     141.126 130.368  89.236  0.00  0.00    +0.067 A 
ATOM     25  C20 UNL     1     141.105 131.233  88.061  0.00  0.00    -0.000 A 
ATOM     26  C21 UNL     1     140.514 132.502  88.124  0.00  0.00    -0.053 A 
ATOM     27  C22 UNL     1     140.487 133.331  87.000  0.00  0.00    -0.061 A 
ATOM     28  C23 UNL     1     141.050 132.897  85.801  0.00  0.00    -0.062 A 
ATOM     29  C24 UNL     1     141.640 131.636  85.725  0.00  0.00    -0.061 A 
ATOM     30  C25 UNL     1     141.666 130.808  86.850  0.00  0.00    -0.053 A 
ATOM     31  N3  UNL     1     141.573 130.769  90.519  0.00  0.00    -0.325 N 
ATOM     32  C26 UNL     1     142.424 131.879  90.923  0.00  0.00    +0.025 C 
ATOM     33  C27 UNL     1     143.743 131.394  91.551  0.00  0.00    -0.035 C 
ATOM     34  C28 UNL     1     143.702 130.910  93.021  0.00  0.00    -0.047 C 
ATOM     35  C29 UNL     1     142.443 130.207  93.559  0.00  0.00    -0.024 C 
ATOM     36  C30 UNL     1     136.820 125.916  89.490  0.00  0.00    -0.037 A 
ATOM     37  C31 UNL     1     135.920 125.001  88.934  0.00  0.00    -0.018 A 
ATOM     38  H   UNL     1     138.578 127.400  90.481  0.00  0.00    +0.000 HD
ENDROOT
TORSDOF 0
ENDMDL
MODEL 8
REMARK VINA RESULT:    -5.039      6.380      9.894
REMARK INTER + INTRA:          -5.039
REMARK INTER:                  -5.039
REMARK INTRA:                   0.000
REMARK UNBOUND:                 0.000
REMARK  Name = /home/vital/Documents/PhD_2021/Malaria_codes/scripts/../data/pdbqt_ligands/ligand_280_temp.pdb
REMARK                            x       y       z     vdW  Elec       q    Type
REMARK                         _______ _______ _______ _____ _____    ______ ____
ROOT
ATOM      1  C1  UNL     1     144.045 126.505  96.633  0.00  0.00    +0.079 C 
ATOM      2  O1  UNL     1     142.644 126.619  96.413  0.00  0.00    -0.495 OA
ATOM      3  C2  UNL     1     142.248 127.027  95.170  0.00  0.00    +0.120 A 
ATOM      4  C3  UNL     1     143.083 127.308  94.091  0.00  0.00    -0.018 A 
ATOM      5  C4  UNL     1     142.543 127.720  92.863  0.00  0.00    -0.037 A 
ATOM      6  C5  UNL     1     141.164 127.858  92.701  0.00  0.00    +0.034 A 
ATOM      7  N1  UNL     1     140.543 128.262  91.502  0.00  0.00    -0.280 N 
ATOM      8  C6  UNL     1     141.147 128.618  90.308  0.00  0.00    +0.266 C 
ATOM      9  O2  UNL     1     142.355 128.668  90.109  0.00  0.00    -0.268 OA
ATOM     10  C7  UNL     1     140.182 128.940  89.280  0.00  0.00    +0.118 A 
ATOM     11  C8  UNL     1     140.059 130.085  88.466  0.00  0.00    +0.018 A 
ATOM     12  C9  UNL     1     140.931 131.244  88.566  0.00  0.00    -0.015 A 
ATOM     13  C10 UNL     1     140.411 132.474  88.982  0.00  0.00    -0.051 A 
ATOM     14  C11 UNL     1     141.234 133.605  89.059  0.00  0.00    -0.019 A 
ATOM     15  C12 UNL     1     142.583 133.513  88.717  0.00  0.00    +0.120 A 
ATOM     16  O3  UNL     1     143.491 134.536  88.743  0.00  0.00    -0.495 OA
ATOM     17  C13 UNL     1     143.021 135.802  89.186  0.00  0.00    +0.079 C 
ATOM     18  C14 UNL     1     143.100 132.285  88.298  0.00  0.00    -0.019 A 
ATOM     19  C15 UNL     1     142.280 131.155  88.220  0.00  0.00    -0.051 A 
ATOM     20  C16 UNL     1     138.915 129.923  87.605  0.00  0.00    +0.004 A 
ATOM     21  C17 UNL     1     138.417 128.709  87.945  0.00  0.00    +0.123 A 
ATOM     22  N2  UNL     1     139.180 128.096  88.883  0.00  0.00    -0.295 N 
ATOM     23  C18 UNL     1     138.697 126.816  89.106  0.00  0.00    +0.036 A 
ATOM     24  C19 UNL     1     137.629 126.658  88.283  0.00  0.00    +0.067 A 
ATOM     25  C20 UNL     1     136.789 125.471  88.155  0.00  0.00    -0.000 A 
ATOM     26  C21 UNL     1     135.396 125.573  88.261  0.00  0.00    -0.053 A 
ATOM     27  C22 UNL     1     134.589 124.439  88.144  0.00  0.00    -0.061 A 
ATOM     28  C23 UNL     1     135.169 123.192  87.922  0.00  0.00    -0.062 A 
ATOM     29  C24 UNL     1     136.554 123.077  87.816  0.00  0.00    -0.061 A 
ATOM     30  C25 UNL     1     137.361 124.212  87.933  0.00  0.00    -0.053 A 
ATOM     31  N3  UNL     1     137.429 127.863  87.566  0.00  0.00    -0.325 N 
ATOM     32  C26 UNL     1     136.686 128.126  86.341  0.00  0.00    +0.025 C 
ATOM     33  C27 UNL     1     137.607 128.597  85.201  0.00  0.00    -0.035 C 
ATOM     34  C28 UNL     1     138.073 130.073  85.219  0.00  0.00    -0.047 C 
ATOM     35  C29 UNL     1     138.309 130.785  86.562  0.00  0.00    -0.024 C 
ATOM     36  C30 UNL     1     140.330 127.574  93.787  0.00  0.00    -0.037 A 
ATOM     37  C31 UNL     1     140.869 127.161  95.009  0.00  0.00    -0.018 A 
ATOM     38  H   UNL     1     139.559 128.295  91.516  0.00  0.00    +0.000 HD
ENDROOT
TORSDOF 0
ENDMDL
MODEL 9
REMARK VINA RESULT:    -4.726      4.166     10.413
REMARK INTER + INTRA:          -4.726
REMARK INTER:                  -4.726
REMARK INTRA:                   0.000
REMARK UNBOUND:                 0.000
REMARK  Name = /home/vital/Documents/PhD_2021/Malaria_codes/scripts/../data/pdbqt_ligands/ligand_280_temp.pdb
REMARK                            x       y       z     vdW  Elec       q    Type
REMARK                         _______ _______ _______ _____ _____    ______ ____
ROOT
ATOM      1  C1  UNL     1     145.270 132.795  98.965  0.00  0.00    +0.079 C 
ATOM      2  O1  UNL     1     145.891 133.154  97.736  0.00  0.00    -0.495 OA
ATOM      3  C2  UNL     1     145.229 132.812  96.589  0.00  0.00    +0.120 A 
ATOM      4  C3  UNL     1     143.991 132.178  96.511  0.00  0.00    -0.018 A 
ATOM      5  C4  UNL     1     143.421 131.884  95.264  0.00  0.00    -0.037 A 
ATOM      6  C5  UNL     1     144.081 132.217  94.081  0.00  0.00    +0.034 A 
ATOM      7  N1  UNL     1     143.577 131.961  92.791  0.00  0.00    -0.280 N 
ATOM      8  C6  UNL     1     142.394 131.327  92.449  0.00  0.00    +0.266 C 
ATOM      9  O2  UNL     1     141.590 130.849  93.240  0.00  0.00    -0.268 OA
ATOM     10  C7  UNL     1     142.190 131.279  91.019  0.00  0.00    +0.118 A 
ATOM     11  C8  UNL     1     141.917 130.187  90.169  0.00  0.00    +0.018 A 
ATOM     12  C9  UNL     1     141.829 128.810  90.627  0.00  0.00    -0.015 A 
ATOM     13  C10 UNL     1     142.771 127.871  90.196  0.00  0.00    -0.051 A 
ATOM     14  C11 UNL     1     142.684 126.535  90.609  0.00  0.00    -0.019 A 
ATOM     15  C12 UNL     1     141.651 126.130  91.454  0.00  0.00    +0.120 A 
ATOM     16  O3  UNL     1     141.450 124.862  91.927  0.00  0.00    -0.495 OA
ATOM     17  C13 UNL     1     142.396 123.874  91.542  0.00  0.00    +0.079 C 
ATOM     18  C14 UNL     1     140.710 127.069  91.881  0.00  0.00    -0.019 A 
ATOM     19  C15 UNL     1     140.793 128.402  91.469  0.00  0.00    -0.051 A 
ATOM     20  C16 UNL     1     141.815 130.667  88.814  0.00  0.00    +0.004 A 
ATOM     21  C17 UNL     1     142.033 132.000  88.919  0.00  0.00    +0.123 A 
ATOM     22  N2  UNL     1     142.197 132.383  90.210  0.00  0.00    -0.295 N 
ATOM     23  C18 UNL     1     142.296 133.765  90.271  0.00  0.00    +0.036 A 
ATOM     24  C19 UNL     1     142.185 134.217  88.996  0.00  0.00    +0.067 A 
ATOM     25  C20 UNL     1     142.225 135.607  88.552  0.00  0.00    -0.000 A 
ATOM     26  C21 UNL     1     143.097 135.999  87.529  0.00  0.00    -0.053 A 
ATOM     27  C22 UNL     1     143.143 137.329  87.105  0.00  0.00    -0.061 A 
ATOM     28  C23 UNL     1     142.317 138.279  87.702  0.00  0.00    -0.062 A 
ATOM     29  C24 UNL     1     141.445 137.901  88.722  0.00  0.00    -0.061 A 
ATOM     30  C25 UNL     1     141.401 136.571  89.146  0.00  0.00    -0.053 A 
ATOM     31  N3  UNL     1     142.046 133.103  88.132  0.00  0.00    -0.325 N 
ATOM     32  C26 UNL     1     141.549 133.018  86.766  0.00  0.00    +0.025 C 
ATOM     33  C27 UNL     1     140.266 132.172  86.673  0.00  0.00    -0.035 C 
ATOM     34  C28 UNL     1     140.419 130.632  86.698  0.00  0.00    -0.047 C 
ATOM     35  C29 UNL     1     141.547 129.989  87.523  0.00  0.00    -0.024 C 
ATOM     36  C30 UNL     1     145.324 132.855  94.165  0.00  0.00    -0.037 A 
ATOM     37  C31 UNL     1     145.890 133.150  95.409  0.00  0.00    -0.018 A 
ATOM     38  H   UNL     1     144.134 132.270  92.040  0.00  0.00    +0.000 HD
ENDROOT
TORSDOF 0
ENDMDL
