MODEL 1
REMARK VINA RESULT:    -4.148      0.000      0.000
REMARK INTER + INTRA:          -4.148
REMARK INTER:                  -4.148
REMARK INTRA:                   0.000
REMARK UNBOUND:                 0.000
REMARK  Name = /home/vital/Documents/PhD_2021/Malaria_codes/scripts/../data/pdbqt_ligands/ligand_282_temp.pdb
REMARK                            x       y       z     vdW  Elec       q    Type
REMARK                         _______ _______ _______ _____ _____    ______ ____
ROOT
ATOM      1  C1  UNL     1     143.111 132.203  94.821  0.00  0.00    -0.038 C 
ATOM      2  C2  UNL     1     143.455 132.819  93.480  0.00  0.00    -0.029 A 
ATOM      3  C3  UNL     1     144.623 133.525  93.424  0.00  0.00    -0.057 A 
ATOM      4  C4  UNL     1     145.330 133.902  92.336  0.00  0.00    -0.061 A 
ATOM      5  C5  UNL     1     145.233 133.311  91.131  0.00  0.00    -0.060 A 
ATOM      6  C6  UNL     1     144.975 131.999  90.977  0.00  0.00    -0.044 A 
ATOM      7  C7  UNL     1     144.065 131.551  90.087  0.00  0.00    +0.030 A 
ATOM      8  N1  UNL     1     143.016 132.143  89.451  0.00  0.00    -0.236 NA
ATOM      9  C8  UNL     1     142.347 133.165  90.062  0.00  0.00    +0.153 A 
ATOM     10  C9  UNL     1     141.511 134.037  89.225  0.00  0.00    -0.017 C 
ATOM     11  C10 UNL     1     141.063 133.931  87.960  0.00  0.00    -0.057 C 
ATOM     12  C11 UNL     1     141.353 132.857  87.045  0.00  0.00    -0.044 C 
ATOM     13  C12 UNL     1     140.402 132.167  86.400  0.00  0.00    +0.027 C 
ATOM     14  N2  UNL     1     140.640 131.012  85.700  0.00  0.00    -0.266 NA
ATOM     15  C13 UNL     1     141.014 129.984  86.422  0.00  0.00    +0.022 C 
ATOM     16  C14 UNL     1     141.163 129.877  87.933  0.00  0.00    +0.047 C 
ATOM     17  N3  UNL     1     140.607 128.580  88.433  0.00  0.00    -0.326 N 
ATOM     18  C15 UNL     1     139.289 128.215  88.177  0.00  0.00    -0.001 C 
ATOM     19  C16 UNL     1     138.627 127.259  88.854  0.00  0.00    +0.010 C 
ATOM     20  C17 UNL     1     137.184 126.899  88.618  0.00  0.00    +0.072 C 
ATOM     21  O1  UNL     1     136.490 127.839  87.803  0.00  0.00    -0.390 OA
ATOM     22  C18 UNL     1     139.368 126.563  89.904  0.00  0.00    +0.045 C 
ATOM     23 CL1  UNL     1     138.718 125.134  90.636  0.00  0.00    -0.083 Cl
ATOM     24  C19 UNL     1     140.561 127.017  90.320  0.00  0.00    -0.048 C 
ATOM     25  C20 UNL     1     141.218 128.238  89.738  0.00  0.00    +0.032 C 
ATOM     26  N4  UNL     1     142.384 133.592  91.361  0.00  0.00    -0.233 NA
ATOM     27  C21 UNL     1     142.547 132.747  92.440  0.00  0.00    +0.043 A 
ATOM     28  C22 UNL     1     141.402 131.739  92.508  0.00  0.00    -0.022 C 
ATOM     29  H   UNL     1     136.478 128.702  88.243  0.00  0.00    +0.000 HD
ENDROOT
TORSDOF 0
ENDMDL
MODEL 2
REMARK VINA RESULT:    -4.035      7.317     10.169
REMARK INTER + INTRA:          -4.035
REMARK INTER:                  -4.035
REMARK INTRA:                   0.000
REMARK UNBOUND:                 0.000
REMARK  Name = /home/vital/Documents/PhD_2021/Malaria_codes/scripts/../data/pdbqt_ligands/ligand_282_temp.pdb
REMARK                            x       y       z     vdW  Elec       q    Type
REMARK                         _______ _______ _______ _____ _____    ______ ____
ROOT
ATOM      1  C1  UNL     1     141.562 131.755  99.370  0.00  0.00    -0.038 C 
ATOM      2  C2  UNL     1     140.975 130.472  99.921  0.00  0.00    -0.029 A 
ATOM      3  C3  UNL     1     139.967 130.613 100.832  0.00  0.00    -0.057 A 
ATOM      4  C4  UNL     1     139.065 129.694 101.240  0.00  0.00    -0.061 A 
ATOM      5  C5  UNL     1     138.736 128.594 100.539  0.00  0.00    -0.060 A 
ATOM      6  C6  UNL     1     138.725 128.560  99.193  0.00  0.00    -0.044 A 
ATOM      7  C7  UNL     1     139.277 127.540  98.502  0.00  0.00    +0.030 A 
ATOM      8  N1  UNL     1     140.197 126.590  98.823  0.00  0.00    -0.236 NA
ATOM      9  C8  UNL     1     141.164 126.871  99.746  0.00  0.00    +0.153 A 
ATOM     10  C9  UNL     1     141.874 125.742 100.364  0.00  0.00    -0.017 C 
ATOM     11  C10 UNL     1     141.942 124.432 100.063  0.00  0.00    -0.057 C 
ATOM     12  C11 UNL     1     141.245 123.772  98.989  0.00  0.00    -0.044 C 
ATOM     13  C12 UNL     1     141.861 123.010  98.075  0.00  0.00    +0.027 C 
ATOM     14  N2  UNL     1     141.259 122.553  96.930  0.00  0.00    -0.266 NA
ATOM     15  C13 UNL     1     140.930 123.478  96.062  0.00  0.00    +0.022 C 
ATOM     16  C14 UNL     1     141.179 124.979  96.118  0.00  0.00    +0.047 C 
ATOM     17  N3  UNL     1     141.629 125.495  94.787  0.00  0.00    -0.326 N 
ATOM     18  C15 UNL     1     142.752 124.971  94.154  0.00  0.00    -0.001 C 
ATOM     19  C16 UNL     1     143.406 125.585  93.151  0.00  0.00    +0.010 C 
ATOM     20  C17 UNL     1     144.654 125.048  92.501  0.00  0.00    +0.072 C 
ATOM     21  O1  UNL     1     145.246 123.966  93.214  0.00  0.00    -0.390 OA
ATOM     22  C18 UNL     1     142.872 126.870  92.705  0.00  0.00    +0.045 C 
ATOM     23 CL1  UNL     1     143.453 127.603  91.249  0.00  0.00    -0.083 Cl
ATOM     24  C19 UNL     1     141.926 127.504  93.416  0.00  0.00    -0.048 C 
ATOM     25  C20 UNL     1     141.345 126.944  94.685  0.00  0.00    +0.032 C 
ATOM     26  N4  UNL     1     141.547 128.069 100.285  0.00  0.00    -0.233 NA
ATOM     27  C21 UNL     1     141.546 129.258  99.585  0.00  0.00    +0.043 A 
ATOM     28  C22 UNL     1     142.486 129.174  98.384  0.00  0.00    -0.022 C 
ATOM     29  H   UNL     1     145.517 124.270  94.094  0.00  0.00    +0.000 HD
ENDROOT
TORSDOF 0
ENDMDL
MODEL 3
REMARK VINA RESULT:    -4.027      6.971     10.562
REMARK INTER + INTRA:          -4.027
REMARK INTER:                  -4.027
REMARK INTRA:                   0.000
REMARK UNBOUND:                 0.000
REMARK  Name = /home/vital/Documents/PhD_2021/Malaria_codes/scripts/../data/pdbqt_ligands/ligand_282_temp.pdb
REMARK                            x       y       z     vdW  Elec       q    Type
REMARK                         _______ _______ _______ _____ _____    ______ ____
ROOT
ATOM      1  C1  UNL     1     140.936 123.492  97.148  0.00  0.00    -0.038 C 
ATOM      2  C2  UNL     1     141.035 124.340  98.399  0.00  0.00    -0.029 A 
ATOM      3  C3  UNL     1     141.295 123.670  99.560  0.00  0.00    -0.057 A 
ATOM      4  C4  UNL     1     141.742 124.163 100.737  0.00  0.00    -0.061 A 
ATOM      5  C5  UNL     1     142.394 125.333 100.866  0.00  0.00    -0.060 A 
ATOM      6  C6  UNL     1     143.212 125.825  99.917  0.00  0.00    -0.044 A 
ATOM      7  C7  UNL     1     143.157 127.116  99.528  0.00  0.00    +0.030 A 
ATOM      8  N1  UNL     1     142.202 128.080  99.635  0.00  0.00    -0.236 NA
ATOM      9  C8  UNL     1     140.883 127.724  99.645  0.00  0.00    +0.153 A 
ATOM     10  C9  UNL     1     139.911 128.701 100.156  0.00  0.00    -0.017 C 
ATOM     11  C10 UNL     1     139.999 130.014 100.438  0.00  0.00    -0.057 C 
ATOM     12  C11 UNL     1     141.182 130.828 100.325  0.00  0.00    -0.044 C 
ATOM     13  C12 UNL     1     141.219 131.976  99.634  0.00  0.00    +0.027 C 
ATOM     14  N2  UNL     1     142.375 132.650  99.333  0.00  0.00    -0.266 NA
ATOM     15  C13 UNL     1     143.187 132.032  98.513  0.00  0.00    +0.022 C 
ATOM     16  C14 UNL     1     143.000 130.700  97.798  0.00  0.00    +0.047 C 
ATOM     17  N3  UNL     1     143.457 130.788  96.376  0.00  0.00    -0.326 N 
ATOM     18  C15 UNL     1     142.927 131.738  95.506  0.00  0.00    -0.001 C 
ATOM     19  C16 UNL     1     143.027 131.671  94.167  0.00  0.00    +0.010 C 
ATOM     20  C17 UNL     1     142.407 132.665  93.221  0.00  0.00    +0.072 C 
ATOM     21  O1  UNL     1     141.473 133.539  93.847  0.00  0.00    -0.390 OA
ATOM     22  C18 UNL     1     143.759 130.532  93.616  0.00  0.00    +0.045 C 
ATOM     23 CL1  UNL     1     144.194 130.496  91.941  0.00  0.00    -0.083 Cl
ATOM     24  C19 UNL     1     144.105 129.496  94.398  0.00  0.00    -0.048 C 
ATOM     25  C20 UNL     1     143.788 129.439  95.866  0.00  0.00    +0.032 C 
ATOM     26  N4  UNL     1     140.288 126.534  99.327  0.00  0.00    -0.233 NA
ATOM     27  C21 UNL     1     140.746 125.690  98.335  0.00  0.00    +0.043 A 
ATOM     28  C22 UNL     1     140.716 126.392  96.979  0.00  0.00    -0.022 C 
ATOM     29  H   UNL     1     140.736 133.021  94.206  0.00  0.00    +0.000 HD
ENDROOT
TORSDOF 0
ENDMDL
MODEL 4
REMARK VINA RESULT:    -3.882      7.196     10.110
REMARK INTER + INTRA:          -3.882
REMARK INTER:                  -3.882
REMARK INTRA:                   0.000
REMARK UNBOUND:                 0.000
REMARK  Name = /home/vital/Documents/PhD_2021/Malaria_codes/scripts/../data/pdbqt_ligands/ligand_282_temp.pdb
REMARK                            x       y       z     vdW  Elec       q    Type
REMARK                         _______ _______ _______ _____ _____    ______ ____
ROOT
ATOM      1  C1  UNL     1     141.610 125.390 103.181  0.00  0.00    -0.038 C 
ATOM      2  C2  UNL     1     142.339 126.713 103.070  0.00  0.00    -0.029 A 
ATOM      3  C3  UNL     1     143.211 127.006 104.080  0.00  0.00    -0.057 A 
ATOM      4  C4  UNL     1     144.205 127.921 104.096  0.00  0.00    -0.061 A 
ATOM      5  C5  UNL     1     144.780 128.433 102.993  0.00  0.00    -0.060 A 
ATOM      6  C6  UNL     1     144.935 127.730 101.855  0.00  0.00    -0.044 A 
ATOM      7  C7  UNL     1     144.632 128.252 100.648  0.00  0.00    +0.030 A 
ATOM      8  N1  UNL     1     143.852 129.297 100.256  0.00  0.00    -0.236 NA
ATOM      9  C8  UNL     1     142.762 129.643 101.004  0.00  0.00    +0.153 A 
ATOM     10  C9  UNL     1     142.187 130.980 100.803  0.00  0.00    -0.017 C 
ATOM     11  C10 UNL     1     142.367 131.917  99.853  0.00  0.00    -0.057 C 
ATOM     12  C11 UNL     1     143.269 131.829  98.734  0.00  0.00    -0.044 C 
ATOM     13  C12 UNL     1     142.884 132.019  97.465  0.00  0.00    +0.027 C 
ATOM     14  N2  UNL     1     143.667 131.730  96.377  0.00  0.00    -0.266 NA
ATOM     15  C13 UNL     1     143.928 130.459  96.195  0.00  0.00    +0.022 C 
ATOM     16  C14 UNL     1     143.432 129.255  96.985  0.00  0.00    +0.047 C 
ATOM     17  N3  UNL     1     143.042 128.138  96.068  0.00  0.00    -0.326 N 
ATOM     18  C15 UNL     1     142.092 128.325  95.069  0.00  0.00    -0.001 C 
ATOM     19  C16 UNL     1     141.453 127.322  94.441  0.00  0.00    +0.010 C 
ATOM     20  C17 UNL     1     140.384 127.520  93.399  0.00  0.00    +0.072 C 
ATOM     21  O1  UNL     1     139.906 128.861  93.322  0.00  0.00    -0.390 OA
ATOM     22  C18 UNL     1     141.811 125.962  94.836  0.00  0.00    +0.045 C 
ATOM     23 CL1  UNL     1     141.271 124.606  93.905  0.00  0.00    -0.083 Cl
ATOM     24  C19 UNL     1     142.563 125.740  95.927  0.00  0.00    -0.048 C 
ATOM     25  C20 UNL     1     143.094 126.848  96.792  0.00  0.00    +0.032 C 
ATOM     26  N4  UNL     1     142.134 128.966 102.013  0.00  0.00    -0.233 NA
ATOM     27  C21 UNL     1     142.012 127.592 102.054  0.00  0.00    +0.043 A 
ATOM     28  C22 UNL     1     141.228 127.088 100.845  0.00  0.00    -0.022 C 
ATOM     29  H   UNL     1     139.500 129.108  94.168  0.00  0.00    +0.000 HD
ENDROOT
TORSDOF 0
ENDMDL
MODEL 5
REMARK VINA RESULT:    -3.835      8.098     11.396
REMARK INTER + INTRA:          -3.835
REMARK INTER:                  -3.835
REMARK INTRA:                   0.000
REMARK UNBOUND:                 0.000
REMARK  Name = /home/vital/Documents/PhD_2021/Malaria_codes/scripts/../data/pdbqt_ligands/ligand_282_temp.pdb
REMARK                            x       y       z     vdW  Elec       q    Type
REMARK                         _______ _______ _______ _____ _____    ______ ____
ROOT
ATOM      1  C1  UNL     1     143.052 125.288  93.797  0.00  0.00    -0.038 C 
ATOM      2  C2  UNL     1     142.119 125.128  94.979  0.00  0.00    -0.029 A 
ATOM      3  C3  UNL     1     141.805 123.845  95.328  0.00  0.00    -0.057 A 
ATOM      4  C4  UNL     1     141.279 123.391  96.487  0.00  0.00    -0.061 A 
ATOM      5  C5  UNL     1     141.339 124.055  97.655  0.00  0.00    -0.060 A 
ATOM      6  C6  UNL     1     142.374 124.846  97.996  0.00  0.00    -0.044 A 
ATOM      7  C7  UNL     1     142.189 126.072  98.527  0.00  0.00    +0.030 A 
ATOM      8  N1  UNL     1     141.134 126.933  98.536  0.00  0.00    -0.236 NA
ATOM      9  C8  UNL     1     140.257 126.935  97.489  0.00  0.00    +0.153 A 
ATOM     10  C9  UNL     1     138.942 127.557  97.695  0.00  0.00    -0.017 C 
ATOM     11  C10 UNL     1     138.451 128.352  98.663  0.00  0.00    -0.057 C 
ATOM     12  C11 UNL     1     139.155 128.788  99.842  0.00  0.00    -0.044 C 
ATOM     13  C12 UNL     1     139.263 130.076 100.196  0.00  0.00    +0.027 C 
ATOM     14  N2  UNL     1     140.101 130.529 101.182  0.00  0.00    -0.266 NA
ATOM     15  C13 UNL     1     141.381 130.404 100.931  0.00  0.00    +0.022 C 
ATOM     16  C14 UNL     1     142.067 129.884  99.675  0.00  0.00    +0.047 C 
ATOM     17  N3  UNL     1     143.239 130.741  99.313  0.00  0.00    -0.326 N 
ATOM     18  C15 UNL     1     143.094 132.109  99.101  0.00  0.00    -0.001 C 
ATOM     19  C16 UNL     1     143.998 132.871  98.461  0.00  0.00    +0.010 C 
ATOM     20  C17 UNL     1     143.820 134.340  98.180  0.00  0.00    +0.072 C 
ATOM     21  O1  UNL     1     142.493 134.805  98.407  0.00  0.00    -0.390 OA
ATOM     22  C18 UNL     1     145.208 132.202  97.987  0.00  0.00    +0.045 C 
ATOM     23 CL1  UNL     1     146.555 133.127  97.413  0.00  0.00    -0.083 Cl
ATOM     24  C19 UNL     1     145.296 130.862  97.987  0.00  0.00    -0.048 C 
ATOM     25  C20 UNL     1     144.190 129.971  98.479  0.00  0.00    +0.032 C 
ATOM     26  N4  UNL     1     140.360 126.361  96.252  0.00  0.00    -0.233 NA
ATOM     27  C21 UNL     1     141.546 126.246  95.556  0.00  0.00    +0.043 A 
ATOM     28  C22 UNL     1     142.139 127.625  95.277  0.00  0.00    -0.022 C 
ATOM     29  H   UNL     1     141.883 134.346  97.810  0.00  0.00    +0.000 HD
ENDROOT
TORSDOF 0
ENDMDL
MODEL 6
REMARK VINA RESULT:    -3.521     12.622     16.181
REMARK INTER + INTRA:          -3.521
REMARK INTER:                  -3.521
REMARK INTRA:                   0.000
REMARK UNBOUND:                 0.000
REMARK  Name = /home/vital/Documents/PhD_2021/Malaria_codes/scripts/../data/pdbqt_ligands/ligand_282_temp.pdb
REMARK                            x       y       z     vdW  Elec       q    Type
REMARK                         _______ _______ _______ _____ _____    ______ ____
ROOT
ATOM      1  C1  UNL     1     137.200 123.745 105.211  0.00  0.00    -0.038 C 
ATOM      2  C2  UNL     1     138.603 123.198 105.370  0.00  0.00    -0.029 A 
ATOM      3  C3  UNL     1     138.703 121.852 105.577  0.00  0.00    -0.057 A 
ATOM      4  C4  UNL     1     139.787 121.055 105.439  0.00  0.00    -0.061 A 
ATOM      5  C5  UNL     1     140.860 121.364 104.689  0.00  0.00    -0.060 A 
ATOM      6  C6  UNL     1     140.780 122.090 103.559  0.00  0.00    -0.044 A 
ATOM      7  C7  UNL     1     141.635 123.101 103.299  0.00  0.00    +0.030 A 
ATOM      8  N1  UNL     1     142.450 123.855 104.086  0.00  0.00    -0.236 NA
ATOM      9  C8  UNL     1     142.099 124.098 105.384  0.00  0.00    +0.153 A 
ATOM     10  C9  UNL     1     143.149 124.551 106.307  0.00  0.00    -0.017 C 
ATOM     11  C10 UNL     1     144.400 125.007 106.113  0.00  0.00    -0.057 C 
ATOM     12  C11 UNL     1     145.068 125.135 104.843  0.00  0.00    -0.044 C 
ATOM     13  C12 UNL     1     145.640 126.274 104.428  0.00  0.00    +0.027 C 
ATOM     14  N2  UNL     1     146.087 126.482 103.148  0.00  0.00    -0.266 NA
ATOM     15  C13 UNL     1     145.156 126.514 102.227  0.00  0.00    +0.022 C 
ATOM     16  C14 UNL     1     143.644 126.417 102.386  0.00  0.00    +0.047 C 
ATOM     17  N3  UNL     1     142.950 127.413 101.512  0.00  0.00    -0.326 N 
ATOM     18  C15 UNL     1     143.231 128.774 101.606  0.00  0.00    -0.001 C 
ATOM     19  C16 UNL     1     142.437 129.742 101.116  0.00  0.00    +0.010 C 
ATOM     20  C17 UNL     1     142.709 131.215 101.264  0.00  0.00    +0.072 C 
ATOM     21  O1  UNL     1     143.740 131.512 102.202  0.00  0.00    -0.390 OA
ATOM     22  C18 UNL     1     141.220 129.313 100.431  0.00  0.00    +0.045 C 
ATOM     23 CL1  UNL     1     140.280 130.445  99.519  0.00  0.00    -0.083 Cl
ATOM     24  C19 UNL     1     140.809 128.036 100.496  0.00  0.00    -0.048 C 
ATOM     25  C20 UNL     1     141.561 126.973 101.248  0.00  0.00    +0.032 C 
ATOM     26  N4  UNL     1     140.906 123.906 106.025  0.00  0.00    -0.233 NA
ATOM     27  C21 UNL     1     139.676 124.068 105.421  0.00  0.00    +0.043 A 
ATOM     28  C22 UNL     1     139.505 125.505 104.933  0.00  0.00    -0.022 C 
ATOM     29  H   UNL     1     143.474 131.203 103.082  0.00  0.00    +0.000 HD
ENDROOT
TORSDOF 0
ENDMDL
MODEL 7
REMARK VINA RESULT:    -3.488      9.704     12.431
REMARK INTER + INTRA:          -3.488
REMARK INTER:                  -3.488
REMARK INTRA:                   0.000
REMARK UNBOUND:                 0.000
REMARK  Name = /home/vital/Documents/PhD_2021/Malaria_codes/scripts/../data/pdbqt_ligands/ligand_282_temp.pdb
REMARK                            x       y       z     vdW  Elec       q    Type
REMARK                         _______ _______ _______ _____ _____    ______ ____
ROOT
ATOM      1  C1  UNL     1     141.432 132.327  99.782  0.00  0.00    -0.038 C 
ATOM      2  C2  UNL     1     141.799 131.221  98.815  0.00  0.00    -0.029 A 
ATOM      3  C3  UNL     1     142.607 131.577  97.774  0.00  0.00    -0.057 A 
ATOM      4  C4  UNL     1     143.338 130.779  96.963  0.00  0.00    -0.061 A 
ATOM      5  C5  UNL     1     143.722 129.529  97.279  0.00  0.00    -0.060 A 
ATOM      6  C6  UNL     1     144.003 129.145  98.538  0.00  0.00    -0.044 A 
ATOM      7  C7  UNL     1     143.531 127.992  99.054  0.00  0.00    +0.030 A 
ATOM      8  N1  UNL     1     142.497 127.174  98.712  0.00  0.00    -0.236 NA
ATOM      9  C8  UNL     1     141.386 127.703  98.119  0.00  0.00    +0.153 A 
ATOM     10  C9  UNL     1     140.485 126.787  97.406  0.00  0.00    -0.017 C 
ATOM     11  C10 UNL     1     140.384 125.445  97.378  0.00  0.00    -0.057 C 
ATOM     12  C11 UNL     1     141.235 124.515  98.075  0.00  0.00    -0.044 C 
ATOM     13  C12 UNL     1     140.764 123.554  98.881  0.00  0.00    +0.027 C 
ATOM     14  N2  UNL     1     141.551 122.804  99.717  0.00  0.00    -0.266 NA
ATOM     15  C13 UNL     1     142.117 123.464 100.697  0.00  0.00    +0.022 C 
ATOM     16  C14 UNL     1     141.973 124.933 101.074  0.00  0.00    +0.047 C 
ATOM     17  N3  UNL     1     141.842 125.093 102.555  0.00  0.00    -0.326 N 
ATOM     18  C15 UNL     1     140.836 124.442 103.265  0.00  0.00    -0.001 C 
ATOM     19  C16 UNL     1     140.447 124.786 104.505  0.00  0.00    +0.010 C 
ATOM     20  C17 UNL     1     139.322 124.121 105.254  0.00  0.00    +0.072 C 
ATOM     21  O1  UNL     1     138.519 123.273 104.438  0.00  0.00    -0.390 OA
ATOM     22  C18 UNL     1     141.153 125.901 105.133  0.00  0.00    +0.045 C 
ATOM     23 CL1  UNL     1     140.936 126.240 106.817  0.00  0.00    -0.083 Cl
ATOM     24  C19 UNL     1     141.979 126.681 104.416  0.00  0.00    -0.048 C 
ATOM     25  C20 UNL     1     142.247 126.460 102.954  0.00  0.00    +0.032 C 
ATOM     26  N4  UNL     1     140.990 129.006  97.994  0.00  0.00    -0.233 NA
ATOM     27  C21 UNL     1     141.221 129.972  98.952  0.00  0.00    +0.043 A 
ATOM     28  C22 UNL     1     140.542 129.596 100.266  0.00  0.00    -0.022 C 
ATOM     29  H   UNL     1     138.098 123.800 103.741  0.00  0.00    +0.000 HD
ENDROOT
TORSDOF 0
ENDMDL
MODEL 8
REMARK VINA RESULT:    -3.098      7.584      9.333
REMARK INTER + INTRA:          -3.098
REMARK INTER:                  -3.098
REMARK INTRA:                   0.000
REMARK UNBOUND:                 0.000
REMARK  Name = /home/vital/Documents/PhD_2021/Malaria_codes/scripts/../data/pdbqt_ligands/ligand_282_temp.pdb
REMARK                            x       y       z     vdW  Elec       q    Type
REMARK                         _______ _______ _______ _____ _____    ______ ____
ROOT
ATOM      1  C1  UNL     1     139.017 129.718 100.872  0.00  0.00    -0.038 C 
ATOM      2  C2  UNL     1     140.382 129.795 100.218  0.00  0.00    -0.029 A 
ATOM      3  C3  UNL     1     141.299 130.597 100.835  0.00  0.00    -0.057 A 
ATOM      4  C4  UNL     1     142.642 130.616 100.680  0.00  0.00    -0.061 A 
ATOM      5  C5  UNL     1     143.361 129.587 100.195  0.00  0.00    -0.060 A 
ATOM      6  C6  UNL     1     143.023 128.299 100.394  0.00  0.00    -0.044 A 
ATOM      7  C7  UNL     1     143.037 127.396  99.391  0.00  0.00    +0.030 A 
ATOM      8  N1  UNL     1     143.008 127.512  98.035  0.00  0.00    -0.236 NA
ATOM      9  C8  UNL     1     142.366 128.572  97.462  0.00  0.00    +0.153 A 
ATOM     10  C9  UNL     1     142.683 128.895  96.063  0.00  0.00    -0.017 C 
ATOM     11  C10 UNL     1     143.341 128.224  95.099  0.00  0.00    -0.057 C 
ATOM     12  C11 UNL     1     143.969 126.936  95.240  0.00  0.00    -0.044 C 
ATOM     13  C12 UNL     1     143.718 125.905  94.422  0.00  0.00    +0.027 C 
ATOM     14  N2  UNL     1     144.133 124.620  94.662  0.00  0.00    -0.266 NA
ATOM     15  C13 UNL     1     143.585 124.038  95.701  0.00  0.00    +0.022 C 
ATOM     16  C14 UNL     1     142.508 124.566  96.639  0.00  0.00    +0.047 C 
ATOM     17  N3  UNL     1     141.496 123.505  96.941  0.00  0.00    -0.326 N 
ATOM     18  C15 UNL     1     140.799 122.864  95.921  0.00  0.00    -0.001 C 
ATOM     19  C16 UNL     1     139.665 122.165  96.109  0.00  0.00    +0.010 C 
ATOM     20  C17 UNL     1     138.877 121.517  95.002  0.00  0.00    +0.072 C 
ATOM     21  O1  UNL     1     139.280 121.932  93.699  0.00  0.00    -0.390 OA
ATOM     22  C18 UNL     1     139.168 122.071  97.480  0.00  0.00    +0.045 C 
ATOM     23 CL1  UNL     1     137.893 120.969  97.877  0.00  0.00    -0.083 Cl
ATOM     24  C19 UNL     1     139.688 122.837  98.453  0.00  0.00    -0.048 C 
ATOM     25  C20 UNL     1     140.807 123.812  98.214  0.00  0.00    +0.032 C 
ATOM     26  N4  UNL     1     141.502 129.481  98.009  0.00  0.00    -0.233 NA
ATOM     27  C21 UNL     1     140.595 129.173  99.002  0.00  0.00    +0.043 A 
ATOM     28  C22 UNL     1     139.614 128.107  98.519  0.00  0.00    -0.022 C 
ATOM     29  H   UNL     1     139.134 122.886  93.604  0.00  0.00    +0.000 HD
ENDROOT
TORSDOF 0
ENDMDL
MODEL 9
REMARK VINA RESULT:    -3.085      8.062     11.636
REMARK INTER + INTRA:          -3.085
REMARK INTER:                  -3.085
REMARK INTRA:                   0.000
REMARK UNBOUND:                 0.000
REMARK  Name = /home/vital/Documents/PhD_2021/Malaria_codes/scripts/../data/pdbqt_ligands/ligand_282_temp.pdb
REMARK                            x       y       z     vdW  Elec       q    Type
REMARK                         _______ _______ _______ _____ _____    ______ ____
ROOT
ATOM      1  C1  UNL     1     141.526 123.475  95.472  0.00  0.00    -0.038 C 
ATOM      2  C2  UNL     1     141.024 123.926  96.828  0.00  0.00    -0.029 A 
ATOM      3  C3  UNL     1     140.626 122.938  97.681  0.00  0.00    -0.057 A 
ATOM      4  C4  UNL     1     140.443 123.001  99.019  0.00  0.00    -0.061 A 
ATOM      5  C5  UNL     1     141.002 123.932  99.814  0.00  0.00    -0.060 A 
ATOM      6  C6  UNL     1     142.212 124.471  99.574  0.00  0.00    -0.044 A 
ATOM      7  C7  UNL     1     142.429 125.800  99.657  0.00  0.00    +0.030 A 
ATOM      8  N1  UNL     1     141.603 126.882  99.622  0.00  0.00    -0.236 NA
ATOM      9  C8  UNL     1     140.443 126.822  98.904  0.00  0.00    +0.153 A 
ATOM     10  C9  UNL     1     139.400 127.813  99.199  0.00  0.00    -0.017 C 
ATOM     11  C10 UNL     1     139.403 128.958  99.907  0.00  0.00    -0.057 C 
ATOM     12  C11 UNL     1     140.522 129.505 100.630  0.00  0.00    -0.044 C 
ATOM     13  C12 UNL     1     140.963 130.759 100.458  0.00  0.00    +0.027 C 
ATOM     14  N2  UNL     1     142.147 131.229 100.968  0.00  0.00    -0.266 NA
ATOM     15  C13 UNL     1     143.229 130.689 100.463  0.00  0.00    +0.022 C 
ATOM     16  C14 UNL     1     143.358 129.661  99.347  0.00  0.00    +0.047 C 
ATOM     17  N3  UNL     1     144.474 130.018  98.418  0.00  0.00    -0.326 N 
ATOM     18  C15 UNL     1     144.507 131.251  97.772  0.00  0.00    -0.001 C 
ATOM     19  C16 UNL     1     145.266 131.517  96.694  0.00  0.00    +0.010 C 
ATOM     20  C17 UNL     1     145.263 132.831  95.958  0.00  0.00    +0.072 C 
ATOM     21  O1  UNL     1     144.188 133.688  96.332  0.00  0.00    -0.390 OA
ATOM     22  C18 UNL     1     146.114 130.433  96.202  0.00  0.00    +0.045 C 
ATOM     23 CL1  UNL     1     147.333 130.744  95.013  0.00  0.00    -0.083 Cl
ATOM     24  C19 UNL     1     145.963 129.180  96.662  0.00  0.00    -0.048 C 
ATOM     25  C20 UNL     1     144.945 128.810  97.705  0.00  0.00    +0.032 C 
ATOM     26  N4  UNL     1     140.029 125.909  97.973  0.00  0.00    -0.233 NA
ATOM     27  C21 UNL     1     140.879 125.276  97.089  0.00  0.00    +0.043 A 
ATOM     28  C22 UNL     1     141.575 126.297  96.192  0.00  0.00    -0.022 C 
ATOM     29  H   UNL     1     143.344 133.262  96.115  0.00  0.00    +0.000 HD
ENDROOT
TORSDOF 0
ENDMDL
