MODEL 1
REMARK VINA RESULT:    -4.892      0.000      0.000
REMARK INTER + INTRA:          -4.892
REMARK INTER:                  -4.892
REMARK INTRA:                   0.000
REMARK UNBOUND:                 0.000
REMARK  Name = /home/vital/Documents/PhD_2021/Malaria_codes/scripts/../data/pdbqt_ligands/ligand_348_temp.pdb
REMARK                            x       y       z     vdW  Elec       q    Type
REMARK                         _______ _______ _______ _____ _____    ______ ____
ROOT
ATOM      1  C1  UNL     1     128.961 127.576  87.354  0.00  0.00    +0.037 C 
ATOM      2  O1  UNL     1     128.696 128.776  86.642  0.00  0.00    -0.374 OA
ATOM      3  C2  UNL     1     129.659 129.819  86.845  0.00  0.00    +0.115 C 
ATOM      4  C3  UNL     1     129.422 130.902  85.760  0.00  0.00    +0.112 C 
ATOM      5  O2  UNL     1     130.544 131.796  85.737  0.00  0.00    -0.386 OA
ATOM      6  C4  UNL     1     128.138 131.730  85.986  0.00  0.00    +0.112 C 
ATOM      7  O3  UNL     1     126.968 130.973  85.660  0.00  0.00    -0.386 OA
ATOM      8  C5  UNL     1     128.017 132.245  87.427  0.00  0.00    +0.112 C 
ATOM      9  O4  UNL     1     126.710 132.819  87.611  0.00  0.00    -0.386 OA
ATOM     10  C6  UNL     1     128.221 131.127  88.456  0.00  0.00    +0.112 C 
ATOM     11  O5  UNL     1     128.154 131.703  89.775  0.00  0.00    -0.386 OA
ATOM     12  C7  UNL     1     129.587 130.473  88.242  0.00  0.00    +0.112 C 
ATOM     13  O6  UNL     1     129.860 129.540  89.296  0.00  0.00    -0.386 OA
ATOM     14  H   UNL     1     130.616 132.246  86.593  0.00  0.00    +0.000 HD
ATOM     15  H   UNL     1     126.902 130.208  86.254  0.00  0.00    +0.000 HD
ATOM     16  H   UNL     1     126.034 132.138  87.467  0.00  0.00    +0.000 HD
ATOM     17  H   UNL     1     128.845 132.378  89.868  0.00  0.00    +0.000 HD
ATOM     18  H   UNL     1     129.185 128.843  89.292  0.00  0.00    +0.000 HD
ENDROOT
TORSDOF 0
ENDMDL
MODEL 2
REMARK VINA RESULT:    -4.553      1.238      3.433
REMARK INTER + INTRA:          -4.553
REMARK INTER:                  -4.553
REMARK INTRA:                   0.000
REMARK UNBOUND:                 0.000
REMARK  Name = /home/vital/Documents/PhD_2021/Malaria_codes/scripts/../data/pdbqt_ligands/ligand_348_temp.pdb
REMARK                            x       y       z     vdW  Elec       q    Type
REMARK                         _______ _______ _______ _____ _____    ______ ____
ROOT
ATOM      1  C1  UNL     1     130.912 131.142  85.346  0.00  0.00    +0.037 C 
ATOM      2  O1  UNL     1     130.654 130.633  86.646  0.00  0.00    -0.374 OA
ATOM      3  C2  UNL     1     129.359 130.040  86.813  0.00  0.00    +0.115 C 
ATOM      4  C3  UNL     1     129.368 129.244  88.144  0.00  0.00    +0.112 C 
ATOM      5  O2  UNL     1     128.212 128.396  88.192  0.00  0.00    -0.386 OA
ATOM      6  C4  UNL     1     129.369 130.145  89.399  0.00  0.00    +0.112 C 
ATOM      7  O3  UNL     1     130.653 130.744  89.607  0.00  0.00    -0.386 OA
ATOM      8  C5  UNL     1     128.305 131.248  89.331  0.00  0.00    +0.112 C 
ATOM      9  O4  UNL     1     128.508 132.163  90.425  0.00  0.00    -0.386 OA
ATOM     10  C6  UNL     1     128.367 132.027  88.013  0.00  0.00    +0.112 C 
ATOM     11  O5  UNL     1     127.301 132.997  88.005  0.00  0.00    -0.386 OA
ATOM     12  C7  UNL     1     128.202 131.062  86.837  0.00  0.00    +0.112 C 
ATOM     13  O6  UNL     1     128.094 131.793  85.608  0.00  0.00    -0.386 OA
ATOM     14  H   UNL     1     127.410 128.942  88.178  0.00  0.00    +0.000 HD
ATOM     15  H   UNL     1     130.862 131.326  88.859  0.00  0.00    +0.000 HD
ATOM     16  H   UNL     1     129.384 132.571  90.347  0.00  0.00    +0.000 HD
ATOM     17  H   UNL     1     126.448 132.540  88.088  0.00  0.00    +0.000 HD
ATOM     18  H   UNL     1     128.903 132.309  85.467  0.00  0.00    +0.000 HD
ENDROOT
TORSDOF 0
ENDMDL
MODEL 3
REMARK VINA RESULT:    -4.478      6.916      9.145
REMARK INTER + INTRA:          -4.478
REMARK INTER:                  -4.478
REMARK INTRA:                   0.000
REMARK UNBOUND:                 0.000
REMARK  Name = /home/vital/Documents/PhD_2021/Malaria_codes/scripts/../data/pdbqt_ligands/ligand_348_temp.pdb
REMARK                            x       y       z     vdW  Elec       q    Type
REMARK                         _______ _______ _______ _____ _____    ______ ____
ROOT
ATOM      1  C1  UNL     1     134.221 121.560  90.195  0.00  0.00    +0.037 C 
ATOM      2  O1  UNL     1     133.070 122.377  90.348  0.00  0.00    -0.374 OA
ATOM      3  C2  UNL     1     131.849 121.791  89.876  0.00  0.00    +0.115 C 
ATOM      4  C3  UNL     1     130.671 122.641  90.419  0.00  0.00    +0.112 C 
ATOM      5  O2  UNL     1     129.446 121.920  90.230  0.00  0.00    -0.386 OA
ATOM      6  C4  UNL     1     130.541 124.019  89.735  0.00  0.00    +0.112 C 
ATOM      7  O3  UNL     1     131.559 124.920  90.183  0.00  0.00    -0.386 OA
ATOM      8  C5  UNL     1     130.595 123.923  88.204  0.00  0.00    +0.112 C 
ATOM      9  O4  UNL     1     130.680 125.251  87.654  0.00  0.00    -0.386 OA
ATOM     10  C6  UNL     1     131.799 123.106  87.721  0.00  0.00    +0.112 C 
ATOM     11  O5  UNL     1     131.741 123.012  86.285  0.00  0.00    -0.386 OA
ATOM     12  C7  UNL     1     131.751 121.706  88.337  0.00  0.00    +0.112 C 
ATOM     13  O6  UNL     1     132.776 120.880  87.769  0.00  0.00    -0.386 OA
ATOM     14  H   UNL     1     129.297 121.778  89.282  0.00  0.00    +0.000 HD
ATOM     15  H   UNL     1     132.430 124.576  89.929  0.00  0.00    +0.000 HD
ATOM     16  H   UNL     1     131.492 125.680  87.967  0.00  0.00    +0.000 HD
ATOM     17  H   UNL     1     130.912 122.580  86.022  0.00  0.00    +0.000 HD
ATOM     18  H   UNL     1     133.645 121.266  87.960  0.00  0.00    +0.000 HD
ENDROOT
TORSDOF 0
ENDMDL
MODEL 4
REMARK VINA RESULT:    -4.310      6.724      8.775
REMARK INTER + INTRA:          -4.310
REMARK INTER:                  -4.310
REMARK INTRA:                   0.000
REMARK UNBOUND:                 0.000
REMARK  Name = /home/vital/Documents/PhD_2021/Malaria_codes/scripts/../data/pdbqt_ligands/ligand_348_temp.pdb
REMARK                            x       y       z     vdW  Elec       q    Type
REMARK                         _______ _______ _______ _____ _____    ______ ____
ROOT
ATOM      1  C1  UNL     1     134.875 124.202  88.599  0.00  0.00    +0.037 C 
ATOM      2  O1  UNL     1     133.896 123.294  89.081  0.00  0.00    -0.374 OA
ATOM      3  C2  UNL     1     132.872 122.957  88.135  0.00  0.00    +0.115 C 
ATOM      4  C3  UNL     1     132.105 121.725  88.682  0.00  0.00    +0.112 C 
ATOM      5  O2  UNL     1     131.290 121.177  87.637  0.00  0.00    -0.386 OA
ATOM      6  C4  UNL     1     131.201 122.050  89.891  0.00  0.00    +0.112 C 
ATOM      7  O3  UNL     1     131.974 122.250  91.079  0.00  0.00    -0.386 OA
ATOM      8  C5  UNL     1     130.321 123.284  89.651  0.00  0.00    +0.112 C 
ATOM      9  O4  UNL     1     129.671 123.643  90.885  0.00  0.00    -0.386 OA
ATOM     10  C6  UNL     1     131.135 124.482  89.149  0.00  0.00    +0.112 C 
ATOM     11  O5  UNL     1     130.229 125.573  88.891  0.00  0.00    -0.386 OA
ATOM     12  C7  UNL     1     131.871 124.102  87.864  0.00  0.00    +0.112 C 
ATOM     13  O6  UNL     1     132.503 125.255  87.295  0.00  0.00    -0.386 OA
ATOM     14  H   UNL     1     130.634 121.835  87.360  0.00  0.00    +0.000 HD
ATOM     15  H   UNL     1     132.552 123.020  90.962  0.00  0.00    +0.000 HD
ATOM     16  H   UNL     1     130.341 123.864  91.551  0.00  0.00    +0.000 HD
ATOM     17  H   UNL     1     129.579 125.302  88.223  0.00  0.00    +0.000 HD
ATOM     18  H   UNL     1     133.152 125.611  87.923  0.00  0.00    +0.000 HD
ENDROOT
TORSDOF 0
ENDMDL
MODEL 5
REMARK VINA RESULT:    -4.014     16.272     17.997
REMARK INTER + INTRA:          -4.014
REMARK INTER:                  -4.014
REMARK INTRA:                   0.000
REMARK UNBOUND:                 0.000
REMARK  Name = /home/vital/Documents/PhD_2021/Malaria_codes/scripts/../data/pdbqt_ligands/ligand_348_temp.pdb
REMARK                            x       y       z     vdW  Elec       q    Type
REMARK                         _______ _______ _______ _____ _____    ______ ____
ROOT
ATOM      1  C1  UNL     1     143.459 128.067  98.671  0.00  0.00    +0.037 C 
ATOM      2  O1  UNL     1     142.245 128.803  98.651  0.00  0.00    -0.374 OA
ATOM      3  C2  UNL     1     142.174 129.871  99.605  0.00  0.00    +0.115 C 
ATOM      4  C3  UNL     1     140.966 130.767  99.228  0.00  0.00    +0.112 C 
ATOM      5  O2  UNL     1     141.047 131.998  99.961  0.00  0.00    -0.386 OA
ATOM      6  C4  UNL     1     139.599 130.111  99.519  0.00  0.00    +0.112 C 
ATOM      7  O3  UNL     1     139.297 129.091  98.561  0.00  0.00    -0.386 OA
ATOM      8  C5  UNL     1     139.523 129.513 100.931  0.00  0.00    +0.112 C 
ATOM      9  O4  UNL     1     138.310 128.744 101.049  0.00  0.00    -0.386 OA
ATOM     10  C6  UNL     1     140.720 128.606 101.236  0.00  0.00    +0.112 C 
ATOM     11  O5  UNL     1     140.604 128.138 102.594  0.00  0.00    -0.386 OA
ATOM     12  C7  UNL     1     142.019 129.395 101.066  0.00  0.00    +0.112 C 
ATOM     13  O6  UNL     1     143.136 128.610 101.505  0.00  0.00    -0.386 OA
ATOM     14  H   UNL     1     140.993 131.812 100.911  0.00  0.00    +0.000 HD
ATOM     15  H   UNL     1     139.955 128.380  98.629  0.00  0.00    +0.000 HD
ATOM     16  H   UNL     1     138.323 128.019 100.405  0.00  0.00    +0.000 HD
ATOM     17  H   UNL     1     140.593 128.898 103.198  0.00  0.00    +0.000 HD
ATOM     18  H   UNL     1     143.197 127.805 100.967  0.00  0.00    +0.000 HD
ENDROOT
TORSDOF 0
ENDMDL
MODEL 6
REMARK VINA RESULT:    -3.999      7.492      9.646
REMARK INTER + INTRA:          -3.999
REMARK INTER:                  -3.999
REMARK INTRA:                   0.000
REMARK UNBOUND:                 0.000
REMARK  Name = /home/vital/Documents/PhD_2021/Malaria_codes/scripts/../data/pdbqt_ligands/ligand_348_temp.pdb
REMARK                            x       y       z     vdW  Elec       q    Type
REMARK                         _______ _______ _______ _____ _____    ______ ____
ROOT
ATOM      1  C1  UNL     1     131.523 120.932  85.334  0.00  0.00    +0.037 C 
ATOM      2  O1  UNL     1     131.009 121.555  86.502  0.00  0.00    -0.374 OA
ATOM      3  C2  UNL     1     131.729 122.720  86.929  0.00  0.00    +0.115 C 
ATOM      4  C3  UNL     1     130.860 123.459  87.978  0.00  0.00    +0.112 C 
ATOM      5  O2  UNL     1     131.399 124.771  88.195  0.00  0.00    -0.386 OA
ATOM      6  C4  UNL     1     130.781 122.729  89.337  0.00  0.00    +0.112 C 
ATOM      7  O3  UNL     1     129.930 121.581  89.261  0.00  0.00    -0.386 OA
ATOM      8  C5  UNL     1     132.161 122.299  89.853  0.00  0.00    +0.112 C 
ATOM      9  O4  UNL     1     131.987 121.450  91.003  0.00  0.00    -0.386 OA
ATOM     10  C6  UNL     1     132.962 121.539  88.789  0.00  0.00    +0.112 C 
ATOM     11  O5  UNL     1     134.260 121.228  89.330  0.00  0.00    -0.386 OA
ATOM     12  C7  UNL     1     133.113 122.409  87.540  0.00  0.00    +0.112 C 
ATOM     13  O6  UNL     1     133.995 121.779  86.602  0.00  0.00    -0.386 OA
ATOM     14  H   UNL     1     132.297 124.695  88.554  0.00  0.00    +0.000 HD
ATOM     15  H   UNL     1     130.306 120.941  88.635  0.00  0.00    +0.000 HD
ATOM     16  H   UNL     1     131.490 120.657  90.748  0.00  0.00    +0.000 HD
ATOM     17  H   UNL     1     134.715 122.050  89.572  0.00  0.00    +0.000 HD
ATOM     18  H   UNL     1     133.624 120.924  86.333  0.00  0.00    +0.000 HD
ENDROOT
TORSDOF 0
ENDMDL
MODEL 7
REMARK VINA RESULT:    -3.651     17.950     19.473
REMARK INTER + INTRA:          -3.651
REMARK INTER:                  -3.651
REMARK INTRA:                   0.000
REMARK UNBOUND:                 0.000
REMARK  Name = /home/vital/Documents/PhD_2021/Malaria_codes/scripts/../data/pdbqt_ligands/ligand_348_temp.pdb
REMARK                            x       y       z     vdW  Elec       q    Type
REMARK                         _______ _______ _______ _____ _____    ______ ____
ROOT
ATOM      1  C1  UNL     1     144.644 127.554  99.960  0.00  0.00    +0.037 C 
ATOM      2  O1  UNL     1     143.995 128.814  99.879  0.00  0.00    -0.374 OA
ATOM      3  C2  UNL     1     143.784 129.464 101.139  0.00  0.00    +0.115 C 
ATOM      4  C3  UNL     1     143.395 130.938 100.856  0.00  0.00    +0.112 C 
ATOM      5  O2  UNL     1     143.478 131.689 102.076  0.00  0.00    -0.386 OA
ATOM      6  C4  UNL     1     141.973 131.099 100.276  0.00  0.00    +0.112 C 
ATOM      7  O3  UNL     1     141.922 130.693  98.904  0.00  0.00    -0.386 OA
ATOM      8  C5  UNL     1     140.922 130.311 101.071  0.00  0.00    +0.112 C 
ATOM      9  O4  UNL     1     139.674 130.340 100.353  0.00  0.00    -0.386 OA
ATOM     10  C6  UNL     1     141.339 128.852 101.288  0.00  0.00    +0.112 C 
ATOM     11  O5  UNL     1     140.333 128.205 102.091  0.00  0.00    -0.386 OA
ATOM     12  C7  UNL     1     142.689 128.805 102.006  0.00  0.00    +0.112 C 
ATOM     13  O6  UNL     1     143.013 127.455 102.361  0.00  0.00    -0.386 OA
ATOM     14  H   UNL     1     142.844 131.333 102.718  0.00  0.00    +0.000 HD
ATOM     15  H   UNL     1     142.133 129.748  98.838  0.00  0.00    +0.000 HD
ATOM     16  H   UNL     1     139.788 129.918  99.487  0.00  0.00    +0.000 HD
ATOM     17  H   UNL     1     140.254 128.664 102.942  0.00  0.00    +0.000 HD
ATOM     18  H   UNL     1     143.078 126.916 101.557  0.00  0.00    +0.000 HD
ENDROOT
TORSDOF 0
ENDMDL
MODEL 8
REMARK VINA RESULT:    -3.615     17.448     19.266
REMARK INTER + INTRA:          -3.615
REMARK INTER:                  -3.615
REMARK INTRA:                   0.000
REMARK UNBOUND:                 0.000
REMARK  Name = /home/vital/Documents/PhD_2021/Malaria_codes/scripts/../data/pdbqt_ligands/ligand_348_temp.pdb
REMARK                            x       y       z     vdW  Elec       q    Type
REMARK                         _______ _______ _______ _____ _____    ______ ____
ROOT
ATOM      1  C1  UNL     1     139.546 130.036 100.960  0.00  0.00    +0.037 C 
ATOM      2  O1  UNL     1     140.746 130.792 101.030  0.00  0.00    -0.374 OA
ATOM      3  C2  UNL     1     141.370 131.046  99.764  0.00  0.00    +0.115 C 
ATOM      4  C3  UNL     1     142.444 132.145  99.974  0.00  0.00    +0.112 C 
ATOM      5  O2  UNL     1     142.867 132.639  98.695  0.00  0.00    -0.386 OA
ATOM      6  C4  UNL     1     143.687 131.651 100.745  0.00  0.00    +0.112 C 
ATOM      7  O3  UNL     1     143.403 131.489 102.139  0.00  0.00    -0.386 OA
ATOM      8  C5  UNL     1     144.238 130.330 100.189  0.00  0.00    +0.112 C 
ATOM      9  O4  UNL     1     145.253 129.833 101.081  0.00  0.00    -0.386 OA
ATOM     10  C6  UNL     1     143.143 129.269 100.038  0.00  0.00    +0.112 C 
ATOM     11  O5  UNL     1     143.728 128.088  99.455  0.00  0.00    -0.386 OA
ATOM     12  C7  UNL     1     142.031 129.801  99.132  0.00  0.00    +0.112 C 
ATOM     13  O6  UNL     1     141.083 128.763  98.850  0.00  0.00    -0.386 OA
ATOM     14  H   UNL     1     143.275 131.919  98.189  0.00  0.00    +0.000 HD
ATOM     15  H   UNL     1     142.727 130.803 102.254  0.00  0.00    +0.000 HD
ATOM     16  H   UNL     1     144.863 129.664 101.953  0.00  0.00    +0.000 HD
ATOM     17  H   UNL     1     144.106 128.309  98.589  0.00  0.00    +0.000 HD
ATOM     18  H   UNL     1     140.680 128.460  99.679  0.00  0.00    +0.000 HD
ENDROOT
TORSDOF 0
ENDMDL
