MODEL 1
REMARK VINA RESULT:    -3.981      0.000      0.000
REMARK INTER + INTRA:          -3.981
REMARK INTER:                  -3.981
REMARK INTRA:                   0.000
REMARK UNBOUND:                 0.000
REMARK  Name = /home/vital/Documents/PhD_2021/Malaria_codes/scripts/../data/pdbqt_ligands/ligand_167_temp.pdb
REMARK                            x       y       z     vdW  Elec       q    Type
REMARK                         _______ _______ _______ _____ _____    ______ ____
ROOT
ATOM      1  O1  UNL     1     125.061 131.483  87.504  0.00  0.00    -0.409 OA
ATOM      2  N1  UNL     1     125.866 131.512  86.363  0.00  0.00    -0.095 NA
ATOM      3  C1  UNL     1     125.971 132.704  85.851  0.00  0.00    +0.075 C 
ATOM      4  C2  UNL     1     125.294 133.951  86.264  0.00  0.00    +0.014 A 
ATOM      5  C3  UNL     1     123.925 133.937  86.561  0.00  0.00    -0.052 A 
ATOM      6  C4  UNL     1     123.267 135.120  86.904  0.00  0.00    -0.061 A 
ATOM      7  C5  UNL     1     123.970 136.323  86.941  0.00  0.00    -0.060 A 
ATOM      8  C6  UNL     1     125.329 136.346  86.630  0.00  0.00    -0.043 A 
ATOM      9  C7  UNL     1     125.994 135.164  86.285  0.00  0.00    +0.050 A 
ATOM     10 CL1  UNL     1     127.680 135.272  85.918  0.00  0.00    -0.083 Cl
ATOM     11  H   UNL     1     124.917 130.675  87.955  0.00  0.00    +0.000 HD
ENDROOT
TORSDOF 0
ENDMDL
MODEL 2
REMARK VINA RESULT:    -3.749     12.895     13.495
REMARK INTER + INTRA:          -3.749
REMARK INTER:                  -3.749
REMARK INTRA:                   0.000
REMARK UNBOUND:                 0.000
REMARK  Name = /home/vital/Documents/PhD_2021/Malaria_codes/scripts/../data/pdbqt_ligands/ligand_167_temp.pdb
REMARK                            x       y       z     vdW  Elec       q    Type
REMARK                         _______ _______ _______ _____ _____    ______ ____
ROOT
ATOM      1  O1  UNL     1     129.082 121.492  90.419  0.00  0.00    -0.409 OA
ATOM      2  N1  UNL     1     130.165 121.574  91.297  0.00  0.00    -0.095 NA
ATOM      3  C1  UNL     1     131.225 122.084  90.742  0.00  0.00    +0.075 C 
ATOM      4  C2  UNL     1     131.432 122.482  89.333  0.00  0.00    +0.014 A 
ATOM      5  C3  UNL     1     131.003 121.638  88.300  0.00  0.00    -0.052 A 
ATOM      6  C4  UNL     1     131.238 121.983  86.967  0.00  0.00    -0.061 A 
ATOM      7  C5  UNL     1     131.912 123.163  86.661  0.00  0.00    -0.060 A 
ATOM      8  C6  UNL     1     132.358 123.997  87.686  0.00  0.00    -0.043 A 
ATOM      9  C7  UNL     1     132.126 123.658  89.023  0.00  0.00    +0.050 A 
ATOM     10 CL1  UNL     1     132.702 124.746  90.237  0.00  0.00    -0.083 Cl
ATOM     11  H   UNL     1     128.265 121.140  90.714  0.00  0.00    +0.000 HD
ENDROOT
TORSDOF 0
ENDMDL
MODEL 3
REMARK VINA RESULT:    -3.735     21.875     22.405
REMARK INTER + INTRA:          -3.735
REMARK INTER:                  -3.735
REMARK INTRA:                   0.000
REMARK UNBOUND:                 0.000
REMARK  Name = /home/vital/Documents/PhD_2021/Malaria_codes/scripts/../data/pdbqt_ligands/ligand_167_temp.pdb
REMARK                            x       y       z     vdW  Elec       q    Type
REMARK                         _______ _______ _______ _____ _____    ______ ____
ROOT
ATOM      1  O1  UNL     1     139.189 129.772 102.049  0.00  0.00    -0.409 OA
ATOM      2  N1  UNL     1     139.948 128.605 101.949  0.00  0.00    -0.095 NA
ATOM      3  C1  UNL     1     141.130 128.815 101.447  0.00  0.00    +0.075 C 
ATOM      4  C2  UNL     1     141.700 130.069 100.912  0.00  0.00    +0.014 A 
ATOM      5  C3  UNL     1     140.932 130.877 100.062  0.00  0.00    -0.052 A 
ATOM      6  C4  UNL     1     141.478 132.039  99.513  0.00  0.00    -0.061 A 
ATOM      7  C5  UNL     1     142.795 132.393  99.799  0.00  0.00    -0.060 A 
ATOM      8  C6  UNL     1     143.569 131.584 100.630  0.00  0.00    -0.043 A 
ATOM      9  C7  UNL     1     143.028 130.418 101.184  0.00  0.00    +0.050 A 
ATOM     10 CL1  UNL     1     144.048 129.471 102.210  0.00  0.00    -0.083 Cl
ATOM     11  H   UNL     1     138.319 129.738 102.397  0.00  0.00    +0.000 HD
ENDROOT
TORSDOF 0
ENDMDL
MODEL 4
REMARK VINA RESULT:    -3.690     22.059     22.595
REMARK INTER + INTRA:          -3.690
REMARK INTER:                  -3.690
REMARK INTRA:                   0.000
REMARK UNBOUND:                 0.000
REMARK  Name = /home/vital/Documents/PhD_2021/Malaria_codes/scripts/../data/pdbqt_ligands/ligand_167_temp.pdb
REMARK                            x       y       z     vdW  Elec       q    Type
REMARK                         _______ _______ _______ _____ _____    ______ ____
ROOT
ATOM      1  O1  UNL     1     141.179 127.829 103.987  0.00  0.00    -0.409 OA
ATOM      2  N1  UNL     1     142.504 127.875 103.548  0.00  0.00    -0.095 NA
ATOM      3  C1  UNL     1     142.639 128.510 102.421  0.00  0.00    +0.075 C 
ATOM      4  C2  UNL     1     141.592 129.081 101.548  0.00  0.00    +0.014 A 
ATOM      5  C3  UNL     1     140.437 128.338 101.268  0.00  0.00    -0.052 A 
ATOM      6  C4  UNL     1     139.465 128.849 100.405  0.00  0.00    -0.061 A 
ATOM      7  C5  UNL     1     139.646 130.095  99.810  0.00  0.00    -0.060 A 
ATOM      8  C6  UNL     1     140.802 130.832 100.072  0.00  0.00    -0.043 A 
ATOM      9  C7  UNL     1     141.780 130.326 100.935  0.00  0.00    +0.050 A 
ATOM     10 CL1  UNL     1     143.181 131.299 101.216  0.00  0.00    -0.083 Cl
ATOM     11  H   UNL     1     140.965 127.395 104.790  0.00  0.00    +0.000 HD
ENDROOT
TORSDOF 0
ENDMDL
MODEL 5
REMARK VINA RESULT:    -3.635     22.404     23.070
REMARK INTER + INTRA:          -3.635
REMARK INTER:                  -3.635
REMARK INTRA:                   0.000
REMARK UNBOUND:                 0.000
REMARK  Name = /home/vital/Documents/PhD_2021/Malaria_codes/scripts/../data/pdbqt_ligands/ligand_167_temp.pdb
REMARK                            x       y       z     vdW  Elec       q    Type
REMARK                         _______ _______ _______ _____ _____    ______ ____
ROOT
ATOM      1  O1  UNL     1     143.559 131.759 102.429  0.00  0.00    -0.409 OA
ATOM      2  N1  UNL     1     143.378 131.958 101.059  0.00  0.00    -0.095 NA
ATOM      3  C1  UNL     1     142.645 131.035 100.509  0.00  0.00    +0.075 C 
ATOM      4  C2  UNL     1     142.086 129.810 101.119  0.00  0.00    +0.014 A 
ATOM      5  C3  UNL     1     142.889 129.016 101.949  0.00  0.00    -0.052 A 
ATOM      6  C4  UNL     1     142.385 127.832 102.491  0.00  0.00    -0.061 A 
ATOM      7  C5  UNL     1     141.084 127.429 102.197  0.00  0.00    -0.060 A 
ATOM      8  C6  UNL     1     140.286 128.206 101.357  0.00  0.00    -0.043 A 
ATOM      9  C7  UNL     1     140.785 129.394 100.812  0.00  0.00    +0.050 A 
ATOM     10 CL1  UNL     1     139.734 130.306  99.786  0.00  0.00    -0.083 Cl
ATOM     11  H   UNL     1     144.072 132.365 102.927  0.00  0.00    +0.000 HD
ENDROOT
TORSDOF 0
ENDMDL
MODEL 6
REMARK VINA RESULT:    -3.557     12.423     13.838
REMARK INTER + INTRA:          -3.557
REMARK INTER:                  -3.557
REMARK INTRA:                   0.000
REMARK UNBOUND:                 0.000
REMARK  Name = /home/vital/Documents/PhD_2021/Malaria_codes/scripts/../data/pdbqt_ligands/ligand_167_temp.pdb
REMARK                            x       y       z     vdW  Elec       q    Type
REMARK                         _______ _______ _______ _____ _____    ______ ____
ROOT
ATOM      1  O1  UNL     1     129.052 121.591  90.645  0.00  0.00    -0.409 OA
ATOM      2  N1  UNL     1     128.970 122.981  90.531  0.00  0.00    -0.095 NA
ATOM      3  C1  UNL     1     130.028 123.505  89.985  0.00  0.00    +0.075 C 
ATOM      4  C2  UNL     1     131.283 122.841  89.575  0.00  0.00    +0.014 A 
ATOM      5  C3  UNL     1     131.890 121.909  90.429  0.00  0.00    -0.052 A 
ATOM      6  C4  UNL     1     133.101 121.313  90.072  0.00  0.00    -0.061 A 
ATOM      7  C5  UNL     1     133.718 121.653  88.870  0.00  0.00    -0.060 A 
ATOM      8  C6  UNL     1     133.128 122.593  88.024  0.00  0.00    -0.043 A 
ATOM      9  C7  UNL     1     131.914 123.194  88.376  0.00  0.00    +0.050 A 
ATOM     10 CL1  UNL     1     131.241 124.343  87.274  0.00  0.00    -0.083 Cl
ATOM     11  H   UNL     1     128.344 121.109  91.025  0.00  0.00    +0.000 HD
ENDROOT
TORSDOF 0
ENDMDL
MODEL 7
REMARK VINA RESULT:    -3.401     20.012     20.509
REMARK INTER + INTRA:          -3.401
REMARK INTER:                  -3.401
REMARK INTRA:                   0.000
REMARK UNBOUND:                 0.000
REMARK  Name = /home/vital/Documents/PhD_2021/Malaria_codes/scripts/../data/pdbqt_ligands/ligand_167_temp.pdb
REMARK                            x       y       z     vdW  Elec       q    Type
REMARK                         _______ _______ _______ _____ _____    ______ ____
ROOT
ATOM      1  O1  UNL     1     142.100 130.740  97.294  0.00  0.00    -0.409 OA
ATOM      2  N1  UNL     1     142.267 129.383  97.012  0.00  0.00    -0.095 NA
ATOM      3  C1  UNL     1     141.534 128.618  97.767  0.00  0.00    +0.075 C 
ATOM      4  C2  UNL     1     140.658 128.997  98.896  0.00  0.00    +0.014 A 
ATOM      5  C3  UNL     1     141.111 129.915  99.853  0.00  0.00    -0.052 A 
ATOM      6  C4  UNL     1     140.310 130.242 100.948  0.00  0.00    -0.061 A 
ATOM      7  C5  UNL     1     139.060 129.646 101.101  0.00  0.00    -0.060 A 
ATOM      8  C6  UNL     1     138.611 128.717 100.161  0.00  0.00    -0.043 A 
ATOM      9  C7  UNL     1     139.409 128.386  99.060  0.00  0.00    +0.050 A 
ATOM     10 CL1  UNL     1     138.782 127.232  97.936  0.00  0.00    -0.083 Cl
ATOM     11  H   UNL     1     142.580 131.382  96.810  0.00  0.00    +0.000 HD
ENDROOT
TORSDOF 0
ENDMDL
MODEL 8
REMARK VINA RESULT:    -3.340     23.295     23.726
REMARK INTER + INTRA:          -3.340
REMARK INTER:                  -3.340
REMARK INTRA:                   0.000
REMARK UNBOUND:                 0.000
REMARK  Name = /home/vital/Documents/PhD_2021/Malaria_codes/scripts/../data/pdbqt_ligands/ligand_167_temp.pdb
REMARK                            x       y       z     vdW  Elec       q    Type
REMARK                         _______ _______ _______ _____ _____    ______ ____
ROOT
ATOM      1  O1  UNL     1     128.406 123.357 105.212  0.00  0.00    -0.409 OA
ATOM      2  N1  UNL     1     127.749 122.563 104.270  0.00  0.00    -0.095 NA
ATOM      3  C1  UNL     1     126.789 121.856 104.789  0.00  0.00    +0.075 C 
ATOM      4  C2  UNL     1     126.393 121.732 106.208  0.00  0.00    +0.014 A 
ATOM      5  C3  UNL     1     127.375 121.563 107.194  0.00  0.00    -0.052 A 
ATOM      6  C4  UNL     1     127.008 121.396 108.530  0.00  0.00    -0.061 A 
ATOM      7  C5  UNL     1     125.661 121.384 108.888  0.00  0.00    -0.060 A 
ATOM      8  C6  UNL     1     124.679 121.534 107.908  0.00  0.00    -0.043 A 
ATOM      9  C7  UNL     1     125.040 121.702 106.567  0.00  0.00    +0.050 A 
ATOM     10 CL1  UNL     1     123.766 121.887 105.413  0.00  0.00    -0.083 Cl
ATOM     11  H   UNL     1     129.116 123.908 104.948  0.00  0.00    +0.000 HD
ENDROOT
TORSDOF 0
ENDMDL
MODEL 9
REMARK VINA RESULT:    -2.942     22.094     22.656
REMARK INTER + INTRA:          -2.942
REMARK INTER:                  -2.942
REMARK INTRA:                   0.000
REMARK UNBOUND:                 0.000
REMARK  Name = /home/vital/Documents/PhD_2021/Malaria_codes/scripts/../data/pdbqt_ligands/ligand_167_temp.pdb
REMARK                            x       y       z     vdW  Elec       q    Type
REMARK                         _______ _______ _______ _____ _____    ______ ____
ROOT
ATOM      1  O1  UNL     1     144.815 131.075 102.116  0.00  0.00    -0.409 OA
ATOM      2  N1  UNL     1     144.973 131.576 100.822  0.00  0.00    -0.095 NA
ATOM      3  C1  UNL     1     143.895 131.462 100.103  0.00  0.00    +0.075 C 
ATOM      4  C2  UNL     1     142.614 130.812 100.451  0.00  0.00    +0.014 A 
ATOM      5  C3  UNL     1     142.616 129.559 101.080  0.00  0.00    -0.052 A 
ATOM      6  C4  UNL     1     141.412 128.915 101.369  0.00  0.00    -0.061 A 
ATOM      7  C5  UNL     1     140.201 129.511 101.021  0.00  0.00    -0.060 A 
ATOM      8  C6  UNL     1     140.193 130.749 100.379  0.00  0.00    -0.043 A 
ATOM      9  C7  UNL     1     141.397 131.400 100.087  0.00  0.00    +0.050 A 
ATOM     10 CL1  UNL     1     141.305 132.935  99.296  0.00  0.00    -0.083 Cl
ATOM     11  H   UNL     1     145.530 131.106 102.721  0.00  0.00    +0.000 HD
ENDROOT
TORSDOF 0
ENDMDL
