MODEL 1
REMARK VINA RESULT:    -3.143      0.000      0.000
REMARK INTER + INTRA:          -3.143
REMARK INTER:                  -3.143
REMARK INTRA:                   0.000
REMARK UNBOUND:                 0.000
REMARK  Name = /home/vital/Documents/PhD_2021/Malaria_codes/scripts/../data/pdbqt_ligands/ligand_25_temp.pdb
REMARK                            x       y       z     vdW  Elec       q    Type
REMARK                         _______ _______ _______ _____ _____    ______ ____
ROOT
ATOM      1  C1  UNL     1     137.861 127.664  98.109  0.00  0.00    -0.018 C 
ATOM      2  S1  UNL     1     139.542 128.325  98.183  0.00  0.00    -0.159 S 
ATOM      3  C2  UNL     1     139.327 129.448  99.597  0.00  0.00    +0.019 C 
ATOM      4  C3  UNL     1     140.608 130.175  99.918  0.00  0.00    -0.033 A 
ATOM      5  C4  UNL     1     141.513 129.640 100.850  0.00  0.00    -0.012 A 
ATOM      6  C5  UNL     1     142.680 130.334 101.103  0.00  0.00    +0.168 A 
ATOM      7  C6  UNL     1     142.980 131.518 100.470  0.00  0.00    +0.180 A 
ATOM      8  C7  UNL     1     142.116 132.065  99.544  0.00  0.00    +0.064 A 
ATOM      9 BR1  UNL     1     142.510 133.686  98.660  0.00  0.00    -0.046 Br
ATOM     10  C8  UNL     1     140.924 131.389  99.264  0.00  0.00    -0.040 A 
ATOM     11  O1  UNL     1     144.178 132.022 100.876  0.00  0.00    -0.451 OA
ATOM     12  C9  UNL     1     144.601 131.018 101.818  0.00  0.00    +0.233 C 
ATOM     13  O2  UNL     1     143.648 129.948 101.978  0.00  0.00    -0.453 OA
ENDROOT
TORSDOF 0
ENDMDL
MODEL 2
REMARK VINA RESULT:    -3.018      3.253      4.934
REMARK INTER + INTRA:          -3.018
REMARK INTER:                  -3.018
REMARK INTRA:                   0.000
REMARK UNBOUND:                 0.000
REMARK  Name = /home/vital/Documents/PhD_2021/Malaria_codes/scripts/../data/pdbqt_ligands/ligand_25_temp.pdb
REMARK                            x       y       z     vdW  Elec       q    Type
REMARK                         _______ _______ _______ _____ _____    ______ ____
ROOT
ATOM      1  C1  UNL     1     144.822 133.571  97.106  0.00  0.00    -0.018 C 
ATOM      2  S1  UNL     1     144.014 132.044  97.640  0.00  0.00    -0.159 S 
ATOM      3  C2  UNL     1     143.247 132.666  99.167  0.00  0.00    +0.019 C 
ATOM      4  C3  UNL     1     142.468 131.582  99.869  0.00  0.00    -0.033 A 
ATOM      5  C4  UNL     1     141.102 131.402  99.598  0.00  0.00    -0.012 A 
ATOM      6  C5  UNL     1     140.433 130.387 100.255  0.00  0.00    +0.168 A 
ATOM      7  C6  UNL     1     141.061 129.556 101.152  0.00  0.00    +0.180 A 
ATOM      8  C7  UNL     1     142.404 129.703 101.433  0.00  0.00    +0.064 A 
ATOM      9 BR1  UNL     1     143.288 128.569 102.657  0.00  0.00    -0.046 Br
ATOM     10  C8  UNL     1     143.113 130.720 100.786  0.00  0.00    -0.040 A 
ATOM     11  O1  UNL     1     140.206 128.634 101.676  0.00  0.00    -0.451 OA
ATOM     12  C9  UNL     1     138.981 128.970 100.998  0.00  0.00    +0.233 C 
ATOM     13  O2  UNL     1     139.113 130.092 100.102  0.00  0.00    -0.453 OA
ENDROOT
TORSDOF 0
ENDMDL
MODEL 3
REMARK VINA RESULT:    -2.919      2.235      2.793
REMARK INTER + INTRA:          -2.919
REMARK INTER:                  -2.919
REMARK INTRA:                   0.000
REMARK UNBOUND:                 0.000
REMARK  Name = /home/vital/Documents/PhD_2021/Malaria_codes/scripts/../data/pdbqt_ligands/ligand_25_temp.pdb
REMARK                            x       y       z     vdW  Elec       q    Type
REMARK                         _______ _______ _______ _____ _____    ______ ____
ROOT
ATOM      1  C1  UNL     1     138.094 127.908  98.023  0.00  0.00    -0.018 C 
ATOM      2  S1  UNL     1     139.797 127.848  98.627  0.00  0.00    -0.159 S 
ATOM      3  C2  UNL     1     139.537 128.637 100.244  0.00  0.00    +0.019 C 
ATOM      4  C3  UNL     1     140.826 128.736 101.019  0.00  0.00    -0.033 A 
ATOM      5  C4  UNL     1     141.202 127.711 101.904  0.00  0.00    -0.012 A 
ATOM      6  C5  UNL     1     142.398 127.837 102.582  0.00  0.00    +0.168 A 
ATOM      7  C6  UNL     1     143.225 128.924 102.414  0.00  0.00    +0.180 A 
ATOM      8  C7  UNL     1     142.888 129.943 101.547  0.00  0.00    +0.064 A 
ATOM      9 BR1  UNL     1     144.009 131.440 101.296  0.00  0.00    -0.046 Br
ATOM     10  C8  UNL     1     141.682 129.848 100.843  0.00  0.00    -0.040 A 
ATOM     11  O1  UNL     1     144.345 128.835 103.183  0.00  0.00    -0.451 OA
ATOM     12  C9  UNL     1     144.136 127.569 103.838  0.00  0.00    +0.233 C 
ATOM     13  O2  UNL     1     142.895 126.934 103.471  0.00  0.00    -0.453 OA
ENDROOT
TORSDOF 0
ENDMDL
MODEL 4
REMARK VINA RESULT:    -2.917      8.773      9.594
REMARK INTER + INTRA:          -2.917
REMARK INTER:                  -2.917
REMARK INTRA:                   0.000
REMARK UNBOUND:                 0.000
REMARK  Name = /home/vital/Documents/PhD_2021/Malaria_codes/scripts/../data/pdbqt_ligands/ligand_25_temp.pdb
REMARK                            x       y       z     vdW  Elec       q    Type
REMARK                         _______ _______ _______ _____ _____    ______ ____
ROOT
ATOM      1  C1  UNL     1     139.176 127.208  87.649  0.00  0.00    -0.018 C 
ATOM      2  S1  UNL     1     140.405 128.271  88.442  0.00  0.00    -0.159 S 
ATOM      3  C2  UNL     1     139.269 129.449  89.236  0.00  0.00    +0.019 C 
ATOM      4  C3  UNL     1     140.024 130.502  90.007  0.00  0.00    -0.033 A 
ATOM      5  C4  UNL     1     140.318 130.311  91.367  0.00  0.00    -0.012 A 
ATOM      6  C5  UNL     1     141.023 131.297  92.029  0.00  0.00    +0.168 A 
ATOM      7  C6  UNL     1     141.446 132.444  91.399  0.00  0.00    +0.180 A 
ATOM      8  C7  UNL     1     141.180 132.657  90.063  0.00  0.00    +0.064 A 
ATOM      9 BR1  UNL     1     141.755 134.222  89.177  0.00  0.00    -0.046 Br
ATOM     10  C8  UNL     1     140.468 131.680  89.360  0.00  0.00    -0.040 A 
ATOM     11  O1  UNL     1     142.119 133.271  92.247  0.00  0.00    -0.451 OA
ATOM     12  C9  UNL     1     142.084 132.509  93.469  0.00  0.00    +0.233 C 
ATOM     13  O2  UNL     1     141.378 131.259  93.343  0.00  0.00    -0.453 OA
ENDROOT
TORSDOF 0
ENDMDL
MODEL 5
REMARK VINA RESULT:    -2.902      3.117      4.534
REMARK INTER + INTRA:          -2.902
REMARK INTER:                  -2.902
REMARK INTRA:                   0.000
REMARK UNBOUND:                 0.000
REMARK  Name = /home/vital/Documents/PhD_2021/Malaria_codes/scripts/../data/pdbqt_ligands/ligand_25_temp.pdb
REMARK                            x       y       z     vdW  Elec       q    Type
REMARK                         _______ _______ _______ _____ _____    ______ ____
ROOT
ATOM      1  C1  UNL     1     145.555 126.188 102.883  0.00  0.00    -0.018 C 
ATOM      2  S1  UNL     1     144.627 127.073 101.609  0.00  0.00    -0.159 S 
ATOM      3  C2  UNL     1     143.939 128.397 102.648  0.00  0.00    +0.019 C 
ATOM      4  C3  UNL     1     143.084 129.339 101.840  0.00  0.00    -0.033 A 
ATOM      5  C4  UNL     1     143.648 130.486 101.256  0.00  0.00    -0.012 A 
ATOM      6  C5  UNL     1     142.829 131.312 100.513  0.00  0.00    +0.168 A 
ATOM      7  C6  UNL     1     141.493 131.045 100.325  0.00  0.00    +0.180 A 
ATOM      8  C7  UNL     1     140.911 129.923 100.879  0.00  0.00    +0.064 A 
ATOM      9 BR1  UNL     1     139.081 129.533 100.630  0.00  0.00    -0.046 Br
ATOM     10  C8  UNL     1     141.711 129.062 101.638  0.00  0.00    -0.040 A 
ATOM     11  O1  UNL     1     140.886 131.995  99.562  0.00  0.00    -0.451 OA
ATOM     12  C9  UNL     1     141.990 132.876  99.281  0.00  0.00    +0.233 C 
ATOM     13  O2  UNL     1     143.226 132.457  99.892  0.00  0.00    -0.453 OA
ENDROOT
TORSDOF 0
ENDMDL
MODEL 6
REMARK VINA RESULT:    -2.721     12.245     13.005
REMARK INTER + INTRA:          -2.721
REMARK INTER:                  -2.721
REMARK INTRA:                   0.000
REMARK UNBOUND:                 0.000
REMARK  Name = /home/vital/Documents/PhD_2021/Malaria_codes/scripts/../data/pdbqt_ligands/ligand_25_temp.pdb
REMARK                            x       y       z     vdW  Elec       q    Type
REMARK                         _______ _______ _______ _____ _____    ______ ____
ROOT
ATOM      1  C1  UNL     1     141.166 121.481  91.028  0.00  0.00    -0.018 C 
ATOM      2  S1  UNL     1     140.267 122.484  89.823  0.00  0.00    -0.159 S 
ATOM      3  C2  UNL     1     139.536 123.691  90.969  0.00  0.00    +0.019 C 
ATOM      4  C3  UNL     1     138.694 124.704  90.235  0.00  0.00    -0.033 A 
ATOM      5  C4  UNL     1     139.263 125.907  89.787  0.00  0.00    -0.012 A 
ATOM      6  C5  UNL     1     138.457 126.799  89.107  0.00  0.00    +0.168 A 
ATOM      7  C6  UNL     1     137.130 126.542  88.854  0.00  0.00    +0.180 A 
ATOM      8  C7  UNL     1     136.544 125.366  89.274  0.00  0.00    +0.064 A 
ATOM      9 BR1  UNL     1     134.726 124.990  88.934  0.00  0.00    -0.046 Br
ATOM     10  C8  UNL     1     137.331 124.439  89.966  0.00  0.00    -0.040 A 
ATOM     11  O1  UNL     1     136.536 127.560  88.173  0.00  0.00    -0.451 OA
ATOM     12  C9  UNL     1     137.638 128.473  88.014  0.00  0.00    +0.233 C 
ATOM     13  O2  UNL     1     138.861 128.003  88.616  0.00  0.00    -0.453 OA
ENDROOT
TORSDOF 0
ENDMDL
MODEL 7
REMARK VINA RESULT:    -2.636     12.804     13.954
REMARK INTER + INTRA:          -2.636
REMARK INTER:                  -2.636
REMARK INTRA:                   0.000
REMARK UNBOUND:                 0.000
REMARK  Name = /home/vital/Documents/PhD_2021/Malaria_codes/scripts/../data/pdbqt_ligands/ligand_25_temp.pdb
REMARK                            x       y       z     vdW  Elec       q    Type
REMARK                         _______ _______ _______ _____ _____    ______ ____
ROOT
ATOM      1  C1  UNL     1     131.714 122.288  88.649  0.00  0.00    -0.018 C 
ATOM      2  S1  UNL     1     132.826 123.541  89.326  0.00  0.00    -0.159 S 
ATOM      3  C2  UNL     1     134.181 123.375  88.125  0.00  0.00    +0.019 C 
ATOM      4  C3  UNL     1     135.306 124.330  88.433  0.00  0.00    -0.033 A 
ATOM      5  C4  UNL     1     135.331 125.608  87.849  0.00  0.00    -0.012 A 
ATOM      6  C5  UNL     1     136.375 126.454  88.171  0.00  0.00    +0.168 A 
ATOM      7  C6  UNL     1     137.375 126.086  89.041  0.00  0.00    +0.180 A 
ATOM      8  C7  UNL     1     137.374 124.842  89.636  0.00  0.00    +0.064 A 
ATOM      9 BR1  UNL     1     138.733 124.318  90.837  0.00  0.00    -0.046 Br
ATOM     10  C8  UNL     1     136.332 123.958  89.333  0.00  0.00    -0.040 A 
ATOM     11  O1  UNL     1     138.294 127.077  89.207  0.00  0.00    -0.451 OA
ATOM     12  C9  UNL     1     137.753 128.107  88.358  0.00  0.00    +0.233 C 
ATOM     13  O2  UNL     1     136.539 127.715  87.686  0.00  0.00    -0.453 OA
ENDROOT
TORSDOF 0
ENDMDL
MODEL 8
REMARK VINA RESULT:    -2.589      7.941      8.595
REMARK INTER + INTRA:          -2.589
REMARK INTER:                  -2.589
REMARK INTRA:                   0.000
REMARK UNBOUND:                 0.000
REMARK  Name = /home/vital/Documents/PhD_2021/Malaria_codes/scripts/../data/pdbqt_ligands/ligand_25_temp.pdb
REMARK                            x       y       z     vdW  Elec       q    Type
REMARK                         _______ _______ _______ _____ _____    ______ ____
ROOT
ATOM      1  C1  UNL     1     139.246 129.905  88.015  0.00  0.00    -0.018 C 
ATOM      2  S1  UNL     1     140.670 130.084  89.113  0.00  0.00    -0.159 S 
ATOM      3  C2  UNL     1     140.188 131.636  89.928  0.00  0.00    +0.019 C 
ATOM      4  C3  UNL     1     141.217 132.064  90.943  0.00  0.00    -0.033 A 
ATOM      5  C4  UNL     1     141.101 131.660  92.284  0.00  0.00    -0.012 A 
ATOM      6  C5  UNL     1     142.075 132.065  93.176  0.00  0.00    +0.168 A 
ATOM      7  C6  UNL     1     143.146 132.839  92.791  0.00  0.00    +0.180 A 
ATOM      8  C7  UNL     1     143.291 133.245  91.480  0.00  0.00    +0.064 A 
ATOM      9 BR1  UNL     1     144.754 134.302  90.929  0.00  0.00    -0.046 Br
ATOM     10  C8  UNL     1     142.323 132.853  90.549  0.00  0.00    -0.040 A 
ATOM     11  O1  UNL     1     143.974 133.116  93.835  0.00  0.00    -0.451 OA
ATOM     12  C9  UNL     1     143.314 132.420  94.910  0.00  0.00    +0.233 C 
ATOM     13  O2  UNL     1     142.100 131.760  94.502  0.00  0.00    -0.453 OA
ENDROOT
TORSDOF 0
ENDMDL
MODEL 9
REMARK VINA RESULT:    -2.500      3.294      4.104
REMARK INTER + INTRA:          -2.500
REMARK INTER:                  -2.500
REMARK INTRA:                   0.000
REMARK UNBOUND:                 0.000
REMARK  Name = /home/vital/Documents/PhD_2021/Malaria_codes/scripts/../data/pdbqt_ligands/ligand_25_temp.pdb
REMARK                            x       y       z     vdW  Elec       q    Type
REMARK                         _______ _______ _______ _____ _____    ______ ____
ROOT
ATOM      1  C1  UNL     1     142.566 124.057 103.803  0.00  0.00    -0.018 C 
ATOM      2  S1  UNL     1     142.714 125.283 102.483  0.00  0.00    -0.159 S 
ATOM      3  C2  UNL     1     142.091 126.731 103.389  0.00  0.00    +0.019 C 
ATOM      4  C3  UNL     1     142.093 127.963 102.521  0.00  0.00    -0.033 A 
ATOM      5  C4  UNL     1     143.209 128.816 102.503  0.00  0.00    -0.012 A 
ATOM      6  C5  UNL     1     143.171 129.926 101.682  0.00  0.00    +0.168 A 
ATOM      7  C6  UNL     1     142.086 130.213 100.886  0.00  0.00    +0.180 A 
ATOM      8  C7  UNL     1     140.979 129.391 100.876  0.00  0.00    +0.064 A 
ATOM      9 BR1  UNL     1     139.481 129.762  99.788  0.00  0.00    -0.046 Br
ATOM     10  C8  UNL     1     140.982 128.257 101.695  0.00  0.00    -0.040 A 
ATOM     11  O1  UNL     1     142.272 131.353 100.165  0.00  0.00    -0.451 OA
ATOM     12  C9  UNL     1     143.594 131.739 100.585  0.00  0.00    +0.233 C 
ATOM     13  O2  UNL     1     144.168 130.844 101.559  0.00  0.00    -0.453 OA
ENDROOT
TORSDOF 0
ENDMDL
