MODEL 1
REMARK VINA RESULT:    -4.304      0.000      0.000
REMARK INTER + INTRA:          -4.304
REMARK INTER:                  -4.304
REMARK INTRA:                   0.000
REMARK UNBOUND:                 0.000
REMARK  Name = /home/vital/Documents/PhD_2021/Malaria_codes/scripts/../data/pdbqt_ligands/ligand_103_temp.pdb
REMARK                            x       y       z     vdW  Elec       q    Type
REMARK                         _______ _______ _______ _____ _____    ______ ____
ROOT
ATOM      1  O1  UNL     1     136.193 130.439  87.466  0.00  0.00    -0.393 OA
ATOM      2  C1  UNL     1     137.587 130.122  87.488  0.00  0.00    +0.060 C 
ATOM      3  C2  UNL     1     137.851 128.923  88.403  0.00  0.00    +0.034 C 
ATOM      4  N1  UNL     1     137.079 127.781  87.943  0.00  0.00    -0.326 N 
ATOM      5  C3  UNL     1     137.100 126.564  88.586  0.00  0.00    +0.138 A 
ATOM      6  N2  UNL     1     138.036 126.280  89.453  0.00  0.00    -0.212 NA
ATOM      7  C4  UNL     1     138.035 125.047  90.089  0.00  0.00    +0.162 A 
ATOM      8  C5  UNL     1     139.187 124.815  91.022  0.00  0.00    +0.021 A 
ATOM      9  C6  UNL     1     140.197 125.776  91.173  0.00  0.00    -0.050 A 
ATOM     10  C7  UNL     1     141.265 125.546  92.044  0.00  0.00    -0.041 A 
ATOM     11  C8  UNL     1     141.334 124.356  92.774  0.00  0.00    +0.059 A 
ATOM     12 CL1  UNL     1     142.681 124.140  93.833  0.00  0.00    -0.082 Cl
ATOM     13  C9  UNL     1     140.329 123.392  92.628  0.00  0.00    +0.060 A 
ATOM     14 CL2  UNL     1     140.351 121.899  93.497  0.00  0.00    -0.082 Cl
ATOM     15  C10 UNL     1     139.261 123.621  91.755  0.00  0.00    -0.031 A 
ATOM     16  N3  UNL     1     137.139 124.109  89.951  0.00  0.00    -0.227 NA
ATOM     17  C11 UNL     1     136.119 124.347  89.095  0.00  0.00    +0.085 A 
ATOM     18  C12 UNL     1     136.087 125.550  88.322  0.00  0.00    +0.082 A 
ATOM     19  C13 UNL     1     134.992 125.529  87.632  0.00  0.00    -0.106 C 
ATOM     20  C14 UNL     1     134.281 124.453  87.817  0.00  0.00    -0.017 C 
ATOM     21  C15 UNL     1     135.014 123.650  88.790  0.00  0.00    -0.027 C 
ATOM     22  H   UNL     1     136.044 131.199  86.882  0.00  0.00    +0.000 HD
ATOM     23  H   UNL     1     136.519 127.882  87.140  0.00  0.00    +0.000 HD
ENDROOT
TORSDOF 0
ENDMDL
MODEL 2
REMARK VINA RESULT:    -4.237     10.945     13.018
REMARK INTER + INTRA:          -4.237
REMARK INTER:                  -4.237
REMARK INTRA:                   0.000
REMARK UNBOUND:                 0.000
REMARK  Name = /home/vital/Documents/PhD_2021/Malaria_codes/scripts/../data/pdbqt_ligands/ligand_103_temp.pdb
REMARK                            x       y       z     vdW  Elec       q    Type
REMARK                         _______ _______ _______ _____ _____    ______ ____
ROOT
ATOM      1  O1  UNL     1     146.607 130.552 102.678  0.00  0.00    -0.393 OA
ATOM      2  C1  UNL     1     146.910 131.727 101.923  0.00  0.00    +0.060 C 
ATOM      3  C2  UNL     1     146.168 131.711 100.584  0.00  0.00    +0.034 C 
ATOM      4  N1  UNL     1     144.738 131.617 100.822  0.00  0.00    -0.326 N 
ATOM      5  C3  UNL     1     143.817 131.562  99.799  0.00  0.00    +0.138 A 
ATOM      6  N2  UNL     1     144.150 131.895  98.580  0.00  0.00    -0.212 NA
ATOM      7  C4  UNL     1     143.205 131.830  97.566  0.00  0.00    +0.162 A 
ATOM      8  C5  UNL     1     143.688 132.288  96.221  0.00  0.00    +0.021 A 
ATOM      9  C6  UNL     1     144.987 132.786  96.053  0.00  0.00    -0.050 A 
ATOM     10  C7  UNL     1     145.424 133.210  94.795  0.00  0.00    -0.041 A 
ATOM     11  C8  UNL     1     144.567 133.139  93.692  0.00  0.00    +0.059 A 
ATOM     12 CL1  UNL     1     145.173 133.678  92.168  0.00  0.00    -0.082 Cl
ATOM     13  C9  UNL     1     143.267 132.643  93.853  0.00  0.00    +0.060 A 
ATOM     14 CL2  UNL     1     142.155 132.527  92.536  0.00  0.00    -0.082 Cl
ATOM     15  C10 UNL     1     142.831 132.220  95.113  0.00  0.00    -0.031 A 
ATOM     16  N3  UNL     1     141.975 131.410  97.683  0.00  0.00    -0.227 NA
ATOM     17  C11 UNL     1     141.571 131.014  98.911  0.00  0.00    +0.085 A 
ATOM     18  C12 UNL     1     142.444 131.136 100.038  0.00  0.00    +0.082 A 
ATOM     19  C13 UNL     1     141.816 130.649 101.060  0.00  0.00    -0.106 C 
ATOM     20  C14 UNL     1     140.615 130.230 100.781  0.00  0.00    -0.017 C 
ATOM     21  C15 UNL     1     140.429 130.464  99.352  0.00  0.00    -0.027 C 
ATOM     22  H   UNL     1     147.084 130.578 103.522  0.00  0.00    +0.000 HD
ATOM     23  H   UNL     1     144.414 131.590 101.751  0.00  0.00    +0.000 HD
ENDROOT
TORSDOF 0
ENDMDL
MODEL 3
REMARK VINA RESULT:    -4.112      7.591     10.744
REMARK INTER + INTRA:          -4.112
REMARK INTER:                  -4.112
REMARK INTRA:                   0.000
REMARK UNBOUND:                 0.000
REMARK  Name = /home/vital/Documents/PhD_2021/Malaria_codes/scripts/../data/pdbqt_ligands/ligand_103_temp.pdb
REMARK                            x       y       z     vdW  Elec       q    Type
REMARK                         _______ _______ _______ _____ _____    ______ ____
ROOT
ATOM      1  O1  UNL     1     137.522 128.997  89.203  0.00  0.00    -0.393 OA
ATOM      2  C1  UNL     1     138.184 129.423  88.009  0.00  0.00    +0.060 C 
ATOM      3  C2  UNL     1     138.873 130.771  88.228  0.00  0.00    +0.034 C 
ATOM      4  N1  UNL     1     139.824 130.659  89.321  0.00  0.00    -0.326 N 
ATOM      5  C3  UNL     1     140.579 131.724  89.759  0.00  0.00    +0.138 A 
ATOM      6  N2  UNL     1     140.706 132.801  89.030  0.00  0.00    -0.212 NA
ATOM      7  C4  UNL     1     141.472 133.861  89.494  0.00  0.00    +0.162 A 
ATOM      8  C5  UNL     1     141.588 135.019  88.547  0.00  0.00    +0.021 A 
ATOM      9  C6  UNL     1     140.996 134.975  87.278  0.00  0.00    -0.050 A 
ATOM     10  C7  UNL     1     141.113 136.061  86.405  0.00  0.00    -0.041 A 
ATOM     11  C8  UNL     1     141.821 137.202  86.794  0.00  0.00    +0.059 A 
ATOM     12 CL1  UNL     1     141.924 138.506  85.667  0.00  0.00    -0.082 Cl
ATOM     13  C9  UNL     1     142.415 137.253  88.061  0.00  0.00    +0.060 A 
ATOM     14 CL2  UNL     1     143.305 138.630  88.607  0.00  0.00    -0.082 Cl
ATOM     15  C10 UNL     1     142.299 136.166  88.933  0.00  0.00    -0.031 A 
ATOM     16  N3  UNL     1     142.071 133.931  90.650  0.00  0.00    -0.227 NA
ATOM     17  C11 UNL     1     141.954 132.865  91.475  0.00  0.00    +0.085 A 
ATOM     18  C12 UNL     1     141.265 131.688  91.045  0.00  0.00    +0.082 A 
ATOM     19  C13 UNL     1     141.273 130.858  92.039  0.00  0.00    -0.106 C 
ATOM     20  C14 UNL     1     141.900 131.310  93.087  0.00  0.00    -0.017 C 
ATOM     21  C15 UNL     1     142.363 132.648  92.735  0.00  0.00    -0.027 C 
ATOM     22  H   UNL     1     137.092 128.141  89.046  0.00  0.00    +0.000 HD
ATOM     23  H   UNL     1     139.932 129.788  89.766  0.00  0.00    +0.000 HD
ENDROOT
TORSDOF 0
ENDMDL
MODEL 4
REMARK VINA RESULT:    -4.064     12.491     14.976
REMARK INTER + INTRA:          -4.064
REMARK INTER:                  -4.064
REMARK INTRA:                   0.000
REMARK UNBOUND:                 0.000
REMARK  Name = /home/vital/Documents/PhD_2021/Malaria_codes/scripts/../data/pdbqt_ligands/ligand_103_temp.pdb
REMARK                            x       y       z     vdW  Elec       q    Type
REMARK                         _______ _______ _______ _____ _____    ______ ____
ROOT
ATOM      1  O1  UNL     1     140.274 129.114  98.737  0.00  0.00    -0.393 OA
ATOM      2  C1  UNL     1     139.237 129.082  99.721  0.00  0.00    +0.060 C 
ATOM      3  C2  UNL     1     139.624 128.161 100.880  0.00  0.00    +0.034 C 
ATOM      4  N1  UNL     1     140.868 128.622 101.472  0.00  0.00    -0.326 N 
ATOM      5  C3  UNL     1     141.473 127.975 102.526  0.00  0.00    +0.138 A 
ATOM      6  N2  UNL     1     140.816 127.100 103.241  0.00  0.00    -0.212 NA
ATOM      7  C4  UNL     1     141.448 126.460 104.298  0.00  0.00    +0.162 A 
ATOM      8  C5  UNL     1     140.579 125.519 105.079  0.00  0.00    +0.021 A 
ATOM      9  C6  UNL     1     139.221 125.364 104.766  0.00  0.00    -0.050 A 
ATOM     10  C7  UNL     1     138.422 124.485 105.502  0.00  0.00    -0.041 A 
ATOM     11  C8  UNL     1     138.972 123.751 106.557  0.00  0.00    +0.059 A 
ATOM     12 CL1  UNL     1     137.927 122.682 107.422  0.00  0.00    -0.082 Cl
ATOM     13  C9  UNL     1     140.328 123.900 106.875  0.00  0.00    +0.060 A 
ATOM     14 CL2  UNL     1     141.074 123.025 108.165  0.00  0.00    -0.082 Cl
ATOM     15  C10 UNL     1     141.127 124.781 106.138  0.00  0.00    -0.031 A 
ATOM     16  N3  UNL     1     142.697 126.600 104.649  0.00  0.00    -0.227 NA
ATOM     17  C11 UNL     1     143.449 127.463 103.930  0.00  0.00    +0.085 A 
ATOM     18  C12 UNL     1     142.861 128.242 102.883  0.00  0.00    +0.082 A 
ATOM     19  C13 UNL     1     143.811 128.939 102.348  0.00  0.00    -0.106 C 
ATOM     20  C14 UNL     1     144.971 128.755 102.910  0.00  0.00    -0.017 C 
ATOM     21  C15 UNL     1     144.755 127.773 103.968  0.00  0.00    -0.027 C 
ATOM     22  H   UNL     1     140.013 129.701  98.011  0.00  0.00    +0.000 HD
ATOM     23  H   UNL     1     141.296 129.428 101.105  0.00  0.00    +0.000 HD
ENDROOT
TORSDOF 0
ENDMDL
MODEL 5
REMARK VINA RESULT:    -3.940     10.875     13.284
REMARK INTER + INTRA:          -3.940
REMARK INTER:                  -3.940
REMARK INTRA:                   0.000
REMARK UNBOUND:                 0.000
REMARK  Name = /home/vital/Documents/PhD_2021/Malaria_codes/scripts/../data/pdbqt_ligands/ligand_103_temp.pdb
REMARK                            x       y       z     vdW  Elec       q    Type
REMARK                         _______ _______ _______ _____ _____    ______ ____
ROOT
ATOM      1  O1  UNL     1     138.789 128.551  96.976  0.00  0.00    -0.393 OA
ATOM      2  C1  UNL     1     138.191 127.950  98.127  0.00  0.00    +0.060 C 
ATOM      3  C2  UNL     1     139.248 127.666  99.196  0.00  0.00    +0.034 C 
ATOM      4  N1  UNL     1     139.916 128.904  99.561  0.00  0.00    -0.326 N 
ATOM      5  C3  UNL     1     140.931 128.953 100.489  0.00  0.00    +0.138 A 
ATOM      6  N2  UNL     1     141.143 127.955 101.305  0.00  0.00    -0.212 NA
ATOM      7  C4  UNL     1     142.174 128.028 102.231  0.00  0.00    +0.162 A 
ATOM      8  C5  UNL     1     142.285 126.847 103.149  0.00  0.00    +0.021 A 
ATOM      9  C6  UNL     1     141.365 125.791 103.080  0.00  0.00    -0.050 A 
ATOM     10  C7  UNL     1     141.480 124.697 103.942  0.00  0.00    -0.041 A 
ATOM     11  C8  UNL     1     142.515 124.646 104.880  0.00  0.00    +0.059 A 
ATOM     12 CL1  UNL     1     142.597 123.263 105.912  0.00  0.00    -0.082 Cl
ATOM     13  C9  UNL     1     143.438 125.697 104.955  0.00  0.00    +0.060 A 
ATOM     14 CL2  UNL     1     144.742 125.701 106.089  0.00  0.00    -0.082 Cl
ATOM     15  C10 UNL     1     143.322 126.792 104.092  0.00  0.00    -0.031 A 
ATOM     16  N3  UNL     1     143.030 129.005 102.357  0.00  0.00    -0.227 NA
ATOM     17  C11 UNL     1     142.895 130.058 101.519  0.00  0.00    +0.085 A 
ATOM     18  C12 UNL     1     141.803 130.117 100.597  0.00  0.00    +0.082 A 
ATOM     19  C13 UNL     1     141.948 131.201  99.905  0.00  0.00    -0.106 C 
ATOM     20  C14 UNL     1     142.987 131.905 100.252  0.00  0.00    -0.017 C 
ATOM     21  C15 UNL     1     143.635 131.161 101.328  0.00  0.00    -0.027 C 
ATOM     22  H   UNL     1     138.106 128.725  96.310  0.00  0.00    +0.000 HD
ATOM     23  H   UNL     1     139.630 129.740  99.128  0.00  0.00    +0.000 HD
ENDROOT
TORSDOF 0
ENDMDL
MODEL 6
REMARK VINA RESULT:    -3.939     12.388     14.116
REMARK INTER + INTRA:          -3.939
REMARK INTER:                  -3.939
REMARK INTRA:                   0.000
REMARK UNBOUND:                 0.000
REMARK  Name = /home/vital/Documents/PhD_2021/Malaria_codes/scripts/../data/pdbqt_ligands/ligand_103_temp.pdb
REMARK                            x       y       z     vdW  Elec       q    Type
REMARK                         _______ _______ _______ _____ _____    ______ ____
ROOT
ATOM      1  O1  UNL     1     145.791 131.774 101.220  0.00  0.00    -0.393 OA
ATOM      2  C1  UNL     1     146.220 130.434 101.475  0.00  0.00    +0.060 C 
ATOM      3  C2  UNL     1     145.097 129.626 102.129  0.00  0.00    +0.034 C 
ATOM      4  N1  UNL     1     143.929 129.627 101.266  0.00  0.00    -0.326 N 
ATOM      5  C3  UNL     1     142.755 128.994 101.605  0.00  0.00    +0.138 A 
ATOM      6  N2  UNL     1     142.723 128.113 102.569  0.00  0.00    -0.212 NA
ATOM      7  C4  UNL     1     141.526 127.489 102.894  0.00  0.00    +0.162 A 
ATOM      8  C5  UNL     1     141.624 126.458 103.979  0.00  0.00    +0.021 A 
ATOM      9  C6  UNL     1     142.858 126.139 104.561  0.00  0.00    -0.050 A 
ATOM     10  C7  UNL     1     142.936 125.175 105.570  0.00  0.00    -0.041 A 
ATOM     11  C8  UNL     1     141.780 124.523 106.009  0.00  0.00    +0.059 A 
ATOM     12 CL1  UNL     1     141.949 123.345 107.261  0.00  0.00    -0.082 Cl
ATOM     13  C9  UNL     1     140.543 124.836 105.431  0.00  0.00    +0.060 A 
ATOM     14 CL2  UNL     1     139.075 124.069 105.924  0.00  0.00    -0.082 Cl
ATOM     15  C10 UNL     1     140.467 125.800 104.421  0.00  0.00    -0.031 A 
ATOM     16  N3  UNL     1     140.362 127.726 102.354  0.00  0.00    -0.227 NA
ATOM     17  C11 UNL     1     140.312 128.655 101.372  0.00  0.00    +0.085 A 
ATOM     18  C12 UNL     1     141.509 129.281 100.903  0.00  0.00    +0.082 A 
ATOM     19  C13 UNL     1     141.161 130.143 100.003  0.00  0.00    -0.106 C 
ATOM     20  C14 UNL     1     139.878 130.171  99.780  0.00  0.00    -0.017 C 
ATOM     21  C15 UNL     1     139.290 129.187 100.683  0.00  0.00    -0.027 C 
ATOM     22  H   UNL     1     146.513 132.272 100.805  0.00  0.00    +0.000 HD
ATOM     23  H   UNL     1     143.980 130.100 100.404  0.00  0.00    +0.000 HD
ENDROOT
TORSDOF 0
ENDMDL
MODEL 7
REMARK VINA RESULT:    -3.833      3.839      6.141
REMARK INTER + INTRA:          -3.833
REMARK INTER:                  -3.833
REMARK INTRA:                   0.000
REMARK UNBOUND:                 0.000
REMARK  Name = /home/vital/Documents/PhD_2021/Malaria_codes/scripts/../data/pdbqt_ligands/ligand_103_temp.pdb
REMARK                            x       y       z     vdW  Elec       q    Type
REMARK                         _______ _______ _______ _____ _____    ______ ____
ROOT
ATOM      1  O1  UNL     1     139.019 131.976  87.685  0.00  0.00    -0.393 OA
ATOM      2  C1  UNL     1     138.182 130.937  88.200  0.00  0.00    +0.060 C 
ATOM      3  C2  UNL     1     138.973 130.028  89.144  0.00  0.00    +0.034 C 
ATOM      4  N1  UNL     1     139.526 130.818  90.230  0.00  0.00    -0.326 N 
ATOM      5  C3  UNL     1     140.304 130.270  91.225  0.00  0.00    +0.138 A 
ATOM      6  N2  UNL     1     140.337 128.977  91.415  0.00  0.00    -0.212 NA
ATOM      7  C4  UNL     1     141.131 128.448  92.423  0.00  0.00    +0.162 A 
ATOM      8  C5  UNL     1     141.045 126.959  92.581  0.00  0.00    +0.021 A 
ATOM      9  C6  UNL     1     140.177 126.199  91.784  0.00  0.00    -0.050 A 
ATOM     10  C7  UNL     1     140.106 124.812  91.942  0.00  0.00    -0.041 A 
ATOM     11  C8  UNL     1     140.902 124.171  92.896  0.00  0.00    +0.059 A 
ATOM     12 CL1  UNL     1     140.765 122.455  93.035  0.00  0.00    -0.082 Cl
ATOM     13  C9  UNL     1     141.771 124.924  93.695  0.00  0.00    +0.060 A 
ATOM     14 CL2  UNL     1     142.784 124.199  94.893  0.00  0.00    -0.082 Cl
ATOM     15  C10 UNL     1     141.841 126.312  93.537  0.00  0.00    -0.031 A 
ATOM     16  N3  UNL     1     141.924 129.119  93.212  0.00  0.00    -0.227 NA
ATOM     17  C11 UNL     1     141.970 130.461  93.049  0.00  0.00    +0.085 A 
ATOM     18  C12 UNL     1     141.115 131.107  92.101  0.00  0.00    +0.082 A 
ATOM     19  C13 UNL     1     141.400 132.369  92.130  0.00  0.00    -0.106 C 
ATOM     20  C14 UNL     1     142.325 132.674  92.994  0.00  0.00    -0.017 C 
ATOM     21  C15 UNL     1     142.721 131.416  93.620  0.00  0.00    -0.027 C 
ATOM     22  H   UNL     1     138.502 132.542  87.091  0.00  0.00    +0.000 HD
ATOM     23  H   UNL     1     139.337 131.783  90.257  0.00  0.00    +0.000 HD
ENDROOT
TORSDOF 0
ENDMDL
MODEL 8
REMARK VINA RESULT:    -3.549     11.094     12.760
REMARK INTER + INTRA:          -3.549
REMARK INTER:                  -3.549
REMARK INTRA:                   0.000
REMARK UNBOUND:                 0.000
REMARK  Name = /home/vital/Documents/PhD_2021/Malaria_codes/scripts/../data/pdbqt_ligands/ligand_103_temp.pdb
REMARK                            x       y       z     vdW  Elec       q    Type
REMARK                         _______ _______ _______ _____ _____    ______ ____
ROOT
ATOM      1  O1  UNL     1     143.998 127.349 103.779  0.00  0.00    -0.393 OA
ATOM      2  C1  UNL     1     144.700 128.564 103.509  0.00  0.00    +0.060 C 
ATOM      3  C2  UNL     1     144.400 129.055 102.091  0.00  0.00    +0.034 C 
ATOM      4  N1  UNL     1     142.969 129.252 101.936  0.00  0.00    -0.326 N 
ATOM      5  C3  UNL     1     142.401 129.671 100.754  0.00  0.00    +0.138 A 
ATOM      6  N2  UNL     1     143.133 130.202  99.810  0.00  0.00    -0.212 NA
ATOM      7  C4  UNL     1     142.538 130.615  98.627  0.00  0.00    +0.162 A 
ATOM      8  C5  UNL     1     143.469 131.258  97.641  0.00  0.00    +0.021 A 
ATOM      9  C6  UNL     1     144.822 131.454  97.950  0.00  0.00    -0.050 A 
ATOM     10  C7  UNL     1     145.678 132.055  97.023  0.00  0.00    -0.041 A 
ATOM     11  C8  UNL     1     145.190 132.463  95.778  0.00  0.00    +0.059 A 
ATOM     12 CL1  UNL     1     146.305 133.197  94.680  0.00  0.00    -0.082 Cl
ATOM     13  C9  UNL     1     143.840 132.270  95.463  0.00  0.00    +0.060 A 
ATOM     14 CL2  UNL     1     143.169 132.751  93.944  0.00  0.00    -0.082 Cl
ATOM     15  C10 UNL     1     142.983 131.670  96.391  0.00  0.00    -0.031 A 
ATOM     16  N3  UNL     1     141.278 130.488  98.312  0.00  0.00    -0.227 NA
ATOM     17  C11 UNL     1     140.466 129.913  99.228  0.00  0.00    +0.085 A 
ATOM     18  C12 UNL     1     140.969 129.542 100.514  0.00  0.00    +0.082 A 
ATOM     19  C13 UNL     1     139.994 128.986 101.158  0.00  0.00    -0.106 C 
ATOM     20  C14 UNL     1     138.880 128.950 100.485  0.00  0.00    -0.017 C 
ATOM     21  C15 UNL     1     139.170 129.562  99.193  0.00  0.00    -0.027 C 
ATOM     22  H   UNL     1     144.198 127.053 104.681  0.00  0.00    +0.000 HD
ATOM     23  H   UNL     1     142.383 129.078 102.707  0.00  0.00    +0.000 HD
ENDROOT
TORSDOF 0
ENDMDL
