MODEL 1
REMARK VINA RESULT:    -3.632      0.000      0.000
REMARK INTER + INTRA:          -3.632
REMARK INTER:                  -3.632
REMARK INTRA:                   0.000
REMARK UNBOUND:                 0.000
REMARK  Name = /home/vital/Documents/PhD_2021/Malaria_codes/scripts/../data/pdbqt_ligands/ligand_461_temp.pdb
REMARK                            x       y       z     vdW  Elec       q    Type
REMARK                         _______ _______ _______ _____ _____    ______ ____
ROOT
ATOM      1 CL   UNL     1     137.869 128.107  98.509  0.00  0.00    -0.090 Cl
ATOM      2  C   UNL     1     139.103 128.504  99.630  0.00  0.00    +0.023 C 
ATOM      3  C   UNL     1     140.251 127.836  99.804  0.00  0.00    +0.060 C 
ATOM      4 CL   UNL     1     140.649 126.409  98.903  0.00  0.00    -0.082 Cl
ATOM      5  C   UNL     1     141.234 128.242 100.808  0.00  0.00    +0.030 C 
ATOM      6  C   UNL     1     141.011 127.816 102.081  0.00  0.00    +0.044 C 
ATOM      7  N   UNL     1     141.663 127.963 103.305  0.00  0.00    -0.224 N 
ATOM      8  O   UNL     1     143.084 127.994 103.406  0.00  0.00    -0.339 OA
ATOM      9  C   UNL     1     143.611 128.899 102.534  0.00  0.00    +0.344 C 
ATOM     10  N   UNL     1     143.097 130.091 102.450  0.00  0.00    -0.195 N 
ATOM     11  C   UNL     1     142.755 130.379 101.153  0.00  0.00    +0.085 C 
ATOM     12  C   UNL     1     142.724 131.637 100.657  0.00  0.00    -0.028 C 
ATOM     13  C   UNL     1     142.402 131.792  99.252  0.00  0.00    +0.001 C 
ATOM     14  C   UNL     1     142.241 130.640  98.679  0.00  0.00    -0.016 C 
ATOM     15  N   UNL     1     142.226 129.473  98.789  0.00  0.00    -0.218 NA
ATOM     16  C   UNL     1     142.390 129.116 100.255  0.00  0.00    +0.175 C 
ATOM     17  C   UNL     1     143.690 128.336 100.399  0.00  0.00    +0.049 C 
ATOM     18  N   UNL     1     144.315 128.259 101.537  0.00  0.00    -0.203 NA
ATOM     19  H   UNL     1     141.125 128.048 104.125  0.00  0.00    +0.000 HD
ATOM     20  H   UNL     1     142.971 130.702 103.212  0.00  0.00    +0.000 HD
ENDROOT
TORSDOF 0
ENDMDL
MODEL 2
REMARK VINA RESULT:    -3.590      3.744      5.291
REMARK INTER + INTRA:          -3.590
REMARK INTER:                  -3.590
REMARK INTRA:                   0.000
REMARK UNBOUND:                 0.000
REMARK  Name = /home/vital/Documents/PhD_2021/Malaria_codes/scripts/../data/pdbqt_ligands/ligand_461_temp.pdb
REMARK                            x       y       z     vdW  Elec       q    Type
REMARK                         _______ _______ _______ _____ _____    ______ ____
ROOT
ATOM      1 CL   UNL     1     139.409 129.708 100.175  0.00  0.00    -0.090 Cl
ATOM      2  C   UNL     1     140.437 130.770  99.307  0.00  0.00    +0.023 C 
ATOM      3  C   UNL     1     141.606 131.260  99.740  0.00  0.00    +0.060 C 
ATOM      4 CL   UNL     1     142.252 130.892 101.308  0.00  0.00    -0.082 Cl
ATOM      5  C   UNL     1     142.402 132.182  98.931  0.00  0.00    +0.030 C 
ATOM      6  C   UNL     1     142.046 133.495  98.984  0.00  0.00    +0.044 C 
ATOM      7  N   UNL     1     142.509 134.672  98.397  0.00  0.00    -0.224 N 
ATOM      8  O   UNL     1     143.894 134.903  98.155  0.00  0.00    -0.339 OA
ATOM      9  C   UNL     1     144.451 133.853  97.491  0.00  0.00    +0.344 C 
ATOM     10  N   UNL     1     143.847 133.350  96.454  0.00  0.00    -0.195 N 
ATOM     11  C   UNL     1     143.661 132.000  96.612  0.00  0.00    +0.085 C 
ATOM     12  C   UNL     1     143.584 131.137  95.573  0.00  0.00    -0.028 C 
ATOM     13  C   UNL     1     143.445 129.728  95.886  0.00  0.00    +0.001 C 
ATOM     14  C   UNL     1     143.468 129.528  97.166  0.00  0.00    -0.016 C 
ATOM     15  N   UNL     1     143.545 129.994  98.240  0.00  0.00    -0.218 NA
ATOM     16  C   UNL     1     143.539 131.506  98.121  0.00  0.00    +0.175 C 
ATOM     17  C   UNL     1     144.872 132.018  98.649  0.00  0.00    +0.049 C 
ATOM     18  N   UNL     1     145.340 133.181  98.303  0.00  0.00    -0.203 NA
ATOM     19  H   UNL     1     141.858 135.366  98.142  0.00  0.00    +0.000 HD
ATOM     20  H   UNL     1     143.563 133.866  95.666  0.00  0.00    +0.000 HD
ENDROOT
TORSDOF 0
ENDMDL
MODEL 3
REMARK VINA RESULT:    -3.452      2.060      3.219
REMARK INTER + INTRA:          -3.452
REMARK INTER:                  -3.452
REMARK INTRA:                   0.000
REMARK UNBOUND:                 0.000
REMARK  Name = /home/vital/Documents/PhD_2021/Malaria_codes/scripts/../data/pdbqt_ligands/ligand_461_temp.pdb
REMARK                            x       y       z     vdW  Elec       q    Type
REMARK                         _______ _______ _______ _____ _____    ______ ____
ROOT
ATOM      1 CL   UNL     1     137.764 127.763  98.018  0.00  0.00    -0.090 Cl
ATOM      2  C   UNL     1     139.204 128.608  98.405  0.00  0.00    +0.023 C 
ATOM      3  C   UNL     1     139.588 128.985  99.632  0.00  0.00    +0.060 C 
ATOM      4 CL   UNL     1     138.632 128.680 101.047  0.00  0.00    -0.082 Cl
ATOM      5  C   UNL     1     140.828 129.727  99.857  0.00  0.00    +0.030 C 
ATOM      6  C   UNL     1     140.772 131.073  99.665  0.00  0.00    +0.044 C 
ATOM      7  N   UNL     1     141.680 132.127  99.761  0.00  0.00    -0.224 N 
ATOM      8  O   UNL     1     142.696 132.162 100.759  0.00  0.00    -0.339 OA
ATOM      9  C   UNL     1     143.400 130.996 100.774  0.00  0.00    +0.344 C 
ATOM     10  N   UNL     1     143.824 130.482  99.656  0.00  0.00    -0.195 N 
ATOM     11  C   UNL     1     143.397 129.185  99.528  0.00  0.00    +0.085 C 
ATOM     12  C   UNL     1     144.070 128.250  98.820  0.00  0.00    -0.028 C 
ATOM     13  C   UNL     1     143.535 126.903  98.816  0.00  0.00    +0.001 C 
ATOM     14  C   UNL     1     142.482 126.815  99.567  0.00  0.00    -0.016 C 
ATOM     15  N   UNL     1     141.723 127.361 100.275  0.00  0.00    -0.218 NA
ATOM     16  C   UNL     1     142.034 128.845 100.277  0.00  0.00    +0.175 C 
ATOM     17  C   UNL     1     142.437 129.232 101.694  0.00  0.00    +0.049 C 
ATOM     18  N   UNL     1     143.150 130.293 101.933  0.00  0.00    -0.203 NA
ATOM     19  H   UNL     1     141.617 132.871  99.119  0.00  0.00    +0.000 HD
ATOM     20  H   UNL     1     144.376 130.958  98.995  0.00  0.00    +0.000 HD
ENDROOT
TORSDOF 0
ENDMDL
MODEL 4
REMARK VINA RESULT:    -3.411      2.614      3.810
REMARK INTER + INTRA:          -3.411
REMARK INTER:                  -3.411
REMARK INTRA:                   0.000
REMARK UNBOUND:                 0.000
REMARK  Name = /home/vital/Documents/PhD_2021/Malaria_codes/scripts/../data/pdbqt_ligands/ligand_461_temp.pdb
REMARK                            x       y       z     vdW  Elec       q    Type
REMARK                         _______ _______ _______ _____ _____    ______ ____
ROOT
ATOM      1 CL   UNL     1     142.147 125.616 104.092  0.00  0.00    -0.090 Cl
ATOM      2  C   UNL     1     142.120 127.163 103.356  0.00  0.00    +0.023 C 
ATOM      3  C   UNL     1     142.793 127.522 102.255  0.00  0.00    +0.060 C 
ATOM      4 CL   UNL     1     143.844 126.435 101.406  0.00  0.00    -0.082 Cl
ATOM      5  C   UNL     1     142.722 128.880 101.716  0.00  0.00    +0.030 C 
ATOM      6  C   UNL     1     143.541 129.802 102.291  0.00  0.00    +0.044 C 
ATOM      7  N   UNL     1     143.791 131.161 102.102  0.00  0.00    -0.224 N 
ATOM      8  O   UNL     1     143.776 131.761 100.809  0.00  0.00    -0.339 OA
ATOM      9  C   UNL     1     142.630 131.445 100.144  0.00  0.00    +0.344 C 
ATOM     10  N   UNL     1     141.482 131.547 100.747  0.00  0.00    -0.195 N 
ATOM     11  C   UNL     1     140.793 130.363 100.677  0.00  0.00    +0.085 C 
ATOM     12  C   UNL     1     139.443 130.289 100.701  0.00  0.00    -0.028 C 
ATOM     13  C   UNL     1     138.844 128.976 100.560  0.00  0.00    +0.001 C 
ATOM     14  C   UNL     1     139.749 128.066 100.377  0.00  0.00    -0.016 C 
ATOM     15  N   UNL     1     140.889 127.809 100.279  0.00  0.00    -0.218 NA
ATOM     16  C   UNL     1     141.700 129.059 100.563  0.00  0.00    +0.175 C 
ATOM     17  C   UNL     1     142.468 129.411  99.296  0.00  0.00    +0.049 C 
ATOM     18  N   UNL     1     142.902 130.617  99.076  0.00  0.00    -0.203 NA
ATOM     19  H   UNL     1     143.985 131.724 102.886  0.00  0.00    +0.000 HD
ATOM     20  H   UNL     1     141.154 132.360 101.193  0.00  0.00    +0.000 HD
ENDROOT
TORSDOF 0
ENDMDL
MODEL 5
REMARK VINA RESULT:    -3.332      2.232      3.498
REMARK INTER + INTRA:          -3.332
REMARK INTER:                  -3.332
REMARK INTRA:                   0.000
REMARK UNBOUND:                 0.000
REMARK  Name = /home/vital/Documents/PhD_2021/Malaria_codes/scripts/../data/pdbqt_ligands/ligand_461_temp.pdb
REMARK                            x       y       z     vdW  Elec       q    Type
REMARK                         _______ _______ _______ _____ _____    ______ ____
ROOT
ATOM      1 CL   UNL     1     141.836 125.693  96.577  0.00  0.00    -0.090 Cl
ATOM      2  C   UNL     1     142.024 126.795  97.876  0.00  0.00    +0.023 C 
ATOM      3  C   UNL     1     142.366 128.085  97.769  0.00  0.00    +0.060 C 
ATOM      4 CL   UNL     1     142.703 128.839  96.244  0.00  0.00    -0.082 Cl
ATOM      5  C   UNL     1     142.525 128.941  98.944  0.00  0.00    +0.030 C 
ATOM      6  C   UNL     1     143.723 128.870  99.586  0.00  0.00    +0.044 C 
ATOM      7  N   UNL     1     144.285 129.484 100.705  0.00  0.00    -0.224 N 
ATOM      8  O   UNL     1     144.019 130.843 101.037  0.00  0.00    -0.339 OA
ATOM      9  C   UNL     1     142.678 131.083 101.053  0.00  0.00    +0.344 C 
ATOM     10  N   UNL     1     141.881 130.260 101.670  0.00  0.00    -0.195 N 
ATOM     11  C   UNL     1     140.890 129.824 100.827  0.00  0.00    +0.085 C 
ATOM     12  C   UNL     1     139.668 129.439 101.258  0.00  0.00    -0.028 C 
ATOM     13  C   UNL     1     138.696 129.056 100.253  0.00  0.00    +0.001 C 
ATOM     14  C   UNL     1     139.176 129.204  99.058  0.00  0.00    -0.016 C 
ATOM     15  N   UNL     1     140.088 129.513  98.388  0.00  0.00    -0.218 NA
ATOM     16  C   UNL     1     141.279 129.800  99.283  0.00  0.00    +0.175 C 
ATOM     17  C   UNL     1     141.649 131.267  99.107  0.00  0.00    +0.049 C 
ATOM     18  N   UNL     1     142.321 131.913 100.013  0.00  0.00    -0.203 NA
ATOM     19  H   UNL     1     144.886 128.961 101.284  0.00  0.00    +0.000 HD
ATOM     20  H   UNL     1     141.976 129.988 102.611  0.00  0.00    +0.000 HD
ENDROOT
TORSDOF 0
ENDMDL
MODEL 6
REMARK VINA RESULT:    -3.118      2.751      3.552
REMARK INTER + INTRA:          -3.118
REMARK INTER:                  -3.118
REMARK INTRA:                   0.000
REMARK UNBOUND:                 0.000
REMARK  Name = /home/vital/Documents/PhD_2021/Malaria_codes/scripts/../data/pdbqt_ligands/ligand_461_temp.pdb
REMARK                            x       y       z     vdW  Elec       q    Type
REMARK                         _______ _______ _______ _____ _____    ______ ____
ROOT
ATOM      1 CL   UNL     1     140.473 125.716 104.737  0.00  0.00    -0.090 Cl
ATOM      2  C   UNL     1     141.624 126.891 104.257  0.00  0.00    +0.023 C 
ATOM      3  C   UNL     1     142.710 126.667 103.505  0.00  0.00    +0.060 C 
ATOM      4 CL   UNL     1     143.128 125.091 102.913  0.00  0.00    -0.082 Cl
ATOM      5  C   UNL     1     143.649 127.736 103.168  0.00  0.00    +0.030 C 
ATOM      6  C   UNL     1     144.590 128.033 104.106  0.00  0.00    +0.044 C 
ATOM      7  N   UNL     1     145.641 128.945 104.202  0.00  0.00    -0.224 N 
ATOM      8  O   UNL     1     146.434 129.306 103.076  0.00  0.00    -0.339 OA
ATOM      9  C   UNL     1     145.647 129.678 102.028  0.00  0.00    +0.344 C 
ATOM     10  N   UNL     1     144.661 130.506 102.222  0.00  0.00    -0.195 N 
ATOM     11  C   UNL     1     143.485 129.971 101.762  0.00  0.00    +0.085 C 
ATOM     12  C   UNL     1     142.451 130.724 101.324  0.00  0.00    -0.028 C 
ATOM     13  C   UNL     1     141.288 130.027 100.809  0.00  0.00    +0.001 C 
ATOM     14  C   UNL     1     141.472 128.744 100.814  0.00  0.00    -0.016 C 
ATOM     15  N   UNL     1     142.183 127.846 101.068  0.00  0.00    -0.218 NA
ATOM     16  C   UNL     1     143.413 128.380 101.777  0.00  0.00    +0.175 C 
ATOM     17  C   UNL     1     144.622 128.078 100.901  0.00  0.00    +0.049 C 
ATOM     18  N   UNL     1     145.727 128.755 101.008  0.00  0.00    -0.203 NA
ATOM     19  H   UNL     1     145.841 129.352 105.076  0.00  0.00    +0.000 HD
ATOM     20  H   UNL     1     144.748 131.392 102.641  0.00  0.00    +0.000 HD
ENDROOT
TORSDOF 0
ENDMDL
MODEL 7
REMARK VINA RESULT:    -3.111      2.484      4.086
REMARK INTER + INTRA:          -3.111
REMARK INTER:                  -3.111
REMARK INTRA:                   0.000
REMARK UNBOUND:                 0.000
REMARK  Name = /home/vital/Documents/PhD_2021/Malaria_codes/scripts/../data/pdbqt_ligands/ligand_461_temp.pdb
REMARK                            x       y       z     vdW  Elec       q    Type
REMARK                         _______ _______ _______ _____ _____    ______ ____
ROOT
ATOM      1 CL   UNL     1     143.165 131.794  96.708  0.00  0.00    -0.090 Cl
ATOM      2  C   UNL     1     142.837 130.569  97.861  0.00  0.00    +0.023 C 
ATOM      3  C   UNL     1     142.064 130.699  98.947  0.00  0.00    +0.060 C 
ATOM      4 CL   UNL     1     141.279 132.189  99.364  0.00  0.00    -0.082 Cl
ATOM      5  C   UNL     1     141.864 129.597  99.888  0.00  0.00    +0.030 C 
ATOM      6  C   UNL     1     142.832 129.421 100.828  0.00  0.00    +0.044 C 
ATOM      7  N   UNL     1     143.042 128.530 101.880  0.00  0.00    -0.224 N 
ATOM      8  O   UNL     1     141.971 128.032 102.675  0.00  0.00    -0.339 OA
ATOM      9  C   UNL     1     140.978 127.530 101.889  0.00  0.00    +0.344 C 
ATOM     10  N   UNL     1     141.273 126.733 100.904  0.00  0.00    -0.195 N 
ATOM     11  C   UNL     1     140.748 127.204  99.727  0.00  0.00    +0.085 C 
ATOM     12  C   UNL     1     140.408 126.400  98.695  0.00  0.00    -0.028 C 
ATOM     13  C   UNL     1     139.809 127.026  97.532  0.00  0.00    +0.001 C 
ATOM     14  C   UNL     1     139.653 128.300  97.714  0.00  0.00    -0.016 C 
ATOM     15  N   UNL     1     139.793 129.223  98.424  0.00  0.00    -0.218 NA
ATOM     16  C   UNL     1     140.564 128.784  99.654  0.00  0.00    +0.175 C 
ATOM     17  C   UNL     1     139.658 128.976 100.863  0.00  0.00    +0.049 C 
ATOM     18  N   UNL     1     139.850 128.319 101.968  0.00  0.00    -0.203 NA
ATOM     19  H   UNL     1     143.961 128.237 102.080  0.00  0.00    +0.000 HD
ATOM     20  H   UNL     1     141.800 125.906 100.992  0.00  0.00    +0.000 HD
ENDROOT
TORSDOF 0
ENDMDL
MODEL 8
REMARK VINA RESULT:    -3.107      2.495      3.646
REMARK INTER + INTRA:          -3.107
REMARK INTER:                  -3.107
REMARK INTRA:                   0.000
REMARK UNBOUND:                 0.000
REMARK  Name = /home/vital/Documents/PhD_2021/Malaria_codes/scripts/../data/pdbqt_ligands/ligand_461_temp.pdb
REMARK                            x       y       z     vdW  Elec       q    Type
REMARK                         _______ _______ _______ _____ _____    ______ ____
ROOT
ATOM      1 CL   UNL     1     142.623 124.577 102.221  0.00  0.00    -0.090 Cl
ATOM      2  C   UNL     1     142.341 126.259 102.052  0.00  0.00    +0.023 C 
ATOM      3  C   UNL     1     142.969 127.079 101.199  0.00  0.00    +0.060 C 
ATOM      4 CL   UNL     1     144.219 126.535 100.126  0.00  0.00    -0.082 Cl
ATOM      5  C   UNL     1     142.673 128.510 101.147  0.00  0.00    +0.030 C 
ATOM      6  C   UNL     1     143.300 129.292 102.067  0.00  0.00    +0.044 C 
ATOM      7  N   UNL     1     143.310 130.653 102.371  0.00  0.00    -0.224 N 
ATOM      8  O   UNL     1     143.223 131.654 101.361  0.00  0.00    -0.339 OA
ATOM      9  C   UNL     1     142.169 131.414 100.531  0.00  0.00    +0.344 C 
ATOM     10  N   UNL     1     141.006 131.117 101.033  0.00  0.00    -0.195 N 
ATOM     11  C   UNL     1     140.540 129.939 100.507  0.00  0.00    +0.085 C 
ATOM     12  C   UNL     1     139.224 129.650 100.389  0.00  0.00    -0.028 C 
ATOM     13  C   UNL     1     138.872 128.392  99.761  0.00  0.00    +0.001 C 
ATOM     14  C   UNL     1     139.928 127.756  99.360  0.00  0.00    -0.016 C 
ATOM     15  N   UNL     1     141.098 127.731  99.280  0.00  0.00    -0.218 NA
ATOM     16  C   UNL     1     141.666 128.916 100.038  0.00  0.00    +0.175 C 
ATOM     17  C   UNL     1     142.393 129.803  99.036  0.00  0.00    +0.049 C 
ATOM     18  N   UNL     1     142.612 131.062  99.274  0.00  0.00    -0.203 NA
ATOM     19  H   UNL     1     143.380 130.931 103.313  0.00  0.00    +0.000 HD
ATOM     20  H   UNL     1     140.527 131.663 101.697  0.00  0.00    +0.000 HD
ENDROOT
TORSDOF 0
ENDMDL
MODEL 9
REMARK VINA RESULT:    -3.072      2.620      3.556
REMARK INTER + INTRA:          -3.072
REMARK INTER:                  -3.072
REMARK INTRA:                   0.000
REMARK UNBOUND:                 0.000
REMARK  Name = /home/vital/Documents/PhD_2021/Malaria_codes/scripts/../data/pdbqt_ligands/ligand_461_temp.pdb
REMARK                            x       y       z     vdW  Elec       q    Type
REMARK                         _______ _______ _______ _____ _____    ______ ____
ROOT
ATOM      1 CL   UNL     1     143.196 127.299  95.698  0.00  0.00    -0.090 Cl
ATOM      2  C   UNL     1     142.081 127.984  96.805  0.00  0.00    +0.023 C 
ATOM      3  C   UNL     1     141.745 127.476  97.998  0.00  0.00    +0.060 C 
ATOM      4 CL   UNL     1     142.398 125.986  98.597  0.00  0.00    -0.082 Cl
ATOM      5  C   UNL     1     140.761 128.126  98.863  0.00  0.00    +0.030 C 
ATOM      6  C   UNL     1     139.452 127.867  98.593  0.00  0.00    +0.044 C 
ATOM      7  N   UNL     1     138.231 128.258  99.139  0.00  0.00    -0.224 N 
ATOM      8  O   UNL     1     138.057 128.457 100.539  0.00  0.00    -0.339 OA
ATOM      9  C   UNL     1     139.024 129.278 101.035  0.00  0.00    +0.344 C 
ATOM     10  N   UNL     1     139.315 130.383 100.413  0.00  0.00    -0.195 N 
ATOM     11  C   UNL     1     140.657 130.443 100.137  0.00  0.00    +0.085 C 
ATOM     12  C   UNL     1     141.338 131.605 100.016  0.00  0.00    -0.028 C 
ATOM     13  C   UNL     1     142.765 131.521  99.781  0.00  0.00    +0.001 C 
ATOM     14  C   UNL     1     143.167 130.288  99.775  0.00  0.00    -0.016 C 
ATOM     15  N   UNL     1     142.883 129.154  99.868  0.00  0.00    -0.218 NA
ATOM     16  C   UNL     1     141.374 129.032  99.963  0.00  0.00    +0.175 C 
ATOM     17  C   UNL     1     141.042 128.425 101.319  0.00  0.00    +0.049 C 
ATOM     18  N   UNL     1     139.873 128.581 101.867  0.00  0.00    -0.203 NA
ATOM     19  H   UNL     1     137.463 128.401  98.539  0.00  0.00    +0.000 HD
ATOM     20  H   UNL     1     138.662 131.080 100.173  0.00  0.00    +0.000 HD
ENDROOT
TORSDOF 0
ENDMDL
