MODEL 1
REMARK VINA RESULT:    -4.172      0.000      0.000
REMARK INTER + INTRA:          -4.172
REMARK INTER:                  -4.172
REMARK INTRA:                   0.000
REMARK UNBOUND:                 0.000
REMARK  Name = /home/vital/Documents/PhD_2021/Malaria_codes/scripts/../data/pdbqt_ligands/ligand_57_temp.pdb
REMARK                            x       y       z     vdW  Elec       q    Type
REMARK                         _______ _______ _______ _____ _____    ______ ____
ROOT
ATOM      1  N   UNL     1     142.790 132.708  97.702  0.00  0.00    -0.195 NA
ATOM      2  C   UNL     1     142.521 132.441  98.801  0.00  0.00    +0.078 C 
ATOM      3  C   UNL     1     142.135 132.063 100.178  0.00  0.00    +0.086 C 
ATOM      4  N   UNL     1     140.808 131.424 100.292  0.00  0.00    -0.273 N 
ATOM      5  C   UNL     1     140.732 130.168  99.536  0.00  0.00    +0.164 C 
ATOM      6  C   UNL     1     139.412 129.510  99.837  0.00  0.00    +0.004 C 
ATOM      7  C   UNL     1     138.799 128.737  98.984  0.00  0.00    -0.120 C 
ATOM      8  C   UNL     1     138.346 127.938  98.065  0.00  0.00    -0.018 C 
ATOM      9  C   UNL     1     139.238 127.293  97.130  0.00  0.00    -0.036 C 
ATOM     10  C   UNL     1     140.340 126.576  97.413  0.00  0.00    +0.031 C 
ATOM     11  N   UNL     1     140.787 126.220  98.656  0.00  0.00    -0.235 N 
ATOM     12  C   UNL     1     141.579 127.015  99.347  0.00  0.00    +0.171 C 
ATOM     13  C   UNL     1     142.005 126.401 100.704  0.00  0.00    +0.065 C 
ATOM     14  N   UNL     1     141.397 125.190 101.027  0.00  0.00    -0.355 N 
ATOM     15  C   UNL     1     142.894 127.019 101.498  0.00  0.00    -0.056 C 
ATOM     16  C   UNL     1     143.384 126.505 102.822  0.00  0.00    -0.013 C 
ATOM     17  C   UNL     1     142.501 126.977 103.944  0.00  0.00    -0.069 C 
ATOM     18  C   UNL     1     141.904 126.152 104.809  0.00  0.00    +0.001 C 
ATOM     19 CL   UNL     1     140.863 126.708 106.052  0.00  0.00    -0.092 Cl
ATOM     20  N   UNL     1     141.999 128.277  98.925  0.00  0.00    -0.245 N 
ATOM     21  O   UNL     1     141.799 129.277  99.915  0.00  0.00    -0.249 OA
ATOM     22  H   UNL     1     143.010 132.926  96.805  0.00  0.00    +0.000 HD
ATOM     23  H   UNL     1     140.102 132.067  99.932  0.00  0.00    +0.000 HD
ATOM     24  H   UNL     1     140.647 131.209 101.275  0.00  0.00    +0.000 HD
ATOM     25  H   UNL     1     140.512 125.356  99.040  0.00  0.00    +0.000 HD
ATOM     26  H   UNL     1     140.752 124.782 100.405  0.00  0.00    +0.000 HD
ATOM     27  H   UNL     1     141.613 124.742 101.877  0.00  0.00    +0.000 HD
ATOM     28  H   UNL     1     142.392 128.454  98.040  0.00  0.00    +0.000 HD
ENDROOT
TORSDOF 0
ENDMDL
MODEL 2
REMARK VINA RESULT:    -3.854      2.661      5.116
REMARK INTER + INTRA:          -3.854
REMARK INTER:                  -3.854
REMARK INTRA:                   0.000
REMARK UNBOUND:                 0.000
REMARK  Name = /home/vital/Documents/PhD_2021/Malaria_codes/scripts/../data/pdbqt_ligands/ligand_57_temp.pdb
REMARK                            x       y       z     vdW  Elec       q    Type
REMARK                         _______ _______ _______ _____ _____    ______ ____
ROOT
ATOM      1  N   UNL     1     138.377 128.225  96.981  0.00  0.00    -0.195 NA
ATOM      2  C   UNL     1     139.342 127.686  97.341  0.00  0.00    +0.078 C 
ATOM      3  C   UNL     1     140.602 127.053  97.787  0.00  0.00    +0.086 C 
ATOM      4  N   UNL     1     141.829 127.739  97.335  0.00  0.00    -0.273 N 
ATOM      5  C   UNL     1     141.915 129.113  97.845  0.00  0.00    +0.164 C 
ATOM      6  C   UNL     1     143.260 129.677  97.474  0.00  0.00    +0.004 C 
ATOM      7  C   UNL     1     143.459 130.949  97.271  0.00  0.00    -0.120 C 
ATOM      8  C   UNL     1     143.519 132.244  97.171  0.00  0.00    -0.018 C 
ATOM      9  C   UNL     1     142.591 133.091  97.885  0.00  0.00    -0.036 C 
ATOM     10  C   UNL     1     142.299 133.061  99.197  0.00  0.00    +0.031 C 
ATOM     11  N   UNL     1     142.901 132.287 100.151  0.00  0.00    -0.235 N 
ATOM     12  C   UNL     1     142.471 131.068 100.408  0.00  0.00    +0.171 C 
ATOM     13  C   UNL     1     143.259 130.386 101.553  0.00  0.00    +0.065 C 
ATOM     14  N   UNL     1     144.352 131.103 102.034  0.00  0.00    -0.355 N 
ATOM     15  C   UNL     1     142.897 129.182 102.025  0.00  0.00    -0.056 C 
ATOM     16  C   UNL     1     143.581 128.440 103.138  0.00  0.00    -0.013 C 
ATOM     17  C   UNL     1     144.686 127.570 102.607  0.00  0.00    -0.069 C 
ATOM     18  C   UNL     1     145.952 127.648 103.027  0.00  0.00    +0.001 C 
ATOM     19 CL   UNL     1     147.206 126.678 102.374  0.00  0.00    -0.092 Cl
ATOM     20  N   UNL     1     141.425 130.438  99.732  0.00  0.00    -0.245 N 
ATOM     21  O   UNL     1     141.774 129.137  99.279  0.00  0.00    -0.249 OA
ATOM     22  H   UNL     1     137.588 128.664  96.688  0.00  0.00    +0.000 HD
ATOM     23  H   UNL     1     141.835 127.767  96.316  0.00  0.00    +0.000 HD
ATOM     24  H   UNL     1     142.630 127.220  97.696  0.00  0.00    +0.000 HD
ATOM     25  H   UNL     1     143.667 132.647 100.654  0.00  0.00    +0.000 HD
ATOM     26  H   UNL     1     144.571 131.982 101.649  0.00  0.00    +0.000 HD
ATOM     27  H   UNL     1     144.906 130.731 102.758  0.00  0.00    +0.000 HD
ATOM     28  H   UNL     1     140.542 130.850  99.586  0.00  0.00    +0.000 HD
ENDROOT
TORSDOF 0
ENDMDL
MODEL 3
REMARK VINA RESULT:    -3.830      1.552      1.643
REMARK INTER + INTRA:          -3.830
REMARK INTER:                  -3.830
REMARK INTRA:                   0.000
REMARK UNBOUND:                 0.000
REMARK  Name = /home/vital/Documents/PhD_2021/Malaria_codes/scripts/../data/pdbqt_ligands/ligand_57_temp.pdb
REMARK                            x       y       z     vdW  Elec       q    Type
REMARK                         _______ _______ _______ _____ _____    ______ ____
ROOT
ATOM      1  N   UNL     1     143.263 132.294  99.280  0.00  0.00    -0.195 NA
ATOM      2  C   UNL     1     143.109 131.652 100.237  0.00  0.00    +0.078 C 
ATOM      3  C   UNL     1     142.859 130.812 101.429  0.00  0.00    +0.086 C 
ATOM      4  N   UNL     1     141.473 130.318 101.555  0.00  0.00    -0.273 N 
ATOM      5  C   UNL     1     141.083 129.467 100.424  0.00  0.00    +0.164 C 
ATOM      6  C   UNL     1     139.726 128.883 100.713  0.00  0.00    +0.004 C 
ATOM      7  C   UNL     1     138.881 128.567  99.773  0.00  0.00    -0.120 C 
ATOM      8  C   UNL     1     138.176 128.237  98.731  0.00  0.00    -0.018 C 
ATOM      9  C   UNL     1     138.810 127.916  97.473  0.00  0.00    -0.036 C 
ATOM     10  C   UNL     1     139.804 127.037  97.259  0.00  0.00    +0.031 C 
ATOM     11  N   UNL     1     140.353 126.184  98.176  0.00  0.00    -0.235 N 
ATOM     12  C   UNL     1     141.356 126.564  98.943  0.00  0.00    +0.171 C 
ATOM     13  C   UNL     1     141.857 125.433  99.875  0.00  0.00    +0.065 C 
ATOM     14  N   UNL     1     141.105 124.260  99.846  0.00  0.00    -0.355 N 
ATOM     15  C   UNL     1     142.939 125.601 100.653  0.00  0.00    -0.056 C 
ATOM     16  C   UNL     1     143.515 124.568 101.579  0.00  0.00    -0.013 C 
ATOM     17  C   UNL     1     142.888 124.656 102.942  0.00  0.00    -0.069 C 
ATOM     18  C   UNL     1     142.287 123.627 103.546  0.00  0.00    +0.001 C 
ATOM     19 CL   UNL     1     141.536 123.762 105.081  0.00  0.00    -0.092 Cl
ATOM     20  N   UNL     1     141.919 127.841  98.936  0.00  0.00    -0.245 N 
ATOM     21  O   UNL     1     142.028 128.395 100.241  0.00  0.00    -0.249 OA
ATOM     22  H   UNL     1     143.390 132.818  98.499  0.00  0.00    +0.000 HD
ATOM     23  H   UNL     1     140.842 131.118 101.597  0.00  0.00    +0.000 HD
ATOM     24  H   UNL     1     141.417 129.757 102.405  0.00  0.00    +0.000 HD
ATOM     25  H   UNL     1     139.993 125.271  98.265  0.00  0.00    +0.000 HD
ATOM     26  H   UNL     1     140.321 124.193  99.255  0.00  0.00    +0.000 HD
ATOM     27  H   UNL     1     141.359 123.498 100.416  0.00  0.00    +0.000 HD
ATOM     28  H   UNL     1     142.208 128.306  98.119  0.00  0.00    +0.000 HD
ENDROOT
TORSDOF 0
ENDMDL
MODEL 4
REMARK VINA RESULT:    -3.483      1.552      1.729
REMARK INTER + INTRA:          -3.483
REMARK INTER:                  -3.483
REMARK INTRA:                   0.000
REMARK UNBOUND:                 0.000
REMARK  Name = /home/vital/Documents/PhD_2021/Malaria_codes/scripts/../data/pdbqt_ligands/ligand_57_temp.pdb
REMARK                            x       y       z     vdW  Elec       q    Type
REMARK                         _______ _______ _______ _____ _____    ______ ____
ROOT
ATOM      1  N   UNL     1     142.808 132.977  98.403  0.00  0.00    -0.195 NA
ATOM      2  C   UNL     1     143.002 132.369  99.375  0.00  0.00    +0.078 C 
ATOM      3  C   UNL     1     143.193 131.568 100.604  0.00  0.00    +0.086 C 
ATOM      4  N   UNL     1     141.952 131.001 101.168  0.00  0.00    -0.273 N 
ATOM      5  C   UNL     1     141.290 130.080 100.236  0.00  0.00    +0.164 C 
ATOM      6  C   UNL     1     140.134 129.431 100.947  0.00  0.00    +0.004 C 
ATOM      7  C   UNL     1     139.062 129.026 100.326  0.00  0.00    -0.120 C 
ATOM      8  C   UNL     1     138.094 128.611  99.565  0.00  0.00    -0.018 C 
ATOM      9  C   UNL     1     138.326 128.273  98.179  0.00  0.00    -0.036 C 
ATOM     10  C   UNL     1     139.263 127.444  97.686  0.00  0.00    +0.031 C 
ATOM     11  N   UNL     1     140.127 126.665  98.406  0.00  0.00    -0.235 N 
ATOM     12  C   UNL     1     141.290 127.136  98.812  0.00  0.00    +0.171 C 
ATOM     13  C   UNL     1     142.131 126.078  99.566  0.00  0.00    +0.065 C 
ATOM     14  N   UNL     1     141.491 124.863  99.801  0.00  0.00    -0.355 N 
ATOM     15  C   UNL     1     143.387 126.342  99.963  0.00  0.00    -0.056 C 
ATOM     16  C   UNL     1     144.291 125.385 100.687  0.00  0.00    -0.013 C 
ATOM     17  C   UNL     1     144.114 125.496 102.175  0.00  0.00    -0.069 C 
ATOM     18  C   UNL     1     143.802 124.461 102.960  0.00  0.00    +0.001 C 
ATOM     19 CL   UNL     1     143.558 124.619 104.649  0.00  0.00    -0.092 Cl
ATOM     20  N   UNL     1     141.733 128.442  98.600  0.00  0.00    -0.245 N 
ATOM     21  O   UNL     1     142.203 129.058  99.791  0.00  0.00    -0.249 OA
ATOM     22  H   UNL     1     142.649 133.473  97.610  0.00  0.00    +0.000 HD
ATOM     23  H   UNL     1     141.312 131.763 101.387  0.00  0.00    +0.000 HD
ATOM     24  H   UNL     1     142.201 130.474 102.006  0.00  0.00    +0.000 HD
ATOM     25  H   UNL     1     139.876 125.738  98.624  0.00  0.00    +0.000 HD
ATOM     26  H   UNL     1     140.568 124.725  99.486  0.00  0.00    +0.000 HD
ATOM     27  H   UNL     1     141.960 124.143 100.281  0.00  0.00    +0.000 HD
ATOM     28  H   UNL     1     141.722 128.887  97.722  0.00  0.00    +0.000 HD
ENDROOT
TORSDOF 0
ENDMDL
MODEL 5
REMARK VINA RESULT:    -3.397      3.034      5.120
REMARK INTER + INTRA:          -3.397
REMARK INTER:                  -3.397
REMARK INTRA:                   0.000
REMARK UNBOUND:                 0.000
REMARK  Name = /home/vital/Documents/PhD_2021/Malaria_codes/scripts/../data/pdbqt_ligands/ligand_57_temp.pdb
REMARK                            x       y       z     vdW  Elec       q    Type
REMARK                         _______ _______ _______ _____ _____    ______ ____
ROOT
ATOM      1  N   UNL     1     144.848 128.749 104.178  0.00  0.00    -0.195 NA
ATOM      2  C   UNL     1     144.080 127.929 103.883  0.00  0.00    +0.078 C 
ATOM      3  C   UNL     1     143.069 126.928 103.477  0.00  0.00    +0.086 C 
ATOM      4  N   UNL     1     141.783 127.499 103.028  0.00  0.00    -0.273 N 
ATOM      5  C   UNL     1     141.941 128.354 101.845  0.00  0.00    +0.164 C 
ATOM      6  C   UNL     1     140.574 128.759 101.363  0.00  0.00    +0.004 C 
ATOM      7  C   UNL     1     140.350 129.882 100.740  0.00  0.00    -0.120 C 
ATOM      8  C   UNL     1     140.295 130.997 100.074  0.00  0.00    -0.018 C 
ATOM      9  C   UNL     1     141.450 131.503  99.369  0.00  0.00    -0.036 C 
ATOM     10  C   UNL     1     142.222 130.845  98.487  0.00  0.00    +0.031 C 
ATOM     11  N   UNL     1     142.010 129.587  97.993  0.00  0.00    -0.235 N 
ATOM     12  C   UNL     1     142.469 128.524  98.622  0.00  0.00    +0.171 C 
ATOM     13  C   UNL     1     142.162 127.206  97.869  0.00  0.00    +0.065 C 
ATOM     14  N   UNL     1     141.359 127.339  96.739  0.00  0.00    -0.355 N 
ATOM     15  C   UNL     1     142.641 126.029  98.303  0.00  0.00    -0.056 C 
ATOM     16  C   UNL     1     142.415 124.699  97.643  0.00  0.00    -0.013 C 
ATOM     17  C   UNL     1     141.166 124.044  98.163  0.00  0.00    -0.069 C 
ATOM     18  C   UNL     1     140.161 123.645  97.378  0.00  0.00    +0.001 C 
ATOM     19 CL   UNL     1     138.725 122.943  97.996  0.00  0.00    -0.092 Cl
ATOM     20  N   UNL     1     143.157 128.557  99.836  0.00  0.00    -0.245 N 
ATOM     21  O   UNL     1     142.622 127.649 100.790  0.00  0.00    -0.249 OA
ATOM     22  H   UNL     1     145.476 129.419 104.419  0.00  0.00    +0.000 HD
ATOM     23  H   UNL     1     141.388 128.055 103.785  0.00  0.00    +0.000 HD
ATOM     24  H   UNL     1     141.168 126.726 102.775  0.00  0.00    +0.000 HD
ATOM     25  H   UNL     1     141.507 129.475  97.154  0.00  0.00    +0.000 HD
ATOM     26  H   UNL     1     141.035 128.228  96.467  0.00  0.00    +0.000 HD
ATOM     27  H   UNL     1     141.115 126.544  96.211  0.00  0.00    +0.000 HD
ATOM     28  H   UNL     1     143.927 129.144 100.012  0.00  0.00    +0.000 HD
ENDROOT
TORSDOF 0
ENDMDL
MODEL 6
REMARK VINA RESULT:    -3.312      4.051      7.009
REMARK INTER + INTRA:          -3.312
REMARK INTER:                  -3.312
REMARK INTRA:                   0.000
REMARK UNBOUND:                 0.000
REMARK  Name = /home/vital/Documents/PhD_2021/Malaria_codes/scripts/../data/pdbqt_ligands/ligand_57_temp.pdb
REMARK                            x       y       z     vdW  Elec       q    Type
REMARK                         _______ _______ _______ _____ _____    ______ ____
ROOT
ATOM      1  N   UNL     1     142.541 123.971  98.536  0.00  0.00    -0.195 NA
ATOM      2  C   UNL     1     142.270 124.613  97.606  0.00  0.00    +0.078 C 
ATOM      3  C   UNL     1     141.889 125.466  96.459  0.00  0.00    +0.086 C 
ATOM      4  N   UNL     1     140.693 126.303  96.685  0.00  0.00    -0.273 N 
ATOM      5  C   UNL     1     140.879 127.248  97.793  0.00  0.00    +0.164 C 
ATOM      6  C   UNL     1     139.684 128.161  97.847  0.00  0.00    +0.004 C 
ATOM      7  C   UNL     1     139.262 128.705  98.953  0.00  0.00    -0.120 C 
ATOM      8  C   UNL     1     139.004 129.227 100.115  0.00  0.00    -0.018 C 
ATOM      9  C   UNL     1     140.043 129.395 101.105  0.00  0.00    -0.036 C 
ATOM     10  C   UNL     1     141.239 129.988 100.943  0.00  0.00    +0.031 C 
ATOM     11  N   UNL     1     141.679 130.650  99.830  0.00  0.00    -0.235 N 
ATOM     12  C   UNL     1     142.282 130.006  98.850  0.00  0.00    +0.171 C 
ATOM     13  C   UNL     1     142.742 130.949  97.711  0.00  0.00    +0.065 C 
ATOM     14  N   UNL     1     142.344 132.277  97.840  0.00  0.00    -0.355 N 
ATOM     15  C   UNL     1     143.467 130.489  96.678  0.00  0.00    -0.056 C 
ATOM     16  C   UNL     1     143.973 131.317  95.532  0.00  0.00    -0.013 C 
ATOM     17  C   UNL     1     142.966 131.370  94.417  0.00  0.00    -0.069 C 
ATOM     18  C   UNL     1     142.483 132.509  93.914  0.00  0.00    +0.001 C 
ATOM     19 CL   UNL     1     141.299 132.546  92.675  0.00  0.00    -0.092 Cl
ATOM     20  N   UNL     1     142.492 128.627  98.819  0.00  0.00    -0.245 N 
ATOM     21  O   UNL     1     142.067 128.039  97.597  0.00  0.00    -0.249 OA
ATOM     22  H   UNL     1     142.763 123.447  99.296  0.00  0.00    +0.000 HD
ATOM     23  H   UNL     1     139.902 125.696  96.901  0.00  0.00    +0.000 HD
ATOM     24  H   UNL     1     140.524 126.843  95.837  0.00  0.00    +0.000 HD
ATOM     25  H   UNL     1     141.543 131.623  99.760  0.00  0.00    +0.000 HD
ATOM     26  H   UNL     1     141.813 132.558  98.619  0.00  0.00    +0.000 HD
ATOM     27  H   UNL     1     142.593 132.935  97.151  0.00  0.00    +0.000 HD
ATOM     28  H   UNL     1     142.890 128.118  99.562  0.00  0.00    +0.000 HD
ENDROOT
TORSDOF 0
ENDMDL
MODEL 7
REMARK VINA RESULT:    -3.306      2.327      2.700
REMARK INTER + INTRA:          -3.306
REMARK INTER:                  -3.306
REMARK INTRA:                   0.000
REMARK UNBOUND:                 0.000
REMARK  Name = /home/vital/Documents/PhD_2021/Malaria_codes/scripts/../data/pdbqt_ligands/ligand_57_temp.pdb
REMARK                            x       y       z     vdW  Elec       q    Type
REMARK                         _______ _______ _______ _____ _____    ______ ____
ROOT
ATOM      1  N   UNL     1     142.642 132.743  95.823  0.00  0.00    -0.195 NA
ATOM      2  C   UNL     1     143.168 132.695  96.859  0.00  0.00    +0.078 C 
ATOM      3  C   UNL     1     143.786 132.606  98.200  0.00  0.00    +0.086 C 
ATOM      4  N   UNL     1     142.831 132.390  99.305  0.00  0.00    -0.273 N 
ATOM      5  C   UNL     1     142.095 131.128  99.162  0.00  0.00    +0.164 C 
ATOM      6  C   UNL     1     141.270 130.913 100.402  0.00  0.00    +0.004 C 
ATOM      7  C   UNL     1     140.146 130.253 100.396  0.00  0.00    -0.120 C 
ATOM      8  C   UNL     1     139.087 129.515 100.247  0.00  0.00    -0.018 C 
ATOM      9  C   UNL     1     139.001 128.537  99.187  0.00  0.00    -0.036 C 
ATOM     10  C   UNL     1     139.891 127.574  98.889  0.00  0.00    +0.031 C 
ATOM     11  N   UNL     1     141.017 127.253  99.597  0.00  0.00    -0.235 N 
ATOM     12  C   UNL     1     142.162 127.865  99.367  0.00  0.00    +0.171 C 
ATOM     13  C   UNL     1     143.317 127.318 100.241  0.00  0.00    +0.065 C 
ATOM     14  N   UNL     1     142.945 126.377 101.199  0.00  0.00    -0.355 N 
ATOM     15  C   UNL     1     144.579 127.745 100.073  0.00  0.00    -0.056 C 
ATOM     16  C   UNL     1     145.771 127.272 100.856  0.00  0.00    -0.013 C 
ATOM     17  C   UNL     1     145.969 128.104 102.092  0.00  0.00    -0.069 C 
ATOM     18  C   UNL     1     146.027 127.591 103.324  0.00  0.00    +0.001 C 
ATOM     19 CL   UNL     1     146.206 128.562 104.725  0.00  0.00    -0.092 Cl
ATOM     20  N   UNL     1     142.337 128.896  98.443  0.00  0.00    -0.245 N 
ATOM     21  O   UNL     1     143.003 130.020  99.003  0.00  0.00    -0.249 OA
ATOM     22  H   UNL     1     142.213 132.783  94.978  0.00  0.00    +0.000 HD
ATOM     23  H   UNL     1     142.163 133.160  99.318  0.00  0.00    +0.000 HD
ATOM     24  H   UNL     1     143.362 132.346 100.174  0.00  0.00    +0.000 HD
ATOM     25  H   UNL     1     140.971 126.555 100.289  0.00  0.00    +0.000 HD
ATOM     26  H   UNL     1     142.004 126.101 101.277  0.00  0.00    +0.000 HD
ATOM     27  H   UNL     1     143.624 125.988 101.797  0.00  0.00    +0.000 HD
ATOM     28  H   UNL     1     142.034 128.850  97.508  0.00  0.00    +0.000 HD
ENDROOT
TORSDOF 0
ENDMDL
MODEL 8
REMARK VINA RESULT:    -3.203      3.103      5.652
REMARK INTER + INTRA:          -3.203
REMARK INTER:                  -3.203
REMARK INTRA:                   0.000
REMARK UNBOUND:                 0.000
REMARK  Name = /home/vital/Documents/PhD_2021/Malaria_codes/scripts/../data/pdbqt_ligands/ligand_57_temp.pdb
REMARK                            x       y       z     vdW  Elec       q    Type
REMARK                         _______ _______ _______ _____ _____    ______ ____
ROOT
ATOM      1  N   UNL     1     141.324 123.463 101.732  0.00  0.00    -0.195 NA
ATOM      2  C   UNL     1     142.167 124.125 101.282  0.00  0.00    +0.078 C 
ATOM      3  C   UNL     1     143.198 124.991 100.670  0.00  0.00    +0.086 C 
ATOM      4  N   UNL     1     142.844 125.524  99.339  0.00  0.00    -0.273 N 
ATOM      5  C   UNL     1     141.642 126.366  99.381  0.00  0.00    +0.164 C 
ATOM      6  C   UNL     1     141.449 126.990  98.025  0.00  0.00    +0.004 C 
ATOM      7  C   UNL     1     140.276 127.313  97.558  0.00  0.00    -0.120 C 
ATOM      8  C   UNL     1     139.055 127.643  97.258  0.00  0.00    -0.018 C 
ATOM      9  C   UNL     1     138.084 127.926  98.289  0.00  0.00    -0.036 C 
ATOM     10  C   UNL     1     138.214 128.775  99.324  0.00  0.00    +0.031 C 
ATOM     11  N   UNL     1     139.257 129.628  99.556  0.00  0.00    -0.235 N 
ATOM     12  C   UNL     1     140.321 129.235 100.228  0.00  0.00    +0.171 C 
ATOM     13  C   UNL     1     141.359 130.368 100.418  0.00  0.00    +0.065 C 
ATOM     14  N   UNL     1     141.069 131.559  99.757  0.00  0.00    -0.355 N 
ATOM     15  C   UNL     1     142.459 130.185 101.167  0.00  0.00    -0.056 C 
ATOM     16  C   UNL     1     143.518 131.217 101.427  0.00  0.00    -0.013 C 
ATOM     17  C   UNL     1     144.589 131.169 100.374  0.00  0.00    -0.069 C 
ATOM     18  C   UNL     1     144.946 132.224  99.636  0.00  0.00    +0.001 C 
ATOM     19 CL   UNL     1     146.137 132.135  98.406  0.00  0.00    -0.092 Cl
ATOM     20  N   UNL     1     140.514 127.944 100.720  0.00  0.00    -0.245 N 
ATOM     21  O   UNL     1     141.782 127.409 100.365  0.00  0.00    -0.249 OA
ATOM     22  H   UNL     1     140.636 122.922 102.099  0.00  0.00    +0.000 HD
ATOM     23  H   UNL     1     142.675 124.742  98.706  0.00  0.00    +0.000 HD
ATOM     24  H   UNL     1     143.620 126.101  99.015  0.00  0.00    +0.000 HD
ATOM     25  H   UNL     1     139.212 130.551  99.215  0.00  0.00    +0.000 HD
ATOM     26  H   UNL     1     140.247 131.637  99.221  0.00  0.00    +0.000 HD
ATOM     27  H   UNL     1     141.686 132.324  99.826  0.00  0.00    +0.000 HD
ATOM     28  H   UNL     1     139.846 127.457 101.255  0.00  0.00    +0.000 HD
ENDROOT
TORSDOF 0
ENDMDL
MODEL 9
REMARK VINA RESULT:    -3.159      9.537     12.140
REMARK INTER + INTRA:          -3.159
REMARK INTER:                  -3.159
REMARK INTRA:                   0.000
REMARK UNBOUND:                 0.000
REMARK  Name = /home/vital/Documents/PhD_2021/Malaria_codes/scripts/../data/pdbqt_ligands/ligand_57_temp.pdb
REMARK                            x       y       z     vdW  Elec       q    Type
REMARK                         _______ _______ _______ _____ _____    ______ ____
ROOT
ATOM      1  N   UNL     1     146.199 130.814  87.863  0.00  0.00    -0.195 NA
ATOM      2  C   UNL     1     145.472 129.912  87.765  0.00  0.00    +0.078 C 
ATOM      3  C   UNL     1     144.527 128.776  87.699  0.00  0.00    +0.086 C 
ATOM      4  N   UNL     1     144.049 128.295  89.011  0.00  0.00    -0.273 N 
ATOM      5  C   UNL     1     143.317 129.332  89.748  0.00  0.00    +0.164 C 
ATOM      6  C   UNL     1     142.732 128.714  90.989  0.00  0.00    +0.004 C 
ATOM      7  C   UNL     1     142.523 129.391  92.082  0.00  0.00    -0.120 C 
ATOM      8  C   UNL     1     142.307 130.208  93.071  0.00  0.00    -0.018 C 
ATOM      9  C   UNL     1     142.095 131.618  92.841  0.00  0.00    -0.036 C 
ATOM     10  C   UNL     1     141.222 132.186  91.990  0.00  0.00    +0.031 C 
ATOM     11  N   UNL     1     140.275 131.544  91.240  0.00  0.00    -0.235 N 
ATOM     12  C   UNL     1     140.562 131.071  90.043  0.00  0.00    +0.171 C 
ATOM     13  C   UNL     1     139.339 130.426  89.347  0.00  0.00    +0.065 C 
ATOM     14  N   UNL     1     138.189 130.335  90.127  0.00  0.00    -0.355 N 
ATOM     15  C   UNL     1     139.413 129.984  88.080  0.00  0.00    -0.056 C 
ATOM     16  C   UNL     1     138.286 129.356  87.310  0.00  0.00    -0.013 C 
ATOM     17  C   UNL     1     138.256 127.868  87.514  0.00  0.00    -0.069 C 
ATOM     18  C   UNL     1     137.185 127.206  87.962  0.00  0.00    +0.001 C 
ATOM     19 CL   UNL     1     137.188 125.514  88.233  0.00  0.00    -0.092 Cl
ATOM     20  N   UNL     1     141.824 131.132  89.449  0.00  0.00    -0.245 N 
ATOM     21  O   UNL     1     142.250 129.873  88.945  0.00  0.00    -0.249 OA
ATOM     22  H   UNL     1     146.793 131.550  87.943  0.00  0.00    +0.000 HD
ATOM     23  H   UNL     1     144.853 128.004  89.567  0.00  0.00    +0.000 HD
ATOM     24  H   UNL     1     143.411 127.517  88.846  0.00  0.00    +0.000 HD
ATOM     25  H   UNL     1     139.366 131.432  91.600  0.00  0.00    +0.000 HD
ATOM     26  H   UNL     1     138.192 130.676  91.050  0.00  0.00    +0.000 HD
ATOM     27  H   UNL     1     137.372 129.930  89.755  0.00  0.00    +0.000 HD
ATOM     28  H   UNL     1     142.359 131.956  89.386  0.00  0.00    +0.000 HD
ENDROOT
TORSDOF 0
ENDMDL
