MODEL 1
REMARK VINA RESULT:    -4.393      0.000      0.000
REMARK INTER + INTRA:          -4.393
REMARK INTER:                  -4.393
REMARK INTRA:                   0.000
REMARK UNBOUND:                 0.000
REMARK  Name = /home/vital/Documents/PhD_2021/Malaria_codes/scripts/../data/pdbqt_ligands/ligand_352_temp.pdb
REMARK                            x       y       z     vdW  Elec       q    Type
REMARK                         _______ _______ _______ _____ _____    ______ ____
ROOT
ATOM      1  C   UNL     1     142.409 130.709 101.269  0.00  0.00    -0.046 C 
ATOM      2  C   UNL     1     142.292 129.209 100.975  0.00  0.00    +0.030 C 
ATOM      3  N   UNL     1     142.465 128.463 102.229  0.00  0.00    -0.306 N 
ATOM      4  C   UNL     1     142.652 127.029 102.001  0.00  0.00    +0.022 C 
ATOM      5  C   UNL     1     142.895 126.316 103.312  0.00  0.00    -0.033 A 
ATOM      6  C   UNL     1     144.158 125.796 103.623  0.00  0.00    -0.057 A 
ATOM      7  C   UNL     1     144.376 125.151 104.841  0.00  0.00    -0.061 A 
ATOM      8  C   UNL     1     143.335 125.019 105.760  0.00  0.00    -0.050 A 
ATOM      9  C   UNL     1     142.061 125.528 105.471  0.00  0.00    +0.055 A 
ATOM     10  C   UNL     1     140.941 125.414 106.474  0.00  0.00    +0.417 C 
ATOM     11  F   UNL     1     139.711 125.307 105.898  0.00  0.00    -0.166 F 
ATOM     12  F   UNL     1     141.061 124.327 107.289  0.00  0.00    -0.166 F 
ATOM     13  F   UNL     1     140.874 126.493 107.303  0.00  0.00    -0.166 F 
ATOM     14  C   UNL     1     141.855 126.182 104.245  0.00  0.00    -0.046 A 
ATOM     15  C   UNL     1     140.964 128.917 100.298  0.00  0.00    -0.028 A 
ATOM     16  C   UNL     1     140.925 128.595  98.930  0.00  0.00    -0.057 A 
ATOM     17  C   UNL     1     139.708 128.330  98.292  0.00  0.00    -0.059 A 
ATOM     18  C   UNL     1     138.518 128.388  99.013  0.00  0.00    -0.026 A 
ATOM     19  C   UNL     1     138.551 128.709 100.365  0.00  0.00    +0.124 A 
ATOM     20  F   UNL     1     137.405 128.765 101.057  0.00  0.00    -0.205 F 
ATOM     21  C   UNL     1     139.755 128.975 101.008  0.00  0.00    -0.022 A 
ATOM     22  H   UNL     1     141.635 128.597 102.808  0.00  0.00    +0.000 HD
ATOM     23  H   UNL     1     143.302 128.817 102.690  0.00  0.00    +0.000 HD
ENDROOT
TORSDOF 0
ENDMDL
MODEL 2
REMARK VINA RESULT:    -4.248      3.194      7.137
REMARK INTER + INTRA:          -4.248
REMARK INTER:                  -4.248
REMARK INTRA:                   0.000
REMARK UNBOUND:                 0.000
REMARK  Name = /home/vital/Documents/PhD_2021/Malaria_codes/scripts/../data/pdbqt_ligands/ligand_352_temp.pdb
REMARK                            x       y       z     vdW  Elec       q    Type
REMARK                         _______ _______ _______ _____ _____    ______ ____
ROOT
ATOM      1  C   UNL     1     147.248 128.488 100.591  0.00  0.00    -0.046 C 
ATOM      2  C   UNL     1     146.426 129.399 101.511  0.00  0.00    +0.030 C 
ATOM      3  N   UNL     1     145.048 129.470 101.003  0.00  0.00    -0.306 N 
ATOM      4  C   UNL     1     144.273 130.533 101.646  0.00  0.00    +0.022 C 
ATOM      5  C   UNL     1     142.889 130.611 101.043  0.00  0.00    -0.033 A 
ATOM      6  C   UNL     1     142.520 131.691 100.230  0.00  0.00    -0.057 A 
ATOM      7  C   UNL     1     141.244 131.749  99.667  0.00  0.00    -0.061 A 
ATOM      8  C   UNL     1     140.325 130.728  99.910  0.00  0.00    -0.050 A 
ATOM      9  C   UNL     1     140.668 129.639 100.724  0.00  0.00    +0.055 A 
ATOM     10  C   UNL     1     139.688 128.519 100.964  0.00  0.00    +0.417 C 
ATOM     11  F   UNL     1     139.829 127.934 102.187  0.00  0.00    -0.166 F 
ATOM     12  F   UNL     1     138.388 128.923 100.898  0.00  0.00    -0.166 F 
ATOM     13  F   UNL     1     139.811 127.515 100.052  0.00  0.00    -0.166 F 
ATOM     14  C   UNL     1     141.958 129.587 101.278  0.00  0.00    -0.046 A 
ATOM     15  C   UNL     1     146.498 128.893 102.941  0.00  0.00    -0.028 A 
ATOM     16  C   UNL     1     147.256 129.588 103.899  0.00  0.00    -0.057 A 
ATOM     17  C   UNL     1     147.337 129.129 105.218  0.00  0.00    -0.059 A 
ATOM     18  C   UNL     1     146.663 127.969 105.593  0.00  0.00    -0.026 A 
ATOM     19  C   UNL     1     145.915 127.276 104.649  0.00  0.00    +0.124 A 
ATOM     20  F   UNL     1     145.269 126.160 105.010  0.00  0.00    -0.205 F 
ATOM     21  C   UNL     1     145.829 127.724 103.335  0.00  0.00    -0.022 A 
ATOM     22  H   UNL     1     144.588 128.577 101.179  0.00  0.00    +0.000 HD
ATOM     23  H   UNL     1     145.093 129.677 100.006  0.00  0.00    +0.000 HD
ENDROOT
TORSDOF 0
ENDMDL
MODEL 3
REMARK VINA RESULT:    -3.981      1.810      6.709
REMARK INTER + INTRA:          -3.981
REMARK INTER:                  -3.981
REMARK INTRA:                   0.000
REMARK UNBOUND:                 0.000
REMARK  Name = /home/vital/Documents/PhD_2021/Malaria_codes/scripts/../data/pdbqt_ligands/ligand_352_temp.pdb
REMARK                            x       y       z     vdW  Elec       q    Type
REMARK                         _______ _______ _______ _____ _____    ______ ____
ROOT
ATOM      1  C   UNL     1     143.634 124.168 103.154  0.00  0.00    -0.046 C 
ATOM      2  C   UNL     1     143.123 125.462 103.800  0.00  0.00    +0.030 C 
ATOM      3  N   UNL     1     142.769 126.416 102.740  0.00  0.00    -0.306 N 
ATOM      4  C   UNL     1     142.546 127.766 103.259  0.00  0.00    +0.022 C 
ATOM      5  C   UNL     1     142.255 128.723 102.125  0.00  0.00    -0.033 A 
ATOM      6  C   UNL     1     143.190 129.697 101.750  0.00  0.00    -0.057 A 
ATOM      7  C   UNL     1     142.918 130.568 100.694  0.00  0.00    -0.061 A 
ATOM      8  C   UNL     1     141.710 130.475 100.002  0.00  0.00    -0.050 A 
ATOM      9  C   UNL     1     140.756 129.511 100.361  0.00  0.00    +0.055 A 
ATOM     10  C   UNL     1     139.463 129.387  99.597  0.00  0.00    +0.417 C 
ATOM     11  F   UNL     1     138.423 128.959 100.366  0.00  0.00    -0.166 F 
ATOM     12  F   UNL     1     139.053 130.564  99.045  0.00  0.00    -0.166 F 
ATOM     13  F   UNL     1     139.552 128.505  98.563  0.00  0.00    -0.166 F 
ATOM     14  C   UNL     1     141.045 128.635 101.420  0.00  0.00    -0.046 A 
ATOM     15  C   UNL     1     141.957 125.154 104.723  0.00  0.00    -0.028 A 
ATOM     16  C   UNL     1     142.125 125.214 106.118  0.00  0.00    -0.057 A 
ATOM     17  C   UNL     1     141.062 124.926 106.980  0.00  0.00    -0.059 A 
ATOM     18  C   UNL     1     139.819 124.573 106.458  0.00  0.00    -0.026 A 
ATOM     19  C   UNL     1     139.649 124.510 105.081  0.00  0.00    +0.124 A 
ATOM     20  F   UNL     1     138.454 124.169 104.580  0.00  0.00    -0.205 F 
ATOM     21  C   UNL     1     140.699 124.793 104.215  0.00  0.00    -0.022 A 
ATOM     22  H   UNL     1     141.916 126.096 102.281  0.00  0.00    +0.000 HD
ATOM     23  H   UNL     1     143.550 126.459 102.085  0.00  0.00    +0.000 HD
ENDROOT
TORSDOF 0
ENDMDL
MODEL 4
REMARK VINA RESULT:    -3.842      5.185      8.692
REMARK INTER + INTRA:          -3.842
REMARK INTER:                  -3.842
REMARK INTRA:                   0.000
REMARK UNBOUND:                 0.000
REMARK  Name = /home/vital/Documents/PhD_2021/Malaria_codes/scripts/../data/pdbqt_ligands/ligand_352_temp.pdb
REMARK                            x       y       z     vdW  Elec       q    Type
REMARK                         _______ _______ _______ _____ _____    ______ ____
ROOT
ATOM      1  C   UNL     1     143.301 129.554 102.094  0.00  0.00    -0.046 C 
ATOM      2  C   UNL     1     142.447 130.494 101.235  0.00  0.00    +0.030 C 
ATOM      3  N   UNL     1     143.258 130.977 100.108  0.00  0.00    -0.306 N 
ATOM      4  C   UNL     1     142.622 132.092  99.404  0.00  0.00    +0.022 C 
ATOM      5  C   UNL     1     143.523 132.598  98.301  0.00  0.00    -0.033 A 
ATOM      6  C   UNL     1     144.157 133.843  98.405  0.00  0.00    -0.057 A 
ATOM      7  C   UNL     1     144.997 134.297  97.388  0.00  0.00    -0.061 A 
ATOM      8  C   UNL     1     145.213 133.511  96.256  0.00  0.00    -0.050 A 
ATOM      9  C   UNL     1     144.588 132.263  96.125  0.00  0.00    +0.055 A 
ATOM     10  C   UNL     1     144.843 131.398  94.917  0.00  0.00    +0.417 C 
ATOM     11  F   UNL     1     143.776 130.622  94.576  0.00  0.00    -0.166 F 
ATOM     12  F   UNL     1     145.147 132.116  93.799  0.00  0.00    -0.166 F 
ATOM     13  F   UNL     1     145.885 130.541  95.102  0.00  0.00    -0.166 F 
ATOM     14  C   UNL     1     143.751 131.813  97.159  0.00  0.00    -0.046 A 
ATOM     15  C   UNL     1     141.185 129.779 100.784  0.00  0.00    -0.028 A 
ATOM     16  C   UNL     1     139.943 130.117 101.350  0.00  0.00    -0.057 A 
ATOM     17  C   UNL     1     138.773 129.462 100.949  0.00  0.00    -0.059 A 
ATOM     18  C   UNL     1     138.832 128.462  99.981  0.00  0.00    -0.026 A 
ATOM     19  C   UNL     1     140.058 128.124  99.421  0.00  0.00    +0.124 A 
ATOM     20  F   UNL     1     140.114 127.161  98.491  0.00  0.00    -0.205 F 
ATOM     21  C   UNL     1     141.227 128.767  99.813  0.00  0.00    -0.022 A 
ATOM     22  H   UNL     1     143.396 130.210  99.451  0.00  0.00    +0.000 HD
ATOM     23  H   UNL     1     144.145 131.311 100.483  0.00  0.00    +0.000 HD
ENDROOT
TORSDOF 0
ENDMDL
MODEL 5
REMARK VINA RESULT:    -3.817      5.208      8.816
REMARK INTER + INTRA:          -3.817
REMARK INTER:                  -3.817
REMARK INTRA:                   0.000
REMARK UNBOUND:                 0.000
REMARK  Name = /home/vital/Documents/PhD_2021/Malaria_codes/scripts/../data/pdbqt_ligands/ligand_352_temp.pdb
REMARK                            x       y       z     vdW  Elec       q    Type
REMARK                         _______ _______ _______ _____ _____    ______ ____
ROOT
ATOM      1  C   UNL     1     142.979 127.409 100.047  0.00  0.00    -0.046 C 
ATOM      2  C   UNL     1     142.319 128.792 100.012  0.00  0.00    +0.030 C 
ATOM      3  N   UNL     1     143.030 129.635  99.039  0.00  0.00    -0.306 N 
ATOM      4  C   UNL     1     142.655 131.045  99.147  0.00  0.00    +0.022 C 
ATOM      5  C   UNL     1     143.461 131.878  98.176  0.00  0.00    -0.033 A 
ATOM      6  C   UNL     1     144.455 132.753  98.634  0.00  0.00    -0.057 A 
ATOM      7  C   UNL     1     145.202 133.509  97.730  0.00  0.00    -0.061 A 
ATOM      8  C   UNL     1     144.966 133.398  96.360  0.00  0.00    -0.050 A 
ATOM      9  C   UNL     1     143.974 132.532  95.877  0.00  0.00    +0.055 A 
ATOM     10  C   UNL     1     143.735 132.386  94.395  0.00  0.00    +0.417 C 
ATOM     11  F   UNL     1     142.439 132.104  94.084  0.00  0.00    -0.166 F 
ATOM     12  F   UNL     1     144.046 133.511  93.690  0.00  0.00    -0.166 F 
ATOM     13  F   UNL     1     144.479 131.387  93.844  0.00  0.00    -0.166 F 
ATOM     14  C   UNL     1     143.233 131.770  96.795  0.00  0.00    -0.046 A 
ATOM     15  C   UNL     1     140.840 128.653  99.697  0.00  0.00    -0.028 A 
ATOM     16  C   UNL     1     139.881 128.865 100.702  0.00  0.00    -0.057 A 
ATOM     17  C   UNL     1     138.516 128.734 100.427  0.00  0.00    -0.059 A 
ATOM     18  C   UNL     1     138.094 128.386  99.145  0.00  0.00    -0.026 A 
ATOM     19  C   UNL     1     139.039 128.173  98.149  0.00  0.00    +0.124 A 
ATOM     20  F   UNL     1     138.633 127.838  96.917  0.00  0.00    -0.205 F 
ATOM     21  C   UNL     1     140.398 128.300  98.412  0.00  0.00    -0.022 A 
ATOM     22  H   UNL     1     142.808 129.307  98.099  0.00  0.00    +0.000 HD
ATOM     23  H   UNL     1     144.028 129.562  99.233  0.00  0.00    +0.000 HD
ENDROOT
TORSDOF 0
ENDMDL
MODEL 6
REMARK VINA RESULT:    -3.813     10.496     13.310
REMARK INTER + INTRA:          -3.813
REMARK INTER:                  -3.813
REMARK INTRA:                   0.000
REMARK UNBOUND:                 0.000
REMARK  Name = /home/vital/Documents/PhD_2021/Malaria_codes/scripts/../data/pdbqt_ligands/ligand_352_temp.pdb
REMARK                            x       y       z     vdW  Elec       q    Type
REMARK                         _______ _______ _______ _____ _____    ______ ____
ROOT
ATOM      1  C   UNL     1     140.798 127.559  94.424  0.00  0.00    -0.046 C 
ATOM      2  C   UNL     1     141.179 127.145  92.998  0.00  0.00    +0.030 C 
ATOM      3  N   UNL     1     140.081 126.357  92.421  0.00  0.00    -0.306 N 
ATOM      4  C   UNL     1     140.471 125.683  91.181  0.00  0.00    +0.022 C 
ATOM      5  C   UNL     1     139.333 124.832  90.665  0.00  0.00    -0.033 A 
ATOM      6  C   UNL     1     139.402 123.434  90.713  0.00  0.00    -0.057 A 
ATOM      7  C   UNL     1     138.342 122.657  90.246  0.00  0.00    -0.061 A 
ATOM      8  C   UNL     1     137.200 123.269  89.728  0.00  0.00    -0.050 A 
ATOM      9  C   UNL     1     137.107 124.667  89.666  0.00  0.00    +0.055 A 
ATOM     10  C   UNL     1     135.863 125.332  89.135  0.00  0.00    +0.417 C 
ATOM     11  F   UNL     1     136.110 126.524  88.521  0.00  0.00    -0.166 F 
ATOM     12  F   UNL     1     135.203 124.574  88.214  0.00  0.00    -0.166 F 
ATOM     13  F   UNL     1     134.956 125.597  90.116  0.00  0.00    -0.166 F 
ATOM     14  C   UNL     1     138.178 125.439  90.146  0.00  0.00    -0.046 A 
ATOM     15  C   UNL     1     141.514 128.375  92.173  0.00  0.00    -0.028 A 
ATOM     16  C   UNL     1     142.848 128.650  91.824  0.00  0.00    -0.057 A 
ATOM     17  C   UNL     1     143.171 129.783  91.071  0.00  0.00    -0.059 A 
ATOM     18  C   UNL     1     142.166 130.655  90.659  0.00  0.00    -0.026 A 
ATOM     19  C   UNL     1     140.846 130.389  91.003  0.00  0.00    +0.124 A 
ATOM     20  F   UNL     1     139.880 131.229  90.608  0.00  0.00    -0.205 F 
ATOM     21  C   UNL     1     140.514 129.266  91.753  0.00  0.00    -0.022 A 
ATOM     22  H   UNL     1     139.298 126.981  92.223  0.00  0.00    +0.000 HD
ATOM     23  H   UNL     1     139.822 125.639  93.098  0.00  0.00    +0.000 HD
ENDROOT
TORSDOF 0
ENDMDL
MODEL 7
REMARK VINA RESULT:    -3.802      5.657      8.372
REMARK INTER + INTRA:          -3.802
REMARK INTER:                  -3.802
REMARK INTRA:                   0.000
REMARK UNBOUND:                 0.000
REMARK  Name = /home/vital/Documents/PhD_2021/Malaria_codes/scripts/../data/pdbqt_ligands/ligand_352_temp.pdb
REMARK                            x       y       z     vdW  Elec       q    Type
REMARK                         _______ _______ _______ _____ _____    ______ ____
ROOT
ATOM      1  C   UNL     1     138.846 128.709 100.533  0.00  0.00    -0.046 C 
ATOM      2  C   UNL     1     140.280 128.323 100.152  0.00  0.00    +0.030 C 
ATOM      3  N   UNL     1     140.274 127.740  98.803  0.00  0.00    -0.306 N 
ATOM      4  C   UNL     1     141.543 127.087  98.474  0.00  0.00    +0.022 C 
ATOM      5  C   UNL     1     141.463 126.444  97.108  0.00  0.00    -0.033 A 
ATOM      6  C   UNL     1     141.428 125.051  96.971  0.00  0.00    -0.057 A 
ATOM      7  C   UNL     1     141.342 124.466  95.707  0.00  0.00    -0.061 A 
ATOM      8  C   UNL     1     141.289 125.268  94.566  0.00  0.00    -0.050 A 
ATOM      9  C   UNL     1     141.326 126.666  94.677  0.00  0.00    +0.055 A 
ATOM     10  C   UNL     1     141.239 127.537  93.449  0.00  0.00    +0.417 C 
ATOM     11  F   UNL     1     141.918 128.711  93.573  0.00  0.00    -0.166 F 
ATOM     12  F   UNL     1     141.740 126.938  92.332  0.00  0.00    -0.166 F 
ATOM     13  F   UNL     1     139.956 127.877  93.143  0.00  0.00    -0.166 F 
ATOM     14  C   UNL     1     141.405 127.243  95.955  0.00  0.00    -0.046 A 
ATOM     15  C   UNL     1     141.189 129.535 100.262  0.00  0.00    -0.028 A 
ATOM     16  C   UNL     1     142.115 129.630 101.315  0.00  0.00    -0.057 A 
ATOM     17  C   UNL     1     142.954 130.743 101.433  0.00  0.00    -0.059 A 
ATOM     18  C   UNL     1     142.873 131.776 100.502  0.00  0.00    -0.026 A 
ATOM     19  C   UNL     1     141.957 131.689  99.461  0.00  0.00    +0.124 A 
ATOM     20  F   UNL     1     141.879 132.683  98.566  0.00  0.00    -0.205 F 
ATOM     21  C   UNL     1     141.119 130.587  99.335  0.00  0.00    -0.022 A 
ATOM     22  H   UNL     1     140.103 128.483  98.125  0.00  0.00    +0.000 HD
ATOM     23  H   UNL     1     139.542 127.032  98.772  0.00  0.00    +0.000 HD
ENDROOT
TORSDOF 0
ENDMDL
MODEL 8
REMARK VINA RESULT:    -3.798      5.413      7.401
REMARK INTER + INTRA:          -3.798
REMARK INTER:                  -3.798
REMARK INTRA:                   0.000
REMARK UNBOUND:                 0.000
REMARK  Name = /home/vital/Documents/PhD_2021/Malaria_codes/scripts/../data/pdbqt_ligands/ligand_352_temp.pdb
REMARK                            x       y       z     vdW  Elec       q    Type
REMARK                         _______ _______ _______ _____ _____    ______ ____
ROOT
ATOM      1  C   UNL     1     142.903 124.255  98.915  0.00  0.00    -0.046 C 
ATOM      2  C   UNL     1     141.723 124.990  98.267  0.00  0.00    +0.030 C 
ATOM      3  N   UNL     1     141.556 126.294  98.923  0.00  0.00    -0.306 N 
ATOM      4  C   UNL     1     140.290 126.936  98.567  0.00  0.00    +0.022 C 
ATOM      5  C   UNL     1     140.132 128.239  99.319  0.00  0.00    -0.033 A 
ATOM      6  C   UNL     1     139.189 128.366 100.346  0.00  0.00    -0.057 A 
ATOM      7  C   UNL     1     139.059 129.568 101.043  0.00  0.00    -0.061 A 
ATOM      8  C   UNL     1     139.872 130.655 100.721  0.00  0.00    -0.050 A 
ATOM      9  C   UNL     1     140.821 130.555  99.693  0.00  0.00    +0.055 A 
ATOM     10  C   UNL     1     141.722 131.718  99.362  0.00  0.00    +0.417 C 
ATOM     11  F   UNL     1     142.074 131.768  98.047  0.00  0.00    -0.166 F 
ATOM     12  F   UNL     1     141.156 132.927  99.638  0.00  0.00    -0.166 F 
ATOM     13  F   UNL     1     142.890 131.687 100.061  0.00  0.00    -0.166 F 
ATOM     14  C   UNL     1     140.948 129.337  99.005  0.00  0.00    -0.046 A 
ATOM     15  C   UNL     1     141.949 125.111  96.770  0.00  0.00    -0.028 A 
ATOM     16  C   UNL     1     141.197 124.328  95.877  0.00  0.00    -0.057 A 
ATOM     17  C   UNL     1     141.399 124.425  94.496  0.00  0.00    -0.059 A 
ATOM     18  C   UNL     1     142.357 125.303  93.993  0.00  0.00    -0.026 A 
ATOM     19  C   UNL     1     143.105 126.077  94.872  0.00  0.00    +0.124 A 
ATOM     20  F   UNL     1     144.026 126.920  94.387  0.00  0.00    -0.205 F 
ATOM     21  C   UNL     1     142.912 125.987  96.246  0.00  0.00    -0.022 A 
ATOM     22  H   UNL     1     142.324 126.904  98.640  0.00  0.00    +0.000 HD
ATOM     23  H   UNL     1     141.555 126.139  99.930  0.00  0.00    +0.000 HD
ENDROOT
TORSDOF 0
ENDMDL
MODEL 9
REMARK VINA RESULT:    -3.718      2.851      7.148
REMARK INTER + INTRA:          -3.718
REMARK INTER:                  -3.718
REMARK INTRA:                   0.000
REMARK UNBOUND:                 0.000
REMARK  Name = /home/vital/Documents/PhD_2021/Malaria_codes/scripts/../data/pdbqt_ligands/ligand_352_temp.pdb
REMARK                            x       y       z     vdW  Elec       q    Type
REMARK                         _______ _______ _______ _____ _____    ______ ____
ROOT
ATOM      1  C   UNL     1     144.615 126.033 102.593  0.00  0.00    -0.046 C 
ATOM      2  C   UNL     1     143.164 126.324 102.994  0.00  0.00    +0.030 C 
ATOM      3  N   UNL     1     142.505 127.052 101.901  0.00  0.00    -0.306 N 
ATOM      4  C   UNL     1     141.218 127.618 102.307  0.00  0.00    +0.022 C 
ATOM      5  C   UNL     1     140.613 128.414 101.172  0.00  0.00    -0.033 A 
ATOM      6  C   UNL     1     140.540 129.812 101.235  0.00  0.00    -0.057 A 
ATOM      7  C   UNL     1     139.992 130.539 100.178  0.00  0.00    -0.061 A 
ATOM      8  C   UNL     1     139.512 129.878  99.047  0.00  0.00    -0.050 A 
ATOM      9  C   UNL     1     139.571 128.479  98.961  0.00  0.00    +0.055 A 
ATOM     10  C   UNL     1     139.081 127.763  97.728  0.00  0.00    +0.417 C 
ATOM     11  F   UNL     1     138.577 126.524  97.990  0.00  0.00    -0.166 F 
ATOM     12  F   UNL     1     138.088 128.434  97.079  0.00  0.00    -0.166 F 
ATOM     13  F   UNL     1     140.068 127.579  96.808  0.00  0.00    -0.166 F 
ATOM     14  C   UNL     1     140.132 127.758 100.028  0.00  0.00    -0.046 A 
ATOM     15  C   UNL     1     142.454 125.029 103.347  0.00  0.00    -0.028 A 
ATOM     16  C   UNL     1     142.151 124.733 104.687  0.00  0.00    -0.057 A 
ATOM     17  C   UNL     1     141.503 123.540 105.027  0.00  0.00    -0.059 A 
ATOM     18  C   UNL     1     141.154 122.630 104.032  0.00  0.00    -0.026 A 
ATOM     19  C   UNL     1     141.455 122.917 102.706  0.00  0.00    +0.124 A 
ATOM     20  F   UNL     1     141.120 122.040 101.750  0.00  0.00    -0.205 F 
ATOM     21  C   UNL     1     142.099 124.099 102.358  0.00  0.00    -0.022 A 
ATOM     22  H   UNL     1     142.351 126.409 101.124  0.00  0.00    +0.000 HD
ATOM     23  H   UNL     1     143.113 127.824 101.629  0.00  0.00    +0.000 HD
ENDROOT
TORSDOF 0
ENDMDL
