MODEL 1
REMARK VINA RESULT:    -4.501      0.000      0.000
REMARK INTER + INTRA:          -4.501
REMARK INTER:                  -4.501
REMARK INTRA:                   0.000
REMARK UNBOUND:                 0.000
REMARK  Name = /home/vital/Documents/PhD_2021/Malaria_codes/scripts/../data/pdbqt_ligands/ligand_77_temp.pdb
REMARK                            x       y       z     vdW  Elec       q    Type
REMARK                         _______ _______ _______ _____ _____    ______ ____
ROOT
ATOM      1  N   UNL     1     145.510 131.107 102.082  0.00  0.00    -0.213 NA
ATOM      2  O   UNL     1     144.059 131.265 102.142  0.00  0.00    -0.284 OA
ATOM      3  C   UNL     1     143.424 130.123 101.541  0.00  0.00    +0.133 C 
ATOM      4  N   UNL     1     142.002 130.346 101.550  0.00  0.00    -0.304 N 
ATOM      5  C   UNL     1     141.120 129.464 100.983  0.00  0.00    +0.131 C 
ATOM      6  N   UNL     1     141.503 128.261 100.624  0.00  0.00    -0.255 N 
ATOM      7  C   UNL     1     140.452 127.349 100.013  0.00  0.00    +0.110 C 
ATOM      8  C   UNL     1     140.924 126.676  98.732  0.00  0.00    -0.017 A 
ATOM      9  C   UNL     1     140.303 125.496  98.293  0.00  0.00    -0.055 A 
ATOM     10  C   UNL     1     140.710 124.874  97.110  0.00  0.00    -0.042 A 
ATOM     11  C   UNL     1     141.740 125.424  96.344  0.00  0.00    +0.059 A 
ATOM     12 CL   UNL     1     142.186 124.605  94.889  0.00  0.00    -0.082 Cl
ATOM     13  C   UNL     1     142.365 126.601  96.765  0.00  0.00    +0.060 A 
ATOM     14 CL   UNL     1     143.640 127.347  95.867  0.00  0.00    -0.082 Cl
ATOM     15  C   UNL     1     141.957 127.221  97.951  0.00  0.00    -0.036 A 
ATOM     16  C   UNL     1     139.098 128.104  99.864  0.00  0.00    +0.024 C 
ATOM     17  C   UNL     1     138.876 128.878 100.898  0.00  0.00    -0.103 C 
ATOM     18  C   UNL     1     139.654 129.917 100.738  0.00  0.00    +0.057 C 
ATOM     19  C   UNL     1     139.434 130.246  99.313  0.00  0.00    -0.043 C 
ATOM     20  C   UNL     1     139.083 129.078  98.747  0.00  0.00    -0.047 C 
ATOM     21  H   UNL     1     145.958 131.918 102.510  0.00  0.00    +0.000 HD
ATOM     22  H   UNL     1     145.803 131.030 101.108  0.00  0.00    +0.000 HD
ATOM     23  H   UNL     1     141.650 131.160 101.979  0.00  0.00    +0.000 HD
ATOM     24  H   UNL     1     142.433 127.963 100.744  0.00  0.00    +0.000 HD
ENDROOT
TORSDOF 0
ENDMDL
MODEL 2
REMARK VINA RESULT:    -4.411      2.115      2.189
REMARK INTER + INTRA:          -4.411
REMARK INTER:                  -4.411
REMARK INTRA:                   0.000
REMARK UNBOUND:                 0.000
REMARK  Name = /home/vital/Documents/PhD_2021/Malaria_codes/scripts/../data/pdbqt_ligands/ligand_77_temp.pdb
REMARK                            x       y       z     vdW  Elec       q    Type
REMARK                         _______ _______ _______ _____ _____    ______ ____
ROOT
ATOM      1  N   UNL     1     144.508 127.141 104.186  0.00  0.00    -0.213 NA
ATOM      2  O   UNL     1     143.213 127.808 104.073  0.00  0.00    -0.284 OA
ATOM      3  C   UNL     1     142.649 127.549 102.776  0.00  0.00    +0.133 C 
ATOM      4  N   UNL     1     141.413 128.280 102.671  0.00  0.00    -0.304 N 
ATOM      5  C   UNL     1     140.666 128.293 101.523  0.00  0.00    +0.131 C 
ATOM      6  N   UNL     1     140.909 127.449 100.548  0.00  0.00    -0.255 N 
ATOM      7  C   UNL     1     140.021 127.531  99.317  0.00  0.00    +0.110 C 
ATOM      8  C   UNL     1     140.811 127.542  98.016  0.00  0.00    -0.017 A 
ATOM      9  C   UNL     1     140.188 127.161  96.817  0.00  0.00    -0.055 A 
ATOM     10  C   UNL     1     140.892 127.183  95.610  0.00  0.00    -0.042 A 
ATOM     11  C   UNL     1     142.227 127.590  95.582  0.00  0.00    +0.059 A 
ATOM     12 CL   UNL     1     143.033 127.598  94.053  0.00  0.00    -0.082 Cl
ATOM     13  C   UNL     1     142.861 127.977  96.766  0.00  0.00    +0.060 A 
ATOM     14 CL   UNL     1     144.507 128.502  96.809  0.00  0.00    -0.082 Cl
ATOM     15  C   UNL     1     142.154 127.953  97.974  0.00  0.00    -0.036 A 
ATOM     16  C   UNL     1     139.015 128.714  99.452  0.00  0.00    +0.024 C 
ATOM     17  C   UNL     1     138.567 128.811 100.679  0.00  0.00    -0.103 C 
ATOM     18  C   UNL     1     139.537 129.350 101.371  0.00  0.00    +0.057 C 
ATOM     19  C   UNL     1     139.964 130.455 100.486  0.00  0.00    -0.043 C 
ATOM     20  C   UNL     1     139.636 130.044  99.249  0.00  0.00    -0.047 C 
ATOM     21  H   UNL     1     144.906 127.326 105.108  0.00  0.00    +0.000 HD
ATOM     22  H   UNL     1     145.137 127.496 103.466  0.00  0.00    +0.000 HD
ATOM     23  H   UNL     1     141.093 128.788 103.452  0.00  0.00    +0.000 HD
ATOM     24  H   UNL     1     141.637 126.790 100.612  0.00  0.00    +0.000 HD
ENDROOT
TORSDOF 0
ENDMDL
MODEL 3
REMARK VINA RESULT:    -3.957      3.147      3.833
REMARK INTER + INTRA:          -3.957
REMARK INTER:                  -3.957
REMARK INTRA:                   0.000
REMARK UNBOUND:                 0.000
REMARK  Name = /home/vital/Documents/PhD_2021/Malaria_codes/scripts/../data/pdbqt_ligands/ligand_77_temp.pdb
REMARK                            x       y       z     vdW  Elec       q    Type
REMARK                         _______ _______ _______ _____ _____    ______ ____
ROOT
ATOM      1  N   UNL     1     143.377 134.590  98.127  0.00  0.00    -0.213 NA
ATOM      2  O   UNL     1     142.086 133.959  98.395  0.00  0.00    -0.284 OA
ATOM      3  C   UNL     1     142.282 132.785  99.202  0.00  0.00    +0.133 C 
ATOM      4  N   UNL     1     141.003 132.149  99.383  0.00  0.00    -0.304 N 
ATOM      5  C   UNL     1     140.866 130.963 100.056  0.00  0.00    +0.131 C 
ATOM      6  N   UNL     1     141.848 130.475 100.776  0.00  0.00    -0.255 N 
ATOM      7  C   UNL     1     141.599 129.159 101.495  0.00  0.00    +0.110 C 
ATOM      8  C   UNL     1     142.722 128.152 101.294  0.00  0.00    -0.017 A 
ATOM      9  C   UNL     1     142.892 127.103 102.211  0.00  0.00    -0.055 A 
ATOM     10  C   UNL     1     143.907 126.158 102.033  0.00  0.00    -0.042 A 
ATOM     11  C   UNL     1     144.764 126.245 100.933  0.00  0.00    +0.059 A 
ATOM     12 CL   UNL     1     145.991 125.039 100.773  0.00  0.00    -0.082 Cl
ATOM     13  C   UNL     1     144.605 127.281 100.009  0.00  0.00    +0.060 A 
ATOM     14 CL   UNL     1     145.620 127.449  98.620  0.00  0.00    -0.082 Cl
ATOM     15  C   UNL     1     143.589 128.227 100.190  0.00  0.00    -0.036 A 
ATOM     16  C   UNL     1     140.187 128.605 101.138  0.00  0.00    +0.024 C 
ATOM     17  C   UNL     1     139.307 129.573 101.068  0.00  0.00    -0.103 C 
ATOM     18  C   UNL     1     139.531 130.177  99.929  0.00  0.00    +0.057 C 
ATOM     19  C   UNL     1     139.677 129.034  99.002  0.00  0.00    -0.043 C 
ATOM     20  C   UNL     1     140.107 128.023  99.777  0.00  0.00    -0.047 C 
ATOM     21  H   UNL     1     143.235 135.423  97.554  0.00  0.00    +0.000 HD
ATOM     22  H   UNL     1     143.979 133.934  97.631  0.00  0.00    +0.000 HD
ATOM     23  H   UNL     1     140.200 132.580  99.012  0.00  0.00    +0.000 HD
ATOM     24  H   UNL     1     142.711 130.943 100.847  0.00  0.00    +0.000 HD
ENDROOT
TORSDOF 0
ENDMDL
MODEL 4
REMARK VINA RESULT:    -3.956      3.144      3.835
REMARK INTER + INTRA:          -3.956
REMARK INTER:                  -3.956
REMARK INTRA:                   0.000
REMARK UNBOUND:                 0.000
REMARK  Name = /home/vital/Documents/PhD_2021/Malaria_codes/scripts/../data/pdbqt_ligands/ligand_77_temp.pdb
REMARK                            x       y       z     vdW  Elec       q    Type
REMARK                         _______ _______ _______ _____ _____    ______ ____
ROOT
ATOM      1  N   UNL     1     143.430 134.612  98.097  0.00  0.00    -0.213 NA
ATOM      2  O   UNL     1     142.136 133.994  98.379  0.00  0.00    -0.284 OA
ATOM      3  C   UNL     1     142.328 132.821  99.187  0.00  0.00    +0.133 C 
ATOM      4  N   UNL     1     141.045 132.197  99.382  0.00  0.00    -0.304 N 
ATOM      5  C   UNL     1     140.902 131.015 100.058  0.00  0.00    +0.131 C 
ATOM      6  N   UNL     1     141.887 130.519 100.770  0.00  0.00    -0.255 N 
ATOM      7  C   UNL     1     141.631 129.207 101.495  0.00  0.00    +0.110 C 
ATOM      8  C   UNL     1     142.743 128.189 101.286  0.00  0.00    -0.017 A 
ATOM      9  C   UNL     1     142.911 127.140 102.203  0.00  0.00    -0.055 A 
ATOM     10  C   UNL     1     143.914 126.185 102.018  0.00  0.00    -0.042 A 
ATOM     11  C   UNL     1     144.762 126.260 100.910  0.00  0.00    +0.059 A 
ATOM     12 CL   UNL     1     145.975 125.041 100.741  0.00  0.00    -0.082 Cl
ATOM     13  C   UNL     1     144.604 127.296  99.985  0.00  0.00    +0.060 A 
ATOM     14 CL   UNL     1     145.607 127.450  98.586  0.00  0.00    -0.082 Cl
ATOM     15  C   UNL     1     143.600 128.252 100.173  0.00  0.00    -0.036 A 
ATOM     16  C   UNL     1     140.211 128.666 101.153  0.00  0.00    +0.024 C 
ATOM     17  C   UNL     1     139.340 129.642 101.089  0.00  0.00    -0.103 C 
ATOM     18  C   UNL     1     139.559 130.241  99.947  0.00  0.00    +0.057 C 
ATOM     19  C   UNL     1     139.684 129.095  99.021  0.00  0.00    -0.043 C 
ATOM     20  C   UNL     1     140.112 128.082  99.795  0.00  0.00    -0.047 C 
ATOM     21  H   UNL     1     143.292 135.445  97.524  0.00  0.00    +0.000 HD
ATOM     22  H   UNL     1     144.022 133.949  97.597  0.00  0.00    +0.000 HD
ATOM     23  H   UNL     1     140.243 132.636  99.017  0.00  0.00    +0.000 HD
ATOM     24  H   UNL     1     142.755 130.978 100.832  0.00  0.00    +0.000 HD
ENDROOT
TORSDOF 0
ENDMDL
MODEL 5
REMARK VINA RESULT:    -3.849      3.991      6.054
REMARK INTER + INTRA:          -3.849
REMARK INTER:                  -3.849
REMARK INTRA:                   0.000
REMARK UNBOUND:                 0.000
REMARK  Name = /home/vital/Documents/PhD_2021/Malaria_codes/scripts/../data/pdbqt_ligands/ligand_77_temp.pdb
REMARK                            x       y       z     vdW  Elec       q    Type
REMARK                         _______ _______ _______ _____ _____    ______ ____
ROOT
ATOM      1  N   UNL     1     140.106 122.970  97.437  0.00  0.00    -0.213 NA
ATOM      2  O   UNL     1     139.347 124.217  97.520  0.00  0.00    -0.284 OA
ATOM      3  C   UNL     1     140.169 125.244  98.100  0.00  0.00    +0.133 C 
ATOM      4  N   UNL     1     139.370 126.434  98.235  0.00  0.00    -0.304 N 
ATOM      5  C   UNL     1     139.850 127.575  98.821  0.00  0.00    +0.131 C 
ATOM      6  N   UNL     1     141.131 127.723  99.064  0.00  0.00    -0.255 N 
ATOM      7  C   UNL     1     141.572 129.028  99.707  0.00  0.00    +0.110 C 
ATOM      8  C   UNL     1     142.504 128.819 100.892  0.00  0.00    -0.017 A 
ATOM      9  C   UNL     1     143.350 129.859 101.308  0.00  0.00    -0.055 A 
ATOM     10  C   UNL     1     144.198 129.693 102.406  0.00  0.00    -0.042 A 
ATOM     11  C   UNL     1     144.210 128.486 103.109  0.00  0.00    +0.059 A 
ATOM     12 CL   UNL     1     145.279 128.353 104.460  0.00  0.00    -0.082 Cl
ATOM     13  C   UNL     1     143.370 127.442 102.711  0.00  0.00    +0.060 A 
ATOM     14 CL   UNL     1     143.322 125.924 103.536  0.00  0.00    -0.082 Cl
ATOM     15  C   UNL     1     142.523 127.611 101.610  0.00  0.00    -0.036 A 
ATOM     16  C   UNL     1     140.336 129.920 100.028  0.00  0.00    +0.024 C 
ATOM     17  C   UNL     1     139.444 129.846  99.072  0.00  0.00    -0.103 C 
ATOM     18  C   UNL     1     138.849 128.691  99.228  0.00  0.00    +0.057 C 
ATOM     19  C   UNL     1     138.600 128.672 100.685  0.00  0.00    -0.043 C 
ATOM     20  C   UNL     1     139.562 129.456 101.203  0.00  0.00    -0.047 C 
ATOM     21  H   UNL     1     139.520 122.243  97.025  0.00  0.00    +0.000 HD
ATOM     22  H   UNL     1     140.394 122.686  98.373  0.00  0.00    +0.000 HD
ATOM     23  H   UNL     1     138.446 126.427  97.895  0.00  0.00    +0.000 HD
ATOM     24  H   UNL     1     141.780 127.017  98.840  0.00  0.00    +0.000 HD
ENDROOT
TORSDOF 0
ENDMDL
MODEL 6
REMARK VINA RESULT:    -3.827      2.375      2.660
REMARK INTER + INTRA:          -3.827
REMARK INTER:                  -3.827
REMARK INTRA:                   0.000
REMARK UNBOUND:                 0.000
REMARK  Name = /home/vital/Documents/PhD_2021/Malaria_codes/scripts/../data/pdbqt_ligands/ligand_77_temp.pdb
REMARK                            x       y       z     vdW  Elec       q    Type
REMARK                         _______ _______ _______ _____ _____    ______ ____
ROOT
ATOM      1  N   UNL     1     142.714 135.112  98.161  0.00  0.00    -0.213 NA
ATOM      2  O   UNL     1     141.773 134.380  99.006  0.00  0.00    -0.284 OA
ATOM      3  C   UNL     1     142.100 132.980  98.992  0.00  0.00    +0.133 C 
ATOM      4  N   UNL     1     141.112 132.282  99.772  0.00  0.00    -0.304 N 
ATOM      5  C   UNL     1     141.108 130.917  99.896  0.00  0.00    +0.131 C 
ATOM      6  N   UNL     1     142.140 130.201  99.517  0.00  0.00    -0.255 N 
ATOM      7  C   UNL     1     142.049 128.695  99.704  0.00  0.00    +0.110 C 
ATOM      8  C   UNL     1     142.459 127.918  98.460  0.00  0.00    -0.017 A 
ATOM      9  C   UNL     1     142.870 126.581  98.576  0.00  0.00    -0.055 A 
ATOM     10  C   UNL     1     143.232 125.846  97.444  0.00  0.00    -0.042 A 
ATOM     11  C   UNL     1     143.183 126.435  96.178  0.00  0.00    +0.059 A 
ATOM     12 CL   UNL     1     143.638 125.465  94.822  0.00  0.00    -0.082 Cl
ATOM     13  C   UNL     1     142.771 127.764  96.045  0.00  0.00    +0.060 A 
ATOM     14 CL   UNL     1     142.676 128.557  94.513  0.00  0.00    -0.082 Cl
ATOM     15  C   UNL     1     142.411 128.498  97.181  0.00  0.00    -0.036 A 
ATOM     16  C   UNL     1     140.647 128.300 100.258  0.00  0.00    +0.024 C 
ATOM     17  C   UNL     1     140.233 129.169 101.146  0.00  0.00    -0.103 C 
ATOM     18  C   UNL     1     139.844 130.217 100.467  0.00  0.00    +0.057 C 
ATOM     19  C   UNL     1     139.049 129.599  99.384  0.00  0.00    -0.043 C 
ATOM     20  C   UNL     1     139.570 128.367  99.243  0.00  0.00    -0.047 C 
ATOM     21  H   UNL     1     142.480 136.105  98.173  0.00  0.00    +0.000 HD
ATOM     22  H   UNL     1     142.656 134.760  97.205  0.00  0.00    +0.000 HD
ATOM     23  H   UNL     1     140.414 132.803 100.232  0.00  0.00    +0.000 HD
ATOM     24  H   UNL     1     142.940 130.622  99.127  0.00  0.00    +0.000 HD
ENDROOT
TORSDOF 0
ENDMDL
MODEL 7
REMARK VINA RESULT:    -3.712      2.327      2.412
REMARK INTER + INTRA:          -3.712
REMARK INTER:                  -3.712
REMARK INTRA:                   0.000
REMARK UNBOUND:                 0.000
REMARK  Name = /home/vital/Documents/PhD_2021/Malaria_codes/scripts/../data/pdbqt_ligands/ligand_77_temp.pdb
REMARK                            x       y       z     vdW  Elec       q    Type
REMARK                         _______ _______ _______ _____ _____    ______ ____
ROOT
ATOM      1  N   UNL     1     143.668 133.625  97.065  0.00  0.00    -0.213 NA
ATOM      2  O   UNL     1     142.651 133.238  98.041  0.00  0.00    -0.284 OA
ATOM      3  C   UNL     1     142.537 131.805  98.076  0.00  0.00    +0.133 C 
ATOM      4  N   UNL     1     141.479 131.462  98.989  0.00  0.00    -0.304 N 
ATOM      5  C   UNL     1     141.078 130.168  99.192  0.00  0.00    +0.131 C 
ATOM      6  N   UNL     1     141.797 129.161  98.755  0.00  0.00    -0.255 N 
ATOM      7  C   UNL     1     141.277 127.761  99.037  0.00  0.00    +0.110 C 
ATOM      8  C   UNL     1     141.292 126.865  97.806  0.00  0.00    -0.017 A 
ATOM      9  C   UNL     1     141.291 125.469  97.958  0.00  0.00    -0.055 A 
ATOM     10  C   UNL     1     141.286 124.631  96.840  0.00  0.00    -0.042 A 
ATOM     11  C   UNL     1     141.275 125.174  95.553  0.00  0.00    +0.059 A 
ATOM     12 CL   UNL     1     141.261 124.077  94.217  0.00  0.00    -0.082 Cl
ATOM     13  C   UNL     1     141.270 126.561  95.385  0.00  0.00    +0.060 A 
ATOM     14 CL   UNL     1     141.248 127.307  93.826  0.00  0.00    -0.082 Cl
ATOM     15  C   UNL     1     141.278 127.399  96.506  0.00  0.00    -0.036 A 
ATOM     16  C   UNL     1     139.894 127.828  99.749  0.00  0.00    +0.024 C 
ATOM     17  C   UNL     1     139.863 128.803 100.622  0.00  0.00    -0.103 C 
ATOM     18  C   UNL     1     139.734 129.902  99.925  0.00  0.00    +0.057 C 
ATOM     19  C   UNL     1     138.673 129.530  98.964  0.00  0.00    -0.043 C 
ATOM     20  C   UNL     1     138.780 128.195  98.844  0.00  0.00    -0.047 C 
ATOM     21  H   UNL     1     143.747 134.642  97.043  0.00  0.00    +0.000 HD
ATOM     22  H   UNL     1     143.400 133.284  96.142  0.00  0.00    +0.000 HD
ATOM     23  H   UNL     1     141.027 132.183  99.485  0.00  0.00    +0.000 HD
ATOM     24  H   UNL     1     142.637 129.307  98.264  0.00  0.00    +0.000 HD
ENDROOT
TORSDOF 0
ENDMDL
MODEL 8
REMARK VINA RESULT:    -3.597      4.906      6.780
REMARK INTER + INTRA:          -3.597
REMARK INTER:                  -3.597
REMARK INTRA:                   0.000
REMARK UNBOUND:                 0.000
REMARK  Name = /home/vital/Documents/PhD_2021/Malaria_codes/scripts/../data/pdbqt_ligands/ligand_77_temp.pdb
REMARK                            x       y       z     vdW  Elec       q    Type
REMARK                         _______ _______ _______ _____ _____    ______ ____
ROOT
ATOM      1  N   UNL     1     136.376 124.350 105.443  0.00  0.00    -0.213 NA
ATOM      2  O   UNL     1     137.699 123.767 105.229  0.00  0.00    -0.284 OA
ATOM      3  C   UNL     1     138.613 124.790 104.797  0.00  0.00    +0.133 C 
ATOM      4  N   UNL     1     139.883 124.169 104.523  0.00  0.00    -0.304 N 
ATOM      5  C   UNL     1     140.948 124.872 104.027  0.00  0.00    +0.131 C 
ATOM      6  N   UNL     1     140.943 126.184 104.007  0.00  0.00    -0.255 N 
ATOM      7  C   UNL     1     142.175 126.877 103.447  0.00  0.00    +0.110 C 
ATOM      8  C   UNL     1     141.836 127.966 102.440  0.00  0.00    -0.017 A 
ATOM      9  C   UNL     1     142.763 128.986 102.174  0.00  0.00    -0.055 A 
ATOM     10  C   UNL     1     142.476 129.984 101.239  0.00  0.00    -0.042 A 
ATOM     11  C   UNL     1     141.261 129.976 100.551  0.00  0.00    +0.059 A 
ATOM     12 CL   UNL     1     140.977 131.237  99.404  0.00  0.00    -0.082 Cl
ATOM     13  C   UNL     1     140.329 128.964 100.800  0.00  0.00    +0.060 A 
ATOM     14 CL   UNL     1     138.809 128.881  99.982  0.00  0.00    -0.082 Cl
ATOM     15  C   UNL     1     140.617 127.967 101.739  0.00  0.00    -0.036 A 
ATOM     16  C   UNL     1     143.195 125.826 102.916  0.00  0.00    +0.024 C 
ATOM     17  C   UNL     1     143.245 124.781 103.705  0.00  0.00    -0.103 C 
ATOM     18  C   UNL     1     142.163 124.091 103.451  0.00  0.00    +0.057 C 
ATOM     19  C   UNL     1     142.140 124.094 101.973  0.00  0.00    -0.043 C 
ATOM     20  C   UNL     1     142.797 125.215 101.627  0.00  0.00    -0.047 C 
ATOM     21  H   UNL     1     135.730 123.623 105.750  0.00  0.00    +0.000 HD
ATOM     22  H   UNL     1     136.040 124.759 104.572  0.00  0.00    +0.000 HD
ATOM     23  H   UNL     1     139.989 123.206 104.700  0.00  0.00    +0.000 HD
ATOM     24  H   UNL     1     140.173 126.698 104.341  0.00  0.00    +0.000 HD
ENDROOT
TORSDOF 0
ENDMDL
MODEL 9
REMARK VINA RESULT:    -3.595      4.185      5.572
REMARK INTER + INTRA:          -3.595
REMARK INTER:                  -3.595
REMARK INTRA:                   0.000
REMARK UNBOUND:                 0.000
REMARK  Name = /home/vital/Documents/PhD_2021/Malaria_codes/scripts/../data/pdbqt_ligands/ligand_77_temp.pdb
REMARK                            x       y       z     vdW  Elec       q    Type
REMARK                         _______ _______ _______ _____ _____    ______ ____
ROOT
ATOM      1  N   UNL     1     142.498 125.752  94.962  0.00  0.00    -0.213 NA
ATOM      2  O   UNL     1     141.635 126.837  95.423  0.00  0.00    -0.284 OA
ATOM      3  C   UNL     1     141.857 127.066  96.826  0.00  0.00    +0.133 C 
ATOM      4  N   UNL     1     140.941 128.088  97.262  0.00  0.00    -0.304 N 
ATOM      5  C   UNL     1     140.857 128.485  98.570  0.00  0.00    +0.131 C 
ATOM      6  N   UNL     1     141.772 128.134  99.443  0.00  0.00    -0.255 N 
ATOM      7  C   UNL     1     141.601 128.632 100.870  0.00  0.00    +0.110 C 
ATOM      8  C   UNL     1     141.775 127.531 101.906  0.00  0.00    -0.017 A 
ATOM      9  C   UNL     1     142.103 127.862 103.230  0.00  0.00    -0.055 A 
ATOM     10  C   UNL     1     142.249 126.867 104.199  0.00  0.00    -0.042 A 
ATOM     11  C   UNL     1     142.065 125.524 103.862  0.00  0.00    +0.059 A 
ATOM     12 CL   UNL     1     142.254 124.347 105.113  0.00  0.00    -0.082 Cl
ATOM     13  C   UNL     1     141.734 125.177 102.549  0.00  0.00    +0.060 A 
ATOM     14 CL   UNL     1     141.481 123.539 102.058  0.00  0.00    -0.082 Cl
ATOM     15  C   UNL     1     141.590 126.176 101.579  0.00  0.00    -0.036 A 
ATOM     16  C   UNL     1     140.267 129.423 101.012  0.00  0.00    +0.024 C 
ATOM     17  C   UNL     1     140.045 130.162  99.953  0.00  0.00    -0.103 C 
ATOM     18  C   UNL     1     139.639 129.338  99.022  0.00  0.00    +0.057 C 
ATOM     19  C   UNL     1     138.658 128.510  99.755  0.00  0.00    -0.043 C 
ATOM     20  C   UNL     1     139.065 128.557 101.036  0.00  0.00    -0.047 C 
ATOM     21  H   UNL     1     142.339 125.591  93.967  0.00  0.00    +0.000 HD
ATOM     22  H   UNL     1     142.281 124.902  95.483  0.00  0.00    +0.000 HD
ATOM     23  H   UNL     1     140.354 128.516  96.597  0.00  0.00    +0.000 HD
ATOM     24  H   UNL     1     142.537 127.572  99.185  0.00  0.00    +0.000 HD
ENDROOT
TORSDOF 0
ENDMDL
