MODEL 1
REMARK VINA RESULT:    -4.416      0.000      0.000
REMARK INTER + INTRA:          -4.416
REMARK INTER:                  -4.416
REMARK INTRA:                   0.000
REMARK UNBOUND:                 0.000
REMARK  Name = /home/vital/Documents/PhD_2021/Malaria_codes/scripts/../data/pdbqt_ligands/ligand_385_temp.pdb
REMARK                            x       y       z     vdW  Elec       q    Type
REMARK                         _______ _______ _______ _____ _____    ______ ____
ROOT
ATOM      1  C1  UNL     1     138.883 128.640 100.323  0.00  0.00    -0.062 C 
ATOM      2  C2  UNL     1     139.116 129.913 101.125  0.00  0.00    -0.037 C 
ATOM      3  C3  UNL     1     140.122 130.889 100.574  0.00  0.00    -0.084 C 
ATOM      4  C4  UNL     1     140.848 130.753  99.453  0.00  0.00    -0.058 C 
ATOM      5  C5  UNL     1     141.821 131.751  98.984  0.00  0.00    -0.022 A 
ATOM      6  C6  UNL     1     141.555 133.125  99.023  0.00  0.00    -0.013 A 
ATOM      7  C7  UNL     1     142.499 134.029  98.538  0.00  0.00    +0.117 A 
ATOM      8  O1  UNL     1     142.272 135.375  98.565  0.00  0.00    -0.507 OA
ATOM      9  C8  UNL     1     143.704 133.589  98.005  0.00  0.00    -0.020 A 
ATOM     10  C9  UNL     1     143.970 132.223  97.947  0.00  0.00    -0.058 A 
ATOM     11  C10 UNL     1     143.031 131.308  98.430  0.00  0.00    -0.054 A 
ATOM     12  H   UNL     1     141.470 135.708  98.917  0.00  0.00    +0.000 HD
ENDROOT
TORSDOF 0
ENDMDL
MODEL 2
REMARK VINA RESULT:    -4.320     17.150     18.146
REMARK INTER + INTRA:          -4.320
REMARK INTER:                  -4.320
REMARK INTRA:                   0.000
REMARK UNBOUND:                 0.000
REMARK  Name = /home/vital/Documents/PhD_2021/Malaria_codes/scripts/../data/pdbqt_ligands/ligand_385_temp.pdb
REMARK                            x       y       z     vdW  Elec       q    Type
REMARK                         _______ _______ _______ _____ _____    ______ ____
ROOT
ATOM      1  C1  UNL     1     125.671 134.919  85.968  0.00  0.00    -0.062 C 
ATOM      2  C2  UNL     1     126.897 134.289  85.322  0.00  0.00    -0.037 C 
ATOM      3  C3  UNL     1     127.650 133.273  86.139  0.00  0.00    -0.084 C 
ATOM      4  C4  UNL     1     127.362 132.867  87.387  0.00  0.00    -0.058 C 
ATOM      5  C5  UNL     1     128.155 131.872  88.126  0.00  0.00    -0.022 A 
ATOM      6  C6  UNL     1     128.638 130.707  87.518  0.00  0.00    -0.013 A 
ATOM      7  C7  UNL     1     129.359 129.780  88.270  0.00  0.00    +0.117 A 
ATOM      8  O1  UNL     1     129.847 128.636  87.708  0.00  0.00    -0.507 OA
ATOM      9  C8  UNL     1     129.600 129.988  89.622  0.00  0.00    -0.020 A 
ATOM     10  C9  UNL     1     129.109 131.137  90.238  0.00  0.00    -0.058 A 
ATOM     11  C10 UNL     1     128.385 132.072  89.495  0.00  0.00    -0.054 A 
ATOM     12  H   UNL     1     129.703 128.463  86.799  0.00  0.00    +0.000 HD
ENDROOT
TORSDOF 0
ENDMDL
MODEL 3
REMARK VINA RESULT:    -4.242     18.883     19.563
REMARK INTER + INTRA:          -4.242
REMARK INTER:                  -4.242
REMARK INTRA:                   0.000
REMARK UNBOUND:                 0.000
REMARK  Name = /home/vital/Documents/PhD_2021/Malaria_codes/scripts/../data/pdbqt_ligands/ligand_385_temp.pdb
REMARK                            x       y       z     vdW  Elec       q    Type
REMARK                         _______ _______ _______ _____ _____    ______ ____
ROOT
ATOM      1  C1  UNL     1     130.352 130.590  87.900  0.00  0.00    -0.062 C 
ATOM      2  C2  UNL     1     129.048 130.705  88.679  0.00  0.00    -0.037 C 
ATOM      3  C3  UNL     1     128.036 131.695  88.167  0.00  0.00    -0.084 C 
ATOM      4  C4  UNL     1     128.162 132.500  87.100  0.00  0.00    -0.058 C 
ATOM      5  C5  UNL     1     127.127 133.452  86.668  0.00  0.00    -0.022 A 
ATOM      6  C6  UNL     1     125.768 133.115  86.651  0.00  0.00    -0.013 A 
ATOM      7  C7  UNL     1     124.829 134.043  86.203  0.00  0.00    +0.117 A 
ATOM      8  O1  UNL     1     123.496 133.748  86.177  0.00  0.00    -0.507 OA
ATOM      9  C8  UNL     1     125.220 135.301  85.762  0.00  0.00    -0.020 A 
ATOM     10  C9  UNL     1     126.571 135.639  85.760  0.00  0.00    -0.058 A 
ATOM     11  C10 UNL     1     127.521 134.717  86.206  0.00  0.00    -0.054 A 
ATOM     12  H   UNL     1     123.197 132.910  86.467  0.00  0.00    +0.000 HD
ENDROOT
TORSDOF 0
ENDMDL
MODEL 4
REMARK VINA RESULT:    -4.136     18.352     19.218
REMARK INTER + INTRA:          -4.136
REMARK INTER:                  -4.136
REMARK INTRA:                   0.000
REMARK UNBOUND:                 0.000
REMARK  Name = /home/vital/Documents/PhD_2021/Malaria_codes/scripts/../data/pdbqt_ligands/ligand_385_temp.pdb
REMARK                            x       y       z     vdW  Elec       q    Type
REMARK                         _______ _______ _______ _____ _____    ______ ____
ROOT
ATOM      1  C1  UNL     1     129.185 129.821  89.879  0.00  0.00    -0.062 C 
ATOM      2  C2  UNL     1     129.752 130.382  88.582  0.00  0.00    -0.037 C 
ATOM      3  C3  UNL     1     128.843 131.268  87.770  0.00  0.00    -0.084 C 
ATOM      4  C4  UNL     1     127.578 131.609  88.061  0.00  0.00    -0.058 C 
ATOM      5  C5  UNL     1     126.748 132.474  87.209  0.00  0.00    -0.022 A 
ATOM      6  C6  UNL     1     127.257 133.632  86.607  0.00  0.00    -0.013 A 
ATOM      7  C7  UNL     1     126.422 134.436  85.832  0.00  0.00    +0.117 A 
ATOM      8  O1  UNL     1     126.886 135.568  85.228  0.00  0.00    -0.507 OA
ATOM      9  C8  UNL     1     125.082 134.113  85.654  0.00  0.00    -0.020 A 
ATOM     10  C9  UNL     1     124.564 132.972  86.262  0.00  0.00    -0.058 A 
ATOM     11  C10 UNL     1     125.392 132.160  87.041  0.00  0.00    -0.054 A 
ATOM     12  H   UNL     1     127.784 135.817  85.328  0.00  0.00    +0.000 HD
ENDROOT
TORSDOF 0
ENDMDL
MODEL 5
REMARK VINA RESULT:    -4.067      2.684      5.330
REMARK INTER + INTRA:          -4.067
REMARK INTER:                  -4.067
REMARK INTRA:                   0.000
REMARK UNBOUND:                 0.000
REMARK  Name = /home/vital/Documents/PhD_2021/Malaria_codes/scripts/../data/pdbqt_ligands/ligand_385_temp.pdb
REMARK                            x       y       z     vdW  Elec       q    Type
REMARK                         _______ _______ _______ _____ _____    ______ ____
ROOT
ATOM      1  C1  UNL     1     143.802 133.363  98.690  0.00  0.00    -0.062 C 
ATOM      2  C2  UNL     1     142.336 133.671  98.961  0.00  0.00    -0.037 C 
ATOM      3  C3  UNL     1     141.420 132.492  99.162  0.00  0.00    -0.084 C 
ATOM      4  C4  UNL     1     141.755 131.193  99.116  0.00  0.00    -0.058 C 
ATOM      5  C5  UNL     1     140.796 130.095  99.313  0.00  0.00    -0.022 A 
ATOM      6  C6  UNL     1     139.817 130.134 100.314  0.00  0.00    -0.013 A 
ATOM      7  C7  UNL     1     138.951 129.054 100.480  0.00  0.00    +0.117 A 
ATOM      8  O1  UNL     1     137.983 129.061 101.443  0.00  0.00    -0.507 OA
ATOM      9  C8  UNL     1     139.049 127.928  99.672  0.00  0.00    -0.020 A 
ATOM     10  C9  UNL     1     140.030 127.874  98.685  0.00  0.00    -0.058 A 
ATOM     11  C10 UNL     1     140.903 128.950  98.510  0.00  0.00    -0.054 A 
ATOM     12  H   UNL     1     137.889 129.804 102.006  0.00  0.00    +0.000 HD
ENDROOT
TORSDOF 0
ENDMDL
MODEL 6
REMARK VINA RESULT:    -4.049      1.582      2.240
REMARK INTER + INTRA:          -4.049
REMARK INTER:                  -4.049
REMARK INTRA:                   0.000
REMARK UNBOUND:                 0.000
REMARK  Name = /home/vital/Documents/PhD_2021/Malaria_codes/scripts/../data/pdbqt_ligands/ligand_385_temp.pdb
REMARK                            x       y       z     vdW  Elec       q    Type
REMARK                         _______ _______ _______ _____ _____    ______ ____
ROOT
ATOM      1  C1  UNL     1     138.330 128.945 101.074  0.00  0.00    -0.062 C 
ATOM      2  C2  UNL     1     138.848 128.658  99.672  0.00  0.00    -0.037 C 
ATOM      3  C3  UNL     1     139.880 129.606  99.121  0.00  0.00    -0.084 C 
ATOM      4  C4  UNL     1     140.389 130.688  99.732  0.00  0.00    -0.058 C 
ATOM      5  C5  UNL     1     141.392 131.574  99.122  0.00  0.00    -0.022 A 
ATOM      6  C6  UNL     1     142.485 131.075  98.401  0.00  0.00    -0.013 A 
ATOM      7  C7  UNL     1     143.426 131.955  97.868  0.00  0.00    +0.117 A 
ATOM      8  O1  UNL     1     144.499 131.502  97.158  0.00  0.00    -0.507 OA
ATOM      9  C8  UNL     1     143.303 133.327  98.048  0.00  0.00    -0.020 A 
ATOM     10  C9  UNL     1     142.229 133.832  98.777  0.00  0.00    -0.058 A 
ATOM     11  C10 UNL     1     141.280 132.958  99.316  0.00  0.00    -0.054 A 
ATOM     12  H   UNL     1     144.614 130.583  97.018  0.00  0.00    +0.000 HD
ENDROOT
TORSDOF 0
ENDMDL
MODEL 7
REMARK VINA RESULT:    -3.736      3.476      4.016
REMARK INTER + INTRA:          -3.736
REMARK INTER:                  -3.736
REMARK INTRA:                   0.000
REMARK UNBOUND:                 0.000
REMARK  Name = /home/vital/Documents/PhD_2021/Malaria_codes/scripts/../data/pdbqt_ligands/ligand_385_temp.pdb
REMARK                            x       y       z     vdW  Elec       q    Type
REMARK                         _______ _______ _______ _____ _____    ______ ____
ROOT
ATOM      1  C1  UNL     1     138.315 127.563  98.102  0.00  0.00    -0.062 C 
ATOM      2  C2  UNL     1     138.197 128.415  99.359  0.00  0.00    -0.037 C 
ATOM      3  C3  UNL     1     139.481 128.764 100.065  0.00  0.00    -0.084 C 
ATOM      4  C4  UNL     1     140.723 128.396  99.712  0.00  0.00    -0.058 C 
ATOM      5  C5  UNL     1     141.931 128.771 100.463  0.00  0.00    -0.022 A 
ATOM      6  C6  UNL     1     142.117 130.062 100.974  0.00  0.00    -0.013 A 
ATOM      7  C7  UNL     1     143.294 130.376 101.652  0.00  0.00    +0.117 A 
ATOM      8  O1  UNL     1     143.506 131.623 102.166  0.00  0.00    -0.507 OA
ATOM      9  C8  UNL     1     144.296 129.429 101.824  0.00  0.00    -0.020 A 
ATOM     10  C9  UNL     1     144.126 128.147 101.305  0.00  0.00    -0.058 A 
ATOM     11  C10 UNL     1     142.951 127.822 100.623  0.00  0.00    -0.054 A 
ATOM     12  H   UNL     1     142.853 132.286 102.068  0.00  0.00    +0.000 HD
ENDROOT
TORSDOF 0
ENDMDL
MODEL 8
REMARK VINA RESULT:    -3.588      3.024      5.086
REMARK INTER + INTRA:          -3.588
REMARK INTER:                  -3.588
REMARK INTRA:                   0.000
REMARK UNBOUND:                 0.000
REMARK  Name = /home/vital/Documents/PhD_2021/Malaria_codes/scripts/../data/pdbqt_ligands/ligand_385_temp.pdb
REMARK                            x       y       z     vdW  Elec       q    Type
REMARK                         _______ _______ _______ _____ _____    ______ ____
ROOT
ATOM      1  C1  UNL     1     140.294 123.774  98.136  0.00  0.00    -0.062 C 
ATOM      2  C2  UNL     1     140.271 124.913  97.125  0.00  0.00    -0.037 C 
ATOM      3  C3  UNL     1     140.184 126.311  97.678  0.00  0.00    -0.084 C 
ATOM      4  C4  UNL     1     140.112 126.665  98.971  0.00  0.00    -0.058 C 
ATOM      5  C5  UNL     1     140.019 128.058  99.433  0.00  0.00    -0.022 A 
ATOM      6  C6  UNL     1     140.790 129.082  98.868  0.00  0.00    -0.013 A 
ATOM      7  C7  UNL     1     140.687 130.381  99.362  0.00  0.00    +0.117 A 
ATOM      8  O1  UNL     1     141.421 131.402  98.832  0.00  0.00    -0.507 OA
ATOM      9  C8  UNL     1     139.835 130.680 100.418  0.00  0.00    -0.020 A 
ATOM     10  C9  UNL     1     139.077 129.665 100.997  0.00  0.00    -0.058 A 
ATOM     11  C10 UNL     1     139.172 128.359 100.510  0.00  0.00    -0.054 A 
ATOM     12  H   UNL     1     142.005 131.238  98.119  0.00  0.00    +0.000 HD
ENDROOT
TORSDOF 0
ENDMDL
MODEL 9
REMARK VINA RESULT:    -3.547      5.013      6.387
REMARK INTER + INTRA:          -3.547
REMARK INTER:                  -3.547
REMARK INTRA:                   0.000
REMARK UNBOUND:                 0.000
REMARK  Name = /home/vital/Documents/PhD_2021/Malaria_codes/scripts/../data/pdbqt_ligands/ligand_385_temp.pdb
REMARK                            x       y       z     vdW  Elec       q    Type
REMARK                         _______ _______ _______ _____ _____    ______ ____
ROOT
ATOM      1  C1  UNL     1     141.346 125.370  95.033  0.00  0.00    -0.062 C 
ATOM      2  C2  UNL     1     142.201 126.368  95.803  0.00  0.00    -0.037 C 
ATOM      3  C3  UNL     1     141.569 127.018  97.005  0.00  0.00    -0.084 C 
ATOM      4  C4  UNL     1     140.325 126.822  97.469  0.00  0.00    -0.058 C 
ATOM      5  C5  UNL     1     139.775 127.505  98.650  0.00  0.00    -0.022 A 
ATOM      6  C6  UNL     1     140.524 127.685  99.820  0.00  0.00    -0.013 A 
ATOM      7  C7  UNL     1     139.947 128.313 100.923  0.00  0.00    +0.117 A 
ATOM      8  O1  UNL     1     140.649 128.507 102.077  0.00  0.00    -0.507 OA
ATOM      9  C8  UNL     1     138.631 128.757 100.886  0.00  0.00    -0.020 A 
ATOM     10  C9  UNL     1     137.874 128.568  99.732  0.00  0.00    -0.058 A 
ATOM     11  C10 UNL     1     138.442 127.940  98.621  0.00  0.00    -0.054 A 
ATOM     12  H   UNL     1     141.538 128.220 102.138  0.00  0.00    +0.000 HD
ENDROOT
TORSDOF 0
ENDMDL
