MODEL 1
REMARK VINA RESULT:    -4.571      0.000      0.000
REMARK INTER + INTRA:          -4.571
REMARK INTER:                  -4.571
REMARK INTRA:                   0.000
REMARK UNBOUND:                 0.000
REMARK  Name = /home/vital/Documents/PhD_2021/Malaria_codes/scripts/../data/pdbqt_ligands/ligand_423_temp.pdb
REMARK                            x       y       z     vdW  Elec       q    Type
REMARK                         _______ _______ _______ _____ _____    ______ ____
ROOT
ATOM      1  C1  UNL     1     135.504 125.341  89.223  0.00  0.00    -0.116 C 
ATOM      2  C2  UNL     1     135.939 125.849  88.225  0.00  0.00    -0.062 C 
ATOM      3  C3  UNL     1     136.481 126.478  87.003  0.00  0.00    +0.160 C 
ATOM      4  C4  UNL     1     135.743 125.969  85.752  0.00  0.00    -0.007 C 
ATOM      5  C5  UNL     1     134.273 126.372  85.678  0.00  0.00    -0.061 C 
ATOM      6  O1  UNL     1     136.334 127.903  87.054  0.00  0.00    -0.476 OA
ATOM      7  C6  UNL     1     137.305 128.645  87.666  0.00  0.00    +0.122 A 
ATOM      8  C7  UNL     1     138.320 128.160  88.488  0.00  0.00    -0.020 A 
ATOM      9  C8  UNL     1     139.249 129.041  89.055  0.00  0.00    -0.052 A 
ATOM     10  C9  UNL     1     139.170 130.422  88.820  0.00  0.00    -0.007 A 
ATOM     11  C10 UNL     1     140.187 131.384  89.407  0.00  0.00    +0.132 C 
ATOM     12  C11 UNL     1     141.458 131.395  88.567  0.00  0.00    +0.052 C 
ATOM     13  C12 UNL     1     142.416 132.376  89.179  0.00  0.00    +0.170 C 
ATOM     14  O2  UNL     1     143.233 133.003  88.513  0.00  0.00    -0.292 OA
ATOM     15  C13 UNL     1     142.376 132.502  90.649  0.00  0.00    +0.059 A 
ATOM     16  C14 UNL     1     143.308 133.295  91.324  0.00  0.00    -0.048 A 
ATOM     17  C15 UNL     1     143.280 133.355  92.717  0.00  0.00    -0.061 A 
ATOM     18  C16 UNL     1     142.331 132.620  93.430  0.00  0.00    -0.058 A 
ATOM     19  C17 UNL     1     141.401 131.830  92.751  0.00  0.00    -0.019 A 
ATOM     20  C18 UNL     1     141.412 131.783  91.358  0.00  0.00    +0.132 A 
ATOM     21  O3  UNL     1     140.467 130.992  90.761  0.00  0.00    -0.483 OA
ATOM     22  C19 UNL     1     138.142 130.902  87.998  0.00  0.00    -0.052 A 
ATOM     23  C20 UNL     1     137.218 130.019  87.433  0.00  0.00    -0.020 A 
ENDROOT
TORSDOF 0
ENDMDL
MODEL 2
REMARK VINA RESULT:    -4.485     13.294     16.603
REMARK INTER + INTRA:          -4.485
REMARK INTER:                  -4.485
REMARK INTRA:                   0.000
REMARK UNBOUND:                 0.000
REMARK  Name = /home/vital/Documents/PhD_2021/Malaria_codes/scripts/../data/pdbqt_ligands/ligand_423_temp.pdb
REMARK                            x       y       z     vdW  Elec       q    Type
REMARK                         _______ _______ _______ _____ _____    ______ ____
ROOT
ATOM      1  C1  UNL     1     139.040 123.247 108.507  0.00  0.00    -0.116 C 
ATOM      2  C2  UNL     1     140.209 123.520 108.442  0.00  0.00    -0.062 C 
ATOM      3  C3  UNL     1     141.643 123.862 108.355  0.00  0.00    +0.160 C 
ATOM      4  C4  UNL     1     142.462 123.054 109.379  0.00  0.00    -0.007 C 
ATOM      5  C5  UNL     1     142.488 121.550 109.122  0.00  0.00    -0.061 C 
ATOM      6  O1  UNL     1     142.159 123.571 107.050  0.00  0.00    -0.476 OA
ATOM      7  C6  UNL     1     142.045 124.517 106.070  0.00  0.00    +0.122 A 
ATOM      8  C7  UNL     1     141.247 125.658 106.112  0.00  0.00    -0.020 A 
ATOM      9  C8  UNL     1     141.225 126.543 105.027  0.00  0.00    -0.052 A 
ATOM     10  C9  UNL     1     141.990 126.295 103.877  0.00  0.00    -0.007 A 
ATOM     11  C10 UNL     1     141.995 127.260 102.706  0.00  0.00    +0.132 C 
ATOM     12  C11 UNL     1     142.933 128.428 102.982  0.00  0.00    +0.052 C 
ATOM     13  C12 UNL     1     142.916 129.336 101.786  0.00  0.00    +0.170 C 
ATOM     14  O2  UNL     1     143.887 130.008 101.453  0.00  0.00    -0.292 OA
ATOM     15  C13 UNL     1     141.635 129.436 101.058  0.00  0.00    +0.059 A 
ATOM     16  C14 UNL     1     141.480 130.345 100.007  0.00  0.00    -0.048 A 
ATOM     17  C15 UNL     1     140.244 130.457  99.371  0.00  0.00    -0.061 A 
ATOM     18  C16 UNL     1     139.168 129.670  99.789  0.00  0.00    -0.058 A 
ATOM     19  C17 UNL     1     139.329 128.763 100.838  0.00  0.00    -0.019 A 
ATOM     20  C18 UNL     1     140.568 128.634 101.463  0.00  0.00    +0.132 A 
ATOM     21  O3  UNL     1     140.652 127.720 102.480  0.00  0.00    -0.483 OA
ATOM     22  C19 UNL     1     142.784 125.141 103.841  0.00  0.00    -0.052 A 
ATOM     23  C20 UNL     1     142.805 124.261 104.926  0.00  0.00    -0.020 A 
ENDROOT
TORSDOF 0
ENDMDL
MODEL 3
REMARK VINA RESULT:    -4.272      9.913     13.684
REMARK INTER + INTRA:          -4.272
REMARK INTER:                  -4.272
REMARK INTRA:                   0.000
REMARK UNBOUND:                 0.000
REMARK  Name = /home/vital/Documents/PhD_2021/Malaria_codes/scripts/../data/pdbqt_ligands/ligand_423_temp.pdb
REMARK                            x       y       z     vdW  Elec       q    Type
REMARK                         _______ _______ _______ _____ _____    ______ ____
ROOT
ATOM      1  C1  UNL     1     141.031 123.467 103.613  0.00  0.00    -0.116 C 
ATOM      2  C2  UNL     1     141.017 124.516 104.198  0.00  0.00    -0.062 C 
ATOM      3  C3  UNL     1     141.000 125.811 104.909  0.00  0.00    +0.160 C 
ATOM      4  C4  UNL     1     140.835 125.602 106.425  0.00  0.00    -0.007 C 
ATOM      5  C5  UNL     1     142.010 124.898 107.097  0.00  0.00    -0.061 C 
ATOM      6  O1  UNL     1     142.222 126.528 104.693  0.00  0.00    -0.476 OA
ATOM      7  C6  UNL     1     142.333 127.324 103.588  0.00  0.00    +0.122 A 
ATOM      8  C7  UNL     1     141.481 127.332 102.486  0.00  0.00    -0.020 A 
ATOM      9  C8  UNL     1     141.720 128.204 101.416  0.00  0.00    -0.052 A 
ATOM     10  C9  UNL     1     142.822 129.072 101.425  0.00  0.00    -0.007 A 
ATOM     11  C10 UNL     1     143.076 130.041 100.284  0.00  0.00    +0.132 C 
ATOM     12  C11 UNL     1     142.200 131.278 100.430  0.00  0.00    +0.052 C 
ATOM     13  C12 UNL     1     142.507 132.207  99.291  0.00  0.00    +0.170 C 
ATOM     14  O2  UNL     1     142.416 133.427  99.391  0.00  0.00    -0.292 OA
ATOM     15  C13 UNL     1     142.865 131.573  98.006  0.00  0.00    +0.059 A 
ATOM     16  C14 UNL     1     143.050 132.346  96.856  0.00  0.00    -0.048 A 
ATOM     17  C15 UNL     1     143.335 131.717  95.644  0.00  0.00    -0.061 A 
ATOM     18  C16 UNL     1     143.427 130.325  95.583  0.00  0.00    -0.058 A 
ATOM     19  C17 UNL     1     143.244 129.559  96.735  0.00  0.00    -0.019 A 
ATOM     20  C18 UNL     1     142.978 130.184  97.952  0.00  0.00    +0.132 A 
ATOM     21  O3  UNL     1     142.816 129.368  99.040  0.00  0.00    -0.483 OA
ATOM     22  C19 UNL     1     143.678 129.053 102.534  0.00  0.00    -0.052 A 
ATOM     23  C20 UNL     1     143.435 128.182 103.600  0.00  0.00    -0.020 A 
ENDROOT
TORSDOF 0
ENDMDL
MODEL 4
REMARK VINA RESULT:    -4.104      4.489     11.057
REMARK INTER + INTRA:          -4.104
REMARK INTER:                  -4.104
REMARK INTRA:                   0.000
REMARK UNBOUND:                 0.000
REMARK  Name = /home/vital/Documents/PhD_2021/Malaria_codes/scripts/../data/pdbqt_ligands/ligand_423_temp.pdb
REMARK                            x       y       z     vdW  Elec       q    Type
REMARK                         _______ _______ _______ _____ _____    ______ ____
ROOT
ATOM      1  C1  UNL     1     141.633 123.986  89.607  0.00  0.00    -0.116 C 
ATOM      2  C2  UNL     1     140.830 124.621  90.236  0.00  0.00    -0.062 C 
ATOM      3  C3  UNL     1     139.836 125.396  91.006  0.00  0.00    +0.160 C 
ATOM      4  C4  UNL     1     140.531 126.415  91.928  0.00  0.00    -0.007 C 
ATOM      5  C5  UNL     1     141.281 127.522  91.194  0.00  0.00    -0.061 C 
ATOM      6  O1  UNL     1     138.961 126.118  90.130  0.00  0.00    -0.476 OA
ATOM      7  C6  UNL     1     137.849 125.490  89.644  0.00  0.00    +0.122 A 
ATOM      8  C7  UNL     1     137.584 124.124  89.693  0.00  0.00    -0.020 A 
ATOM      9  C8  UNL     1     136.399 123.615  89.147  0.00  0.00    -0.052 A 
ATOM     10  C9  UNL     1     135.465 124.463  88.533  0.00  0.00    -0.007 A 
ATOM     11  C10 UNL     1     134.164 123.928  87.963  0.00  0.00    +0.132 C 
ATOM     12  C11 UNL     1     133.138 123.732  89.071  0.00  0.00    +0.052 C 
ATOM     13  C12 UNL     1     131.868 123.223  88.449  0.00  0.00    +0.170 C 
ATOM     14  O2  UNL     1     130.760 123.471  88.914  0.00  0.00    -0.292 OA
ATOM     15  C13 UNL     1     132.021 122.343  87.274  0.00  0.00    +0.059 A 
ATOM     16  C14 UNL     1     130.909 121.721  86.698  0.00  0.00    -0.048 A 
ATOM     17  C15 UNL     1     131.088 120.852  85.622  0.00  0.00    -0.061 A 
ATOM     18  C16 UNL     1     132.371 120.601  85.130  0.00  0.00    -0.058 A 
ATOM     19  C17 UNL     1     133.478 121.227  85.708  0.00  0.00    -0.019 A 
ATOM     20  C18 UNL     1     133.302 122.111  86.770  0.00  0.00    +0.132 A 
ATOM     21  O3  UNL     1     134.432 122.691  87.282  0.00  0.00    -0.483 OA
ATOM     22  C19 UNL     1     135.743 125.836  88.482  0.00  0.00    -0.052 A 
ATOM     23  C20 UNL     1     136.926 126.339  89.029  0.00  0.00    -0.020 A 
ENDROOT
TORSDOF 0
ENDMDL
MODEL 5
REMARK VINA RESULT:    -4.102     12.037     14.862
REMARK INTER + INTRA:          -4.102
REMARK INTER:                  -4.102
REMARK INTRA:                   0.000
REMARK UNBOUND:                 0.000
REMARK  Name = /home/vital/Documents/PhD_2021/Malaria_codes/scripts/../data/pdbqt_ligands/ligand_423_temp.pdb
REMARK                            x       y       z     vdW  Elec       q    Type
REMARK                         _______ _______ _______ _____ _____    ______ ____
ROOT
ATOM      1  C1  UNL     1     137.211 123.477 105.281  0.00  0.00    -0.116 C 
ATOM      2  C2  UNL     1     138.388 123.369 105.496  0.00  0.00    -0.062 C 
ATOM      3  C3  UNL     1     139.837 123.246 105.757  0.00  0.00    +0.160 C 
ATOM      4  C4  UNL     1     140.147 121.947 106.523  0.00  0.00    -0.007 C 
ATOM      5  C5  UNL     1     139.866 120.669 105.740  0.00  0.00    -0.061 C 
ATOM      6  O1  UNL     1     140.577 123.221 104.529  0.00  0.00    -0.476 OA
ATOM      7  C6  UNL     1     140.949 124.405 103.958  0.00  0.00    +0.122 A 
ATOM      8  C7  UNL     1     140.473 125.670 104.296  0.00  0.00    -0.020 A 
ATOM      9  C8  UNL     1     140.942 126.804 103.620  0.00  0.00    -0.052 A 
ATOM     10  C9  UNL     1     141.886 126.689 102.588  0.00  0.00    -0.007 A 
ATOM     11  C10 UNL     1     142.423 127.912 101.868  0.00  0.00    +0.132 C 
ATOM     12  C11 UNL     1     143.520 128.576 102.690  0.00  0.00    +0.052 C 
ATOM     13  C12 UNL     1     144.028 129.763 101.922  0.00  0.00    +0.170 C 
ATOM     14  O2  UNL     1     145.186 130.159 102.008  0.00  0.00    -0.292 OA
ATOM     15  C13 UNL     1     143.036 130.484 101.098  0.00  0.00    +0.059 A 
ATOM     16  C14 UNL     1     143.380 131.670 100.443  0.00  0.00    -0.048 A 
ATOM     17  C15 UNL     1     142.410 132.359  99.715  0.00  0.00    -0.061 A 
ATOM     18  C16 UNL     1     141.104 131.868  99.649  0.00  0.00    -0.058 A 
ATOM     19  C17 UNL     1     140.767 130.681 100.304  0.00  0.00    -0.019 A 
ATOM     20  C18 UNL     1     141.738 129.980 101.016  0.00  0.00    +0.132 A 
ATOM     21  O3  UNL     1     141.336 128.822 101.627  0.00  0.00    -0.483 OA
ATOM     22  C19 UNL     1     142.355 125.413 102.251  0.00  0.00    -0.052 A 
ATOM     23  C20 UNL     1     141.884 124.285 102.929  0.00  0.00    -0.020 A 
ENDROOT
TORSDOF 0
ENDMDL
MODEL 6
REMARK VINA RESULT:    -3.808      2.187      8.046
REMARK INTER + INTRA:          -3.808
REMARK INTER:                  -3.808
REMARK INTRA:                   0.000
REMARK UNBOUND:                 0.000
REMARK  Name = /home/vital/Documents/PhD_2021/Malaria_codes/scripts/../data/pdbqt_ligands/ligand_423_temp.pdb
REMARK                            x       y       z     vdW  Elec       q    Type
REMARK                         _______ _______ _______ _____ _____    ______ ____
ROOT
ATOM      1  C1  UNL     1     143.331 133.452  90.796  0.00  0.00    -0.116 C 
ATOM      2  C2  UNL     1     142.473 133.625  89.973  0.00  0.00    -0.062 C 
ATOM      3  C3  UNL     1     141.413 133.828  88.964  0.00  0.00    +0.160 C 
ATOM      4  C4  UNL     1     141.562 135.202  88.284  0.00  0.00    -0.007 C 
ATOM      5  C5  UNL     1     142.824 135.356  87.440  0.00  0.00    -0.061 C 
ATOM      6  O1  UNL     1     141.479 132.822  87.945  0.00  0.00    -0.476 OA
ATOM      7  C6  UNL     1     140.829 131.637  88.146  0.00  0.00    +0.122 A 
ATOM      8  C7  UNL     1     140.307 131.175  89.351  0.00  0.00    -0.020 A 
ATOM      9  C8  UNL     1     139.666 129.931  89.412  0.00  0.00    -0.052 A 
ATOM     10  C9  UNL     1     139.548 129.124  88.271  0.00  0.00    -0.007 A 
ATOM     11  C10 UNL     1     138.831 127.787  88.318  0.00  0.00    +0.132 C 
ATOM     12  C11 UNL     1     137.324 127.987  88.235  0.00  0.00    +0.052 C 
ATOM     13  C12 UNL     1     136.669 126.635  88.263  0.00  0.00    +0.170 C 
ATOM     14  O2  UNL     1     135.606 126.404  87.696  0.00  0.00    -0.292 OA
ATOM     15  C13 UNL     1     137.340 125.599  89.074  0.00  0.00    +0.059 A 
ATOM     16  C14 UNL     1     136.749 124.347  89.264  0.00  0.00    -0.048 A 
ATOM     17  C15 UNL     1     137.378 123.405  90.078  0.00  0.00    -0.061 A 
ATOM     18  C16 UNL     1     138.587 123.717  90.703  0.00  0.00    -0.058 A 
ATOM     19  C17 UNL     1     139.175 124.969  90.508  0.00  0.00    -0.019 A 
ATOM     20  C18 UNL     1     138.559 125.906  89.680  0.00  0.00    +0.132 A 
ATOM     21  O3  UNL     1     139.196 127.109  89.532  0.00  0.00    -0.483 OA
ATOM     22  C19 UNL     1     140.082 129.593  87.063  0.00  0.00    -0.052 A 
ATOM     23  C20 UNL     1     140.720 130.835  87.007  0.00  0.00    -0.020 A 
ENDROOT
TORSDOF 0
ENDMDL
MODEL 7
REMARK VINA RESULT:    -3.718     12.637     16.548
REMARK INTER + INTRA:          -3.718
REMARK INTER:                  -3.718
REMARK INTRA:                   0.000
REMARK UNBOUND:                 0.000
REMARK  Name = /home/vital/Documents/PhD_2021/Malaria_codes/scripts/../data/pdbqt_ligands/ligand_423_temp.pdb
REMARK                            x       y       z     vdW  Elec       q    Type
REMARK                         _______ _______ _______ _____ _____    ______ ____
ROOT
ATOM      1  C1  UNL     1     141.614 131.629 100.184  0.00  0.00    -0.116 C 
ATOM      2  C2  UNL     1     142.515 130.846 100.319  0.00  0.00    -0.062 C 
ATOM      3  C3  UNL     1     143.616 129.876 100.489  0.00  0.00    +0.160 C 
ATOM      4  C4  UNL     1     144.948 130.466  99.990  0.00  0.00    -0.007 C 
ATOM      5  C5  UNL     1     145.456 131.654 100.802  0.00  0.00    -0.061 C 
ATOM      6  O1  UNL     1     143.779 129.525 101.870  0.00  0.00    -0.476 OA
ATOM      7  C6  UNL     1     143.026 128.508 102.385  0.00  0.00    +0.122 A 
ATOM      8  C7  UNL     1     141.913 127.920 101.789  0.00  0.00    -0.020 A 
ATOM      9  C8  UNL     1     141.230 126.884 102.437  0.00  0.00    -0.052 A 
ATOM     10  C9  UNL     1     141.643 126.426 103.698  0.00  0.00    -0.007 A 
ATOM     11  C10 UNL     1     140.929 125.284 104.398  0.00  0.00    +0.132 C 
ATOM     12  C11 UNL     1     141.397 123.944 103.846  0.00  0.00    +0.052 C 
ATOM     13  C12 UNL     1     140.676 122.854 104.587  0.00  0.00    +0.170 C 
ATOM     14  O2  UNL     1     141.173 121.750 104.785  0.00  0.00    -0.292 OA
ATOM     15  C13 UNL     1     139.295 123.155 105.016  0.00  0.00    +0.059 A 
ATOM     16  C14 UNL     1     138.499 122.168 105.604  0.00  0.00    -0.048 A 
ATOM     17  C15 UNL     1     137.181 122.464 105.950  0.00  0.00    -0.061 A 
ATOM     18  C16 UNL     1     136.661 123.737 105.704  0.00  0.00    -0.058 A 
ATOM     19  C17 UNL     1     137.462 124.720 105.118  0.00  0.00    -0.019 A 
ATOM     20  C18 UNL     1     138.785 124.434 104.788  0.00  0.00    +0.132 A 
ATOM     21  O3  UNL     1     139.511 125.448 104.222  0.00  0.00    -0.483 OA
ATOM     22  C19 UNL     1     142.760 127.026 104.293  0.00  0.00    -0.052 A 
ATOM     23  C20 UNL     1     143.439 128.060 103.642  0.00  0.00    -0.020 A 
ENDROOT
TORSDOF 0
ENDMDL
MODEL 8
REMARK VINA RESULT:    -3.645      3.675      7.886
REMARK INTER + INTRA:          -3.645
REMARK INTER:                  -3.645
REMARK INTRA:                   0.000
REMARK UNBOUND:                 0.000
REMARK  Name = /home/vital/Documents/PhD_2021/Malaria_codes/scripts/../data/pdbqt_ligands/ligand_423_temp.pdb
REMARK                            x       y       z     vdW  Elec       q    Type
REMARK                         _______ _______ _______ _____ _____    ______ ____
ROOT
ATOM      1  C1  UNL     1     140.602 134.016  86.712  0.00  0.00    -0.116 C 
ATOM      2  C2  UNL     1     141.348 134.072  87.653  0.00  0.00    -0.062 C 
ATOM      3  C3  UNL     1     142.263 134.132  88.811  0.00  0.00    +0.160 C 
ATOM      4  C4  UNL     1     142.856 135.544  88.968  0.00  0.00    -0.007 C 
ATOM      5  C5  UNL     1     141.836 136.621  89.326  0.00  0.00    -0.061 C 
ATOM      6  O1  UNL     1     141.573 133.805  90.024  0.00  0.00    -0.476 OA
ATOM      7  C6  UNL     1     141.464 132.493  90.388  0.00  0.00    +0.122 A 
ATOM      8  C7  UNL     1     141.728 131.387  89.583  0.00  0.00    -0.020 A 
ATOM      9  C8  UNL     1     141.569 130.091  90.090  0.00  0.00    -0.052 A 
ATOM     10  C9  UNL     1     141.132 129.880  91.406  0.00  0.00    -0.007 A 
ATOM     11  C10 UNL     1     140.983 128.481  91.976  0.00  0.00    +0.132 C 
ATOM     12  C11 UNL     1     142.335 127.940  92.422  0.00  0.00    +0.052 C 
ATOM     13  C12 UNL     1     142.124 126.567  92.994  0.00  0.00    +0.170 C 
ATOM     14  O2  UNL     1     142.833 126.108  93.884  0.00  0.00    -0.292 OA
ATOM     15  C13 UNL     1     141.052 125.759  92.381  0.00  0.00    +0.059 A 
ATOM     16  C14 UNL     1     140.857 124.427  92.759  0.00  0.00    -0.048 A 
ATOM     17  C15 UNL     1     139.871 123.670  92.127  0.00  0.00    -0.061 A 
ATOM     18  C16 UNL     1     139.091 124.239  91.118  0.00  0.00    -0.058 A 
ATOM     19  C17 UNL     1     139.289 125.570  90.745  0.00  0.00    -0.019 A 
ATOM     20  C18 UNL     1     140.259 126.336  91.389  0.00  0.00    +0.132 A 
ATOM     21  O3  UNL     1     140.393 127.635  90.975  0.00  0.00    -0.483 OA
ATOM     22  C19 UNL     1     140.863 130.998  92.208  0.00  0.00    -0.052 A 
ATOM     23  C20 UNL     1     141.024 132.289  91.698  0.00  0.00    -0.020 A 
ENDROOT
TORSDOF 0
ENDMDL
MODEL 9
REMARK VINA RESULT:    -3.570      7.432      8.864
REMARK INTER + INTRA:          -3.570
REMARK INTER:                  -3.570
REMARK INTRA:                   0.000
REMARK UNBOUND:                 0.000
REMARK  Name = /home/vital/Documents/PhD_2021/Malaria_codes/scripts/../data/pdbqt_ligands/ligand_423_temp.pdb
REMARK                            x       y       z     vdW  Elec       q    Type
REMARK                         _______ _______ _______ _____ _____    ______ ____
ROOT
ATOM      1  C1  UNL     1     143.837 125.045  90.727  0.00  0.00    -0.116 C 
ATOM      2  C2  UNL     1     142.827 124.551  91.151  0.00  0.00    -0.062 C 
ATOM      3  C3  UNL     1     141.585 123.950  91.679  0.00  0.00    +0.160 C 
ATOM      4  C4  UNL     1     141.216 122.677  90.895  0.00  0.00    -0.007 C 
ATOM      5  C5  UNL     1     142.206 121.527  91.056  0.00  0.00    -0.061 C 
ATOM      6  O1  UNL     1     141.737 123.591  93.058  0.00  0.00    -0.476 OA
ATOM      7  C6  UNL     1     141.493 124.533  94.016  0.00  0.00    +0.122 A 
ATOM      8  C7  UNL     1     141.353 125.904  93.810  0.00  0.00    -0.020 A 
ATOM      9  C8  UNL     1     141.106 126.758  94.892  0.00  0.00    -0.052 A 
ATOM     10  C9  UNL     1     141.008 126.257  96.199  0.00  0.00    -0.007 A 
ATOM     11  C10 UNL     1     140.714 127.169  97.376  0.00  0.00    +0.132 C 
ATOM     12  C11 UNL     1     139.222 127.464  97.463  0.00  0.00    +0.052 C 
ATOM     13  C12 UNL     1     138.987 128.349  98.653  0.00  0.00    +0.170 C 
ATOM     14  O2  UNL     1     137.945 128.324  99.299  0.00  0.00    -0.292 OA
ATOM     15  C13 UNL     1     140.058 129.313  98.975  0.00  0.00    +0.059 A 
ATOM     16  C14 UNL     1     139.885 130.262  99.986  0.00  0.00    -0.048 A 
ATOM     17  C15 UNL     1     140.891 131.195 100.234  0.00  0.00    -0.061 A 
ATOM     18  C16 UNL     1     142.060 131.183  99.469  0.00  0.00    -0.058 A 
ATOM     19  C17 UNL     1     142.229 130.232  98.461  0.00  0.00    -0.019 A 
ATOM     20  C18 UNL     1     141.234 129.286  98.224  0.00  0.00    +0.132 A 
ATOM     21  O3  UNL     1     141.472 128.381  97.223  0.00  0.00    -0.483 OA
ATOM     22  C19 UNL     1     141.156 124.878  96.398  0.00  0.00    -0.052 A 
ATOM     23  C20 UNL     1     141.401 124.029  95.315  0.00  0.00    -0.020 A 
ENDROOT
TORSDOF 0
ENDMDL
