MODEL 1
REMARK VINA RESULT:    -5.088      0.000      0.000
REMARK INTER + INTRA:          -5.088
REMARK INTER:                  -5.088
REMARK INTRA:                   0.000
REMARK UNBOUND:                 0.000
REMARK  Name = /home/vital/Documents/PhD_2021/Malaria_codes/scripts/../data/pdbqt_ligands/ligand_321_temp.pdb
REMARK                            x       y       z     vdW  Elec       q    Type
REMARK                         _______ _______ _______ _____ _____    ______ ____
ROOT
ATOM      1  C1  UNL     1     145.377 135.736  98.118  0.00  0.00    -0.045 C 
ATOM      2  C2  UNL     1     144.796 134.365  97.977  0.00  0.00    -0.067 C 
ATOM      3  C3  UNL     1     145.380 133.190  98.273  0.00  0.00    +0.055 C 
ATOM      4 CL1  UNL     1     146.988 133.092  98.909  0.00  0.00    -0.082 Cl
ATOM      5  C4  UNL     1     144.697 131.924  98.097  0.00  0.00    +0.060 C 
ATOM      6 CL2  UNL     1     145.140 131.028  96.670  0.00  0.00    -0.082 Cl
ATOM      7  C5  UNL     1     143.755 131.409  98.902  0.00  0.00    -0.024 C 
ATOM      8  C6  UNL     1     143.307 132.075 100.154  0.00  0.00    +0.033 C 
ATOM      9  N1  UNL     1     142.366 131.726 100.968  0.00  0.00    -0.219 NA
ATOM     10  C7  UNL     1     141.648 130.604 100.665  0.00  0.00    +0.252 A 
ATOM     11  N2  UNL     1     142.057 129.400 101.225  0.00  0.00    -0.195 NA
ATOM     12  C8  UNL     1     141.389 128.323 100.965  0.00  0.00    +0.132 A 
ATOM     13  N3  UNL     1     141.664 127.076 101.452  0.00  0.00    -0.326 N 
ATOM     14  C9  UNL     1     142.632 126.841 102.514  0.00  0.00    +0.034 C 
ATOM     15  C10 UNL     1     142.099 127.313 103.869  0.00  0.00    +0.060 C 
ATOM     16  O1  UNL     1     140.852 126.681 104.160  0.00  0.00    -0.393 OA
ATOM     17  C11 UNL     1     140.246 128.377 100.096  0.00  0.00    +0.040 A 
ATOM     18  C12 UNL     1     139.883 129.603  99.554  0.00  0.00    +0.078 A 
ATOM     19  N4  UNL     1     140.636 130.787  99.861  0.00  0.00    -0.211 NA
ATOM     20  C13 UNL     1     138.859 129.033  98.910  0.00  0.00    -0.035 C 
ATOM     21  C14 UNL     1     139.246 127.750  99.478  0.00  0.00    -0.047 C 
ATOM     22  H   UNL     1     141.188 126.304 101.069  0.00  0.00    +0.000 HD
ATOM     23  H   UNL     1     140.205 126.910 103.475  0.00  0.00    +0.000 HD
ENDROOT
TORSDOF 0
ENDMDL
MODEL 2
REMARK VINA RESULT:    -4.907      4.092      6.929
REMARK INTER + INTRA:          -4.907
REMARK INTER:                  -4.907
REMARK INTRA:                   0.000
REMARK UNBOUND:                 0.000
REMARK  Name = /home/vital/Documents/PhD_2021/Malaria_codes/scripts/../data/pdbqt_ligands/ligand_321_temp.pdb
REMARK                            x       y       z     vdW  Elec       q    Type
REMARK                         _______ _______ _______ _____ _____    ______ ____
ROOT
ATOM      1  C1  UNL     1     140.676 125.825 106.235  0.00  0.00    -0.045 C 
ATOM      2  C2  UNL     1     141.366 126.756 105.290  0.00  0.00    -0.067 C 
ATOM      3  C3  UNL     1     142.411 126.487 104.486  0.00  0.00    +0.055 C 
ATOM      4 CL1  UNL     1     143.146 124.921 104.420  0.00  0.00    -0.082 Cl
ATOM      5  C4  UNL     1     142.983 127.486 103.605  0.00  0.00    +0.060 C 
ATOM      6 CL2  UNL     1     144.457 128.223 104.169  0.00  0.00    -0.082 Cl
ATOM      7  C5  UNL     1     142.472 127.904 102.437  0.00  0.00    -0.024 C 
ATOM      8  C6  UNL     1     141.229 127.338 101.849  0.00  0.00    +0.033 C 
ATOM      9  N1  UNL     1     140.597 127.701 100.781  0.00  0.00    -0.219 NA
ATOM     10  C7  UNL     1     141.100 128.756 100.074  0.00  0.00    +0.252 A 
ATOM     11  N2  UNL     1     141.955 128.480  99.015  0.00  0.00    -0.195 NA
ATOM     12  C8  UNL     1     142.437 129.459  98.319  0.00  0.00    +0.132 A 
ATOM     13  N3  UNL     1     143.275 129.340  97.246  0.00  0.00    -0.326 N 
ATOM     14  C9  UNL     1     143.563 128.062  96.610  0.00  0.00    +0.034 C 
ATOM     15  C10 UNL     1     142.365 127.561  95.799  0.00  0.00    +0.060 C 
ATOM     16  O1  UNL     1     141.972 128.539  94.836  0.00  0.00    -0.393 OA
ATOM     17  C11 UNL     1     142.097 130.814  98.653  0.00  0.00    +0.040 A 
ATOM     18  C12 UNL     1     141.245 131.038  99.727  0.00  0.00    +0.078 A 
ATOM     19  N4  UNL     1     140.717 129.936 100.481  0.00  0.00    -0.211 NA
ATOM     20  C13 UNL     1     141.321 132.359  99.532  0.00  0.00    -0.035 C 
ATOM     21  C14 UNL     1     142.216 132.119  98.410  0.00  0.00    -0.047 C 
ATOM     22  H   UNL     1     143.703 130.151  96.889  0.00  0.00    +0.000 HD
ATOM     23  H   UNL     1     141.718 129.358  95.291  0.00  0.00    +0.000 HD
ENDROOT
TORSDOF 0
ENDMDL
MODEL 3
REMARK VINA RESULT:    -4.872      4.307      6.496
REMARK INTER + INTRA:          -4.872
REMARK INTER:                  -4.872
REMARK INTRA:                   0.000
REMARK UNBOUND:                 0.000
REMARK  Name = /home/vital/Documents/PhD_2021/Malaria_codes/scripts/../data/pdbqt_ligands/ligand_321_temp.pdb
REMARK                            x       y       z     vdW  Elec       q    Type
REMARK                         _______ _______ _______ _____ _____    ______ ____
ROOT
ATOM      1  C1  UNL     1     142.812 123.072  94.895  0.00  0.00    -0.045 C 
ATOM      2  C2  UNL     1     142.566 123.835  96.159  0.00  0.00    -0.067 C 
ATOM      3  C3  UNL     1     143.438 124.595  96.844  0.00  0.00    +0.055 C 
ATOM      4 CL1  UNL     1     145.073 124.824  96.321  0.00  0.00    -0.082 Cl
ATOM      5  C4  UNL     1     143.065 125.293  98.058  0.00  0.00    +0.060 C 
ATOM      6 CL2  UNL     1     143.579 124.537  99.541  0.00  0.00    -0.082 Cl
ATOM      7  C5  UNL     1     142.349 126.425  98.139  0.00  0.00    -0.024 C 
ATOM      8  C6  UNL     1     141.870 127.166  96.942  0.00  0.00    +0.033 C 
ATOM      9  N1  UNL     1     141.117 128.215  96.884  0.00  0.00    -0.219 NA
ATOM     10  C7  UNL     1     140.664 128.737  98.062  0.00  0.00    +0.252 A 
ATOM     11  N2  UNL     1     141.398 129.764  98.642  0.00  0.00    -0.195 NA
ATOM     12  C8  UNL     1     140.986 130.287  99.752  0.00  0.00    +0.132 A 
ATOM     13  N3  UNL     1     141.594 131.308 100.428  0.00  0.00    -0.326 N 
ATOM     14  C9  UNL     1     142.682 132.091  99.859  0.00  0.00    +0.034 C 
ATOM     15  C10 UNL     1     142.176 133.040  98.770  0.00  0.00    +0.060 C 
ATOM     16  O1  UNL     1     141.147 133.886  99.287  0.00  0.00    -0.393 OA
ATOM     17  C11 UNL     1     139.790 129.796 100.378  0.00  0.00    +0.040 A 
ATOM     18  C12 UNL     1     139.097 128.761  99.763  0.00  0.00    +0.078 A 
ATOM     19  N4  UNL     1     139.569 128.200  98.529  0.00  0.00    -0.211 NA
ATOM     20  C13 UNL     1     138.185 128.769 100.742  0.00  0.00    -0.035 C 
ATOM     21  C14 UNL     1     138.917 129.852 101.384  0.00  0.00    -0.047 C 
ATOM     22  H   UNL     1     141.284 131.522 101.337  0.00  0.00    +0.000 HD
ATOM     23  H   UNL     1     140.405 133.342  99.595  0.00  0.00    +0.000 HD
ENDROOT
TORSDOF 0
ENDMDL
MODEL 4
REMARK VINA RESULT:    -4.640      4.513      6.196
REMARK INTER + INTRA:          -4.640
REMARK INTER:                  -4.640
REMARK INTRA:                   0.000
REMARK UNBOUND:                 0.000
REMARK  Name = /home/vital/Documents/PhD_2021/Malaria_codes/scripts/../data/pdbqt_ligands/ligand_321_temp.pdb
REMARK                            x       y       z     vdW  Elec       q    Type
REMARK                         _______ _______ _______ _____ _____    ______ ____
ROOT
ATOM      1  C1  UNL     1     142.405 124.620  92.562  0.00  0.00    -0.045 C 
ATOM      2  C2  UNL     1     141.979 124.763  93.989  0.00  0.00    -0.067 C 
ATOM      3  C3  UNL     1     142.720 124.559  95.092  0.00  0.00    +0.055 C 
ATOM      4 CL1  UNL     1     144.383 124.081  95.014  0.00  0.00    -0.082 Cl
ATOM      5  C4  UNL     1     142.183 124.744  96.426  0.00  0.00    +0.060 C 
ATOM      6 CL2  UNL     1     141.738 123.280  97.261  0.00  0.00    -0.082 Cl
ATOM      7  C5  UNL     1     141.976 125.916  97.047  0.00  0.00    -0.024 C 
ATOM      8  C6  UNL     1     142.331 127.226  96.440  0.00  0.00    +0.033 C 
ATOM      9  N1  UNL     1     142.116 128.416  96.895  0.00  0.00    -0.219 NA
ATOM     10  C7  UNL     1     141.462 128.531  98.089  0.00  0.00    +0.252 A 
ATOM     11  N2  UNL     1     142.229 128.641  99.242  0.00  0.00    -0.195 NA
ATOM     12  C8  UNL     1     141.637 128.763 100.386  0.00  0.00    +0.132 A 
ATOM     13  N3  UNL     1     142.257 128.893 101.597  0.00  0.00    -0.326 N 
ATOM     14  C9  UNL     1     143.688 129.131 101.727  0.00  0.00    +0.034 C 
ATOM     15  C10 UNL     1     144.054 130.561 101.324  0.00  0.00    +0.060 C 
ATOM     16  O1  UNL     1     143.304 131.502 102.092  0.00  0.00    -0.393 OA
ATOM     17  C11 UNL     1     140.201 128.771 100.456  0.00  0.00    +0.040 A 
ATOM     18  C12 UNL     1     139.480 128.649  99.276  0.00  0.00    +0.078 A 
ATOM     19  N4  UNL     1     140.158 128.521  98.017  0.00  0.00    -0.211 NA
ATOM     20  C13 UNL     1     138.329 128.719  99.953  0.00  0.00    -0.035 C 
ATOM     21  C14 UNL     1     139.090 128.843 101.188  0.00  0.00    -0.047 C 
ATOM     22  H   UNL     1     141.715 128.823 102.415  0.00  0.00    +0.000 HD
ATOM     23  H   UNL     1     142.356 131.368 101.933  0.00  0.00    +0.000 HD
ENDROOT
TORSDOF 0
ENDMDL
MODEL 5
REMARK VINA RESULT:    -4.624      4.917      7.968
REMARK INTER + INTRA:          -4.624
REMARK INTER:                  -4.624
REMARK INTRA:                   0.000
REMARK UNBOUND:                 0.000
REMARK  Name = /home/vital/Documents/PhD_2021/Malaria_codes/scripts/../data/pdbqt_ligands/ligand_321_temp.pdb
REMARK                            x       y       z     vdW  Elec       q    Type
REMARK                         _______ _______ _______ _____ _____    ______ ____
ROOT
ATOM      1  C1  UNL     1     142.806 122.862 106.617  0.00  0.00    -0.045 C 
ATOM      2  C2  UNL     1     141.867 123.451 105.612  0.00  0.00    -0.067 C 
ATOM      3  C3  UNL     1     141.118 124.561 105.738  0.00  0.00    +0.055 C 
ATOM      4 CL1  UNL     1     141.142 125.534 107.169  0.00  0.00    -0.082 Cl
ATOM      5  C4  UNL     1     140.251 125.030 104.675  0.00  0.00    +0.060 C 
ATOM      6 CL2  UNL     1     138.559 124.666 104.876  0.00  0.00    -0.082 Cl
ATOM      7  C5  UNL     1     140.632 125.677 103.563  0.00  0.00    -0.024 C 
ATOM      8  C6  UNL     1     142.044 126.054 103.290  0.00  0.00    +0.033 C 
ATOM      9  N1  UNL     1     142.549 126.605 102.236  0.00  0.00    -0.219 NA
ATOM     10  C7  UNL     1     141.704 126.881 101.198  0.00  0.00    +0.252 A 
ATOM     11  N2  UNL     1     141.150 128.153 101.132  0.00  0.00    -0.195 NA
ATOM     12  C8  UNL     1     140.356 128.447 100.154  0.00  0.00    +0.132 A 
ATOM     13  N3  UNL     1     139.751 129.656  99.952  0.00  0.00    -0.326 N 
ATOM     14  C9  UNL     1     140.102 130.849 100.710  0.00  0.00    +0.034 C 
ATOM     15  C10 UNL     1     141.465 131.399 100.284  0.00  0.00    +0.060 C 
ATOM     16  O1  UNL     1     141.480 131.658  98.879  0.00  0.00    -0.393 OA
ATOM     17  C11 UNL     1     140.045 127.460  99.157  0.00  0.00    +0.040 A 
ATOM     18  C12 UNL     1     140.617 126.200  99.273  0.00  0.00    +0.078 A 
ATOM     19  N4  UNL     1     141.500 125.897 100.364  0.00  0.00    -0.211 NA
ATOM     20  C13 UNL     1     139.995 125.797  98.160  0.00  0.00    -0.035 C 
ATOM     21  C14 UNL     1     139.395 127.119  98.045  0.00  0.00    -0.047 C 
ATOM     22  H   UNL     1     139.048 129.723  99.266  0.00  0.00    +0.000 HD
ATOM     23  H   UNL     1     141.313 130.833  98.396  0.00  0.00    +0.000 HD
ENDROOT
TORSDOF 0
ENDMDL
MODEL 6
REMARK VINA RESULT:    -4.546      4.630      7.663
REMARK INTER + INTRA:          -4.546
REMARK INTER:                  -4.546
REMARK INTRA:                   0.000
REMARK UNBOUND:                 0.000
REMARK  Name = /home/vital/Documents/PhD_2021/Malaria_codes/scripts/../data/pdbqt_ligands/ligand_321_temp.pdb
REMARK                            x       y       z     vdW  Elec       q    Type
REMARK                         _______ _______ _______ _____ _____    ______ ____
ROOT
ATOM      1  C1  UNL     1     138.998 121.594  96.225  0.00  0.00    -0.045 C 
ATOM      2  C2  UNL     1     139.407 122.599  97.255  0.00  0.00    -0.067 C 
ATOM      3  C3  UNL     1     140.648 123.040  97.525  0.00  0.00    +0.055 C 
ATOM      4 CL1  UNL     1     142.038 122.480  96.656  0.00  0.00    -0.082 Cl
ATOM      5  C4  UNL     1     140.908 124.031  98.551  0.00  0.00    +0.060 C 
ATOM      6 CL2  UNL     1     141.520 123.404 100.056  0.00  0.00    -0.082 Cl
ATOM      7  C5  UNL     1     140.694 125.352  98.454  0.00  0.00    -0.024 C 
ATOM      8  C6  UNL     1     140.190 126.002  97.216  0.00  0.00    +0.033 C 
ATOM      9  N1  UNL     1     139.873 127.239  97.018  0.00  0.00    -0.219 NA
ATOM     10  C7  UNL     1     139.989 128.100  98.073  0.00  0.00    +0.252 A 
ATOM     11  N2  UNL     1     141.171 128.819  98.198  0.00  0.00    -0.195 NA
ATOM     12  C8  UNL     1     141.305 129.650  99.180  0.00  0.00    +0.132 A 
ATOM     13  N3  UNL     1     142.400 130.432  99.422  0.00  0.00    -0.326 N 
ATOM     14  C9  UNL     1     143.485 130.585  98.463  0.00  0.00    +0.034 C 
ATOM     15  C10 UNL     1     143.061 131.451  97.274  0.00  0.00    +0.060 C 
ATOM     16  O1  UNL     1     142.591 132.721  97.727  0.00  0.00    -0.393 OA
ATOM     17  C11 UNL     1     140.243 129.814 100.134  0.00  0.00    +0.040 A 
ATOM     18  C12 UNL     1     139.085 129.065  99.970  0.00  0.00    +0.078 A 
ATOM     19  N4  UNL     1     138.956 128.152  98.870  0.00  0.00    -0.211 NA
ATOM     20  C13 UNL     1     138.553 129.619 101.066  0.00  0.00    -0.035 C 
ATOM     21  C14 UNL     1     139.771 130.399 101.234  0.00  0.00    -0.047 C 
ATOM     22  H   UNL     1     142.458 130.911 100.279  0.00  0.00    +0.000 HD
ATOM     23  H   UNL     1     141.825 132.594  98.308  0.00  0.00    +0.000 HD
ENDROOT
TORSDOF 0
ENDMDL
MODEL 7
REMARK VINA RESULT:    -4.538      4.310      7.455
REMARK INTER + INTRA:          -4.538
REMARK INTER:                  -4.538
REMARK INTRA:                   0.000
REMARK UNBOUND:                 0.000
REMARK  Name = /home/vital/Documents/PhD_2021/Malaria_codes/scripts/../data/pdbqt_ligands/ligand_321_temp.pdb
REMARK                            x       y       z     vdW  Elec       q    Type
REMARK                         _______ _______ _______ _____ _____    ______ ____
ROOT
ATOM      1  C1  UNL     1     143.275 121.984 103.749  0.00  0.00    -0.045 C 
ATOM      2  C2  UNL     1     142.293 123.046 103.366  0.00  0.00    -0.067 C 
ATOM      3  C3  UNL     1     142.204 124.297 103.851  0.00  0.00    +0.055 C 
ATOM      4 CL1  UNL     1     143.289 124.899 105.059  0.00  0.00    -0.082 Cl
ATOM      5  C4  UNL     1     141.204 125.236 103.383  0.00  0.00    +0.060 C 
ATOM      6 CL2  UNL     1     139.827 125.443 104.429  0.00  0.00    -0.082 Cl
ATOM      7  C5  UNL     1     141.233 125.920 102.228  0.00  0.00    -0.024 C 
ATOM      8  C6  UNL     1     142.362 125.835 101.265  0.00  0.00    +0.033 C 
ATOM      9  N1  UNL     1     142.476 126.376 100.097  0.00  0.00    -0.219 NA
ATOM     10  C7  UNL     1     141.429 127.126  99.640  0.00  0.00    +0.252 A 
ATOM     11  N2  UNL     1     141.467 128.497  99.859  0.00  0.00    -0.195 NA
ATOM     12  C8  UNL     1     140.495 129.234  99.427  0.00  0.00    +0.132 A 
ATOM     13  N3  UNL     1     140.403 130.591  99.557  0.00  0.00    -0.326 N 
ATOM     14  C9  UNL     1     141.512 131.415 100.017  0.00  0.00    +0.034 C 
ATOM     15  C10 UNL     1     142.599 131.536  98.946  0.00  0.00    +0.060 C 
ATOM     16  O1  UNL     1     142.046 132.047  97.732  0.00  0.00    -0.393 OA
ATOM     17  C11 UNL     1     139.386 128.631  98.740  0.00  0.00    +0.040 A 
ATOM     18  C12 UNL     1     139.391 127.255  98.554  0.00  0.00    +0.078 A 
ATOM     19  N4  UNL     1     140.483 126.457  99.037  0.00  0.00    -0.211 NA
ATOM     20  C13 UNL     1     138.213 127.320  97.923  0.00  0.00    -0.035 C 
ATOM     21  C14 UNL     1     138.212 128.762  98.124  0.00  0.00    -0.047 C 
ATOM     22  H   UNL     1     139.552 131.030  99.330  0.00  0.00    +0.000 HD
ATOM     23  H   UNL     1     141.358 131.443  97.410  0.00  0.00    +0.000 HD
ENDROOT
TORSDOF 0
ENDMDL
MODEL 8
REMARK VINA RESULT:    -4.419      4.913      7.307
REMARK INTER + INTRA:          -4.419
REMARK INTER:                  -4.419
REMARK INTRA:                   0.000
REMARK UNBOUND:                 0.000
REMARK  Name = /home/vital/Documents/PhD_2021/Malaria_codes/scripts/../data/pdbqt_ligands/ligand_321_temp.pdb
REMARK                            x       y       z     vdW  Elec       q    Type
REMARK                         _______ _______ _______ _____ _____    ______ ____
ROOT
ATOM      1  C1  UNL     1     142.132 121.370  95.256  0.00  0.00    -0.045 C 
ATOM      2  C2  UNL     1     141.496 122.095  96.400  0.00  0.00    -0.067 C 
ATOM      3  C3  UNL     1     141.912 122.140  97.678  0.00  0.00    +0.055 C 
ATOM      4 CL1  UNL     1     143.340 121.321  98.214  0.00  0.00    -0.082 Cl
ATOM      5  C4  UNL     1     141.202 122.893  98.693  0.00  0.00    +0.060 C 
ATOM      6 CL2  UNL     1     140.190 121.950  99.752  0.00  0.00    -0.082 Cl
ATOM      7  C5  UNL     1     141.233 124.224  98.865  0.00  0.00    -0.024 C 
ATOM      8  C6  UNL     1     142.071 125.128  98.034  0.00  0.00    +0.033 C 
ATOM      9  N1  UNL     1     142.133 126.418  98.047  0.00  0.00    -0.219 NA
ATOM     10  C7  UNL     1     141.321 127.084  98.920  0.00  0.00    +0.252 A 
ATOM     11  N2  UNL     1     141.844 127.427 100.161  0.00  0.00    -0.195 NA
ATOM     12  C8  UNL     1     141.101 128.068 101.005  0.00  0.00    +0.132 A 
ATOM     13  N3  UNL     1     141.482 128.481 102.251  0.00  0.00    -0.326 N 
ATOM     14  C9  UNL     1     142.864 128.437 102.706  0.00  0.00    +0.034 C 
ATOM     15  C10 UNL     1     143.709 129.519 102.030  0.00  0.00    +0.060 C 
ATOM     16  O1  UNL     1     143.135 130.808 102.250  0.00  0.00    -0.393 OA
ATOM     17  C11 UNL     1     139.748 128.408 100.660  0.00  0.00    +0.040 A 
ATOM     18  C12 UNL     1     139.270 128.034  99.411  0.00  0.00    +0.078 A 
ATOM     19  N4  UNL     1     140.113 127.328  98.488  0.00  0.00    -0.211 NA
ATOM     20  C13 UNL     1     138.081 128.583  99.685  0.00  0.00    -0.035 C 
ATOM     21  C14 UNL     1     138.587 128.969 100.994  0.00  0.00    -0.047 C 
ATOM     22  H   UNL     1     140.794 128.822 102.866  0.00  0.00    +0.000 HD
ATOM     23  H   UNL     1     142.241 130.833 101.874  0.00  0.00    +0.000 HD
ENDROOT
TORSDOF 0
ENDMDL
MODEL 9
REMARK VINA RESULT:    -4.226      4.734      6.912
REMARK INTER + INTRA:          -4.226
REMARK INTER:                  -4.226
REMARK INTRA:                   0.000
REMARK UNBOUND:                 0.000
REMARK  Name = /home/vital/Documents/PhD_2021/Malaria_codes/scripts/../data/pdbqt_ligands/ligand_321_temp.pdb
REMARK                            x       y       z     vdW  Elec       q    Type
REMARK                         _______ _______ _______ _____ _____    ______ ____
ROOT
ATOM      1  C1  UNL     1     142.256 130.647 100.982  0.00  0.00    -0.045 C 
ATOM      2  C2  UNL     1     141.678 129.279 101.158  0.00  0.00    -0.067 C 
ATOM      3  C3  UNL     1     142.318 128.099 101.077  0.00  0.00    +0.055 C 
ATOM      4 CL1  UNL     1     144.014 127.989 100.744  0.00  0.00    -0.082 Cl
ATOM      5  C4  UNL     1     141.636 126.836 101.280  0.00  0.00    +0.060 C 
ATOM      6 CL2  UNL     1     141.232 125.964  99.828  0.00  0.00    -0.082 Cl
ATOM      7  C5  UNL     1     141.272 126.309 102.459  0.00  0.00    -0.024 C 
ATOM      8  C6  UNL     1     141.576 126.955 103.763  0.00  0.00    +0.033 C 
ATOM      9  N1  UNL     1     141.219 126.593 104.951  0.00  0.00    -0.219 NA
ATOM     10  C7  UNL     1     140.440 125.477 105.068  0.00  0.00    +0.252 A 
ATOM     11  N2  UNL     1     141.075 124.264 105.303  0.00  0.00    -0.195 NA
ATOM     12  C8  UNL     1     140.362 123.191 105.430  0.00  0.00    +0.132 A 
ATOM     13  N3  UNL     1     140.845 121.936 105.676  0.00  0.00    -0.326 N 
ATOM     14  C9  UNL     1     142.230 121.684 106.045  0.00  0.00    +0.034 C 
ATOM     15  C10 UNL     1     142.516 122.133 107.479  0.00  0.00    +0.060 C 
ATOM     16  O1  UNL     1     141.617 121.497 108.389  0.00  0.00    -0.393 OA
ATOM     17  C11 UNL     1     138.932 123.260 105.316  0.00  0.00    +0.040 A 
ATOM     18  C12 UNL     1     138.346 124.495 105.072  0.00  0.00    +0.078 A 
ATOM     19  N4  UNL     1     139.156 125.674 104.940  0.00  0.00    -0.211 NA
ATOM     20  C13 UNL     1     137.130 123.937 105.074  0.00  0.00    -0.035 C 
ATOM     21  C14 UNL     1     137.750 122.644 105.326  0.00  0.00    -0.047 C 
ATOM     22  H   UNL     1     140.230 121.171 105.600  0.00  0.00    +0.000 HD
ATOM     23  H   UNL     1     140.705 121.739 108.164  0.00  0.00    +0.000 HD
ENDROOT
TORSDOF 0
ENDMDL
