MODEL 1
REMARK VINA RESULT:    -4.827      0.000      0.000
REMARK INTER + INTRA:          -4.827
REMARK INTER:                  -4.827
REMARK INTRA:                   0.000
REMARK UNBOUND:                 0.000
REMARK  Name = /home/vital/Documents/PhD_2021/Malaria_codes/scripts/../data/pdbqt_ligands/ligand_344_temp.pdb
REMARK                            x       y       z     vdW  Elec       q    Type
REMARK                         _______ _______ _______ _____ _____    ______ ____
ROOT
ATOM      1  C   UNL     1     130.989 129.492  85.465  0.00  0.00    -0.099 C 
ATOM      2  C   UNL     1     130.450 129.730  86.666  0.00  0.00    -0.069 C 
ATOM      3  C   UNL     1     129.382 130.680  86.872  0.00  0.00    -0.066 C 
ATOM      4  C   UNL     1     128.842 130.913  88.079  0.00  0.00    -0.075 C 
ATOM      5  C   UNL     1     127.733 131.876  88.402  0.00  0.00    +0.042 C 
ATOM      6  C   UNL     1     127.284 132.774  87.252  0.00  0.00    +0.217 C 
ATOM      7  O   UNL     1     126.368 132.469  86.494  0.00  0.00    -0.275 OA
ATOM      8  N   UNL     1     128.009 133.938  87.136  0.00  0.00    -0.314 N 
ATOM      9  C   UNL     1     127.752 134.925  86.100  0.00  0.00    +0.027 C 
ATOM     10  C   UNL     1     126.875 136.101  86.585  0.00  0.00    +0.018 C 
ATOM     11  C   UNL     1     125.416 135.691  86.781  0.00  0.00    -0.048 C 
ATOM     12  N   UNL     1     127.402 136.674  87.837  0.00  0.00    -0.326 N 
ATOM     13  H   UNL     1     128.732 134.110  87.781  0.00  0.00    +0.000 HD
ATOM     14  H   UNL     1     127.372 135.968  88.572  0.00  0.00    +0.000 HD
ATOM     15  H   UNL     1     126.833 137.475  88.110  0.00  0.00    +0.000 HD
ATOM     16  H   UNL     1     128.366 136.974  87.693  0.00  0.00    +0.000 HD
ENDROOT
TORSDOF 0
ENDMDL
MODEL 2
REMARK VINA RESULT:    -4.709      1.529      5.772
REMARK INTER + INTRA:          -4.709
REMARK INTER:                  -4.709
REMARK INTRA:                   0.000
REMARK UNBOUND:                 0.000
REMARK  Name = /home/vital/Documents/PhD_2021/Malaria_codes/scripts/../data/pdbqt_ligands/ligand_344_temp.pdb
REMARK                            x       y       z     vdW  Elec       q    Type
REMARK                         _______ _______ _______ _____ _____    ______ ____
ROOT
ATOM      1  C   UNL     1     123.300 136.190  86.137  0.00  0.00    -0.099 C 
ATOM      2  C   UNL     1     124.591 136.537  86.174  0.00  0.00    -0.069 C 
ATOM      3  C   UNL     1     125.664 135.571  86.191  0.00  0.00    -0.066 C 
ATOM      4  C   UNL     1     126.958 135.925  86.224  0.00  0.00    -0.075 C 
ATOM      5  C   UNL     1     128.147 135.003  86.245  0.00  0.00    +0.042 C 
ATOM      6  C   UNL     1     127.827 133.518  86.384  0.00  0.00    +0.217 C 
ATOM      7  O   UNL     1     127.674 132.780  85.415  0.00  0.00    -0.275 OA
ATOM      8  N   UNL     1     127.708 133.091  87.688  0.00  0.00    -0.314 N 
ATOM      9  C   UNL     1     127.394 131.716  88.041  0.00  0.00    +0.027 C 
ATOM     10  C   UNL     1     128.643 130.880  88.399  0.00  0.00    +0.018 C 
ATOM     11  C   UNL     1     129.485 130.542  87.170  0.00  0.00    -0.048 C 
ATOM     12  N   UNL     1     129.477 131.576  89.396  0.00  0.00    -0.326 N 
ATOM     13  H   UNL     1     127.842 133.744  88.412  0.00  0.00    +0.000 HD
ATOM     14  H   UNL     1     129.819 132.451  89.001  0.00  0.00    +0.000 HD
ATOM     15  H   UNL     1     130.269 130.985  89.650  0.00  0.00    +0.000 HD
ATOM     16  H   UNL     1     128.920 131.773  90.227  0.00  0.00    +0.000 HD
ENDROOT
TORSDOF 0
ENDMDL
MODEL 3
REMARK VINA RESULT:    -4.030     17.534     18.621
REMARK INTER + INTRA:          -4.030
REMARK INTER:                  -4.030
REMARK INTRA:                   0.000
REMARK UNBOUND:                 0.000
REMARK  Name = /home/vital/Documents/PhD_2021/Malaria_codes/scripts/../data/pdbqt_ligands/ligand_344_temp.pdb
REMARK                            x       y       z     vdW  Elec       q    Type
REMARK                         _______ _______ _______ _____ _____    ______ ____
ROOT
ATOM      1  C   UNL     1     138.169 128.507  98.118  0.00  0.00    -0.099 C 
ATOM      2  C   UNL     1     138.909 128.740  99.209  0.00  0.00    -0.069 C 
ATOM      3  C   UNL     1     139.791 129.876  99.331  0.00  0.00    -0.066 C 
ATOM      4  C   UNL     1     140.528 130.107 100.429  0.00  0.00    -0.075 C 
ATOM      5  C   UNL     1     141.474 131.254 100.657  0.00  0.00    +0.042 C 
ATOM      6  C   UNL     1     141.714 132.161  99.454  0.00  0.00    +0.217 C 
ATOM      7  O   UNL     1     141.047 133.169  99.242  0.00  0.00    -0.275 OA
ATOM      8  N   UNL     1     142.727 131.734  98.625  0.00  0.00    -0.314 N 
ATOM      9  C   UNL     1     143.108 132.446  97.417  0.00  0.00    +0.027 C 
ATOM     10  C   UNL     1     144.329 133.372  97.616  0.00  0.00    +0.018 C 
ATOM     11  C   UNL     1     143.983 134.617  98.433  0.00  0.00    -0.048 C 
ATOM     12  N   UNL     1     145.442 132.649  98.259  0.00  0.00    -0.326 N 
ATOM     13  H   UNL     1     143.214 130.912  98.861  0.00  0.00    +0.000 HD
ATOM     14  H   UNL     1     145.156 132.344  99.189  0.00  0.00    +0.000 HD
ATOM     15  H   UNL     1     146.249 133.268  98.338  0.00  0.00    +0.000 HD
ATOM     16  H   UNL     1     145.690 131.837  97.695  0.00  0.00    +0.000 HD
ENDROOT
TORSDOF 0
ENDMDL
MODEL 4
REMARK VINA RESULT:    -3.963     18.414     19.403
REMARK INTER + INTRA:          -3.963
REMARK INTER:                  -3.963
REMARK INTRA:                   0.000
REMARK UNBOUND:                 0.000
REMARK  Name = /home/vital/Documents/PhD_2021/Malaria_codes/scripts/../data/pdbqt_ligands/ligand_344_temp.pdb
REMARK                            x       y       z     vdW  Elec       q    Type
REMARK                         _______ _______ _______ _____ _____    ______ ____
ROOT
ATOM      1  C   UNL     1     141.346 136.356  99.034  0.00  0.00    -0.099 C 
ATOM      2  C   UNL     1     142.372 135.501  98.965  0.00  0.00    -0.069 C 
ATOM      3  C   UNL     1     142.201 134.067  98.978  0.00  0.00    -0.066 C 
ATOM      4  C   UNL     1     143.234 133.213  98.906  0.00  0.00    -0.075 C 
ATOM      5  C   UNL     1     143.166 131.710  98.912  0.00  0.00    +0.042 C 
ATOM      6  C   UNL     1     141.785 131.114  99.170  0.00  0.00    +0.217 C 
ATOM      7  O   UNL     1     141.008 130.827  98.264  0.00  0.00    -0.275 OA
ATOM      8  N   UNL     1     141.488 130.947 100.504  0.00  0.00    -0.314 N 
ATOM      9  C   UNL     1     140.221 130.407 100.967  0.00  0.00    +0.027 C 
ATOM     10  C   UNL     1     140.288 128.899 101.301  0.00  0.00    +0.018 C 
ATOM     11  C   UNL     1     140.382 128.033 100.045  0.00  0.00    -0.048 C 
ATOM     12  N   UNL     1     141.423 128.605 102.194  0.00  0.00    -0.326 N 
ATOM     13  H   UNL     1     142.163 131.204 101.173  0.00  0.00    +0.000 HD
ATOM     14  H   UNL     1     142.296 128.835 101.720  0.00  0.00    +0.000 HD
ATOM     15  H   UNL     1     141.418 127.614 102.435  0.00  0.00    +0.000 HD
ATOM     16  H   UNL     1     141.341 129.162 103.043  0.00  0.00    +0.000 HD
ENDROOT
TORSDOF 0
ENDMDL
MODEL 5
REMARK VINA RESULT:    -3.952     18.419     19.766
REMARK INTER + INTRA:          -3.952
REMARK INTER:                  -3.952
REMARK INTRA:                   0.000
REMARK UNBOUND:                 0.000
REMARK  Name = /home/vital/Documents/PhD_2021/Malaria_codes/scripts/../data/pdbqt_ligands/ligand_344_temp.pdb
REMARK                            x       y       z     vdW  Elec       q    Type
REMARK                         _______ _______ _______ _____ _____    ______ ____
ROOT
ATOM      1  C   UNL     1     138.352 127.632  97.450  0.00  0.00    -0.099 C 
ATOM      2  C   UNL     1     138.214 128.259  98.623  0.00  0.00    -0.069 C 
ATOM      3  C   UNL     1     139.265 129.051  99.218  0.00  0.00    -0.066 C 
ATOM      4  C   UNL     1     139.122 129.681 100.395  0.00  0.00    -0.075 C 
ATOM      5  C   UNL     1     140.148 130.525 101.099  0.00  0.00    +0.042 C 
ATOM      6  C   UNL     1     141.536 130.541 100.465  0.00  0.00    +0.217 C 
ATOM      7  O   UNL     1     141.876 131.382  99.639  0.00  0.00    -0.275 OA
ATOM      8  N   UNL     1     142.356 129.521 100.891  0.00  0.00    -0.314 N 
ATOM      9  C   UNL     1     143.714 129.346 100.401  0.00  0.00    +0.027 C 
ATOM     10  C   UNL     1     144.783 129.937 101.348  0.00  0.00    +0.018 C 
ATOM     11  C   UNL     1     144.797 131.465 101.321  0.00  0.00    -0.048 C 
ATOM     12  N   UNL     1     144.582 129.466 102.731  0.00  0.00    -0.326 N 
ATOM     13  H   UNL     1     142.009 128.882 101.554  0.00  0.00    +0.000 HD
ATOM     14  H   UNL     1     143.679 129.794 103.073  0.00  0.00    +0.000 HD
ATOM     15  H   UNL     1     145.325 129.833 103.326  0.00  0.00    +0.000 HD
ATOM     16  H   UNL     1     144.603 128.447 102.749  0.00  0.00    +0.000 HD
ENDROOT
TORSDOF 0
ENDMDL
MODEL 6
REMARK VINA RESULT:    -3.771     25.466     26.408
REMARK INTER + INTRA:          -3.771
REMARK INTER:                  -3.771
REMARK INTRA:                   0.000
REMARK UNBOUND:                 0.000
REMARK  Name = /home/vital/Documents/PhD_2021/Malaria_codes/scripts/../data/pdbqt_ligands/ligand_344_temp.pdb
REMARK                            x       y       z     vdW  Elec       q    Type
REMARK                         _______ _______ _______ _____ _____    ______ ____
ROOT
ATOM      1  C   UNL     1     137.125 145.471 108.586  0.00  0.00    -0.099 C 
ATOM      2  C   UNL     1     137.149 144.280 109.197  0.00  0.00    -0.069 C 
ATOM      3  C   UNL     1     138.260 143.365 109.087  0.00  0.00    -0.066 C 
ATOM      4  C   UNL     1     138.281 142.173 109.705  0.00  0.00    -0.075 C 
ATOM      5  C   UNL     1     139.382 141.149 109.656  0.00  0.00    +0.042 C 
ATOM      6  C   UNL     1     140.522 141.453 108.688  0.00  0.00    +0.217 C 
ATOM      7  O   UNL     1     141.534 142.059 109.027  0.00  0.00    -0.275 OA
ATOM      8  N   UNL     1     140.302 141.003 107.406  0.00  0.00    -0.314 N 
ATOM      9  C   UNL     1     141.256 141.201 106.327  0.00  0.00    +0.027 C 
ATOM     10  C   UNL     1     142.155 139.969 106.077  0.00  0.00    +0.018 C 
ATOM     11  C   UNL     1     143.196 139.779 107.180  0.00  0.00    -0.048 C 
ATOM     12  N   UNL     1     141.346 138.744 105.941  0.00  0.00    -0.326 N 
ATOM     13  H   UNL     1     139.462 140.528 107.210  0.00  0.00    +0.000 HD
ATOM     14  H   UNL     1     140.849 138.566 106.814  0.00  0.00    +0.000 HD
ATOM     15  H   UNL     1     141.957 137.954 105.732  0.00  0.00    +0.000 HD
ATOM     16  H   UNL     1     140.673 138.863 105.185  0.00  0.00    +0.000 HD
ENDROOT
TORSDOF 0
ENDMDL
MODEL 7
REMARK VINA RESULT:    -3.747     18.879     20.332
REMARK INTER + INTRA:          -3.747
REMARK INTER:                  -3.747
REMARK INTRA:                   0.000
REMARK UNBOUND:                 0.000
REMARK  Name = /home/vital/Documents/PhD_2021/Malaria_codes/scripts/../data/pdbqt_ligands/ligand_344_temp.pdb
REMARK                            x       y       z     vdW  Elec       q    Type
REMARK                         _______ _______ _______ _____ _____    ______ ____
ROOT
ATOM      1  C   UNL     1     138.223 127.569  97.999  0.00  0.00    -0.099 C 
ATOM      2  C   UNL     1     138.283 128.560  98.896  0.00  0.00    -0.069 C 
ATOM      3  C   UNL     1     139.529 129.091  99.397  0.00  0.00    -0.066 C 
ATOM      4  C   UNL     1     139.585 130.087 100.295  0.00  0.00    -0.075 C 
ATOM      5  C   UNL     1     140.823 130.709 100.879  0.00  0.00    +0.042 C 
ATOM      6  C   UNL     1     142.139 130.032 100.508  0.00  0.00    +0.217 C 
ATOM      7  O   UNL     1     142.809 130.375  99.538  0.00  0.00    -0.275 OA
ATOM      8  N   UNL     1     142.491 128.996 101.344  0.00  0.00    -0.314 N 
ATOM      9  C   UNL     1     143.700 128.211 101.159  0.00  0.00    +0.027 C 
ATOM     10  C   UNL     1     144.871 128.678 102.054  0.00  0.00    +0.018 C 
ATOM     11  C   UNL     1     145.467 130.003 101.581  0.00  0.00    -0.048 C 
ATOM     12  N   UNL     1     144.446 128.797 103.461  0.00  0.00    -0.326 N 
ATOM     13  H   UNL     1     141.898 128.778 102.100  0.00  0.00    +0.000 HD
ATOM     14  H   UNL     1     143.722 129.511 103.537  0.00  0.00    +0.000 HD
ATOM     15  H   UNL     1     145.246 129.062 104.036  0.00  0.00    +0.000 HD
ATOM     16  H   UNL     1     144.077 127.903 103.782  0.00  0.00    +0.000 HD
ENDROOT
TORSDOF 0
ENDMDL
MODEL 8
REMARK VINA RESULT:    -3.478     17.960     19.246
REMARK INTER + INTRA:          -3.478
REMARK INTER:                  -3.478
REMARK INTRA:                   0.000
REMARK UNBOUND:                 0.000
REMARK  Name = /home/vital/Documents/PhD_2021/Malaria_codes/scripts/../data/pdbqt_ligands/ligand_344_temp.pdb
REMARK                            x       y       z     vdW  Elec       q    Type
REMARK                         _______ _______ _______ _____ _____    ______ ____
ROOT
ATOM      1  C   UNL     1     146.297 131.418  99.844  0.00  0.00    -0.099 C 
ATOM      2  C   UNL     1     145.247 132.165  99.484  0.00  0.00    -0.069 C 
ATOM      3  C   UNL     1     143.881 131.770  99.734  0.00  0.00    -0.066 C 
ATOM      4  C   UNL     1     142.831 132.525  99.373  0.00  0.00    -0.075 C 
ATOM      5  C   UNL     1     141.375 132.208  99.585  0.00  0.00    +0.042 C 
ATOM      6  C   UNL     1     141.077 130.819 100.141  0.00  0.00    +0.217 C 
ATOM      7  O   UNL     1     140.973 130.596 101.344  0.00  0.00    -0.275 OA
ATOM      8  N   UNL     1     140.957 129.844  99.176  0.00  0.00    -0.314 N 
ATOM      9  C   UNL     1     140.687 128.452  99.494  0.00  0.00    +0.027 C 
ATOM     10  C   UNL     1     139.194 128.075  99.359  0.00  0.00    +0.018 C 
ATOM     11  C   UNL     1     138.345 128.664 100.485  0.00  0.00    -0.048 C 
ATOM     12  N   UNL     1     138.656 128.506  98.055  0.00  0.00    -0.326 N 
ATOM     13  H   UNL     1     141.058 130.101  98.231  0.00  0.00    +0.000 HD
ATOM     14  H   UNL     1     138.706 129.522  97.986  0.00  0.00    +0.000 HD
ATOM     15  H   UNL     1     137.684 128.206  97.972  0.00  0.00    +0.000 HD
ATOM     16  H   UNL     1     139.206 128.087  97.306  0.00  0.00    +0.000 HD
ENDROOT
TORSDOF 0
ENDMDL
