MODEL 1
REMARK VINA RESULT:    -3.993      0.000      0.000
REMARK INTER + INTRA:          -3.993
REMARK INTER:                  -3.993
REMARK INTRA:                   0.000
REMARK UNBOUND:                 0.000
REMARK  Name = /home/vital/Documents/PhD_2021/Malaria_codes/scripts/../data/pdbqt_ligands/ligand_300_temp.pdb
REMARK                            x       y       z     vdW  Elec       q    Type
REMARK                         _______ _______ _______ _____ _____    ______ ____
ROOT
ATOM      1  C   UNL     1     145.892 135.099  98.249  0.00  0.00    -0.054 C 
ATOM      2  C   UNL     1     145.295 134.337  97.381  0.00  0.00    -0.104 C 
ATOM      3  C   UNL     1     144.699 133.590  96.492  0.00  0.00    +0.086 C 
ATOM      4  N   UNL     1     145.011 133.852  95.175  0.00  0.00    -0.351 N 
ATOM      5  C   UNL     1     143.741 132.540  96.854  0.00  0.00    +0.067 C 
ATOM      6 CL   UNL     1     143.273 131.451  95.566  0.00  0.00    -0.081 Cl
ATOM      7  C   UNL     1     143.248 132.359  98.094  0.00  0.00    -0.049 C 
ATOM      8  C   UNL     1     142.251 131.336  98.552  0.00  0.00    +0.018 C 
ATOM      9  N   UNL     1     142.922 130.391  99.439  0.00  0.00    -0.289 N 
ATOM     10  C   UNL     1     142.071 129.295  99.883  0.00  0.00    +0.121 C 
ATOM     11  C   UNL     1     140.910 129.792 100.752  0.00  0.00    -0.046 C 
ATOM     12  C   UNL     1     139.579 129.854 100.509  0.00  0.00    -0.062 C 
ATOM     13  C   UNL     1     138.985 129.501  99.236  0.00  0.00    -0.054 C 
ATOM     14  C   UNL     1     138.503 128.268  98.976  0.00  0.00    -0.010 C 
ATOM     15  C   UNL     1     138.929 127.692  97.741  0.00  0.00    -0.053 C 
ATOM     16  C   UNL     1     139.879 127.416  97.058  0.00  0.00    +0.008 C 
ATOM     17  N   UNL     1     141.332 127.401  96.749  0.00  0.00    -0.248 N 
ATOM     18  C   UNL     1     141.703 127.453  95.343  0.00  0.00    +0.049 C 
ATOM     19  C   UNL     1     141.225 126.213  94.585  0.00  0.00    +0.061 C 
ATOM     20  O   UNL     1     141.773 126.183  93.268  0.00  0.00    -0.393 OA
ATOM     21  C   UNL     1     142.034 128.138  97.707  0.00  0.00    +0.092 C 
ATOM     22  N   UNL     1     141.579 128.410  98.866  0.00  0.00    -0.253 NA
ATOM     23  H   UNL     1     145.656 134.562  94.954  0.00  0.00    +0.000 HD
ATOM     24  H   UNL     1     144.588 133.330  94.455  0.00  0.00    +0.000 HD
ATOM     25  H   UNL     1     143.249 130.899 100.261  0.00  0.00    +0.000 HD
ATOM     26  H   UNL     1     143.686 129.976  98.907  0.00  0.00    +0.000 HD
ATOM     27  H   UNL     1     141.484 126.970  92.780  0.00  0.00    +0.000 HD
ENDROOT
TORSDOF 0
ENDMDL
MODEL 2
REMARK VINA RESULT:    -3.586      3.852      4.888
REMARK INTER + INTRA:          -3.586
REMARK INTER:                  -3.586
REMARK INTRA:                   0.000
REMARK UNBOUND:                 0.000
REMARK  Name = /home/vital/Documents/PhD_2021/Malaria_codes/scripts/../data/pdbqt_ligands/ligand_300_temp.pdb
REMARK                            x       y       z     vdW  Elec       q    Type
REMARK                         _______ _______ _______ _____ _____    ______ ____
ROOT
ATOM      1  C   UNL     1     144.994 133.298  94.358  0.00  0.00    -0.054 C 
ATOM      2  C   UNL     1     145.382 132.423  95.237  0.00  0.00    -0.104 C 
ATOM      3  C   UNL     1     145.790 131.536  96.103  0.00  0.00    +0.086 C 
ATOM      4  N   UNL     1     147.102 131.131  95.982  0.00  0.00    -0.351 N 
ATOM      5  C   UNL     1     144.914 130.982  97.141  0.00  0.00    +0.067 C 
ATOM      6 CL   UNL     1     145.702 130.039  98.388  0.00  0.00    -0.081 Cl
ATOM      7  C   UNL     1     143.583 131.184  97.197  0.00  0.00    -0.049 C 
ATOM      8  C   UNL     1     142.607 130.642  98.198  0.00  0.00    +0.018 C 
ATOM      9  N   UNL     1     142.103 131.746  99.009  0.00  0.00    -0.289 N 
ATOM     10  C   UNL     1     141.206 131.329 100.078  0.00  0.00    +0.121 C 
ATOM     11  C   UNL     1     139.916 130.710  99.530  0.00  0.00    -0.046 C 
ATOM     12  C   UNL     1     139.464 129.433  99.548  0.00  0.00    -0.062 C 
ATOM     13  C   UNL     1     140.235 128.322 100.067  0.00  0.00    -0.054 C 
ATOM     14  C   UNL     1     140.118 127.890 101.339  0.00  0.00    -0.010 C 
ATOM     15  C   UNL     1     141.350 127.699 102.037  0.00  0.00    -0.053 C 
ATOM     16  C   UNL     1     142.392 128.208 102.353  0.00  0.00    +0.008 C 
ATOM     17  N   UNL     1     143.385 129.313 102.348  0.00  0.00    -0.248 N 
ATOM     18  C   UNL     1     144.787 128.934 102.443  0.00  0.00    +0.049 C 
ATOM     19  C   UNL     1     145.100 128.259 103.779  0.00  0.00    +0.061 C 
ATOM     20  O   UNL     1     146.507 128.085 103.939  0.00  0.00    -0.393 OA
ATOM     21  C   UNL     1     142.971 130.327 101.479  0.00  0.00    +0.092 C 
ATOM     22  N   UNL     1     141.765 130.482 101.092  0.00  0.00    -0.253 NA
ATOM     23  H   UNL     1     147.673 131.515  95.279  0.00  0.00    +0.000 HD
ATOM     24  H   UNL     1     147.469 130.457  96.600  0.00  0.00    +0.000 HD
ATOM     25  H   UNL     1     141.599 132.389  98.398  0.00  0.00    +0.000 HD
ATOM     26  H   UNL     1     142.911 132.181  99.452  0.00  0.00    +0.000 HD
ATOM     27  H   UNL     1     146.847 127.522 103.225  0.00  0.00    +0.000 HD
ENDROOT
TORSDOF 0
ENDMDL
MODEL 3
REMARK VINA RESULT:    -3.424      4.279      7.292
REMARK INTER + INTRA:          -3.424
REMARK INTER:                  -3.424
REMARK INTRA:                   0.000
REMARK UNBOUND:                 0.000
REMARK  Name = /home/vital/Documents/PhD_2021/Malaria_codes/scripts/../data/pdbqt_ligands/ligand_300_temp.pdb
REMARK                            x       y       z     vdW  Elec       q    Type
REMARK                         _______ _______ _______ _____ _____    ______ ____
ROOT
ATOM      1  C   UNL     1     144.764 121.360  97.969  0.00  0.00    -0.054 C 
ATOM      2  C   UNL     1     144.727 122.347  98.813  0.00  0.00    -0.104 C 
ATOM      3  C   UNL     1     144.699 123.323  99.679  0.00  0.00    +0.086 C 
ATOM      4  N   UNL     1     145.542 123.195 100.762  0.00  0.00    -0.351 N 
ATOM      5  C   UNL     1     143.819 124.488  99.532  0.00  0.00    +0.067 C 
ATOM      6 CL   UNL     1     144.128 125.826 100.618  0.00  0.00    -0.081 Cl
ATOM      7  C   UNL     1     142.841 124.586  98.611  0.00  0.00    -0.049 C 
ATOM      8  C   UNL     1     141.879 125.718  98.402  0.00  0.00    +0.018 C 
ATOM      9  N   UNL     1     142.183 126.363  97.128  0.00  0.00    -0.289 N 
ATOM     10  C   UNL     1     141.365 127.537  96.854  0.00  0.00    +0.121 C 
ATOM     11  C   UNL     1     139.885 127.175  96.693  0.00  0.00    -0.046 C 
ATOM     12  C   UNL     1     138.815 127.429  97.483  0.00  0.00    -0.062 C 
ATOM     13  C   UNL     1     138.915 128.079  98.774  0.00  0.00    -0.054 C 
ATOM     14  C   UNL     1     138.760 129.410  98.930  0.00  0.00    -0.010 C 
ATOM     15  C   UNL     1     139.770 130.057  99.706  0.00  0.00    -0.053 C 
ATOM     16  C   UNL     1     140.952 130.224  99.842  0.00  0.00    +0.008 C 
ATOM     17  N   UNL     1     142.376 129.978  99.496  0.00  0.00    -0.248 N 
ATOM     18  C   UNL     1     143.338 130.053 100.585  0.00  0.00    +0.049 C 
ATOM     19  C   UNL     1     143.414 131.462 101.175  0.00  0.00    +0.061 C 
ATOM     20  O   UNL     1     144.502 131.566 102.094  0.00  0.00    -0.393 OA
ATOM     21  C   UNL     1     142.468 128.979  98.522  0.00  0.00    +0.092 C 
ATOM     22  N   UNL     1     141.504 128.643  97.757  0.00  0.00    -0.253 NA
ATOM     23  H   UNL     1     146.125 122.405 100.842  0.00  0.00    +0.000 HD
ATOM     24  H   UNL     1     145.562 123.893 101.457  0.00  0.00    +0.000 HD
ATOM     25  H   UNL     1     142.034 125.684  96.382  0.00  0.00    +0.000 HD
ATOM     26  H   UNL     1     143.150 126.681  97.180  0.00  0.00    +0.000 HD
ATOM     27  H   UNL     1     144.372 130.937 102.821  0.00  0.00    +0.000 HD
ENDROOT
TORSDOF 0
ENDMDL
MODEL 4
REMARK VINA RESULT:    -3.396      3.916      7.295
REMARK INTER + INTRA:          -3.396
REMARK INTER:                  -3.396
REMARK INTRA:                   0.000
REMARK UNBOUND:                 0.000
REMARK  Name = /home/vital/Documents/PhD_2021/Malaria_codes/scripts/../data/pdbqt_ligands/ligand_300_temp.pdb
REMARK                            x       y       z     vdW  Elec       q    Type
REMARK                         _______ _______ _______ _____ _____    ______ ____
ROOT
ATOM      1  C   UNL     1     141.574 120.600  97.934  0.00  0.00    -0.054 C 
ATOM      2  C   UNL     1     142.297 121.597  98.348  0.00  0.00    -0.104 C 
ATOM      3  C   UNL     1     143.037 122.582  98.779  0.00  0.00    +0.086 C 
ATOM      4  N   UNL     1     144.284 122.239  99.256  0.00  0.00    -0.351 N 
ATOM      5  C   UNL     1     142.580 123.976  98.775  0.00  0.00    +0.067 C 
ATOM      6 CL   UNL     1     143.802 125.186  99.105  0.00  0.00    -0.081 Cl
ATOM      7  C   UNL     1     141.317 124.358  98.508  0.00  0.00    -0.049 C 
ATOM      8  C   UNL     1     140.752 125.748  98.506  0.00  0.00    +0.018 C 
ATOM      9  N   UNL     1     140.410 126.114  97.135  0.00  0.00    -0.289 N 
ATOM     10  C   UNL     1     139.928 127.482  96.994  0.00  0.00    +0.121 C 
ATOM     11  C   UNL     1     138.602 127.697  97.731  0.00  0.00    -0.046 C 
ATOM     12  C   UNL     1     138.309 128.408  98.846  0.00  0.00    -0.062 C 
ATOM     13  C   UNL     1     139.310 129.082  99.648  0.00  0.00    -0.054 C 
ATOM     14  C   UNL     1     139.630 130.380  99.467  0.00  0.00    -0.010 C 
ATOM     15  C   UNL     1     141.029 130.659  99.386  0.00  0.00    -0.053 C 
ATOM     16  C   UNL     1     142.061 130.375  98.839  0.00  0.00    +0.008 C 
ATOM     17  N   UNL     1     142.887 129.577  97.898  0.00  0.00    -0.248 N 
ATOM     18  C   UNL     1     144.283 129.376  98.260  0.00  0.00    +0.049 C 
ATOM     19  C   UNL     1     145.055 130.696  98.288  0.00  0.00    +0.061 C 
ATOM     20  O   UNL     1     146.454 130.458  98.439  0.00  0.00    -0.393 OA
ATOM     21  C   UNL     1     142.128 128.536  97.355  0.00  0.00    +0.092 C 
ATOM     22  N   UNL     1     140.853 128.527  97.331  0.00  0.00    -0.253 NA
ATOM     23  H   UNL     1     144.572 121.297  99.249  0.00  0.00    +0.000 HD
ATOM     24  H   UNL     1     144.888 122.935  99.603  0.00  0.00    +0.000 HD
ATOM     25  H   UNL     1     139.681 125.480  96.806  0.00  0.00    +0.000 HD
ATOM     26  H   UNL     1     141.266 126.043  96.586  0.00  0.00    +0.000 HD
ATOM     27  H   UNL     1     146.615 129.992  99.274  0.00  0.00    +0.000 HD
ENDROOT
TORSDOF 0
ENDMDL
MODEL 5
REMARK VINA RESULT:    -3.380      1.315      1.405
REMARK INTER + INTRA:          -3.380
REMARK INTER:                  -3.380
REMARK INTRA:                   0.000
REMARK UNBOUND:                 0.000
REMARK  Name = /home/vital/Documents/PhD_2021/Malaria_codes/scripts/../data/pdbqt_ligands/ligand_300_temp.pdb
REMARK                            x       y       z     vdW  Elec       q    Type
REMARK                         _______ _______ _______ _____ _____    ______ ____
ROOT
ATOM      1  C   UNL     1     146.130 134.761  95.799  0.00  0.00    -0.054 C 
ATOM      2  C   UNL     1     145.438 133.765  95.332  0.00  0.00    -0.104 C 
ATOM      3  C   UNL     1     144.743 132.776  94.839  0.00  0.00    +0.086 C 
ATOM      4  N   UNL     1     144.863 132.570  93.481  0.00  0.00    -0.351 N 
ATOM      5  C   UNL     1     143.872 131.932  95.664  0.00  0.00    +0.067 C 
ATOM      6 CL   UNL     1     143.258 130.483  94.898  0.00  0.00    -0.081 Cl
ATOM      7  C   UNL     1     143.561 132.193  96.948  0.00  0.00    -0.049 C 
ATOM      8  C   UNL     1     142.664 131.408  97.859  0.00  0.00    +0.018 C 
ATOM      9  N   UNL     1     143.475 130.803  98.910  0.00  0.00    -0.289 N 
ATOM     10  C   UNL     1     142.722 129.942  99.813  0.00  0.00    +0.121 C 
ATOM     11  C   UNL     1     141.681 130.730 100.615  0.00  0.00    -0.046 C 
ATOM     12  C   UNL     1     140.328 130.737 100.553  0.00  0.00    -0.062 C 
ATOM     13  C   UNL     1     139.572 129.988  99.570  0.00  0.00    -0.054 C 
ATOM     14  C   UNL     1     139.091 128.752  99.812  0.00  0.00    -0.010 C 
ATOM     15  C   UNL     1     139.355 127.782  98.797  0.00  0.00    -0.053 C 
ATOM     16  C   UNL     1     140.208 127.269  98.123  0.00  0.00    +0.008 C 
ATOM     17  N   UNL     1     141.604 127.117  97.638  0.00  0.00    -0.248 N 
ATOM     18  C   UNL     1     141.775 126.682  96.260  0.00  0.00    +0.049 C 
ATOM     19  C   UNL     1     141.228 125.270  96.040  0.00  0.00    +0.061 C 
ATOM     20  O   UNL     1     141.589 124.785  94.748  0.00  0.00    -0.393 OA
ATOM     21  C   UNL     1     142.413 128.118  98.183  0.00  0.00    +0.092 C 
ATOM     22  N   UNL     1     142.117 128.777  99.233  0.00  0.00    -0.253 NA
ATOM     23  H   UNL     1     145.453 133.148  92.946  0.00  0.00    +0.000 HD
ATOM     24  H   UNL     1     144.358 131.845  93.047  0.00  0.00    +0.000 HD
ATOM     25  H   UNL     1     143.900 131.551  99.459  0.00  0.00    +0.000 HD
ATOM     26  H   UNL     1     144.168 130.215  98.449  0.00  0.00    +0.000 HD
ATOM     27  H   UNL     1     141.214 125.367  94.068  0.00  0.00    +0.000 HD
ENDROOT
TORSDOF 0
ENDMDL
MODEL 6
REMARK VINA RESULT:    -3.142      5.697      7.804
REMARK INTER + INTRA:          -3.142
REMARK INTER:                  -3.142
REMARK INTRA:                   0.000
REMARK UNBOUND:                 0.000
REMARK  Name = /home/vital/Documents/PhD_2021/Malaria_codes/scripts/../data/pdbqt_ligands/ligand_300_temp.pdb
REMARK                            x       y       z     vdW  Elec       q    Type
REMARK                         _______ _______ _______ _____ _____    ______ ____
ROOT
ATOM      1  C   UNL     1     145.057 131.467  94.443  0.00  0.00    -0.054 C 
ATOM      2  C   UNL     1     143.860 131.487  93.937  0.00  0.00    -0.104 C 
ATOM      3  C   UNL     1     142.652 131.526  93.445  0.00  0.00    +0.086 C 
ATOM      4  N   UNL     1     141.986 132.727  93.572  0.00  0.00    -0.351 N 
ATOM      5  C   UNL     1     142.019 130.368  92.804  0.00  0.00    +0.067 C 
ATOM      6 CL   UNL     1     140.528 130.686  91.944  0.00  0.00    -0.081 Cl
ATOM      7  C   UNL     1     142.531 129.123  92.817  0.00  0.00    -0.049 C 
ATOM      8  C   UNL     1     141.948 127.878  92.216  0.00  0.00    +0.018 C 
ATOM      9  N   UNL     1     142.789 127.457  91.100  0.00  0.00    -0.289 N 
ATOM     10  C   UNL     1     142.274 126.300  90.379  0.00  0.00    +0.121 C 
ATOM     11  C   UNL     1     142.248 125.047  91.260  0.00  0.00    -0.046 C 
ATOM     12  C   UNL     1     141.213 124.351  91.789  0.00  0.00    -0.062 C 
ATOM     13  C   UNL     1     139.830 124.762  91.662  0.00  0.00    -0.054 C 
ATOM     14  C   UNL     1     139.026 124.310  90.678  0.00  0.00    -0.010 C 
ATOM     15  C   UNL     1     138.287 125.314  89.982  0.00  0.00    -0.053 C 
ATOM     16  C   UNL     1     138.359 126.354  89.383  0.00  0.00    +0.008 C 
ATOM     17  N   UNL     1     139.094 127.531  88.852  0.00  0.00    -0.248 N 
ATOM     18  C   UNL     1     138.352 128.780  88.761  0.00  0.00    +0.049 C 
ATOM     19  C   UNL     1     137.195 128.679  87.767  0.00  0.00    +0.061 C 
ATOM     20  O   UNL     1     136.613 129.961  87.538  0.00  0.00    -0.393 OA
ATOM     21  C   UNL     1     140.419 127.512  89.298  0.00  0.00    +0.092 C 
ATOM     22  N   UNL     1     141.010 126.464  89.721  0.00  0.00    -0.253 NA
ATOM     23  H   UNL     1     142.428 133.492  94.006  0.00  0.00    +0.000 HD
ATOM     24  H   UNL     1     141.067 132.820  93.229  0.00  0.00    +0.000 HD
ATOM     25  H   UNL     1     143.713 127.225  91.464  0.00  0.00    +0.000 HD
ATOM     26  H   UNL     1     142.813 128.232  90.438  0.00  0.00    +0.000 HD
ATOM     27  H   UNL     1     136.268 130.314  88.373  0.00  0.00    +0.000 HD
ENDROOT
TORSDOF 0
ENDMDL
MODEL 7
REMARK VINA RESULT:    -3.087      4.779      7.383
REMARK INTER + INTRA:          -3.087
REMARK INTER:                  -3.087
REMARK INTRA:                   0.000
REMARK UNBOUND:                 0.000
REMARK  Name = /home/vital/Documents/PhD_2021/Malaria_codes/scripts/../data/pdbqt_ligands/ligand_300_temp.pdb
REMARK                            x       y       z     vdW  Elec       q    Type
REMARK                         _______ _______ _______ _____ _____    ______ ____
ROOT
ATOM      1  C   UNL     1     144.549 124.125 105.722  0.00  0.00    -0.054 C 
ATOM      2  C   UNL     1     144.912 125.311 105.336  0.00  0.00    -0.104 C 
ATOM      3  C   UNL     1     145.288 126.506 104.970  0.00  0.00    +0.086 C 
ATOM      4  N   UNL     1     146.424 126.996 105.581  0.00  0.00    -0.351 N 
ATOM      5  C   UNL     1     144.553 127.301 103.980  0.00  0.00    +0.067 C 
ATOM      6 CL   UNL     1     145.360 128.740 103.397  0.00  0.00    -0.081 Cl
ATOM      7  C   UNL     1     143.342 126.969 103.492  0.00  0.00    -0.049 C 
ATOM      8  C   UNL     1     142.505 127.725 102.503  0.00  0.00    +0.018 C 
ATOM      9  N   UNL     1     142.440 126.962 101.261  0.00  0.00    -0.289 N 
ATOM     10  C   UNL     1     141.721 127.640 100.191  0.00  0.00    +0.121 C 
ATOM     11  C   UNL     1     140.240 127.834 100.534  0.00  0.00    -0.046 C 
ATOM     12  C   UNL     1     139.532 128.952 100.824  0.00  0.00    -0.062 C 
ATOM     13  C   UNL     1     140.132 130.265 100.948  0.00  0.00    -0.054 C 
ATOM     14  C   UNL     1     140.195 131.133  99.918  0.00  0.00    -0.010 C 
ATOM     15  C   UNL     1     141.474 131.730  99.698  0.00  0.00    -0.053 C 
ATOM     16  C   UNL     1     142.645 131.517  99.531  0.00  0.00    +0.008 C 
ATOM     17  N   UNL     1     143.833 130.629  99.439  0.00  0.00    -0.248 N 
ATOM     18  C   UNL     1     145.105 131.189  99.871  0.00  0.00    +0.049 C 
ATOM     19  C   UNL     1     145.538 132.358  98.985  0.00  0.00    +0.061 C 
ATOM     20  O   UNL     1     146.873 132.756  99.292  0.00  0.00    -0.393 OA
ATOM     21  C   UNL     1     143.477 129.316  99.762  0.00  0.00    +0.092 C 
ATOM     22  N   UNL     1     142.282 128.875  99.721  0.00  0.00    -0.253 NA
ATOM     23  H   UNL     1     146.903 126.447 106.242  0.00  0.00    +0.000 HD
ATOM     24  H   UNL     1     146.755 127.896 105.355  0.00  0.00    +0.000 HD
ATOM     25  H   UNL     1     141.972 126.076 101.453  0.00  0.00    +0.000 HD
ATOM     26  H   UNL     1     143.399 126.836 100.940  0.00  0.00    +0.000 HD
ATOM     27  H   UNL     1     146.921 133.041 100.218  0.00  0.00    +0.000 HD
ENDROOT
TORSDOF 0
ENDMDL
MODEL 8
REMARK VINA RESULT:    -2.955      3.930      6.773
REMARK INTER + INTRA:          -2.955
REMARK INTER:                  -2.955
REMARK INTRA:                   0.000
REMARK UNBOUND:                 0.000
REMARK  Name = /home/vital/Documents/PhD_2021/Malaria_codes/scripts/../data/pdbqt_ligands/ligand_300_temp.pdb
REMARK                            x       y       z     vdW  Elec       q    Type
REMARK                         _______ _______ _______ _____ _____    ______ ____
ROOT
ATOM      1  C   UNL     1     140.915 125.798 106.359  0.00  0.00    -0.054 C 
ATOM      2  C   UNL     1     141.793 125.735 105.402  0.00  0.00    -0.104 C 
ATOM      3  C   UNL     1     142.692 125.662 104.459  0.00  0.00    +0.086 C 
ATOM      4  N   UNL     1     143.716 124.762 104.667  0.00  0.00    -0.351 N 
ATOM      5  C   UNL     1     142.640 126.491 103.250  0.00  0.00    +0.067 C 
ATOM      6 CL   UNL     1     143.749 126.052 101.969  0.00  0.00    -0.081 Cl
ATOM      7  C   UNL     1     141.786 127.517 103.072  0.00  0.00    -0.049 C 
ATOM      8  C   UNL     1     141.675 128.433 101.888  0.00  0.00    +0.018 C 
ATOM      9  N   UNL     1     140.408 128.175 101.212  0.00  0.00    -0.289 N 
ATOM     10  C   UNL     1     140.224 128.950  99.992  0.00  0.00    +0.121 C 
ATOM     11  C   UNL     1     140.144 130.453 100.278  0.00  0.00    -0.046 C 
ATOM     12  C   UNL     1     141.007 131.460 100.003  0.00  0.00    -0.062 C 
ATOM     13  C   UNL     1     142.311 131.250  99.406  0.00  0.00    -0.054 C 
ATOM     14  C   UNL     1     142.521 131.329  98.076  0.00  0.00    -0.010 C 
ATOM     15  C   UNL     1     143.254 130.244  97.507  0.00  0.00    -0.053 C 
ATOM     16  C   UNL     1     143.323 129.048  97.401  0.00  0.00    +0.008 C 
ATOM     17  N   UNL     1     142.880 127.662  97.700  0.00  0.00    -0.248 N 
ATOM     18  C   UNL     1     143.909 126.634  97.710  0.00  0.00    +0.049 C 
ATOM     19  C   UNL     1     144.541 126.452  96.329  0.00  0.00    +0.061 C 
ATOM     20  O   UNL     1     145.393 125.308  96.311  0.00  0.00    -0.393 OA
ATOM     21  C   UNL     1     141.869 127.679  98.666  0.00  0.00    +0.092 C 
ATOM     22  N   UNL     1     141.154 128.702  98.928  0.00  0.00    -0.253 NA
ATOM     23  H   UNL     1     143.732 124.215 105.485  0.00  0.00    +0.000 HD
ATOM     24  H   UNL     1     144.431 124.666 103.996  0.00  0.00    +0.000 HD
ATOM     25  H   UNL     1     139.649 128.403 101.855  0.00  0.00    +0.000 HD
ATOM     26  H   UNL     1     140.410 127.192 100.943  0.00  0.00    +0.000 HD
ATOM     27  H   UNL     1     146.105 125.423  96.959  0.00  0.00    +0.000 HD
ENDROOT
TORSDOF 0
ENDMDL
MODEL 9
REMARK VINA RESULT:    -2.888      2.959      6.356
REMARK INTER + INTRA:          -2.888
REMARK INTER:                  -2.888
REMARK INTRA:                   0.000
REMARK UNBOUND:                 0.000
REMARK  Name = /home/vital/Documents/PhD_2021/Malaria_codes/scripts/../data/pdbqt_ligands/ligand_300_temp.pdb
REMARK                            x       y       z     vdW  Elec       q    Type
REMARK                         _______ _______ _______ _____ _____    ______ ____
ROOT
ATOM      1  C   UNL     1     143.562 125.804  91.869  0.00  0.00    -0.054 C 
ATOM      2  C   UNL     1     142.602 126.165  92.667  0.00  0.00    -0.104 C 
ATOM      3  C   UNL     1     141.620 126.519  93.451  0.00  0.00    +0.086 C 
ATOM      4  N   UNL     1     140.416 125.882  93.238  0.00  0.00    -0.351 N 
ATOM      5  C   UNL     1     141.768 127.541  94.492  0.00  0.00    +0.067 C 
ATOM      6 CL   UNL     1     140.446 127.672  95.633  0.00  0.00    -0.081 Cl
ATOM      7  C   UNL     1     142.848 128.334  94.627  0.00  0.00    -0.049 C 
ATOM      8  C   UNL     1     143.078 129.419  95.638  0.00  0.00    +0.018 C 
ATOM      9  N   UNL     1     144.142 128.999  96.544  0.00  0.00    -0.289 N 
ATOM     10  C   UNL     1     144.398 129.939  97.627  0.00  0.00    +0.121 C 
ATOM     11  C   UNL     1     144.924 131.280  97.103  0.00  0.00    -0.046 C 
ATOM     12  C   UNL     1     144.349 132.506  97.058  0.00  0.00    -0.062 C 
ATOM     13  C   UNL     1     142.982 132.759  97.463  0.00  0.00    -0.054 C 
ATOM     14  C   UNL     1     142.657 133.164  98.708  0.00  0.00    -0.010 C 
ATOM     15  C   UNL     1     141.593 132.442  99.329  0.00  0.00    -0.053 C 
ATOM     16  C   UNL     1     141.184 131.351  99.626  0.00  0.00    +0.008 C 
ATOM     17  N   UNL     1     141.254 129.867  99.645  0.00  0.00    -0.248 N 
ATOM     18  C   UNL     1     139.987 129.151  99.645  0.00  0.00    +0.049 C 
ATOM     19  C   UNL     1     139.182 129.427 100.916  0.00  0.00    +0.061 C 
ATOM     20  O   UNL     1     138.049 128.563 100.993  0.00  0.00    -0.393 OA
ATOM     21  C   UNL     1     142.330 129.427  98.867  0.00  0.00    +0.092 C 
ATOM     22  N   UNL     1     143.325 130.161  98.553  0.00  0.00    -0.253 NA
ATOM     23  H   UNL     1     140.338 125.198  92.534  0.00  0.00    +0.000 HD
ATOM     24  H   UNL     1     139.634 126.110  93.790  0.00  0.00    +0.000 HD
ATOM     25  H   UNL     1     145.000 128.889  96.003  0.00  0.00    +0.000 HD
ATOM     26  H   UNL     1     143.837 128.126  96.975  0.00  0.00    +0.000 HD
ATOM     27  H   UNL     1     137.474 128.715 100.228  0.00  0.00    +0.000 HD
ENDROOT
TORSDOF 0
ENDMDL
