MODEL 1
REMARK VINA RESULT:    -5.785      0.000      0.000
REMARK INTER + INTRA:          -5.785
REMARK INTER:                  -5.785
REMARK INTRA:                   0.000
REMARK UNBOUND:                 0.000
REMARK  Name = /home/vital/Documents/PhD_2021/Malaria_codes/scripts/../data/pdbqt_ligands/ligand_468_temp.pdb
REMARK                            x       y       z     vdW  Elec       q    Type
REMARK                         _______ _______ _______ _____ _____    ______ ____
ROOT
ATOM      1  C1  UNL     1     146.984 128.600 107.838  0.00  0.00    +0.079 C 
ATOM      2  O1  UNL     1     147.295 127.293 107.372  0.00  0.00    -0.495 OA
ATOM      3  C2  UNL     1     146.812 126.944 106.140  0.00  0.00    +0.125 A 
ATOM      4  C3  UNL     1     147.204 125.678 105.695  0.00  0.00    +0.022 A 
ATOM      5  C4  UNL     1     146.798 125.188 104.451  0.00  0.00    +0.125 A 
ATOM      6  O2  UNL     1     147.268 123.940 104.146  0.00  0.00    -0.495 OA
ATOM      7  C5  UNL     1     146.907 123.409 102.876  0.00  0.00    +0.079 C 
ATOM      8  C6  UNL     1     145.980 125.975 103.643  0.00  0.00    +0.003 A 
ATOM      9  C7  UNL     1     145.571 127.239 104.089  0.00  0.00    +0.068 A 
ATOM     10  N1  UNL     1     144.744 128.082 103.268  0.00  0.00    -0.123 N 
ATOM     11  C8  UNL     1     143.404 127.667 103.111  0.00  0.00    +0.333 C 
ATOM     12  O3  UNL     1     142.958 126.738 103.784  0.00  0.00    -0.250 OA
ATOM     13  N2  UNL     1     142.578 128.363 102.215  0.00  0.00    -0.248 N 
ATOM     14  C9  UNL     1     141.201 127.860 102.079  0.00  0.00    +0.047 C 
ATOM     15  C10 UNL     1     140.779 127.486 100.664  0.00  0.00    -0.026 A 
ATOM     16  C11 UNL     1     139.592 128.055 100.153  0.00  0.00    -0.054 A 
ATOM     17  C12 UNL     1     139.130 127.765  98.864  0.00  0.00    -0.050 A 
ATOM     18  C13 UNL     1     137.892 128.426  98.333  0.00  0.00    -0.040 C 
ATOM     19  C14 UNL     1     139.870 126.897  98.063  0.00  0.00    -0.059 A 
ATOM     20  C15 UNL     1     141.024 126.295  98.562  0.00  0.00    -0.058 A 
ATOM     21  C16 UNL     1     141.480 126.558  99.866  0.00  0.00    -0.046 A 
ATOM     22  C17 UNL     1     142.714 125.843 100.339  0.00  0.00    -0.039 C 
ATOM     23  C18 UNL     1     142.975 129.578 101.563  0.00  0.00    +0.065 A 
ATOM     24  C19 UNL     1     142.032 130.471 101.026  0.00  0.00    -0.038 A 
ATOM     25  C20 UNL     1     142.416 131.666 100.401  0.00  0.00    -0.060 A 
ATOM     26  C21 UNL     1     143.759 132.004 100.299  0.00  0.00    -0.060 A 
ATOM     27  C22 UNL     1     144.715 131.142 100.822  0.00  0.00    -0.033 A 
ATOM     28  C23 UNL     1     144.312 129.946 101.436  0.00  0.00    +0.131 A 
ATOM     29  S1  UNL     1     145.553 128.883 102.052  0.00  0.00    +0.084 S 
ATOM     30  O4  UNL     1     145.880 127.949 100.995  0.00  0.00    -0.149 OA
ATOM     31  O5  UNL     1     146.569 129.724 102.654  0.00  0.00    -0.149 OA
ATOM     32  C24 UNL     1     145.992 127.727 105.331  0.00  0.00    +0.003 A 
ENDROOT
TORSDOF 0
ENDMDL
MODEL 2
REMARK VINA RESULT:    -5.783      3.452      5.781
REMARK INTER + INTRA:          -5.783
REMARK INTER:                  -5.783
REMARK INTRA:                   0.000
REMARK UNBOUND:                 0.000
REMARK  Name = /home/vital/Documents/PhD_2021/Malaria_codes/scripts/../data/pdbqt_ligands/ligand_468_temp.pdb
REMARK                            x       y       z     vdW  Elec       q    Type
REMARK                         _______ _______ _______ _____ _____    ______ ____
ROOT
ATOM      1  C1  UNL     1     145.071 127.608 104.179  0.00  0.00    +0.079 C 
ATOM      2  O1  UNL     1     145.966 128.520 103.553  0.00  0.00    -0.495 OA
ATOM      3  C2  UNL     1     145.622 128.968 102.307  0.00  0.00    +0.125 A 
ATOM      4  C3  UNL     1     146.495 129.916 101.765  0.00  0.00    +0.022 A 
ATOM      5  C4  UNL     1     146.269 130.474 100.504  0.00  0.00    +0.125 A 
ATOM      6  O2  UNL     1     147.200 131.395 100.109  0.00  0.00    -0.495 OA
ATOM      7  C5  UNL     1     146.997 132.015  98.845  0.00  0.00    +0.079 C 
ATOM      8  C6  UNL     1     145.155 130.070  99.770  0.00  0.00    +0.003 A 
ATOM      9  C7  UNL     1     144.284 129.109 100.301  0.00  0.00    +0.068 A 
ATOM     10  N1  UNL     1     143.115 128.689  99.576  0.00  0.00    -0.123 N 
ATOM     11  C8  UNL     1     143.350 127.893  98.435  0.00  0.00    +0.333 C 
ATOM     12  O3  UNL     1     144.479 127.460  98.201  0.00  0.00    -0.250 OA
ATOM     13  N2  UNL     1     142.269 127.562  97.602  0.00  0.00    -0.248 N 
ATOM     14  C9  UNL     1     142.590 126.754  96.414  0.00  0.00    +0.047 C 
ATOM     15  C10 UNL     1     142.177 127.361  95.081  0.00  0.00    -0.026 A 
ATOM     16  C11 UNL     1     141.390 126.576  94.209  0.00  0.00    -0.054 A 
ATOM     17  C12 UNL     1     140.967 127.054  92.964  0.00  0.00    -0.050 A 
ATOM     18  C13 UNL     1     140.090 126.213  92.083  0.00  0.00    -0.040 C 
ATOM     19  C14 UNL     1     141.327 128.345  92.581  0.00  0.00    -0.059 A 
ATOM     20  C15 UNL     1     142.135 129.123  93.410  0.00  0.00    -0.058 A 
ATOM     21  C16 UNL     1     142.588 128.639  94.649  0.00  0.00    -0.046 A 
ATOM     22  C17 UNL     1     143.482 129.528  95.468  0.00  0.00    -0.039 C 
ATOM     23  C18 UNL     1     140.905 127.856  97.934  0.00  0.00    +0.065 A 
ATOM     24  C19 UNL     1     139.835 127.169  97.336  0.00  0.00    -0.038 A 
ATOM     25  C20 UNL     1     138.500 127.444  97.669  0.00  0.00    -0.060 A 
ATOM     26  C21 UNL     1     138.199 128.415  98.615  0.00  0.00    -0.060 A 
ATOM     27  C22 UNL     1     139.236 129.109  99.225  0.00  0.00    -0.033 A 
ATOM     28  C23 UNL     1     140.565 128.827  98.873  0.00  0.00    +0.131 A 
ATOM     29  S1  UNL     1     141.831 129.747  99.647  0.00  0.00    +0.084 S 
ATOM     30  O4  UNL     1     142.104 130.893  98.804  0.00  0.00    -0.149 OA
ATOM     31  O5  UNL     1     141.446 129.910 101.036  0.00  0.00    -0.149 OA
ATOM     32  C24 UNL     1     144.511 128.565 101.570  0.00  0.00    +0.003 A 
ENDROOT
TORSDOF 0
ENDMDL
MODEL 3
REMARK VINA RESULT:    -5.658      3.011      5.093
REMARK INTER + INTRA:          -5.658
REMARK INTER:                  -5.658
REMARK INTRA:                   0.000
REMARK UNBOUND:                 0.000
REMARK  Name = /home/vital/Documents/PhD_2021/Malaria_codes/scripts/../data/pdbqt_ligands/ligand_468_temp.pdb
REMARK                            x       y       z     vdW  Elec       q    Type
REMARK                         _______ _______ _______ _____ _____    ______ ____
ROOT
ATOM      1  C1  UNL     1     142.418 124.732 105.361  0.00  0.00    +0.079 C 
ATOM      2  O1  UNL     1     143.587 125.532 105.234  0.00  0.00    -0.495 OA
ATOM      3  C2  UNL     1     143.696 126.294 104.104  0.00  0.00    +0.125 A 
ATOM      4  C3  UNL     1     144.826 127.117 104.059  0.00  0.00    +0.022 A 
ATOM      5  C4  UNL     1     145.067 127.961 102.973  0.00  0.00    +0.125 A 
ATOM      6  O2  UNL     1     146.205 128.714 103.073  0.00  0.00    -0.495 OA
ATOM      7  C5  UNL     1     146.479 129.613 102.005  0.00  0.00    +0.079 C 
ATOM      8  C6  UNL     1     144.168 127.976 101.909  0.00  0.00    +0.003 A 
ATOM      9  C7  UNL     1     143.041 127.143 101.939  0.00  0.00    +0.068 A 
ATOM     10  N1  UNL     1     142.084 127.152 100.866  0.00  0.00    -0.123 N 
ATOM     11  C8  UNL     1     142.515 126.580  99.651  0.00  0.00    +0.333 C 
ATOM     12  O3  UNL     1     143.580 125.966  99.596  0.00  0.00    -0.250 OA
ATOM     13  N2  UNL     1     141.686 126.677  98.522  0.00  0.00    -0.248 N 
ATOM     14  C9  UNL     1     142.209 126.084  97.280  0.00  0.00    +0.047 C 
ATOM     15  C10 UNL     1     142.303 127.031  96.092  0.00  0.00    -0.026 A 
ATOM     16  C11 UNL     1     141.692 126.639  94.881  0.00  0.00    -0.054 A 
ATOM     17  C12 UNL     1     141.731 127.447  93.739  0.00  0.00    -0.050 A 
ATOM     18  C13 UNL     1     141.029 127.024  92.482  0.00  0.00    -0.040 C 
ATOM     19  C14 UNL     1     142.384 128.677  93.807  0.00  0.00    -0.059 A 
ATOM     20  C15 UNL     1     143.025 129.067  94.982  0.00  0.00    -0.058 A 
ATOM     21  C16 UNL     1     143.016 128.248  96.124  0.00  0.00    -0.046 A 
ATOM     22  C17 UNL     1     143.760 128.725  97.340  0.00  0.00    -0.039 C 
ATOM     23  C18 UNL     1     140.347 127.190  98.573  0.00  0.00    +0.065 A 
ATOM     24  C19 UNL     1     139.405 126.898  97.573  0.00  0.00    -0.038 A 
ATOM     25  C20 UNL     1     138.091 127.387  97.627  0.00  0.00    -0.060 A 
ATOM     26  C21 UNL     1     137.682 128.181  98.690  0.00  0.00    -0.060 A 
ATOM     27  C22 UNL     1     138.591 128.486  99.696  0.00  0.00    -0.033 A 
ATOM     28  C23 UNL     1     139.904 127.996  99.619  0.00  0.00    +0.131 A 
ATOM     29  S1  UNL     1     141.016 128.431 100.893  0.00  0.00    +0.084 S 
ATOM     30  O4  UNL     1     141.699 129.637 100.473  0.00  0.00    -0.149 OA
ATOM     31  O5  UNL     1     140.273 128.381 102.138  0.00  0.00    -0.149 OA
ATOM     32  C24 UNL     1     142.800 126.310 103.037  0.00  0.00    +0.003 A 
ENDROOT
TORSDOF 0
ENDMDL
MODEL 4
REMARK VINA RESULT:    -5.564      4.613      8.727
REMARK INTER + INTRA:          -5.564
REMARK INTER:                  -5.564
REMARK INTRA:                   0.000
REMARK UNBOUND:                 0.000
REMARK  Name = /home/vital/Documents/PhD_2021/Malaria_codes/scripts/../data/pdbqt_ligands/ligand_468_temp.pdb
REMARK                            x       y       z     vdW  Elec       q    Type
REMARK                         _______ _______ _______ _____ _____    ______ ____
ROOT
ATOM      1  C1  UNL     1     140.520 129.158  91.844  0.00  0.00    +0.079 C 
ATOM      2  O1  UNL     1     140.743 127.754  91.778  0.00  0.00    -0.495 OA
ATOM      3  C2  UNL     1     140.906 127.097  92.966  0.00  0.00    +0.125 A 
ATOM      4  C3  UNL     1     141.049 125.711  92.853  0.00  0.00    +0.022 A 
ATOM      5  C4  UNL     1     141.214 124.904  93.982  0.00  0.00    +0.125 A 
ATOM      6  O2  UNL     1     141.331 123.566  93.718  0.00  0.00    -0.495 OA
ATOM      7  C5  UNL     1     141.469 122.699  94.837  0.00  0.00    +0.079 C 
ATOM      8  C6  UNL     1     141.243 125.494  95.243  0.00  0.00    +0.003 A 
ATOM      9  C7  UNL     1     141.115 126.885  95.364  0.00  0.00    +0.068 A 
ATOM     10  N1  UNL     1     141.120 127.520  96.653  0.00  0.00    -0.123 N 
ATOM     11  C8  UNL     1     142.361 127.543  97.325  0.00  0.00    +0.333 C 
ATOM     12  O3  UNL     1     143.388 127.191  96.744  0.00  0.00    -0.250 OA
ATOM     13  N2  UNL     1     142.412 128.023  98.643  0.00  0.00    -0.248 N 
ATOM     14  C9  UNL     1     143.733 127.993  99.293  0.00  0.00    +0.047 C 
ATOM     15  C10 UNL     1     143.800 127.216 100.601  0.00  0.00    -0.026 A 
ATOM     16  C11 UNL     1     144.329 127.870 101.735  0.00  0.00    -0.054 A 
ATOM     17  C12 UNL     1     144.430 127.231 102.976  0.00  0.00    -0.050 A 
ATOM     18  C13 UNL     1     144.951 127.970 104.173  0.00  0.00    -0.040 C 
ATOM     19  C14 UNL     1     143.984 125.916 103.094  0.00  0.00    -0.059 A 
ATOM     20  C15 UNL     1     143.492 125.240 101.978  0.00  0.00    -0.058 A 
ATOM     21  C16 UNL     1     143.415 125.864 100.721  0.00  0.00    -0.046 A 
ATOM     22  C17 UNL     1     142.904 125.056  99.562  0.00  0.00    -0.039 C 
ATOM     23  C18 UNL     1     141.295 128.642  99.296  0.00  0.00    +0.065 A 
ATOM     24  C19 UNL     1     141.463 129.478 100.414  0.00  0.00    -0.038 A 
ATOM     25  C20 UNL     1     140.374 130.096 101.046  0.00  0.00    -0.060 A 
ATOM     26  C21 UNL     1     139.084 129.897 100.574  0.00  0.00    -0.060 A 
ATOM     27  C22 UNL     1     138.886 129.077  99.471  0.00  0.00    -0.033 A 
ATOM     28  C23 UNL     1     139.987 128.460  98.856  0.00  0.00    +0.131 A 
ATOM     29  S1  UNL     1     139.683 127.416  97.490  0.00  0.00    +0.084 S 
ATOM     30  O4  UNL     1     139.523 126.072  98.005  0.00  0.00    -0.149 OA
ATOM     31  O5  UNL     1     138.645 128.047  96.698  0.00  0.00    -0.149 OA
ATOM     32  C24 UNL     1     140.938 127.684  94.229  0.00  0.00    +0.003 A 
ENDROOT
TORSDOF 0
ENDMDL
MODEL 5
REMARK VINA RESULT:    -5.457      3.114      5.001
REMARK INTER + INTRA:          -5.457
REMARK INTER:                  -5.457
REMARK INTRA:                   0.000
REMARK UNBOUND:                 0.000
REMARK  Name = /home/vital/Documents/PhD_2021/Malaria_codes/scripts/../data/pdbqt_ligands/ligand_468_temp.pdb
REMARK                            x       y       z     vdW  Elec       q    Type
REMARK                         _______ _______ _______ _____ _____    ______ ____
ROOT
ATOM      1  C1  UNL     1     140.605 124.979 106.124  0.00  0.00    +0.079 C 
ATOM      2  O1  UNL     1     141.998 125.245 106.023  0.00  0.00    -0.495 OA
ATOM      3  C2  UNL     1     142.459 125.679 104.810  0.00  0.00    +0.125 A 
ATOM      4  C3  UNL     1     143.820 125.996 104.780  0.00  0.00    +0.022 A 
ATOM      5  C4  UNL     1     144.432 126.462 103.614  0.00  0.00    +0.125 A 
ATOM      6  O2  UNL     1     145.766 126.742 103.738  0.00  0.00    -0.495 OA
ATOM      7  C5  UNL     1     146.427 127.249 102.585  0.00  0.00    +0.079 C 
ATOM      8  C6  UNL     1     143.670 126.606 102.456  0.00  0.00    +0.003 A 
ATOM      9  C7  UNL     1     142.308 126.276 102.474  0.00  0.00    +0.068 A 
ATOM     10  N1  UNL     1     141.492 126.434 101.301  0.00  0.00    -0.123 N 
ATOM     11  C8  UNL     1     141.734 125.519 100.253  0.00  0.00    +0.333 C 
ATOM     12  O3  UNL     1     142.478 124.554 100.430  0.00  0.00    -0.250 OA
ATOM     13  N2  UNL     1     141.073 125.699  99.028  0.00  0.00    -0.248 N 
ATOM     14  C9  UNL     1     141.393 124.725  97.971  0.00  0.00    +0.047 C 
ATOM     15  C10 UNL     1     141.915 125.321  96.670  0.00  0.00    -0.026 A 
ATOM     16  C11 UNL     1     141.269 124.959  95.468  0.00  0.00    -0.054 A 
ATOM     17  C12 UNL     1     141.684 125.458  94.228  0.00  0.00    -0.050 A 
ATOM     18  C13 UNL     1     140.945 125.093  92.974  0.00  0.00    -0.040 C 
ATOM     19  C14 UNL     1     142.759 126.344  94.184  0.00  0.00    -0.059 A 
ATOM     20  C15 UNL     1     143.434 126.685  95.355  0.00  0.00    -0.058 A 
ATOM     21  C16 UNL     1     143.043 126.166  96.601  0.00  0.00    -0.046 A 
ATOM     22  C17 UNL     1     143.844 126.557  97.812  0.00  0.00    -0.039 C 
ATOM     23  C18 UNL     1     140.039 126.673  98.829  0.00  0.00    +0.065 A 
ATOM     24  C19 UNL     1     139.116 126.566  97.776  0.00  0.00    -0.038 A 
ATOM     25  C20 UNL     1     138.095 127.510  97.587  0.00  0.00    -0.060 A 
ATOM     26  C21 UNL     1     137.969 128.588  98.453  0.00  0.00    -0.060 A 
ATOM     27  C22 UNL     1     138.866 128.721  99.504  0.00  0.00    -0.033 A 
ATOM     28  C23 UNL     1     139.887 127.771  99.672  0.00  0.00    +0.131 A 
ATOM     29  S1  UNL     1     141.007 127.997 100.992  0.00  0.00    +0.084 S 
ATOM     30  O4  UNL     1     142.128 128.757 100.478  0.00  0.00    -0.149 OA
ATOM     31  O5  UNL     1     140.235 128.469 102.126  0.00  0.00    -0.149 OA
ATOM     32  C24 UNL     1     141.701 125.821 103.649  0.00  0.00    +0.003 A 
ENDROOT
TORSDOF 0
ENDMDL
MODEL 6
REMARK VINA RESULT:    -5.247      2.806      8.035
REMARK INTER + INTRA:          -5.247
REMARK INTER:                  -5.247
REMARK INTRA:                   0.000
REMARK UNBOUND:                 0.000
REMARK  Name = /home/vital/Documents/PhD_2021/Malaria_codes/scripts/../data/pdbqt_ligands/ligand_468_temp.pdb
REMARK                            x       y       z     vdW  Elec       q    Type
REMARK                         _______ _______ _______ _____ _____    ______ ____
ROOT
ATOM      1  C1  UNL     1     137.843 127.761  97.947  0.00  0.00    +0.079 C 
ATOM      2  O1  UNL     1     138.466 129.019  98.176  0.00  0.00    -0.495 OA
ATOM      3  C2  UNL     1     139.616 129.015  98.916  0.00  0.00    +0.125 A 
ATOM      4  C3  UNL     1     140.229 130.265  99.053  0.00  0.00    +0.022 A 
ATOM      5  C4  UNL     1     141.416 130.417  99.772  0.00  0.00    +0.125 A 
ATOM      6  O2  UNL     1     141.905 131.694  99.811  0.00  0.00    -0.495 OA
ATOM      7  C5  UNL     1     143.129 131.895 100.506  0.00  0.00    +0.079 C 
ATOM      8  C6  UNL     1     141.996 129.301 100.373  0.00  0.00    +0.003 A 
ATOM      9  C7  UNL     1     141.380 128.048 100.253  0.00  0.00    +0.068 A 
ATOM     10  N1  UNL     1     141.966 126.875 100.844  0.00  0.00    -0.123 N 
ATOM     11  C8  UNL     1     141.915 126.803 102.252  0.00  0.00    +0.333 C 
ATOM     12  O3  UNL     1     141.253 127.619 102.893  0.00  0.00    -0.250 OA
ATOM     13  N2  UNL     1     142.588 125.756 102.904  0.00  0.00    -0.248 N 
ATOM     14  C9  UNL     1     142.517 125.757 104.374  0.00  0.00    +0.047 C 
ATOM     15  C10 UNL     1     143.860 125.772 105.093  0.00  0.00    -0.026 A 
ATOM     16  C11 UNL     1     144.101 124.780 106.068  0.00  0.00    -0.054 A 
ATOM     17  C12 UNL     1     145.306 124.720 106.778  0.00  0.00    -0.050 A 
ATOM     18  C13 UNL     1     145.550 123.623 107.773  0.00  0.00    -0.040 C 
ATOM     19  C14 UNL     1     146.296 125.661 106.503  0.00  0.00    -0.059 A 
ATOM     20  C15 UNL     1     146.064 126.672 105.571  0.00  0.00    -0.058 A 
ATOM     21  C16 UNL     1     144.845 126.757 104.875  0.00  0.00    -0.046 A 
ATOM     22  C17 UNL     1     144.662 127.895 103.911  0.00  0.00    -0.039 C 
ATOM     23  C18 UNL     1     143.195 124.660 102.207  0.00  0.00    +0.065 A 
ATOM     24  C19 UNL     1     143.479 123.442 102.848  0.00  0.00    -0.038 A 
ATOM     25  C20 UNL     1     144.060 122.363 102.166  0.00  0.00    -0.060 A 
ATOM     26  C21 UNL     1     144.372 122.473 100.817  0.00  0.00    -0.060 A 
ATOM     27  C22 UNL     1     144.103 123.664 100.155  0.00  0.00    -0.033 A 
ATOM     28  C23 UNL     1     143.529 124.736 100.857  0.00  0.00    +0.131 A 
ATOM     29  S1  UNL     1     143.236 126.221  99.986  0.00  0.00    +0.084 S 
ATOM     30  O4  UNL     1     144.409 127.054 100.153  0.00  0.00    -0.149 OA
ATOM     31  O5  UNL     1     142.757 125.851  98.668  0.00  0.00    -0.149 OA
ATOM     32  C24 UNL     1     140.197 127.903  99.520  0.00  0.00    +0.003 A 
ENDROOT
TORSDOF 0
ENDMDL
MODEL 7
REMARK VINA RESULT:    -5.232      4.393      7.615
REMARK INTER + INTRA:          -5.232
REMARK INTER:                  -5.232
REMARK INTRA:                   0.000
REMARK UNBOUND:                 0.000
REMARK  Name = /home/vital/Documents/PhD_2021/Malaria_codes/scripts/../data/pdbqt_ligands/ligand_468_temp.pdb
REMARK                            x       y       z     vdW  Elec       q    Type
REMARK                         _______ _______ _______ _____ _____    ______ ____
ROOT
ATOM      1  C1  UNL     1     144.156 129.749  93.625  0.00  0.00    +0.079 C 
ATOM      2  O1  UNL     1     144.567 128.394  93.497  0.00  0.00    -0.495 OA
ATOM      3  C2  UNL     1     144.099 127.514  94.434  0.00  0.00    +0.125 A 
ATOM      4  C3  UNL     1     144.471 126.183  94.224  0.00  0.00    +0.022 A 
ATOM      5  C4  UNL     1     144.060 125.168  95.092  0.00  0.00    +0.125 A 
ATOM      6  O2  UNL     1     144.492 123.914  94.755  0.00  0.00    -0.495 OA
ATOM      7  C5  UNL     1     144.073 122.842  95.591  0.00  0.00    +0.079 C 
ATOM      8  C6  UNL     1     143.270 125.492  96.193  0.00  0.00    +0.003 A 
ATOM      9  C7  UNL     1     142.904 126.827  96.418  0.00  0.00    +0.068 A 
ATOM     10  N1  UNL     1     142.072 127.189  97.533  0.00  0.00    -0.123 N 
ATOM     11  C8  UNL     1     142.675 127.104  98.806  0.00  0.00    +0.333 C 
ATOM     12  O3  UNL     1     143.885 126.900  98.908  0.00  0.00    -0.250 OA
ATOM     13  N2  UNL     1     141.884 127.309  99.948  0.00  0.00    -0.248 N 
ATOM     14  C9  UNL     1     142.571 127.178 101.243  0.00  0.00    +0.047 C 
ATOM     15  C10 UNL     1     141.972 126.155 102.199  0.00  0.00    -0.026 A 
ATOM     16  C11 UNL     1     141.649 126.579 103.507  0.00  0.00    -0.054 A 
ATOM     17  C12 UNL     1     141.097 125.705 104.451  0.00  0.00    -0.050 A 
ATOM     18  C13 UNL     1     140.719 126.199 105.816  0.00  0.00    -0.040 C 
ATOM     19  C14 UNL     1     140.853 124.384 104.082  0.00  0.00    -0.059 A 
ATOM     20  C15 UNL     1     141.199 123.935 102.808  0.00  0.00    -0.058 A 
ATOM     21  C16 UNL     1     141.781 124.799 101.864  0.00  0.00    -0.046 A 
ATOM     22  C17 UNL     1     142.156 124.229 100.524  0.00  0.00    -0.039 C 
ATOM     23  C18 UNL     1     140.523 127.758  99.889  0.00  0.00    +0.065 A 
ATOM     24  C19 UNL     1     139.894 128.354 100.995  0.00  0.00    -0.038 A 
ATOM     25  C20 UNL     1     138.567 128.807 100.937  0.00  0.00    -0.060 A 
ATOM     26  C21 UNL     1     137.833 128.678  99.765  0.00  0.00    -0.060 A 
ATOM     27  C22 UNL     1     138.429 128.094  98.655  0.00  0.00    -0.033 A 
ATOM     28  C23 UNL     1     139.754 127.638  98.735  0.00  0.00    +0.131 A 
ATOM     29  S1  UNL     1     140.448 126.885  97.320  0.00  0.00    +0.084 S 
ATOM     30  O4  UNL     1     140.206 125.461  97.431  0.00  0.00    -0.149 OA
ATOM     31  O5  UNL     1     139.987 127.640  96.170  0.00  0.00    -0.149 OA
ATOM     32  C24 UNL     1     143.311 127.834  95.537  0.00  0.00    +0.003 A 
ENDROOT
TORSDOF 0
ENDMDL
MODEL 8
REMARK VINA RESULT:    -5.013      3.786      8.091
REMARK INTER + INTRA:          -5.013
REMARK INTER:                  -5.013
REMARK INTRA:                   0.000
REMARK UNBOUND:                 0.000
REMARK  Name = /home/vital/Documents/PhD_2021/Malaria_codes/scripts/../data/pdbqt_ligands/ligand_468_temp.pdb
REMARK                            x       y       z     vdW  Elec       q    Type
REMARK                         _______ _______ _______ _____ _____    ______ ____
ROOT
ATOM      1  C1  UNL     1     138.320 128.558  98.234  0.00  0.00    +0.079 C 
ATOM      2  O1  UNL     1     139.567 129.242  98.217  0.00  0.00    -0.495 OA
ATOM      3  C2  UNL     1     140.546 128.767  99.046  0.00  0.00    +0.125 A 
ATOM      4  C3  UNL     1     141.774 129.426  98.940  0.00  0.00    +0.022 A 
ATOM      5  C4  UNL     1     142.872 129.045  99.716  0.00  0.00    +0.125 A 
ATOM      6  O2  UNL     1     144.009 129.774  99.497  0.00  0.00    -0.495 OA
ATOM      7  C5  UNL     1     145.164 129.404 100.241  0.00  0.00    +0.079 C 
ATOM      8  C6  UNL     1     142.736 127.993 100.618  0.00  0.00    +0.003 A 
ATOM      9  C7  UNL     1     141.504 127.336 100.741  0.00  0.00    +0.068 A 
ATOM     10  N1  UNL     1     141.339 126.233 101.648  0.00  0.00    -0.123 N 
ATOM     11  C8  UNL     1     141.341 126.558 103.021  0.00  0.00    +0.333 C 
ATOM     12  O3  UNL     1     141.311 127.734 103.381  0.00  0.00    -0.250 OA
ATOM     13  N2  UNL     1     141.323 125.519 103.965  0.00  0.00    -0.248 N 
ATOM     14  C9  UNL     1     141.354 125.928 105.379  0.00  0.00    +0.047 C 
ATOM     15  C10 UNL     1     142.499 125.351 106.201  0.00  0.00    -0.026 A 
ATOM     16  C11 UNL     1     142.180 124.683 107.404  0.00  0.00    -0.054 A 
ATOM     17  C12 UNL     1     143.169 124.124 108.222  0.00  0.00    -0.050 A 
ATOM     18  C13 UNL     1     142.795 123.377 109.468  0.00  0.00    -0.040 C 
ATOM     19  C14 UNL     1     144.503 124.224 107.829  0.00  0.00    -0.059 A 
ATOM     20  C15 UNL     1     144.842 124.913 106.665  0.00  0.00    -0.058 A 
ATOM     21  C16 UNL     1     143.857 125.502 105.853  0.00  0.00    -0.046 A 
ATOM     22  C17 UNL     1     144.307 126.255 104.632  0.00  0.00    -0.039 C 
ATOM     23  C18 UNL     1     141.143 124.140 103.612  0.00  0.00    +0.065 A 
ATOM     24  C19 UNL     1     140.709 123.188 104.550  0.00  0.00    -0.038 A 
ATOM     25  C20 UNL     1     140.519 121.841 104.204  0.00  0.00    -0.060 A 
ATOM     26  C21 UNL     1     140.756 121.411 102.905  0.00  0.00    -0.060 A 
ATOM     27  C22 UNL     1     141.184 122.330 101.956  0.00  0.00    -0.033 A 
ATOM     28  C23 UNL     1     141.378 123.671 102.322  0.00  0.00    +0.131 A 
ATOM     29  S1  UNL     1     141.945 124.781 101.099  0.00  0.00    +0.084 S 
ATOM     30  O4  UNL     1     143.391 124.802 101.177  0.00  0.00    -0.149 OA
ATOM     31  O5  UNL     1     141.262 124.436  99.867  0.00  0.00    -0.149 OA
ATOM     32  C24 UNL     1     140.413 127.716  99.951  0.00  0.00    +0.003 A 
ENDROOT
TORSDOF 0
ENDMDL
MODEL 9
REMARK VINA RESULT:    -4.920      5.449      8.103
REMARK INTER + INTRA:          -4.920
REMARK INTER:                  -4.920
REMARK INTRA:                   0.000
REMARK UNBOUND:                 0.000
REMARK  Name = /home/vital/Documents/PhD_2021/Malaria_codes/scripts/../data/pdbqt_ligands/ligand_468_temp.pdb
REMARK                            x       y       z     vdW  Elec       q    Type
REMARK                         _______ _______ _______ _____ _____    ______ ____
ROOT
ATOM      1  C1  UNL     1     141.089 128.793  99.406  0.00  0.00    +0.079 C 
ATOM      2  O1  UNL     1     142.225 129.084 100.210  0.00  0.00    -0.495 OA
ATOM      3  C2  UNL     1     142.466 128.250 101.267  0.00  0.00    +0.125 A 
ATOM      4  C3  UNL     1     143.632 128.534 101.983  0.00  0.00    +0.022 A 
ATOM      5  C4  UNL     1     144.016 127.762 103.083  0.00  0.00    +0.125 A 
ATOM      6  O2  UNL     1     145.185 128.151 103.677  0.00  0.00    -0.495 OA
ATOM      7  C5  UNL     1     145.634 127.377 104.783  0.00  0.00    +0.079 C 
ATOM      8  C6  UNL     1     143.213 126.694 103.478  0.00  0.00    +0.003 A 
ATOM      9  C7  UNL     1     142.034 126.412 102.775  0.00  0.00    +0.068 A 
ATOM     10  N1  UNL     1     141.198 125.303 103.145  0.00  0.00    -0.123 N 
ATOM     11  C8  UNL     1     140.482 125.447 104.353  0.00  0.00    +0.333 C 
ATOM     12  O3  UNL     1     140.461 126.530 104.937  0.00  0.00    -0.250 OA
ATOM     13  N2  UNL     1     139.754 124.353 104.847  0.00  0.00    -0.248 N 
ATOM     14  C9  UNL     1     139.054 124.564 106.125  0.00  0.00    +0.047 C 
ATOM     15  C10 UNL     1     139.415 123.586 107.236  0.00  0.00    -0.026 A 
ATOM     16  C11 UNL     1     138.364 122.899 107.882  0.00  0.00    -0.054 A 
ATOM     17  C12 UNL     1     138.604 121.985 108.914  0.00  0.00    -0.050 A 
ATOM     18  C13 UNL     1     137.469 121.235 109.547  0.00  0.00    -0.040 C 
ATOM     19  C14 UNL     1     139.920 121.742 109.305  0.00  0.00    -0.059 A 
ATOM     20  C15 UNL     1     140.969 122.437 108.705  0.00  0.00    -0.058 A 
ATOM     21  C16 UNL     1     140.734 123.379 107.688  0.00  0.00    -0.046 A 
ATOM     22  C17 UNL     1     141.917 124.109 107.117  0.00  0.00    -0.039 C 
ATOM     23  C18 UNL     1     139.567 123.138 104.108  0.00  0.00    +0.065 A 
ATOM     24  C19 UNL     1     138.522 122.246 104.404  0.00  0.00    -0.038 A 
ATOM     25  C20 UNL     1     138.327 121.064 103.675  0.00  0.00    -0.060 A 
ATOM     26  C21 UNL     1     139.174 120.742 102.623  0.00  0.00    -0.060 A 
ATOM     27  C22 UNL     1     140.216 121.604 102.305  0.00  0.00    -0.033 A 
ATOM     28  C23 UNL     1     140.400 122.778 103.052  0.00  0.00    +0.131 A 
ATOM     29  S1  UNL     1     141.741 123.814 102.631  0.00  0.00    +0.084 S 
ATOM     30  O4  UNL     1     142.869 123.407 103.443  0.00  0.00    -0.149 OA
ATOM     31  O5  UNL     1     141.824 123.832 101.183  0.00  0.00    -0.149 OA
ATOM     32  C24 UNL     1     141.665 127.183 101.667  0.00  0.00    +0.003 A 
ENDROOT
TORSDOF 0
ENDMDL
