MODEL 1
REMARK VINA RESULT:    -4.394      0.000      0.000
REMARK INTER + INTRA:          -4.394
REMARK INTER:                  -4.394
REMARK INTRA:                   0.000
REMARK UNBOUND:                 0.000
REMARK  Name = /home/vital/Documents/PhD_2021/Malaria_codes/scripts/../data/pdbqt_ligands/ligand_359_temp.pdb
REMARK                            x       y       z     vdW  Elec       q    Type
REMARK                         _______ _______ _______ _____ _____    ______ ____
ROOT
ATOM      1  C1  UNL     1     146.962 134.816  93.480  0.00  0.00    +0.079 C 
ATOM      2  O1  UNL     1     146.139 134.011  94.315  0.00  0.00    -0.495 OA
ATOM      3  C2  UNL     1     144.993 133.512  93.762  0.00  0.00    +0.124 A 
ATOM      4  C3  UNL     1     144.219 132.733  94.631  0.00  0.00    -0.019 A 
ATOM      5  C4  UNL     1     143.021 132.160  94.199  0.00  0.00    -0.044 A 
ATOM      6  C5  UNL     1     142.597 132.371  92.887  0.00  0.00    +0.068 A 
ATOM      7  C6  UNL     1     143.360 133.144  92.016  0.00  0.00    +0.143 A 
ATOM      8  C7  UNL     1     144.559 133.717  92.451  0.00  0.00    +0.023 A 
ATOM      9  O2  UNL     1     142.992 133.382  90.716  0.00  0.00    -0.451 OA
ATOM     10  C8  UNL     1     141.798 132.845  90.255  0.00  0.00    +0.184 A 
ATOM     11  C9  UNL     1     141.500 133.208  88.856  0.00  0.00    +0.066 A 
ATOM     12  C10 UNL     1     141.422 132.205  87.880  0.00  0.00    -0.047 A 
ATOM     13  C11 UNL     1     141.154 132.530  86.551  0.00  0.00    -0.057 A 
ATOM     14  C12 UNL     1     140.952 133.860  86.178  0.00  0.00    -0.016 A 
ATOM     15  C13 UNL     1     141.017 134.882  87.131  0.00  0.00    +0.162 A 
ATOM     16  O3  UNL     1     140.803 136.208  86.857  0.00  0.00    -0.491 OA
ATOM     17  C14 UNL     1     140.258 136.531  85.585  0.00  0.00    +0.079 C 
ATOM     18  C15 UNL     1     141.320 134.550  88.467  0.00  0.00    +0.172 A 
ATOM     19  O4  UNL     1     141.364 135.514  89.452  0.00  0.00    -0.491 OA
ATOM     20  C16 UNL     1     142.466 136.402  89.271  0.00  0.00    +0.079 C 
ATOM     21  C17 UNL     1     140.975 132.078  90.990  0.00  0.00    +0.208 A 
ATOM     22  O5  UNL     1     139.788 131.541  90.523  0.00  0.00    -0.501 OA
ATOM     23  C18 UNL     1     141.345 131.785  92.395  0.00  0.00    +0.234 A 
ATOM     24  O6  UNL     1     140.616 131.081  93.085  0.00  0.00    -0.283 OA
ATOM     25  H   UNL     1     139.516 131.702  89.641  0.00  0.00    +0.000 HD
ENDROOT
TORSDOF 0
ENDMDL
MODEL 2
REMARK VINA RESULT:    -4.264      4.473      7.829
REMARK INTER + INTRA:          -4.264
REMARK INTER:                  -4.264
REMARK INTRA:                   0.000
REMARK UNBOUND:                 0.000
REMARK  Name = /home/vital/Documents/PhD_2021/Malaria_codes/scripts/../data/pdbqt_ligands/ligand_359_temp.pdb
REMARK                            x       y       z     vdW  Elec       q    Type
REMARK                         _______ _______ _______ _____ _____    ______ ____
ROOT
ATOM      1  C1  UNL     1     141.555 123.807  88.498  0.00  0.00    +0.079 C 
ATOM      2  O1  UNL     1     140.261 124.032  87.950  0.00  0.00    -0.495 OA
ATOM      3  C2  UNL     1     139.735 125.285  88.095  0.00  0.00    +0.124 A 
ATOM      4  C3  UNL     1     138.458 125.446  87.542  0.00  0.00    -0.019 A 
ATOM      5  C4  UNL     1     137.800 126.675  87.617  0.00  0.00    -0.044 A 
ATOM      6  C5  UNL     1     138.427 127.749  88.250  0.00  0.00    +0.068 A 
ATOM      7  C6  UNL     1     139.696 127.597  88.801  0.00  0.00    +0.143 A 
ATOM      8  C7  UNL     1     140.353 126.366  88.726  0.00  0.00    +0.023 A 
ATOM      9  O2  UNL     1     140.359 128.619  89.434  0.00  0.00    -0.451 OA
ATOM     10  C8  UNL     1     139.730 129.851  89.544  0.00  0.00    +0.184 A 
ATOM     11  C9  UNL     1     140.532 130.849  90.279  0.00  0.00    +0.066 A 
ATOM     12  C10 UNL     1     140.967 132.008  89.622  0.00  0.00    -0.047 A 
ATOM     13  C11 UNL     1     141.736 132.956  90.295  0.00  0.00    -0.057 A 
ATOM     14  C12 UNL     1     142.075 132.764  91.636  0.00  0.00    -0.016 A 
ATOM     15  C13 UNL     1     141.649 131.620  92.319  0.00  0.00    +0.162 A 
ATOM     16  O3  UNL     1     141.913 131.368  93.640  0.00  0.00    -0.491 OA
ATOM     17  C14 UNL     1     142.445 132.434  94.415  0.00  0.00    +0.079 C 
ATOM     18  C15 UNL     1     140.900 130.650  91.624  0.00  0.00    +0.172 A 
ATOM     19  O4  UNL     1     140.427 129.521  92.257  0.00  0.00    -0.491 OA
ATOM     20  C16 UNL     1     141.488 128.643  92.628  0.00  0.00    +0.079 C 
ATOM     21  C17 UNL     1     138.511 130.129  89.051  0.00  0.00    +0.208 A 
ATOM     22  O5  UNL     1     137.890 131.361  89.160  0.00  0.00    -0.501 OA
ATOM     23  C18 UNL     1     137.768 129.056  88.348  0.00  0.00    +0.234 A 
ATOM     24  O6  UNL     1     136.658 129.286  87.881  0.00  0.00    -0.283 OA
ATOM     25  H   UNL     1     138.324 132.067  89.597  0.00  0.00    +0.000 HD
ENDROOT
TORSDOF 0
ENDMDL
MODEL 3
REMARK VINA RESULT:    -4.167     10.549     13.992
REMARK INTER + INTRA:          -4.167
REMARK INTER:                  -4.167
REMARK INTRA:                   0.000
REMARK UNBOUND:                 0.000
REMARK  Name = /home/vital/Documents/PhD_2021/Malaria_codes/scripts/../data/pdbqt_ligands/ligand_359_temp.pdb
REMARK                            x       y       z     vdW  Elec       q    Type
REMARK                         _______ _______ _______ _____ _____    ______ ____
ROOT
ATOM      1  C1  UNL     1     140.286 124.862  98.302  0.00  0.00    +0.079 C 
ATOM      2  O1  UNL     1     139.611 126.108  98.175  0.00  0.00    -0.495 OA
ATOM      3  C2  UNL     1     140.168 127.182  98.810  0.00  0.00    +0.124 A 
ATOM      4  C3  UNL     1     139.459 128.380  98.657  0.00  0.00    -0.019 A 
ATOM      5  C4  UNL     1     139.913 129.559  99.253  0.00  0.00    -0.044 A 
ATOM      6  C5  UNL     1     141.086 129.535 100.007  0.00  0.00    +0.068 A 
ATOM      7  C6  UNL     1     141.797 128.348 100.166  0.00  0.00    +0.143 A 
ATOM      8  C7  UNL     1     141.341 127.170  99.568  0.00  0.00    +0.023 A 
ATOM      9  O2  UNL     1     142.956 128.268 100.896  0.00  0.00    -0.451 OA
ATOM     10  C8  UNL     1     143.430 129.414 101.518  0.00  0.00    +0.184 A 
ATOM     11  C9  UNL     1     144.659 129.183 102.303  0.00  0.00    +0.066 A 
ATOM     12  C10 UNL     1     145.846 129.834 101.939  0.00  0.00    -0.047 A 
ATOM     13  C11 UNL     1     147.020 129.619 102.659  0.00  0.00    -0.057 A 
ATOM     14  C12 UNL     1     147.024 128.757 103.758  0.00  0.00    -0.016 A 
ATOM     15  C13 UNL     1     145.853 128.099 104.148  0.00  0.00    +0.162 A 
ATOM     16  O3  UNL     1     145.763 127.261 105.229  0.00  0.00    -0.491 OA
ATOM     17  C14 UNL     1     146.857 127.244 106.135  0.00  0.00    +0.079 C 
ATOM     18  C15 UNL     1     144.677 128.296 103.396  0.00  0.00    +0.172 A 
ATOM     19  O4  UNL     1     143.488 127.698 103.756  0.00  0.00    -0.491 OA
ATOM     20  C16 UNL     1     143.536 126.283 103.580  0.00  0.00    +0.079 C 
ATOM     21  C17 UNL     1     142.842 130.620 101.440  0.00  0.00    +0.208 A 
ATOM     22  O5  UNL     1     143.322 131.761 102.060  0.00  0.00    -0.501 OA
ATOM     23  C18 UNL     1     141.596 130.752 100.649  0.00  0.00    +0.234 A 
ATOM     24  O6  UNL     1     141.045 131.843 100.553  0.00  0.00    -0.283 OA
ATOM     25  H   UNL     1     144.106 131.722 102.570  0.00  0.00    +0.000 HD
ENDROOT
TORSDOF 0
ENDMDL
MODEL 4
REMARK VINA RESULT:    -3.909     10.098     14.556
REMARK INTER + INTRA:          -3.909
REMARK INTER:                  -3.909
REMARK INTRA:                   0.000
REMARK UNBOUND:                 0.000
REMARK  Name = /home/vital/Documents/PhD_2021/Malaria_codes/scripts/../data/pdbqt_ligands/ligand_359_temp.pdb
REMARK                            x       y       z     vdW  Elec       q    Type
REMARK                         _______ _______ _______ _____ _____    ______ ____
ROOT
ATOM      1  C1  UNL     1     138.357 128.027  98.151  0.00  0.00    +0.079 C 
ATOM      2  O1  UNL     1     138.798 129.363  98.358  0.00  0.00    -0.495 OA
ATOM      3  C2  UNL     1     139.884 129.539  99.170  0.00  0.00    +0.124 A 
ATOM      4  C3  UNL     1     140.269 130.874  99.343  0.00  0.00    -0.019 A 
ATOM      5  C4  UNL     1     141.363 131.201 100.147  0.00  0.00    -0.044 A 
ATOM      6  C5  UNL     1     142.074 130.182 100.781  0.00  0.00    +0.068 A 
ATOM      7  C6  UNL     1     141.698 128.852 100.614  0.00  0.00    +0.143 A 
ATOM      8  C7  UNL     1     140.603 128.527  99.809  0.00  0.00    +0.023 A 
ATOM      9  O2  UNL     1     142.362 127.811 101.212  0.00  0.00    -0.451 OA
ATOM     10  C8  UNL     1     143.443 128.096 102.033  0.00  0.00    +0.184 A 
ATOM     11  C9  UNL     1     144.042 126.894 102.645  0.00  0.00    +0.066 A 
ATOM     12  C10 UNL     1     145.366 126.547 102.341  0.00  0.00    -0.047 A 
ATOM     13  C11 UNL     1     145.945 125.408 102.898  0.00  0.00    -0.057 A 
ATOM     14  C12 UNL     1     145.213 124.603 103.774  0.00  0.00    -0.016 A 
ATOM     15  C13 UNL     1     143.893 124.929 104.101  0.00  0.00    +0.162 A 
ATOM     16  O3  UNL     1     143.115 124.211 104.973  0.00  0.00    -0.491 OA
ATOM     17  C14 UNL     1     143.761 123.221 105.762  0.00  0.00    +0.079 C 
ATOM     18  C15 UNL     1     143.303 126.063 103.509  0.00  0.00    +0.172 A 
ATOM     19  O4  UNL     1     142.016 126.448 103.822  0.00  0.00    -0.491 OA
ATOM     20  C16 UNL     1     141.055 125.514 103.333  0.00  0.00    +0.079 C 
ATOM     21  C17 UNL     1     143.910 129.334 102.273  0.00  0.00    +0.208 A 
ATOM     22  O5  UNL     1     144.992 129.613 103.089  0.00  0.00    -0.501 OA
ATOM     23  C18 UNL     1     143.229 130.485 101.633  0.00  0.00    +0.234 A 
ATOM     24  O6  UNL     1     143.641 131.624 101.827  0.00  0.00    -0.283 OA
ATOM     25  H   UNL     1     145.451 128.915 103.513  0.00  0.00    +0.000 HD
ENDROOT
TORSDOF 0
ENDMDL
MODEL 5
REMARK VINA RESULT:    -3.856      2.442      3.391
REMARK INTER + INTRA:          -3.856
REMARK INTER:                  -3.856
REMARK INTRA:                   0.000
REMARK UNBOUND:                 0.000
REMARK  Name = /home/vital/Documents/PhD_2021/Malaria_codes/scripts/../data/pdbqt_ligands/ligand_359_temp.pdb
REMARK                            x       y       z     vdW  Elec       q    Type
REMARK                         _______ _______ _______ _____ _____    ______ ____
ROOT
ATOM      1  C1  UNL     1     147.094 134.099  88.911  0.00  0.00    +0.079 C 
ATOM      2  O1  UNL     1     146.930 134.322  90.307  0.00  0.00    -0.495 OA
ATOM      3  C2  UNL     1     145.777 133.860  90.876  0.00  0.00    +0.124 A 
ATOM      4  C3  UNL     1     145.665 134.112  92.249  0.00  0.00    -0.019 A 
ATOM      5  C4  UNL     1     144.538 133.695  92.961  0.00  0.00    -0.044 A 
ATOM      6  C5  UNL     1     143.517 133.022  92.291  0.00  0.00    +0.068 A 
ATOM      7  C6  UNL     1     143.620 132.767  90.927  0.00  0.00    +0.143 A 
ATOM      8  C7  UNL     1     144.748 133.184  90.216  0.00  0.00    +0.023 A 
ATOM      9  O2  UNL     1     142.647 132.108  90.218  0.00  0.00    -0.451 OA
ATOM     10  C8  UNL     1     141.503 131.694  90.886  0.00  0.00    +0.184 A 
ATOM     11  C9  UNL     1     140.521 131.035  90.004  0.00  0.00    +0.066 A 
ATOM     12  C10 UNL     1     140.187 129.691  90.219  0.00  0.00    -0.047 A 
ATOM     13  C11 UNL     1     139.271 129.047  89.389  0.00  0.00    -0.057 A 
ATOM     14  C12 UNL     1     138.668 129.739  88.336  0.00  0.00    -0.016 A 
ATOM     15  C13 UNL     1     138.977 131.082  88.101  0.00  0.00    +0.162 A 
ATOM     16  O3  UNL     1     138.411 131.842  87.110  0.00  0.00    -0.491 OA
ATOM     17  C14 UNL     1     137.283 131.301  86.436  0.00  0.00    +0.079 C 
ATOM     18  C15 UNL     1     139.928 131.718  88.924  0.00  0.00    +0.172 A 
ATOM     19  O4  UNL     1     140.244 133.050  88.757  0.00  0.00    -0.491 OA
ATOM     20  C16 UNL     1     140.941 133.275  87.533  0.00  0.00    +0.079 C 
ATOM     21  C17 UNL     1     141.284 131.873  92.200  0.00  0.00    +0.208 A 
ATOM     22  O5  UNL     1     140.144 131.454  92.863  0.00  0.00    -0.501 OA
ATOM     23  C18 UNL     1     142.318 132.567  93.004  0.00  0.00    +0.234 A 
ATOM     24  O6  UNL     1     142.147 132.735  94.206  0.00  0.00    -0.283 OA
ATOM     25  H   UNL     1     139.465 131.011  92.393  0.00  0.00    +0.000 HD
ENDROOT
TORSDOF 0
ENDMDL
MODEL 6
REMARK VINA RESULT:    -3.704      7.015      9.081
REMARK INTER + INTRA:          -3.704
REMARK INTER:                  -3.704
REMARK INTRA:                   0.000
REMARK UNBOUND:                 0.000
REMARK  Name = /home/vital/Documents/PhD_2021/Malaria_codes/scripts/../data/pdbqt_ligands/ligand_359_temp.pdb
REMARK                            x       y       z     vdW  Elec       q    Type
REMARK                         _______ _______ _______ _____ _____    ______ ____
ROOT
ATOM      1  C1  UNL     1     144.501 132.348  98.845  0.00  0.00    +0.079 C 
ATOM      2  O1  UNL     1     143.317 132.380  99.634  0.00  0.00    -0.495 OA
ATOM      3  C2  UNL     1     142.394 131.399  99.404  0.00  0.00    +0.124 A 
ATOM      4  C3  UNL     1     141.247 131.483 100.203  0.00  0.00    -0.019 A 
ATOM      5  C4  UNL     1     140.219 130.546 100.076  0.00  0.00    -0.044 A 
ATOM      6  C5  UNL     1     140.344 129.518  99.142  0.00  0.00    +0.068 A 
ATOM      7  C6  UNL     1     141.481 129.427  98.344  0.00  0.00    +0.143 A 
ATOM      8  C7  UNL     1     142.508 130.366  98.472  0.00  0.00    +0.023 A 
ATOM      9  O2  UNL     1     141.657 128.437  97.410  0.00  0.00    -0.451 OA
ATOM     10  C8  UNL     1     140.650 127.496  97.241  0.00  0.00    +0.184 A 
ATOM     11  C9  UNL     1     140.945 126.513  96.181  0.00  0.00    +0.066 A 
ATOM     12  C10 UNL     1     141.081 125.157  96.510  0.00  0.00    -0.047 A 
ATOM     13  C11 UNL     1     141.372 124.215  95.525  0.00  0.00    -0.057 A 
ATOM     14  C12 UNL     1     141.525 124.611  94.195  0.00  0.00    -0.016 A 
ATOM     15  C13 UNL     1     141.388 125.956  93.836  0.00  0.00    +0.162 A 
ATOM     16  O3  UNL     1     141.493 126.426  92.552  0.00  0.00    -0.491 OA
ATOM     17  C14 UNL     1     141.509 125.465  91.505  0.00  0.00    +0.079 C 
ATOM     18  C15 UNL     1     141.126 126.908  94.841  0.00  0.00    +0.172 A 
ATOM     19  O4  UNL     1     140.949 128.242  94.537  0.00  0.00    -0.491 OA
ATOM     20  C16 UNL     1     142.161 128.842  94.084  0.00  0.00    +0.079 C 
ATOM     21  C17 UNL     1     139.508 127.469  97.950  0.00  0.00    +0.208 A 
ATOM     22  O5  UNL     1     138.510 126.526  97.781  0.00  0.00    -0.501 OA
ATOM     23  C18 UNL     1     139.287 128.513  98.979  0.00  0.00    +0.234 A 
ATOM     24  O6  UNL     1     138.259 128.506  99.646  0.00  0.00    -0.283 OA
ATOM     25  H   UNL     1     138.608 125.849  97.141  0.00  0.00    +0.000 HD
ENDROOT
TORSDOF 0
ENDMDL
MODEL 7
REMARK VINA RESULT:    -3.514      4.552      7.667
REMARK INTER + INTRA:          -3.514
REMARK INTER:                  -3.514
REMARK INTRA:                   0.000
REMARK UNBOUND:                 0.000
REMARK  Name = /home/vital/Documents/PhD_2021/Malaria_codes/scripts/../data/pdbqt_ligands/ligand_359_temp.pdb
REMARK                            x       y       z     vdW  Elec       q    Type
REMARK                         _______ _______ _______ _____ _____    ______ ____
ROOT
ATOM      1  C1  UNL     1     139.697 128.928 100.564  0.00  0.00    +0.079 C 
ATOM      2  O1  UNL     1     140.711 129.716 101.176  0.00  0.00    -0.495 OA
ATOM      3  C2  UNL     1     141.552 130.401 100.343  0.00  0.00    +0.124 A 
ATOM      4  C3  UNL     1     142.534 131.153 100.999  0.00  0.00    -0.019 A 
ATOM      5  C4  UNL     1     143.461 131.903 100.272  0.00  0.00    -0.044 A 
ATOM      6  C5  UNL     1     143.402 131.897  98.878  0.00  0.00    +0.068 A 
ATOM      7  C6  UNL     1     142.429 131.152  98.219  0.00  0.00    +0.143 A 
ATOM      8  C7  UNL     1     141.502 130.402  98.948  0.00  0.00    +0.023 A 
ATOM      9  O2  UNL     1     142.324 131.110  96.851  0.00  0.00    -0.451 OA
ATOM     10  C8  UNL     1     143.239 131.828  96.093  0.00  0.00    +0.184 A 
ATOM     11  C9  UNL     1     143.042 131.667  94.639  0.00  0.00    +0.066 A 
ATOM     12  C10 UNL     1     142.704 132.780  93.857  0.00  0.00    -0.047 A 
ATOM     13  C11 UNL     1     142.501 132.646  92.485  0.00  0.00    -0.057 A 
ATOM     14  C12 UNL     1     142.640 131.400  91.871  0.00  0.00    -0.016 A 
ATOM     15  C13 UNL     1     142.983 130.273  92.624  0.00  0.00    +0.162 A 
ATOM     16  O3  UNL     1     143.167 129.020  92.098  0.00  0.00    -0.491 OA
ATOM     17  C14 UNL     1     143.243 128.911  90.683  0.00  0.00    +0.079 C 
ATOM     18  C15 UNL     1     143.155 130.408  94.016  0.00  0.00    +0.172 A 
ATOM     19  O4  UNL     1     143.526 129.337  94.801  0.00  0.00    -0.491 OA
ATOM     20  C16 UNL     1     142.490 128.360  94.879  0.00  0.00    +0.079 C 
ATOM     21  C17 UNL     1     144.221 132.589  96.606  0.00  0.00    +0.208 A 
ATOM     22  O5  UNL     1     145.127 133.306  95.845  0.00  0.00    -0.501 OA
ATOM     23  C18 UNL     1     144.358 132.672  98.080  0.00  0.00    +0.234 A 
ATOM     24  O6  UNL     1     145.239 133.367  98.573  0.00  0.00    -0.283 OA
ATOM     25  H   UNL     1     145.077 133.282  94.910  0.00  0.00    +0.000 HD
ENDROOT
TORSDOF 0
ENDMDL
MODEL 8
REMARK VINA RESULT:    -3.482      9.884     13.388
REMARK INTER + INTRA:          -3.482
REMARK INTER:                  -3.482
REMARK INTRA:                   0.000
REMARK UNBOUND:                 0.000
REMARK  Name = /home/vital/Documents/PhD_2021/Malaria_codes/scripts/../data/pdbqt_ligands/ligand_359_temp.pdb
REMARK                            x       y       z     vdW  Elec       q    Type
REMARK                         _______ _______ _______ _____ _____    ______ ____
ROOT
ATOM      1  C1  UNL     1     145.358 122.713  99.173  0.00  0.00    +0.079 C 
ATOM      2  O1  UNL     1     145.260 122.420 100.562  0.00  0.00    -0.495 OA
ATOM      3  C2  UNL     1     144.566 123.308 101.336  0.00  0.00    +0.124 A 
ATOM      4  C3  UNL     1     144.508 122.973 102.694  0.00  0.00    -0.019 A 
ATOM      5  C4  UNL     1     143.831 123.791 103.601  0.00  0.00    -0.044 A 
ATOM      6  C5  UNL     1     143.210 124.953 103.142  0.00  0.00    +0.068 A 
ATOM      7  C6  UNL     1     143.263 125.293 101.794  0.00  0.00    +0.143 A 
ATOM      8  C7  UNL     1     143.940 124.473 100.888  0.00  0.00    +0.023 A 
ATOM      9  O2  UNL     1     142.669 126.422 101.288  0.00  0.00    -0.451 OA
ATOM     10  C8  UNL     1     142.002 127.270 102.161  0.00  0.00    +0.184 A 
ATOM     11  C9  UNL     1     141.444 128.465 101.499  0.00  0.00    +0.066 A 
ATOM     12  C10 UNL     1     140.057 128.666 101.484  0.00  0.00    -0.047 A 
ATOM     13  C11 UNL     1     139.510 129.781 100.852  0.00  0.00    -0.057 A 
ATOM     14  C12 UNL     1     140.340 130.717 100.231  0.00  0.00    -0.016 A 
ATOM     15  C13 UNL     1     141.728 130.546 100.236  0.00  0.00    +0.162 A 
ATOM     16  O3  UNL     1     142.616 131.429  99.677  0.00  0.00    -0.491 OA
ATOM     17  C14 UNL     1     142.112 132.697  99.280  0.00  0.00    +0.079 C 
ATOM     18  C15 UNL     1     142.273 129.400 100.848  0.00  0.00    +0.172 A 
ATOM     19  O4  UNL     1     143.636 129.199 100.910  0.00  0.00    -0.491 OA
ATOM     20  C16 UNL     1     144.189 128.949  99.620  0.00  0.00    +0.079 C 
ATOM     21  C17 UNL     1     141.874 127.054 103.482  0.00  0.00    +0.208 A 
ATOM     22  O5  UNL     1     141.204 127.901 104.347  0.00  0.00    -0.501 OA
ATOM     23  C18 UNL     1     142.489 125.837 104.064  0.00  0.00    +0.234 A 
ATOM     24  O6  UNL     1     142.378 125.612 105.264  0.00  0.00    -0.283 OA
ATOM     25  H   UNL     1     140.801 128.681 104.020  0.00  0.00    +0.000 HD
ENDROOT
TORSDOF 0
ENDMDL
MODEL 9
REMARK VINA RESULT:    -3.423      7.469     12.404
REMARK INTER + INTRA:          -3.423
REMARK INTER:                  -3.423
REMARK INTRA:                   0.000
REMARK UNBOUND:                 0.000
REMARK  Name = /home/vital/Documents/PhD_2021/Malaria_codes/scripts/../data/pdbqt_ligands/ligand_359_temp.pdb
REMARK                            x       y       z     vdW  Elec       q    Type
REMARK                         _______ _______ _______ _____ _____    ______ ____
ROOT
ATOM      1  C1  UNL     1     143.375 127.908  94.470  0.00  0.00    +0.079 C 
ATOM      2  O1  UNL     1     143.365 129.329  94.539  0.00  0.00    -0.495 OA
ATOM      3  C2  UNL     1     143.329 129.889  95.786  0.00  0.00    +0.124 A 
ATOM      4  C3  UNL     1     143.314 131.289  95.793  0.00  0.00    -0.019 A 
ATOM      5  C4  UNL     1     143.278 131.995  96.997  0.00  0.00    -0.044 A 
ATOM      6  C5  UNL     1     143.256 131.292  98.201  0.00  0.00    +0.068 A 
ATOM      7  C6  UNL     1     143.271 129.900  98.203  0.00  0.00    +0.143 A 
ATOM      8  C7  UNL     1     143.307 129.195  96.997  0.00  0.00    +0.023 A 
ATOM      9  O2  UNL     1     143.252 129.157  99.357  0.00  0.00    -0.451 OA
ATOM     10  C8  UNL     1     143.198 129.822 100.574  0.00  0.00    +0.184 A 
ATOM     11  C9  UNL     1     143.142 128.910 101.733  0.00  0.00    +0.066 A 
ATOM     12  C10 UNL     1     144.187 128.912 102.668  0.00  0.00    -0.047 A 
ATOM     13  C11 UNL     1     144.159 128.048 103.762  0.00  0.00    -0.057 A 
ATOM     14  C12 UNL     1     143.084 127.176 103.943  0.00  0.00    -0.016 A 
ATOM     15  C13 UNL     1     142.024 127.157 103.030  0.00  0.00    +0.162 A 
ATOM     16  O3  UNL     1     140.919 126.354 103.147  0.00  0.00    -0.491 OA
ATOM     17  C14 UNL     1     140.732 125.677 104.383  0.00  0.00    +0.079 C 
ATOM     18  C15 UNL     1     142.074 128.009 101.909  0.00  0.00    +0.172 A 
ATOM     19  O4  UNL     1     141.041 128.054 100.996  0.00  0.00    -0.491 OA
ATOM     20  C16 UNL     1     140.946 126.842 100.250  0.00  0.00    +0.079 C 
ATOM     21  C17 UNL     1     143.185 131.159 100.710  0.00  0.00    +0.208 A 
ATOM     22  O5  UNL     1     143.135 131.817 101.926  0.00  0.00    -0.501 OA
ATOM     23  C18 UNL     1     143.219 131.997  99.487  0.00  0.00    +0.234 A 
ATOM     24  O6  UNL     1     143.217 133.219  99.584  0.00  0.00    -0.283 OA
ATOM     25  H   UNL     1     143.112 131.326 102.724  0.00  0.00    +0.000 HD
ENDROOT
TORSDOF 0
ENDMDL
