MODEL 1
REMARK VINA RESULT:    -4.570      0.000      0.000
REMARK INTER + INTRA:          -4.570
REMARK INTER:                  -4.570
REMARK INTRA:                   0.000
REMARK UNBOUND:                 0.000
REMARK  Name = /home/vital/Documents/PhD_2021/Malaria_codes/scripts/../data/pdbqt_ligands/ligand_456_temp.pdb
REMARK                            x       y       z     vdW  Elec       q    Type
REMARK                         _______ _______ _______ _____ _____    ______ ____
ROOT
ATOM      1  N1  UNL     1     139.359 123.027 107.413  0.00  0.00    -0.357 N 
ATOM      2  C1  UNL     1     139.981 124.058 106.686  0.00  0.00    +0.043 A 
ATOM      3  C2  UNL     1     141.310 124.379 106.960  0.00  0.00    -0.038 A 
ATOM      4  C3  UNL     1     141.995 125.316 106.176  0.00  0.00    -0.039 A 
ATOM      5  C4  UNL     1     141.389 125.937 105.073  0.00  0.00    +0.035 A 
ATOM      6  N2  UNL     1     142.134 126.866 104.339  0.00  0.00    -0.284 N 
ATOM      7  C5  UNL     1     141.869 127.658 103.226  0.00  0.00    +0.220 A 
ATOM      8  N3  UNL     1     142.892 128.438 102.838  0.00  0.00    -0.222 NA
ATOM      9  C6  UNL     1     142.685 129.225 101.765  0.00  0.00    +0.040 A 
ATOM     10  C7  UNL     1     141.498 129.269 101.056  0.00  0.00    +0.019 A 
ATOM     11  C8  UNL     1     141.283 130.093  99.933  0.00  0.00    -0.051 A 
ATOM     12  C9  UNL     1     140.052 130.069  99.283  0.00  0.00    -0.061 A 
ATOM     13  C10 UNL     1     139.047 129.230  99.754  0.00  0.00    -0.060 A 
ATOM     14  C11 UNL     1     139.279 128.420 100.871  0.00  0.00    -0.036 A 
ATOM     15  C12 UNL     1     140.499 128.424 101.538  0.00  0.00    +0.076 A 
ATOM     16  N4  UNL     1     140.682 127.633 102.603  0.00  0.00    -0.214 NA
ATOM     17  C13 UNL     1     140.075 125.574 104.770  0.00  0.00    -0.020 A 
ATOM     18  C14 UNL     1     139.388 124.635 105.551  0.00  0.00    +0.063 A 
ATOM     19 CL1  UNL     1     137.765 124.226 105.107  0.00  0.00    -0.082 Cl
ATOM     20  H   UNL     1     139.803 122.645 108.205  0.00  0.00    +0.000 HD
ATOM     21  H   UNL     1     138.479 122.687 107.132  0.00  0.00    +0.000 HD
ATOM     22  H   UNL     1     143.047 126.985 104.687  0.00  0.00    +0.000 HD
ENDROOT
TORSDOF 0
ENDMDL
MODEL 2
REMARK VINA RESULT:    -4.297      3.540      7.743
REMARK INTER + INTRA:          -4.297
REMARK INTER:                  -4.297
REMARK INTRA:                   0.000
REMARK UNBOUND:                 0.000
REMARK  Name = /home/vital/Documents/PhD_2021/Malaria_codes/scripts/../data/pdbqt_ligands/ligand_456_temp.pdb
REMARK                            x       y       z     vdW  Elec       q    Type
REMARK                         _______ _______ _______ _____ _____    ______ ____
ROOT
ATOM      1  N1  UNL     1     143.040 133.284  98.829  0.00  0.00    -0.357 N 
ATOM      2  C1  UNL     1     142.605 132.264  99.694  0.00  0.00    +0.043 A 
ATOM      3  C2  UNL     1     141.266 131.874  99.668  0.00  0.00    -0.038 A 
ATOM      4  C3  UNL     1     140.824 130.784 100.428  0.00  0.00    -0.039 A 
ATOM      5  C4  UNL     1     141.709 130.025 101.211  0.00  0.00    +0.035 A 
ATOM      6  N2  UNL     1     141.195 128.953 101.946  0.00  0.00    -0.284 N 
ATOM      7  C5  UNL     1     141.751 128.015 102.811  0.00  0.00    +0.220 A 
ATOM      8  N3  UNL     1     140.875 127.137 103.324  0.00  0.00    -0.222 NA
ATOM      9  C6  UNL     1     141.365 126.208 104.168  0.00  0.00    +0.040 A 
ATOM     10  C7  UNL     1     142.698 126.115 104.524  0.00  0.00    +0.019 A 
ATOM     11  C8  UNL     1     143.210 125.142 105.407  0.00  0.00    -0.051 A 
ATOM     12  C9  UNL     1     144.569 125.128 105.707  0.00  0.00    -0.061 A 
ATOM     13  C10 UNL     1     145.406 126.077 105.129  0.00  0.00    -0.060 A 
ATOM     14  C11 UNL     1     144.880 127.035 104.256  0.00  0.00    -0.036 A 
ATOM     15  C12 UNL     1     143.526 127.072 103.940  0.00  0.00    +0.076 A 
ATOM     16  N4  UNL     1     143.061 128.004 103.098  0.00  0.00    -0.214 NA
ATOM     17  C13 UNL     1     143.058 130.386 101.192  0.00  0.00    -0.020 A 
ATOM     18  C14 UNL     1     143.503 131.475 100.432  0.00  0.00    +0.063 A 
ATOM     19 CL1  UNL     1     145.192 131.855 100.449  0.00  0.00    -0.082 Cl
ATOM     20  H   UNL     1     142.383 133.818  98.327  0.00  0.00    +0.000 HD
ATOM     21  H   UNL     1     144.003 133.465  98.725  0.00  0.00    +0.000 HD
ATOM     22  H   UNL     1     140.225 128.836 101.827  0.00  0.00    +0.000 HD
ENDROOT
TORSDOF 0
ENDMDL
MODEL 3
REMARK VINA RESULT:    -4.285      3.674      4.369
REMARK INTER + INTRA:          -4.285
REMARK INTER:                  -4.285
REMARK INTRA:                   0.000
REMARK UNBOUND:                 0.000
REMARK  Name = /home/vital/Documents/PhD_2021/Malaria_codes/scripts/../data/pdbqt_ligands/ligand_456_temp.pdb
REMARK                            x       y       z     vdW  Elec       q    Type
REMARK                         _______ _______ _______ _____ _____    ______ ____
ROOT
ATOM      1  N1  UNL     1     146.902 125.309 106.267  0.00  0.00    -0.357 N 
ATOM      2  C1  UNL     1     146.316 126.351 105.525  0.00  0.00    +0.043 A 
ATOM      3  C2  UNL     1     147.068 127.491 105.241  0.00  0.00    -0.038 A 
ATOM      4  C3  UNL     1     146.559 128.493 104.405  0.00  0.00    -0.039 A 
ATOM      5  C4  UNL     1     145.299 128.376 103.798  0.00  0.00    +0.035 A 
ATOM      6  N2  UNL     1     144.855 129.419 102.980  0.00  0.00    -0.284 N 
ATOM      7  C5  UNL     1     143.696 129.647 102.244  0.00  0.00    +0.220 A 
ATOM      8  N3  UNL     1     143.672 130.817 101.585  0.00  0.00    -0.222 NA
ATOM      9  C6  UNL     1     142.570 131.085 100.858  0.00  0.00    +0.040 A 
ATOM     10  C7  UNL     1     141.485 130.233 100.757  0.00  0.00    +0.019 A 
ATOM     11  C8  UNL     1     140.333 130.515  99.995  0.00  0.00    -0.051 A 
ATOM     12  C9  UNL     1     139.289 129.594  99.954  0.00  0.00    -0.061 A 
ATOM     13  C10 UNL     1     139.398 128.406 100.669  0.00  0.00    -0.060 A 
ATOM     14  C11 UNL     1     140.549 128.145 101.420  0.00  0.00    -0.036 A 
ATOM     15  C12 UNL     1     141.606 129.046 101.477  0.00  0.00    +0.076 A 
ATOM     16  N4  UNL     1     142.692 128.758 102.207  0.00  0.00    -0.214 NA
ATOM     17  C13 UNL     1     144.571 127.209 104.043  0.00  0.00    -0.020 A 
ATOM     18  C14 UNL     1     145.079 126.204 104.877  0.00  0.00    +0.063 A 
ATOM     19 CL1  UNL     1     144.125 124.780 105.124  0.00  0.00    -0.082 Cl
ATOM     20  H   UNL     1     147.771 125.447 106.709  0.00  0.00    +0.000 HD
ATOM     21  H   UNL     1     146.442 124.442 106.345  0.00  0.00    +0.000 HD
ATOM     22  H   UNL     1     145.505 130.154 102.909  0.00  0.00    +0.000 HD
ENDROOT
TORSDOF 0
ENDMDL
MODEL 4
REMARK VINA RESULT:    -3.915      1.958      2.600
REMARK INTER + INTRA:          -3.915
REMARK INTER:                  -3.915
REMARK INTRA:                   0.000
REMARK UNBOUND:                 0.000
REMARK  Name = /home/vital/Documents/PhD_2021/Malaria_codes/scripts/../data/pdbqt_ligands/ligand_456_temp.pdb
REMARK                            x       y       z     vdW  Elec       q    Type
REMARK                         _______ _______ _______ _____ _____    ______ ____
ROOT
ATOM      1  N1  UNL     1     141.592 123.789 106.065  0.00  0.00    -0.357 N 
ATOM      2  C1  UNL     1     142.184 124.911 105.459  0.00  0.00    +0.043 A 
ATOM      3  C2  UNL     1     143.559 125.107 105.583  0.00  0.00    -0.038 A 
ATOM      4  C3  UNL     1     144.198 126.145 104.893  0.00  0.00    -0.039 A 
ATOM      5  C4  UNL     1     143.494 127.000 104.031  0.00  0.00    +0.035 A 
ATOM      6  N2  UNL     1     144.199 128.017 103.380  0.00  0.00    -0.284 N 
ATOM      7  C5  UNL     1     143.843 129.025 102.489  0.00  0.00    +0.220 A 
ATOM      8  N3  UNL     1     144.859 129.815 102.103  0.00  0.00    -0.222 NA
ATOM      9  C6  UNL     1     144.566 130.808 101.241  0.00  0.00    +0.040 A 
ATOM     10  C7  UNL     1     143.298 131.048 100.741  0.00  0.00    +0.019 A 
ATOM     11  C8  UNL     1     142.993 132.086  99.838  0.00  0.00    -0.051 A 
ATOM     12  C9  UNL     1     141.685 132.250  99.390  0.00  0.00    -0.061 A 
ATOM     13  C10 UNL     1     140.694 131.385  99.842  0.00  0.00    -0.060 A 
ATOM     14  C11 UNL     1     141.016 130.361 100.740  0.00  0.00    -0.036 A 
ATOM     15  C12 UNL     1     142.314 130.174 101.202  0.00  0.00    +0.076 A 
ATOM     16  N4  UNL     1     142.582 129.181 102.060  0.00  0.00    -0.214 NA
ATOM     17  C13 UNL     1     142.126 126.768 103.869  0.00  0.00    -0.020 A 
ATOM     18  C14 UNL     1     141.485 125.728 104.555  0.00  0.00    +0.063 A 
ATOM     19 CL1  UNL     1     139.789 125.494 104.294  0.00  0.00    -0.082 Cl
ATOM     20  H   UNL     1     142.112 123.237 106.694  0.00  0.00    +0.000 HD
ATOM     21  H   UNL     1     140.657 123.554 105.862  0.00  0.00    +0.000 HD
ATOM     22  H   UNL     1     145.158 128.021 103.602  0.00  0.00    +0.000 HD
ENDROOT
TORSDOF 0
ENDMDL
MODEL 5
REMARK VINA RESULT:    -3.907      3.243      4.268
REMARK INTER + INTRA:          -3.907
REMARK INTER:                  -3.907
REMARK INTRA:                   0.000
REMARK UNBOUND:                 0.000
REMARK  Name = /home/vital/Documents/PhD_2021/Malaria_codes/scripts/../data/pdbqt_ligands/ligand_456_temp.pdb
REMARK                            x       y       z     vdW  Elec       q    Type
REMARK                         _______ _______ _______ _____ _____    ______ ____
ROOT
ATOM      1  N1  UNL     1     146.380 125.140 106.323  0.00  0.00    -0.357 N 
ATOM      2  C1  UNL     1     145.334 125.591 105.498  0.00  0.00    +0.043 A 
ATOM      3  C2  UNL     1     144.083 124.983 105.592  0.00  0.00    -0.038 A 
ATOM      4  C3  UNL     1     142.989 125.483 104.874  0.00  0.00    -0.039 A 
ATOM      5  C4  UNL     1     143.099 126.627 104.068  0.00  0.00    +0.035 A 
ATOM      6  N2  UNL     1     141.965 127.066 103.377  0.00  0.00    -0.284 N 
ATOM      7  C5  UNL     1     141.708 128.121 102.507  0.00  0.00    +0.220 A 
ATOM      8  N3  UNL     1     140.446 128.177 102.051  0.00  0.00    -0.222 NA
ATOM      9  C6  UNL     1     140.147 129.181 101.205  0.00  0.00    +0.040 A 
ATOM     10  C7  UNL     1     141.055 130.138 100.791  0.00  0.00    +0.019 A 
ATOM     11  C8  UNL     1     140.741 131.189  99.905  0.00  0.00    -0.051 A 
ATOM     12  C9  UNL     1     141.724 132.107  99.545  0.00  0.00    -0.061 A 
ATOM     13  C10 UNL     1     143.007 131.973 100.065  0.00  0.00    -0.060 A 
ATOM     14  C11 UNL     1     143.300 130.923 100.942  0.00  0.00    -0.036 A 
ATOM     15  C12 UNL     1     142.337 129.994 101.319  0.00  0.00    +0.076 A 
ATOM     16  N4  UNL     1     142.657 129.003 102.161  0.00  0.00    -0.214 NA
ATOM     17  C13 UNL     1     144.340 127.264 104.018  0.00  0.00    -0.020 A 
ATOM     18  C14 UNL     1     145.435 126.767 104.737  0.00  0.00    +0.063 A 
ATOM     19 CL1  UNL     1     146.940 127.618 104.636  0.00  0.00    -0.082 Cl
ATOM     20  H   UNL     1     146.275 124.311 106.844  0.00  0.00    +0.000 HD
ATOM     21  H   UNL     1     147.219 125.653 106.380  0.00  0.00    +0.000 HD
ATOM     22  H   UNL     1     141.174 126.504 103.543  0.00  0.00    +0.000 HD
ENDROOT
TORSDOF 0
ENDMDL
MODEL 6
REMARK VINA RESULT:    -3.904      6.149      9.818
REMARK INTER + INTRA:          -3.904
REMARK INTER:                  -3.904
REMARK INTRA:                   0.000
REMARK UNBOUND:                 0.000
REMARK  Name = /home/vital/Documents/PhD_2021/Malaria_codes/scripts/../data/pdbqt_ligands/ligand_456_temp.pdb
REMARK                            x       y       z     vdW  Elec       q    Type
REMARK                         _______ _______ _______ _____ _____    ______ ____
ROOT
ATOM      1  N1  UNL     1     144.892 133.126  92.821  0.00  0.00    -0.357 N 
ATOM      2  C1  UNL     1     144.575 132.804  94.153  0.00  0.00    +0.043 A 
ATOM      3  C2  UNL     1     145.235 133.464  95.189  0.00  0.00    -0.038 A 
ATOM      4  C3  UNL     1     144.861 133.256  96.523  0.00  0.00    -0.039 A 
ATOM      5  C4  UNL     1     143.794 132.410  96.864  0.00  0.00    +0.035 A 
ATOM      6  N2  UNL     1     143.481 132.247  98.217  0.00  0.00    -0.284 N 
ATOM      7  C5  UNL     1     142.527 131.507  98.909  0.00  0.00    +0.220 A 
ATOM      8  N3  UNL     1     142.579 131.634 100.245  0.00  0.00    -0.222 NA
ATOM      9  C6  UNL     1     141.676 130.937 100.960  0.00  0.00    +0.040 A 
ATOM     10  C7  UNL     1     140.716 130.113 100.400  0.00  0.00    +0.019 A 
ATOM     11  C8  UNL     1     139.771 129.384 101.149  0.00  0.00    -0.051 A 
ATOM     12  C9  UNL     1     138.842 128.579 100.494  0.00  0.00    -0.061 A 
ATOM     13  C10 UNL     1     138.860 128.506  99.106  0.00  0.00    -0.060 A 
ATOM     14  C11 UNL     1     139.807 129.236  98.379  0.00  0.00    -0.036 A 
ATOM     15  C12 UNL     1     140.745 130.047  99.007  0.00  0.00    +0.076 A 
ATOM     16  N4  UNL     1     141.634 130.732  98.276  0.00  0.00    -0.214 NA
ATOM     17  C13 UNL     1     143.102 131.792  95.821  0.00  0.00    -0.020 A 
ATOM     18  C14 UNL     1     143.473 132.000  94.486  0.00  0.00    +0.063 A 
ATOM     19 CL1  UNL     1     142.559 131.210  93.245  0.00  0.00    -0.082 Cl
ATOM     20  H   UNL     1     145.673 133.693  92.624  0.00  0.00    +0.000 HD
ATOM     21  H   UNL     1     144.334 132.785  92.085  0.00  0.00    +0.000 HD
ATOM     22  H   UNL     1     144.064 132.771  98.812  0.00  0.00    +0.000 HD
ENDROOT
TORSDOF 0
ENDMDL
MODEL 7
REMARK VINA RESULT:    -3.888      3.896      4.665
REMARK INTER + INTRA:          -3.888
REMARK INTER:                  -3.888
REMARK INTRA:                   0.000
REMARK UNBOUND:                 0.000
REMARK  Name = /home/vital/Documents/PhD_2021/Malaria_codes/scripts/../data/pdbqt_ligands/ligand_456_temp.pdb
REMARK                            x       y       z     vdW  Elec       q    Type
REMARK                         _______ _______ _______ _____ _____    ______ ____
ROOT
ATOM      1  N1  UNL     1     146.848 125.530 103.582  0.00  0.00    -0.357 N 
ATOM      2  C1  UNL     1     145.573 126.084 103.365  0.00  0.00    +0.043 A 
ATOM      3  C2  UNL     1     145.038 126.954 104.314  0.00  0.00    -0.038 A 
ATOM      4  C3  UNL     1     143.827 127.616 104.074  0.00  0.00    -0.039 A 
ATOM      5  C4  UNL     1     143.128 127.459 102.867  0.00  0.00    +0.035 A 
ATOM      6  N2  UNL     1     141.924 128.148 102.701  0.00  0.00    -0.284 N 
ATOM      7  C5  UNL     1     140.985 128.227 101.676  0.00  0.00    +0.220 A 
ATOM      8  N3  UNL     1     139.936 129.024 101.937  0.00  0.00    -0.222 NA
ATOM      9  C6  UNL     1     138.999 129.132 100.976  0.00  0.00    +0.040 A 
ATOM     10  C7  UNL     1     139.061 128.479  99.759  0.00  0.00    +0.019 A 
ATOM     11  C8  UNL     1     138.080 128.593  98.753  0.00  0.00    -0.051 A 
ATOM     12  C9  UNL     1     138.230 127.895  97.558  0.00  0.00    -0.061 A 
ATOM     13  C10 UNL     1     139.349 127.091  97.372  0.00  0.00    -0.060 A 
ATOM     14  C11 UNL     1     140.312 126.988  98.383  0.00  0.00    -0.036 A 
ATOM     15  C12 UNL     1     140.187 127.675  99.585  0.00  0.00    +0.076 A 
ATOM     16  N4  UNL     1     141.132 127.552 100.527  0.00  0.00    -0.214 NA
ATOM     17  C13 UNL     1     143.695 126.628 101.898  0.00  0.00    -0.020 A 
ATOM     18  C14 UNL     1     144.907 125.966 102.135  0.00  0.00    +0.063 A 
ATOM     19 CL1  UNL     1     145.553 124.961 100.881  0.00  0.00    -0.082 Cl
ATOM     20  H   UNL     1     147.287 125.632 104.458  0.00  0.00    +0.000 HD
ATOM     21  H   UNL     1     147.302 125.040 102.859  0.00  0.00    +0.000 HD
ATOM     22  H   UNL     1     141.686 128.700 103.481  0.00  0.00    +0.000 HD
ENDROOT
TORSDOF 0
ENDMDL
MODEL 8
REMARK VINA RESULT:    -3.788      3.311      4.780
REMARK INTER + INTRA:          -3.788
REMARK INTER:                  -3.788
REMARK INTRA:                   0.000
REMARK UNBOUND:                 0.000
REMARK  Name = /home/vital/Documents/PhD_2021/Malaria_codes/scripts/../data/pdbqt_ligands/ligand_456_temp.pdb
REMARK                            x       y       z     vdW  Elec       q    Type
REMARK                         _______ _______ _______ _____ _____    ______ ____
ROOT
ATOM      1  N1  UNL     1     144.421 125.387 105.618  0.00  0.00    -0.357 N 
ATOM      2  C1  UNL     1     143.755 126.203 104.686  0.00  0.00    +0.043 A 
ATOM      3  C2  UNL     1     142.362 126.180 104.633  0.00  0.00    -0.038 A 
ATOM      4  C3  UNL     1     141.663 127.065 103.803  0.00  0.00    -0.039 A 
ATOM      5  C4  UNL     1     142.329 128.025 103.024  0.00  0.00    +0.035 A 
ATOM      6  N2  UNL     1     141.565 128.872 102.215  0.00  0.00    -0.284 N 
ATOM      7  C5  UNL     1     141.869 129.903 101.332  0.00  0.00    +0.220 A 
ATOM      8  N3  UNL     1     140.804 130.465 100.738  0.00  0.00    -0.222 NA
ATOM      9  C6  UNL     1     141.047 131.469  99.872  0.00  0.00    +0.040 A 
ATOM     10  C7  UNL     1     142.312 131.940  99.572  0.00  0.00    +0.019 A 
ATOM     11  C8  UNL     1     142.565 132.990  98.666  0.00  0.00    -0.051 A 
ATOM     12  C9  UNL     1     143.875 133.397  98.427  0.00  0.00    -0.061 A 
ATOM     13  C10 UNL     1     144.919 132.757  99.086  0.00  0.00    -0.060 A 
ATOM     14  C11 UNL     1     144.649 131.716  99.981  0.00  0.00    -0.036 A 
ATOM     15  C12 UNL     1     143.350 131.291 100.238  0.00  0.00    +0.076 A 
ATOM     16  N4  UNL     1     143.133 130.291 101.102  0.00  0.00    -0.214 NA
ATOM     17  C13 UNL     1     143.721 128.080 103.120  0.00  0.00    -0.020 A 
ATOM     18  C14 UNL     1     144.422 127.197 103.952  0.00  0.00    +0.063 A 
ATOM     19 CL1  UNL     1     146.147 127.334 104.028  0.00  0.00    -0.082 Cl
ATOM     20  H   UNL     1     143.922 124.700 106.116  0.00  0.00    +0.000 HD
ATOM     21  H   UNL     1     145.386 125.503 105.773  0.00  0.00    +0.000 HD
ATOM     22  H   UNL     1     140.598 128.701 102.286  0.00  0.00    +0.000 HD
ENDROOT
TORSDOF 0
ENDMDL
MODEL 9
REMARK VINA RESULT:    -3.477      3.613      7.594
REMARK INTER + INTRA:          -3.477
REMARK INTER:                  -3.477
REMARK INTRA:                   0.000
REMARK UNBOUND:                 0.000
REMARK  Name = /home/vital/Documents/PhD_2021/Malaria_codes/scripts/../data/pdbqt_ligands/ligand_456_temp.pdb
REMARK                            x       y       z     vdW  Elec       q    Type
REMARK                         _______ _______ _______ _____ _____    ______ ____
ROOT
ATOM      1  N1  UNL     1     142.356 133.512  98.587  0.00  0.00    -0.357 N 
ATOM      2  C1  UNL     1     142.966 132.482  99.325  0.00  0.00    +0.043 A 
ATOM      3  C2  UNL     1     144.357 132.440  99.415  0.00  0.00    -0.038 A 
ATOM      4  C3  UNL     1     144.992 131.501 100.238  0.00  0.00    -0.039 A 
ATOM      5  C4  UNL     1     144.260 130.597 101.024  0.00  0.00    +0.035 A 
ATOM      6  N2  UNL     1     144.963 129.685 101.817  0.00  0.00    -0.284 N 
ATOM      7  C5  UNL     1     144.586 128.669 102.691  0.00  0.00    +0.220 A 
ATOM      8  N3  UNL     1     145.610 128.010 103.259  0.00  0.00    -0.222 NA
ATOM      9  C6  UNL     1     145.297 127.016 104.112  0.00  0.00    +0.040 A 
ATOM     10  C7  UNL     1     144.002 126.648 104.428  0.00  0.00    +0.019 A 
ATOM     11  C8  UNL     1     143.676 125.608 105.322  0.00  0.00    -0.051 A 
ATOM     12  C9  UNL     1     142.340 125.310 105.578  0.00  0.00    -0.061 A 
ATOM     13  C10 UNL     1     141.343 126.044 104.945  0.00  0.00    -0.060 A 
ATOM     14  C11 UNL     1     141.686 127.072 104.060  0.00  0.00    -0.036 A 
ATOM     15  C12 UNL     1     143.012 127.391 103.788  0.00  0.00    +0.076 A 
ATOM     16  N4  UNL     1     143.299 128.383 102.935  0.00  0.00    -0.214 NA
ATOM     17  C13 UNL     1     142.867 130.677 100.971  0.00  0.00    -0.020 A 
ATOM     18  C14 UNL     1     142.230 131.617 100.151  0.00  0.00    +0.063 A 
ATOM     19 CL1  UNL     1     140.498 131.666 100.147  0.00  0.00    -0.082 Cl
ATOM     20  H   UNL     1     142.904 134.101  98.018  0.00  0.00    +0.000 HD
ATOM     21  H   UNL     1     141.382 133.646  98.639  0.00  0.00    +0.000 HD
ATOM     22  H   UNL     1     145.939 129.783 101.741  0.00  0.00    +0.000 HD
ENDROOT
TORSDOF 0
ENDMDL
