MODEL 1
REMARK VINA RESULT:    -4.007      0.000      0.000
REMARK INTER + INTRA:          -4.007
REMARK INTER:                  -4.007
REMARK INTRA:                   0.000
REMARK UNBOUND:                 0.000
REMARK  Name = /home/vital/Documents/PhD_2021/Malaria_codes/scripts/../data/pdbqt_ligands/ligand_227_temp.pdb
REMARK                            x       y       z     vdW  Elec       q    Type
REMARK                         _______ _______ _______ _____ _____    ______ ____
ROOT
ATOM      1  N1  UNL     1     142.320 135.215  98.358  0.00  0.00    -0.215 NA
ATOM      2  O1  UNL     1     142.994 134.031  98.878  0.00  0.00    -0.302 OA
ATOM      3  C1  UNL     1     142.253 132.870  98.473  0.00  0.00    +0.074 C 
ATOM      4  C2  UNL     1     142.895 131.652  99.123  0.00  0.00    +0.016 C 
ATOM      5  C3  UNL     1     142.159 130.384  98.785  0.00  0.00    +0.055 A 
ATOM      6  N2  UNL     1     142.653 129.715  97.722  0.00  0.00    -0.232 NA
ATOM      7  C4  UNL     1     142.029 128.572  97.361  0.00  0.00    +0.156 A 
ATOM      8  C5  UNL     1     142.619 127.885  96.201  0.00  0.00    +0.022 C 
ATOM      9  C6  UNL     1     142.291 126.743  95.559  0.00  0.00    +0.147 C 
ATOM     10  O2  UNL     1     141.396 125.871  95.703  0.00  0.00    -0.296 OA
ATOM     11  N3  UNL     1     140.955 128.082  97.992  0.00  0.00    -0.228 NA
ATOM     12  C7  UNL     1     140.470 128.756  99.032  0.00  0.00    +0.075 A 
ATOM     13  C8  UNL     1     139.352 128.245  99.679  0.00  0.00    -0.036 A 
ATOM     14  C9  UNL     1     138.774 128.886 100.776  0.00  0.00    -0.060 A 
ATOM     15  C10 UNL     1     139.322 130.071 101.247  0.00  0.00    -0.061 A 
ATOM     16  C11 UNL     1     140.446 130.603 100.615  0.00  0.00    -0.051 A 
ATOM     17  C12 UNL     1     141.033 129.949  99.500  0.00  0.00    +0.022 A 
ATOM     18  H   UNL     1     142.835 136.050  98.638  0.00  0.00    +0.000 HD
ATOM     19  H   UNL     1     141.372 135.259  98.733  0.00  0.00    +0.000 HD
ENDROOT
TORSDOF 0
ENDMDL
MODEL 2
REMARK VINA RESULT:    -3.910      4.301      5.461
REMARK INTER + INTRA:          -3.910
REMARK INTER:                  -3.910
REMARK INTRA:                   0.000
REMARK UNBOUND:                 0.000
REMARK  Name = /home/vital/Documents/PhD_2021/Malaria_codes/scripts/../data/pdbqt_ligands/ligand_227_temp.pdb
REMARK                            x       y       z     vdW  Elec       q    Type
REMARK                         _______ _______ _______ _____ _____    ______ ____
ROOT
ATOM      1  N1  UNL     1     147.002 128.798  99.138  0.00  0.00    -0.215 NA
ATOM      2  O1  UNL     1     146.349 129.493 100.241  0.00  0.00    -0.302 OA
ATOM      3  C1  UNL     1     145.092 128.852 100.504  0.00  0.00    +0.074 C 
ATOM      4  C2  UNL     1     144.366 129.659 101.572  0.00  0.00    +0.016 C 
ATOM      5  C3  UNL     1     143.013 129.082 101.886  0.00  0.00    +0.055 A 
ATOM      6  N2  UNL     1     142.997 128.229 102.933  0.00  0.00    -0.232 NA
ATOM      7  C4  UNL     1     141.812 127.668 103.259  0.00  0.00    +0.156 A 
ATOM      8  C5  UNL     1     141.857 126.755 104.413  0.00  0.00    +0.022 C 
ATOM      9  C6  UNL     1     140.904 126.025 105.031  0.00  0.00    +0.147 C 
ATOM     10  O2  UNL     1     139.668 125.857 104.864  0.00  0.00    -0.296 OA
ATOM     11  N3  UNL     1     140.671 127.907 102.601  0.00  0.00    -0.228 NA
ATOM     12  C7  UNL     1     140.701 128.741 101.565  0.00  0.00    +0.075 A 
ATOM     13  C8  UNL     1     139.515 128.980 100.883  0.00  0.00    -0.036 A 
ATOM     14  C9  UNL     1     139.453 129.837  99.783  0.00  0.00    -0.060 A 
ATOM     15  C10 UNL     1     140.604 130.477  99.345  0.00  0.00    -0.061 A 
ATOM     16  C11 UNL     1     141.807 130.255 100.015  0.00  0.00    -0.051 A 
ATOM     17  C12 UNL     1     141.868 129.383 101.135  0.00  0.00    +0.022 A 
ATOM     18  H   UNL     1     147.899 129.242  98.939  0.00  0.00    +0.000 HD
ATOM     19  H   UNL     1     146.409 128.843  98.309  0.00  0.00    +0.000 HD
ENDROOT
TORSDOF 0
ENDMDL
MODEL 3
REMARK VINA RESULT:    -3.805      3.915      4.649
REMARK INTER + INTRA:          -3.805
REMARK INTER:                  -3.805
REMARK INTRA:                   0.000
REMARK UNBOUND:                 0.000
REMARK  Name = /home/vital/Documents/PhD_2021/Malaria_codes/scripts/../data/pdbqt_ligands/ligand_227_temp.pdb
REMARK                            x       y       z     vdW  Elec       q    Type
REMARK                         _______ _______ _______ _____ _____    ______ ____
ROOT
ATOM      1  N1  UNL     1     146.176 131.913  98.567  0.00  0.00    -0.215 NA
ATOM      2  O1  UNL     1     145.398 132.118  99.784  0.00  0.00    -0.302 OA
ATOM      3  C1  UNL     1     144.647 130.924 100.051  0.00  0.00    +0.074 C 
ATOM      4  C2  UNL     1     143.748 131.192 101.251  0.00  0.00    +0.016 C 
ATOM      5  C3  UNL     1     142.889 130.003 101.583  0.00  0.00    +0.055 A 
ATOM      6  N2  UNL     1     143.406 129.183 102.522  0.00  0.00    -0.232 NA
ATOM      7  C4  UNL     1     142.686 128.089 102.857  0.00  0.00    +0.156 A 
ATOM      8  C5  UNL     1     143.299 127.239 103.891  0.00  0.00    +0.022 C 
ATOM      9  C6  UNL     1     142.895 126.093 104.481  0.00  0.00    +0.147 C 
ATOM     10  O2  UNL     1     141.885 125.350 104.376  0.00  0.00    -0.296 OA
ATOM     11  N3  UNL     1     141.506 127.780 102.307  0.00  0.00    -0.228 NA
ATOM     12  C7  UNL     1     141.011 128.590 101.375  0.00  0.00    +0.075 A 
ATOM     13  C8  UNL     1     139.789 128.260 100.803  0.00  0.00    -0.036 A 
ATOM     14  C9  UNL     1     139.196 129.050  99.816  0.00  0.00    -0.060 A 
ATOM     15  C10 UNL     1     139.835 130.203  99.383  0.00  0.00    -0.061 A 
ATOM     16  C11 UNL     1     141.062 130.556  99.943  0.00  0.00    -0.051 A 
ATOM     17  C12 UNL     1     141.664 129.752 100.947  0.00  0.00    +0.022 A 
ATOM     18  H   UNL     1     146.716 132.755  98.364  0.00  0.00    +0.000 HD
ATOM     19  H   UNL     1     145.545 131.718  97.790  0.00  0.00    +0.000 HD
ENDROOT
TORSDOF 0
ENDMDL
MODEL 4
REMARK VINA RESULT:    -3.745      2.612      2.872
REMARK INTER + INTRA:          -3.745
REMARK INTER:                  -3.745
REMARK INTRA:                   0.000
REMARK UNBOUND:                 0.000
REMARK  Name = /home/vital/Documents/PhD_2021/Malaria_codes/scripts/../data/pdbqt_ligands/ligand_227_temp.pdb
REMARK                            x       y       z     vdW  Elec       q    Type
REMARK                         _______ _______ _______ _____ _____    ______ ____
ROOT
ATOM      1  N1  UNL     1     143.588 131.663 102.260  0.00  0.00    -0.215 NA
ATOM      2  O1  UNL     1     143.418 130.217 102.182  0.00  0.00    -0.302 OA
ATOM      3  C1  UNL     1     142.948 129.883 100.867  0.00  0.00    +0.074 C 
ATOM      4  C2  UNL     1     142.657 128.388 100.837  0.00  0.00    +0.016 C 
ATOM      5  C3  UNL     1     142.120 127.950  99.502  0.00  0.00    +0.055 A 
ATOM      6  N2  UNL     1     143.056 127.490  98.645  0.00  0.00    -0.232 NA
ATOM      7  C4  UNL     1     142.638 127.090  97.423  0.00  0.00    +0.156 A 
ATOM      8  C5  UNL     1     143.703 126.592  96.537  0.00  0.00    +0.022 C 
ATOM      9  C6  UNL     1     143.683 126.111  95.276  0.00  0.00    +0.147 C 
ATOM     10  O2  UNL     1     142.786 125.913  94.416  0.00  0.00    -0.296 OA
ATOM     11  N3  UNL     1     141.361 127.134  97.025  0.00  0.00    -0.228 NA
ATOM     12  C7  UNL     1     140.449 127.598  97.875  0.00  0.00    +0.075 A 
ATOM     13  C8  UNL     1     139.127 127.647  97.453  0.00  0.00    -0.036 A 
ATOM     14  C9  UNL     1     138.103 128.122  98.276  0.00  0.00    -0.060 A 
ATOM     15  C10 UNL     1     138.402 128.564  99.558  0.00  0.00    -0.061 A 
ATOM     16  C11 UNL     1     139.722 128.524 100.004  0.00  0.00    -0.051 A 
ATOM     17  C12 UNL     1     140.761 128.039  99.166  0.00  0.00    +0.022 A 
ATOM     18  H   UNL     1     143.922 131.917 103.190  0.00  0.00    +0.000 HD
ATOM     19  H   UNL     1     142.693 132.120 102.083  0.00  0.00    +0.000 HD
ENDROOT
TORSDOF 0
ENDMDL
MODEL 5
REMARK VINA RESULT:    -3.602      3.096      3.459
REMARK INTER + INTRA:          -3.602
REMARK INTER:                  -3.602
REMARK INTRA:                   0.000
REMARK UNBOUND:                 0.000
REMARK  Name = /home/vital/Documents/PhD_2021/Malaria_codes/scripts/../data/pdbqt_ligands/ligand_227_temp.pdb
REMARK                            x       y       z     vdW  Elec       q    Type
REMARK                         _______ _______ _______ _____ _____    ______ ____
ROOT
ATOM      1  N1  UNL     1     143.725 131.607 102.020  0.00  0.00    -0.215 NA
ATOM      2  O1  UNL     1     143.169 130.309 102.385  0.00  0.00    -0.302 OA
ATOM      3  C1  UNL     1     142.863 129.589 101.181  0.00  0.00    +0.074 C 
ATOM      4  C2  UNL     1     142.171 128.290 101.573  0.00  0.00    +0.016 C 
ATOM      5  C3  UNL     1     141.775 127.482 100.368  0.00  0.00    +0.055 A 
ATOM      6  N2  UNL     1     142.678 126.549  99.997  0.00  0.00    -0.232 NA
ATOM      7  C4  UNL     1     142.385 125.797  98.914  0.00  0.00    +0.156 A 
ATOM      8  C5  UNL     1     143.404 124.793  98.564  0.00  0.00    +0.022 C 
ATOM      9  C6  UNL     1     143.472 123.873  97.579  0.00  0.00    +0.147 C 
ATOM     10  O2  UNL     1     142.721 123.537  96.627  0.00  0.00    -0.296 OA
ATOM     11  N3  UNL     1     141.264 125.933  98.196  0.00  0.00    -0.228 NA
ATOM     12  C7  UNL     1     140.386 126.862  98.565  0.00  0.00    +0.075 A 
ATOM     13  C8  UNL     1     139.227 127.003  97.812  0.00  0.00    -0.036 A 
ATOM     14  C9  UNL     1     138.253 127.953  98.123  0.00  0.00    -0.060 A 
ATOM     15  C10 UNL     1     138.434 128.791  99.215  0.00  0.00    -0.061 A 
ATOM     16  C11 UNL     1     139.589 128.668  99.987  0.00  0.00    -0.051 A 
ATOM     17  C12 UNL     1     140.578 127.700  99.669  0.00  0.00    +0.022 A 
ATOM     18  H   UNL     1     143.948 132.132 102.866  0.00  0.00    +0.000 HD
ATOM     19  H   UNL     1     143.042 132.126 101.468  0.00  0.00    +0.000 HD
ENDROOT
TORSDOF 0
ENDMDL
MODEL 6
REMARK VINA RESULT:    -3.558      3.349      4.137
REMARK INTER + INTRA:          -3.558
REMARK INTER:                  -3.558
REMARK INTRA:                   0.000
REMARK UNBOUND:                 0.000
REMARK  Name = /home/vital/Documents/PhD_2021/Malaria_codes/scripts/../data/pdbqt_ligands/ligand_227_temp.pdb
REMARK                            x       y       z     vdW  Elec       q    Type
REMARK                         _______ _______ _______ _____ _____    ______ ____
ROOT
ATOM      1  N1  UNL     1     143.394 132.060  95.537  0.00  0.00    -0.215 NA
ATOM      2  O1  UNL     1     143.074 132.542  96.876  0.00  0.00    -0.302 OA
ATOM      3  C1  UNL     1     142.926 131.410  97.746  0.00  0.00    +0.074 C 
ATOM      4  C2  UNL     1     142.472 131.919  99.107  0.00  0.00    +0.016 C 
ATOM      5  C3  UNL     1     142.252 130.793 100.080  0.00  0.00    +0.055 A 
ATOM      6  N2  UNL     1     143.315 130.512 100.863  0.00  0.00    -0.232 NA
ATOM      7  C4  UNL     1     143.183 129.503 101.752  0.00  0.00    +0.156 A 
ATOM      8  C5  UNL     1     144.373 129.250 102.581  0.00  0.00    +0.022 C 
ATOM      9  C6  UNL     1     144.624 128.354 103.560  0.00  0.00    +0.147 C 
ATOM     10  O2  UNL     1     143.964 127.436 104.111  0.00  0.00    -0.296 OA
ATOM     11  N3  UNL     1     142.069 128.773 101.887  0.00  0.00    -0.228 NA
ATOM     12  C7  UNL     1     141.032 129.052 101.103  0.00  0.00    +0.075 A 
ATOM     13  C8  UNL     1     139.881 128.287 101.244  0.00  0.00    -0.036 A 
ATOM     14  C9  UNL     1     138.745 128.506 100.461  0.00  0.00    -0.060 A 
ATOM     15  C10 UNL     1     138.752 129.516  99.509  0.00  0.00    -0.061 A 
ATOM     16  C11 UNL     1     139.895 130.299  99.350  0.00  0.00    -0.051 A 
ATOM     17  C12 UNL     1     141.049 130.075 100.147  0.00  0.00    +0.022 A 
ATOM     18  H   UNL     1     143.502 132.854  94.906  0.00  0.00    +0.000 HD
ATOM     19  H   UNL     1     142.639 131.461  95.203  0.00  0.00    +0.000 HD
ENDROOT
TORSDOF 0
ENDMDL
MODEL 7
REMARK VINA RESULT:    -3.366      3.928      5.882
REMARK INTER + INTRA:          -3.366
REMARK INTER:                  -3.366
REMARK INTRA:                   0.000
REMARK UNBOUND:                 0.000
REMARK  Name = /home/vital/Documents/PhD_2021/Malaria_codes/scripts/../data/pdbqt_ligands/ligand_227_temp.pdb
REMARK                            x       y       z     vdW  Elec       q    Type
REMARK                         _______ _______ _______ _____ _____    ______ ____
ROOT
ATOM      1  N1  UNL     1     138.220 127.564  98.051  0.00  0.00    -0.215 NA
ATOM      2  O1  UNL     1     138.400 128.441  99.203  0.00  0.00    -0.302 OA
ATOM      3  C1  UNL     1     139.762 128.341  99.644  0.00  0.00    +0.074 C 
ATOM      4  C2  UNL     1     139.905 129.163 100.918  0.00  0.00    +0.016 C 
ATOM      5  C3  UNL     1     141.298 129.086 101.479  0.00  0.00    +0.055 A 
ATOM      6  N2  UNL     1     142.116 130.087 101.088  0.00  0.00    -0.232 NA
ATOM      7  C4  UNL     1     143.386 130.069 101.551  0.00  0.00    +0.156 A 
ATOM      8  C5  UNL     1     144.226 131.189 101.095  0.00  0.00    +0.022 C 
ATOM      9  C6  UNL     1     145.513 131.516 101.338  0.00  0.00    +0.147 C 
ATOM     10  O2  UNL     1     146.443 131.010 102.018  0.00  0.00    -0.296 OA
ATOM     11  N3  UNL     1     143.868 129.118 102.359  0.00  0.00    -0.228 NA
ATOM     12  C7  UNL     1     143.056 128.132 102.730  0.00  0.00    +0.075 A 
ATOM     13  C8  UNL     1     143.564 127.145 103.565  0.00  0.00    -0.036 A 
ATOM     14  C9  UNL     1     142.786 126.071 104.001  0.00  0.00    -0.060 A 
ATOM     15  C10 UNL     1     141.462 125.973 103.597  0.00  0.00    -0.061 A 
ATOM     16  C11 UNL     1     140.929 126.952 102.760  0.00  0.00    -0.051 A 
ATOM     17  C12 UNL     1     141.721 128.044 102.318  0.00  0.00    +0.022 A 
ATOM     18  H   UNL     1     137.255 127.624  97.725  0.00  0.00    +0.000 HD
ATOM     19  H   UNL     1     138.429 126.603  98.320  0.00  0.00    +0.000 HD
ENDROOT
TORSDOF 0
ENDMDL
MODEL 8
REMARK VINA RESULT:    -3.305     13.818     14.788
REMARK INTER + INTRA:          -3.305
REMARK INTER:                  -3.305
REMARK INTRA:                   0.000
REMARK UNBOUND:                 0.000
REMARK  Name = /home/vital/Documents/PhD_2021/Malaria_codes/scripts/../data/pdbqt_ligands/ligand_227_temp.pdb
REMARK                            x       y       z     vdW  Elec       q    Type
REMARK                         _______ _______ _______ _____ _____    ______ ____
ROOT
ATOM      1  N1  UNL     1     137.510 143.451 100.914  0.00  0.00    -0.215 NA
ATOM      2  O1  UNL     1     138.149 144.189 101.998  0.00  0.00    -0.302 OA
ATOM      3  C1  UNL     1     139.400 143.555 102.306  0.00  0.00    +0.074 C 
ATOM      4  C2  UNL     1     139.998 144.258 103.517  0.00  0.00    +0.016 C 
ATOM      5  C3  UNL     1     141.299 143.634 103.939  0.00  0.00    +0.055 A 
ATOM      6  N2  UNL     1     142.398 144.222 103.420  0.00  0.00    -0.232 NA
ATOM      7  C4  UNL     1     143.599 143.700 103.754  0.00  0.00    +0.156 A 
ATOM      8  C5  UNL     1     144.758 144.388 103.162  0.00  0.00    +0.022 C 
ATOM      9  C6  UNL     1     146.088 144.175 103.260  0.00  0.00    +0.147 C 
ATOM     10  O2  UNL     1     146.810 143.343 103.867  0.00  0.00    -0.296 OA
ATOM     11  N3  UNL     1     143.751 142.640 104.557  0.00  0.00    -0.228 NA
ATOM     12  C7  UNL     1     142.661 142.063 105.055  0.00  0.00    +0.075 A 
ATOM     13  C8  UNL     1     142.824 140.960 105.882  0.00  0.00    -0.036 A 
ATOM     14  C9  UNL     1     141.738 140.289 106.447  0.00  0.00    -0.060 A 
ATOM     15  C10 UNL     1     140.448 140.726 106.181  0.00  0.00    -0.061 A 
ATOM     16  C11 UNL     1     140.258 141.833 105.354  0.00  0.00    -0.051 A 
ATOM     17  C12 UNL     1     141.364 142.514 104.782  0.00  0.00    +0.022 A 
ATOM     18  H   UNL     1     136.618 143.890 100.684  0.00  0.00    +0.000 HD
ATOM     19  H   UNL     1     137.349 142.488 101.209  0.00  0.00    +0.000 HD
ENDROOT
TORSDOF 0
ENDMDL
MODEL 9
REMARK VINA RESULT:    -3.198      2.271      5.543
REMARK INTER + INTRA:          -3.198
REMARK INTER:                  -3.198
REMARK INTRA:                   0.000
REMARK UNBOUND:                 0.000
REMARK  Name = /home/vital/Documents/PhD_2021/Malaria_codes/scripts/../data/pdbqt_ligands/ligand_227_temp.pdb
REMARK                            x       y       z     vdW  Elec       q    Type
REMARK                         _______ _______ _______ _____ _____    ______ ____
ROOT
ATOM      1  N1  UNL     1     143.449 123.664  96.093  0.00  0.00    -0.215 NA
ATOM      2  O1  UNL     1     143.308 125.063  95.706  0.00  0.00    -0.302 OA
ATOM      3  C1  UNL     1     142.903 125.816  96.858  0.00  0.00    +0.074 C 
ATOM      4  C2  UNL     1     142.639 127.249  96.416  0.00  0.00    +0.016 C 
ATOM      5  C3  UNL     1     142.170 128.110  97.556  0.00  0.00    +0.055 A 
ATOM      6  N2  UNL     1     143.151 128.793  98.184  0.00  0.00    -0.232 NA
ATOM      7  C4  UNL     1     142.794 129.577  99.225  0.00  0.00    +0.156 A 
ATOM      8  C5  UNL     1     143.906 130.301  99.863  0.00  0.00    +0.022 C 
ATOM      9  C6  UNL     1     143.952 131.163 100.901  0.00  0.00    +0.147 C 
ATOM     10  O2  UNL     1     143.097 131.654 101.683  0.00  0.00    -0.296 OA
ATOM     11  N3  UNL     1     141.536 129.703  99.663  0.00  0.00    -0.228 NA
ATOM     12  C7  UNL     1     140.579 129.017  99.043  0.00  0.00    +0.075 A 
ATOM     13  C8  UNL     1     139.277 129.147  99.507  0.00  0.00    -0.036 A 
ATOM     14  C9  UNL     1     138.210 128.463  98.920  0.00  0.00    -0.060 A 
ATOM     15  C10 UNL     1     138.443 127.624  97.840  0.00  0.00    -0.061 A 
ATOM     16  C11 UNL     1     139.743 127.478  97.356  0.00  0.00    -0.051 A 
ATOM     17  C12 UNL     1     140.826 128.175  97.953  0.00  0.00    +0.022 A 
ATOM     18  H   UNL     1     143.737 123.114  95.283  0.00  0.00    +0.000 HD
ATOM     19  H   UNL     1     142.556 123.316  96.440  0.00  0.00    +0.000 HD
ENDROOT
TORSDOF 0
ENDMDL
