MODEL 1
REMARK VINA RESULT:    -4.769      0.000      0.000
REMARK INTER + INTRA:          -4.769
REMARK INTER:                  -4.769
REMARK INTRA:                   0.000
REMARK UNBOUND:                 0.000
REMARK  Name = /home/vital/Documents/PhD_2021/Malaria_codes/scripts/../data/pdbqt_ligands/ligand_316_temp.pdb
REMARK                            x       y       z     vdW  Elec       q    Type
REMARK                         _______ _______ _______ _____ _____    ______ ____
ROOT
ATOM      1  C1  UNL     1     143.171 125.042 105.733  0.00  0.00    -0.043 C 
ATOM      2  C2  UNL     1     141.720 125.463 105.693  0.00  0.00    -0.062 C 
ATOM      3  C3  UNL     1     141.000 125.678 104.570  0.00  0.00    -0.077 C 
ATOM      4  C4  UNL     1     141.442 125.542 103.133  0.00  0.00    +0.026 C 
ATOM      5  C5  UNL     1     141.429 126.868 102.401  0.00  0.00    +0.134 A 
ATOM      6  N1  UNL     1     140.336 127.176 101.681  0.00  0.00    -0.236 NA
ATOM      7  C6  UNL     1     140.315 128.381 101.064  0.00  0.00    +0.055 A 
ATOM      8  C7  UNL     1     139.075 128.652 100.249  0.00  0.00    +0.016 C 
ATOM      9  C8  UNL     1     139.281 128.306  98.776  0.00  0.00    +0.074 C 
ATOM     10  O1  UNL     1     138.066 128.603  98.069  0.00  0.00    -0.302 OA
ATOM     11  N2  UNL     1     138.316 128.440  96.641  0.00  0.00    -0.215 NA
ATOM     12  C9  UNL     1     141.378 129.294 101.153  0.00  0.00    +0.022 A 
ATOM     13  C10 UNL     1     141.426 130.572 100.533  0.00  0.00    -0.051 A 
ATOM     14  C11 UNL     1     142.537 131.400 100.691  0.00  0.00    -0.061 A 
ATOM     15  C12 UNL     1     143.606 130.968 101.466  0.00  0.00    -0.060 A 
ATOM     16  C13 UNL     1     143.558 129.709 102.073  0.00  0.00    -0.036 A 
ATOM     17  C14 UNL     1     142.464 128.863 101.931  0.00  0.00    +0.075 A 
ATOM     18  N3  UNL     1     142.496 127.673 102.545  0.00  0.00    -0.232 NA
ATOM     19  C15 UNL     1     141.092 125.685 107.050  0.00  0.00    +0.043 C 
ATOM     20 CL1  UNL     1     140.458 124.137 107.702  0.00  0.00    -0.121 Cl
ATOM     21  H   UNL     1     137.464 128.646  96.120  0.00  0.00    +0.000 HD
ATOM     22  H   UNL     1     138.604 127.479  96.454  0.00  0.00    +0.000 HD
ENDROOT
TORSDOF 0
ENDMDL
MODEL 2
REMARK VINA RESULT:    -4.475      9.617     11.776
REMARK INTER + INTRA:          -4.475
REMARK INTER:                  -4.475
REMARK INTRA:                   0.000
REMARK UNBOUND:                 0.000
REMARK  Name = /home/vital/Documents/PhD_2021/Malaria_codes/scripts/../data/pdbqt_ligands/ligand_316_temp.pdb
REMARK                            x       y       z     vdW  Elec       q    Type
REMARK                         _______ _______ _______ _____ _____    ______ ____
ROOT
ATOM      1  C1  UNL     1     143.494 132.344  95.521  0.00  0.00    -0.043 C 
ATOM      2  C2  UNL     1     143.837 132.579  94.067  0.00  0.00    -0.062 C 
ATOM      3  C3  UNL     1     142.956 132.555  93.043  0.00  0.00    -0.077 C 
ATOM      4  C4  UNL     1     141.467 132.313  93.094  0.00  0.00    +0.026 C 
ATOM      5  C5  UNL     1     141.068 131.040  92.376  0.00  0.00    +0.134 A 
ATOM      6  N1  UNL     1     140.666 131.141  91.097  0.00  0.00    -0.236 NA
ATOM      7  C6  UNL     1     140.351 129.994  90.451  0.00  0.00    +0.055 A 
ATOM      8  C7  UNL     1     139.879 130.179  89.030  0.00  0.00    +0.016 C 
ATOM      9  C8  UNL     1     138.355 130.221  88.942  0.00  0.00    +0.074 C 
ATOM     10  O1  UNL     1     137.987 130.385  87.563  0.00  0.00    -0.302 OA
ATOM     11  N2  UNL     1     136.538 130.251  87.457  0.00  0.00    -0.215 NA
ATOM     12  C9  UNL     1     140.430 128.734  91.065  0.00  0.00    +0.022 A 
ATOM     13  C10 UNL     1     140.116 127.492  90.450  0.00  0.00    -0.051 A 
ATOM     14  C11 UNL     1     140.233 126.296  91.158  0.00  0.00    -0.061 A 
ATOM     15  C12 UNL     1     140.664 126.323  92.478  0.00  0.00    -0.060 A 
ATOM     16  C13 UNL     1     140.971 127.547  93.082  0.00  0.00    -0.036 A 
ATOM     17  C14 UNL     1     140.862 128.754  92.400  0.00  0.00    +0.075 A 
ATOM     18  N3  UNL     1     141.174 129.882  93.051  0.00  0.00    -0.232 NA
ATOM     19  C15 UNL     1     145.306 132.813  93.798  0.00  0.00    +0.043 C 
ATOM     20 CL1  UNL     1     145.707 134.551  94.007  0.00  0.00    -0.121 Cl
ATOM     21  H   UNL     1     136.255 130.365  86.484  0.00  0.00    +0.000 HD
ATOM     22  H   UNL     1     136.088 130.966  88.027  0.00  0.00    +0.000 HD
ENDROOT
TORSDOF 0
ENDMDL
MODEL 3
REMARK VINA RESULT:    -4.259     15.143     17.428
REMARK INTER + INTRA:          -4.259
REMARK INTER:                  -4.259
REMARK INTRA:                   0.000
REMARK UNBOUND:                 0.000
REMARK  Name = /home/vital/Documents/PhD_2021/Malaria_codes/scripts/../data/pdbqt_ligands/ligand_316_temp.pdb
REMARK                            x       y       z     vdW  Elec       q    Type
REMARK                         _______ _______ _______ _____ _____    ______ ____
ROOT
ATOM      1  C1  UNL     1     138.812 125.876  87.866  0.00  0.00    -0.043 C 
ATOM      2  C2  UNL     1     137.533 126.678  87.781  0.00  0.00    -0.062 C 
ATOM      3  C3  UNL     1     136.348 126.316  88.320  0.00  0.00    -0.077 C 
ATOM      4  C4  UNL     1     136.020 125.079  89.120  0.00  0.00    +0.026 C 
ATOM      5  C5  UNL     1     135.029 124.182  88.408  0.00  0.00    +0.134 A 
ATOM      6  N1  UNL     1     133.727 124.315  88.718  0.00  0.00    -0.236 NA
ATOM      7  C6  UNL     1     132.845 123.538  88.047  0.00  0.00    +0.055 A 
ATOM      8  C7  UNL     1     131.405 123.714  88.463  0.00  0.00    +0.016 C 
ATOM      9  C8  UNL     1     130.984 122.672  89.496  0.00  0.00    +0.074 C 
ATOM     10  O1  UNL     1     129.605 122.898  89.829  0.00  0.00    -0.302 OA
ATOM     11  N2  UNL     1     129.154 121.802  90.680  0.00  0.00    -0.215 NA
ATOM     12  C9  UNL     1     133.242 122.619  87.062  0.00  0.00    +0.022 A 
ATOM     13  C10 UNL     1     132.374 121.773  86.321  0.00  0.00    -0.051 A 
ATOM     14  C11 UNL     1     132.881 120.896  85.362  0.00  0.00    -0.061 A 
ATOM     15  C12 UNL     1     134.250 120.854  85.130  0.00  0.00    -0.060 A 
ATOM     16  C13 UNL     1     135.103 121.686  85.863  0.00  0.00    -0.036 A 
ATOM     17  C14 UNL     1     134.625 122.569  86.826  0.00  0.00    +0.075 A 
ATOM     18  N3  UNL     1     135.507 123.331  87.484  0.00  0.00    -0.232 NA
ATOM     19  C15 UNL     1     137.645 127.957  86.984  0.00  0.00    +0.043 C 
ATOM     20 CL1  UNL     1     138.226 129.295  88.031  0.00  0.00    -0.121 Cl
ATOM     21  H   UNL     1     128.175 121.944  90.928  0.00  0.00    +0.000 HD
ATOM     22  H   UNL     1     129.719 121.776  91.528  0.00  0.00    +0.000 HD
ENDROOT
TORSDOF 0
ENDMDL
MODEL 4
REMARK VINA RESULT:    -3.872      2.884      4.360
REMARK INTER + INTRA:          -3.872
REMARK INTER:                  -3.872
REMARK INTRA:                   0.000
REMARK UNBOUND:                 0.000
REMARK  Name = /home/vital/Documents/PhD_2021/Malaria_codes/scripts/../data/pdbqt_ligands/ligand_316_temp.pdb
REMARK                            x       y       z     vdW  Elec       q    Type
REMARK                         _______ _______ _______ _____ _____    ______ ____
ROOT
ATOM      1  C1  UNL     1     139.269 124.930 105.103  0.00  0.00    -0.043 C 
ATOM      2  C2  UNL     1     140.523 124.488 104.384  0.00  0.00    -0.062 C 
ATOM      3  C3  UNL     1     141.573 125.285 104.087  0.00  0.00    -0.077 C 
ATOM      4  C4  UNL     1     141.756 126.751 104.398  0.00  0.00    +0.026 C 
ATOM      5  C5  UNL     1     141.820 127.600 103.145  0.00  0.00    +0.134 A 
ATOM      6  N1  UNL     1     143.034 127.901 102.653  0.00  0.00    -0.236 NA
ATOM      7  C6  UNL     1     143.082 128.626 101.510  0.00  0.00    +0.055 A 
ATOM      8  C7  UNL     1     144.473 128.955 101.029  0.00  0.00    +0.016 C 
ATOM      9  C8  UNL     1     144.920 130.338 101.497  0.00  0.00    +0.074 C 
ATOM     10  O1  UNL     1     146.242 130.580 100.988  0.00  0.00    -0.302 OA
ATOM     11  N2  UNL     1     146.599 131.963 101.286  0.00  0.00    -0.215 NA
ATOM     12  C9  UNL     1     141.926 129.060 100.843  0.00  0.00    +0.022 A 
ATOM     13  C10 UNL     1     141.899 129.822  99.644  0.00  0.00    -0.051 A 
ATOM     14  C11 UNL     1     140.687 130.199  99.065  0.00  0.00    -0.061 A 
ATOM     15  C12 UNL     1     139.496 129.822  99.669  0.00  0.00    -0.060 A 
ATOM     16  C13 UNL     1     139.523 129.074 100.851  0.00  0.00    -0.036 A 
ATOM     17  C14 UNL     1     140.717 128.686 101.450  0.00  0.00    +0.075 A 
ATOM     18  N3  UNL     1     140.658 127.971 102.581  0.00  0.00    -0.232 NA
ATOM     19  C15 UNL     1     140.524 123.040 103.954  0.00  0.00    +0.043 C 
ATOM     20 CL1  UNL     1     141.116 121.995 105.289  0.00  0.00    -0.121 Cl
ATOM     21  H   UNL     1     147.537 132.156 100.933  0.00  0.00    +0.000 HD
ATOM     22  H   UNL     1     146.580 132.110 102.295  0.00  0.00    +0.000 HD
ENDROOT
TORSDOF 0
ENDMDL
MODEL 5
REMARK VINA RESULT:    -3.829      5.873      8.516
REMARK INTER + INTRA:          -3.829
REMARK INTER:                  -3.829
REMARK INTRA:                   0.000
REMARK UNBOUND:                 0.000
REMARK  Name = /home/vital/Documents/PhD_2021/Malaria_codes/scripts/../data/pdbqt_ligands/ligand_316_temp.pdb
REMARK                            x       y       z     vdW  Elec       q    Type
REMARK                         _______ _______ _______ _____ _____    ______ ____
ROOT
ATOM      1  C1  UNL     1     140.894 126.592  93.353  0.00  0.00    -0.043 C 
ATOM      2  C2  UNL     1     141.309 128.046  93.367  0.00  0.00    -0.062 C 
ATOM      3  C3  UNL     1     142.071 128.631  94.318  0.00  0.00    -0.077 C 
ATOM      4  C4  UNL     1     142.684 128.002  95.545  0.00  0.00    +0.026 C 
ATOM      5  C5  UNL     1     142.112 128.572  96.827  0.00  0.00    +0.134 A 
ATOM      6  N1  UNL     1     142.782 129.575  97.422  0.00  0.00    -0.236 NA
ATOM      7  C6  UNL     1     142.242 130.105  98.544  0.00  0.00    +0.055 A 
ATOM      8  C7  UNL     1     143.057 131.205  99.178  0.00  0.00    +0.016 C 
ATOM      9  C8  UNL     1     143.952 130.673 100.295  0.00  0.00    +0.074 C 
ATOM     10  O1  UNL     1     144.682 131.778 100.853  0.00  0.00    -0.302 OA
ATOM     11  N2  UNL     1     145.402 131.302 102.029  0.00  0.00    -0.215 NA
ATOM     12  C9  UNL     1     141.033 129.647  99.090  0.00  0.00    +0.022 A 
ATOM     13  C10 UNL     1     140.409 130.154 100.262  0.00  0.00    -0.051 A 
ATOM     14  C11 UNL     1     139.202 129.621 100.715  0.00  0.00    -0.061 A 
ATOM     15  C12 UNL     1     138.605 128.586 100.009  0.00  0.00    -0.060 A 
ATOM     16  C13 UNL     1     139.222 128.086  98.857  0.00  0.00    -0.036 A 
ATOM     17  C14 UNL     1     140.425 128.597  98.384  0.00  0.00    +0.075 A 
ATOM     18  N3  UNL     1     140.951 128.063  97.274  0.00  0.00    -0.232 NA
ATOM     19  C15 UNL     1     140.765 128.866  92.220  0.00  0.00    +0.043 C 
ATOM     20 CL1  UNL     1     141.848 128.737  90.793  0.00  0.00    -0.121 Cl
ATOM     21  H   UNL     1     145.928 132.073 102.441  0.00  0.00    +0.000 HD
ATOM     22  H   UNL     1     146.046 130.559 101.756  0.00  0.00    +0.000 HD
ENDROOT
TORSDOF 0
ENDMDL
MODEL 6
REMARK VINA RESULT:    -3.667      2.662      3.804
REMARK INTER + INTRA:          -3.667
REMARK INTER:                  -3.667
REMARK INTRA:                   0.000
REMARK UNBOUND:                 0.000
REMARK  Name = /home/vital/Documents/PhD_2021/Malaria_codes/scripts/../data/pdbqt_ligands/ligand_316_temp.pdb
REMARK                            x       y       z     vdW  Elec       q    Type
REMARK                         _______ _______ _______ _____ _____    ______ ____
ROOT
ATOM      1  C1  UNL     1     140.552 126.496 106.158  0.00  0.00    -0.043 C 
ATOM      2  C2  UNL     1     141.385 125.616 105.254  0.00  0.00    -0.062 C 
ATOM      3  C3  UNL     1     142.170 126.055 104.245  0.00  0.00    -0.077 C 
ATOM      4  C4  UNL     1     142.414 127.476 103.797  0.00  0.00    +0.026 C 
ATOM      5  C5  UNL     1     141.894 127.732 102.398  0.00  0.00    +0.134 A 
ATOM      6  N1  UNL     1     142.762 127.620 101.376  0.00  0.00    -0.236 NA
ATOM      7  C6  UNL     1     142.280 127.811 100.125  0.00  0.00    +0.055 A 
ATOM      8  C7  UNL     1     143.310 127.701  99.028  0.00  0.00    +0.016 C 
ATOM      9  C8  UNL     1     143.862 129.068  98.633  0.00  0.00    +0.074 C 
ATOM     10  O1  UNL     1     144.821 128.880  97.580  0.00  0.00    -0.302 OA
ATOM     11  N2  UNL     1     145.219 130.193  97.084  0.00  0.00    -0.215 NA
ATOM     12  C9  UNL     1     140.933 128.116  99.873  0.00  0.00    +0.022 A 
ATOM     13  C10 UNL     1     140.359 128.329  98.591  0.00  0.00    -0.051 A 
ATOM     14  C11 UNL     1     139.002 128.626  98.457  0.00  0.00    -0.061 A 
ATOM     15  C12 UNL     1     138.207 128.711  99.592  0.00  0.00    -0.060 A 
ATOM     16  C13 UNL     1     138.774 128.503 100.854  0.00  0.00    -0.036 A 
ATOM     17  C14 UNL     1     140.124 128.207 101.016  0.00  0.00    +0.075 A 
ATOM     18  N3  UNL     1     140.589 128.022 102.258  0.00  0.00    -0.232 NA
ATOM     19  C15 UNL     1     141.255 124.135 105.524  0.00  0.00    +0.043 C 
ATOM     20 CL1  UNL     1     142.407 123.633 106.806  0.00  0.00    -0.121 Cl
ATOM     21  H   UNL     1     145.902 130.082  96.335  0.00  0.00    +0.000 HD
ATOM     22  H   UNL     1     145.635 130.732  97.844  0.00  0.00    +0.000 HD
ENDROOT
TORSDOF 0
ENDMDL
MODEL 7
REMARK VINA RESULT:    -3.649     11.186     14.486
REMARK INTER + INTRA:          -3.649
REMARK INTER:                  -3.649
REMARK INTRA:                   0.000
REMARK UNBOUND:                 0.000
REMARK  Name = /home/vital/Documents/PhD_2021/Malaria_codes/scripts/../data/pdbqt_ligands/ligand_316_temp.pdb
REMARK                            x       y       z     vdW  Elec       q    Type
REMARK                         _______ _______ _______ _____ _____    ______ ____
ROOT
ATOM      1  C1  UNL     1     137.498 130.477  86.076  0.00  0.00    -0.043 C 
ATOM      2  C2  UNL     1     138.463 129.525  86.745  0.00  0.00    -0.062 C 
ATOM      3  C3  UNL     1     138.913 129.635  88.015  0.00  0.00    -0.077 C 
ATOM      4  C4  UNL     1     138.566 130.683  89.045  0.00  0.00    +0.026 C 
ATOM      5  C5  UNL     1     139.763 131.529  89.427  0.00  0.00    +0.134 A 
ATOM      6  N1  UNL     1     140.460 131.172  90.520  0.00  0.00    -0.236 NA
ATOM      7  C6  UNL     1     141.552 131.909  90.831  0.00  0.00    +0.055 A 
ATOM      8  C7  UNL     1     142.271 131.475  92.085  0.00  0.00    +0.016 C 
ATOM      9  C8  UNL     1     141.826 132.285  93.300  0.00  0.00    +0.074 C 
ATOM     10  O1  UNL     1     142.562 131.823  94.444  0.00  0.00    -0.302 OA
ATOM     11  N2  UNL     1     142.267 132.708  95.566  0.00  0.00    -0.215 NA
ATOM     12  C9  UNL     1     141.966 133.009  90.062  0.00  0.00    +0.022 A 
ATOM     13  C10 UNL     1     143.097 133.826  90.328  0.00  0.00    -0.051 A 
ATOM     14  C11 UNL     1     143.416 134.897  89.493  0.00  0.00    -0.061 A 
ATOM     15  C12 UNL     1     142.618 135.162  88.388  0.00  0.00    -0.060 A 
ATOM     16  C13 UNL     1     141.502 134.358  88.130  0.00  0.00    -0.036 A 
ATOM     17  C14 UNL     1     141.161 133.286  88.947  0.00  0.00    +0.075 A 
ATOM     18  N3  UNL     1     140.077 132.565  88.630  0.00  0.00    -0.232 NA
ATOM     19  C15 UNL     1     138.960 128.406  85.860  0.00  0.00    +0.043 C 
ATOM     20 CL1  UNL     1     137.816 127.022  85.905  0.00  0.00    -0.121 Cl
ATOM     21  H   UNL     1     142.780 132.396  96.390  0.00  0.00    +0.000 HD
ATOM     22  H   UNL     1     141.266 132.687  95.761  0.00  0.00    +0.000 HD
ENDROOT
TORSDOF 0
ENDMDL
MODEL 8
REMARK VINA RESULT:    -3.587      5.112      7.265
REMARK INTER + INTRA:          -3.587
REMARK INTER:                  -3.587
REMARK INTRA:                   0.000
REMARK UNBOUND:                 0.000
REMARK  Name = /home/vital/Documents/PhD_2021/Malaria_codes/scripts/../data/pdbqt_ligands/ligand_316_temp.pdb
REMARK                            x       y       z     vdW  Elec       q    Type
REMARK                         _______ _______ _______ _____ _____    ______ ____
ROOT
ATOM      1  C1  UNL     1     143.742 124.803  95.008  0.00  0.00    -0.043 C 
ATOM      2  C2  UNL     1     144.470 125.791  95.890  0.00  0.00    -0.062 C 
ATOM      3  C3  UNL     1     144.298 125.919  97.225  0.00  0.00    -0.077 C 
ATOM      4  C4  UNL     1     143.385 125.131  98.132  0.00  0.00    +0.026 C 
ATOM      5  C5  UNL     1     142.303 125.995  98.746  0.00  0.00    +0.134 A 
ATOM      6  N1  UNL     1     142.525 126.501  99.972  0.00  0.00    -0.236 NA
ATOM      7  C6  UNL     1     141.570 127.305 100.496  0.00  0.00    +0.055 A 
ATOM      8  C7  UNL     1     141.867 127.816 101.884  0.00  0.00    +0.016 C 
ATOM      9  C8  UNL     1     141.214 126.948 102.957  0.00  0.00    +0.074 C 
ATOM     10  O1  UNL     1     141.531 127.505 104.243  0.00  0.00    -0.302 OA
ATOM     11  N2  UNL     1     140.768 126.783 105.255  0.00  0.00    -0.215 NA
ATOM     12  C9  UNL     1     140.384 127.615  99.812  0.00  0.00    +0.022 A 
ATOM     13  C10 UNL     1     139.341 128.448 100.299  0.00  0.00    -0.051 A 
ATOM     14  C11 UNL     1     138.202 128.689  99.530  0.00  0.00    -0.061 A 
ATOM     15  C12 UNL     1     138.092 128.108  98.273  0.00  0.00    -0.060 A 
ATOM     16  C13 UNL     1     139.119 127.286  97.797  0.00  0.00    -0.036 A 
ATOM     17  C14 UNL     1     140.264 127.028  98.543  0.00  0.00    +0.075 A 
ATOM     18  N3  UNL     1     141.201 126.230  98.015  0.00  0.00    -0.232 NA
ATOM     19  C15 UNL     1     145.423 126.707  95.157  0.00  0.00    +0.043 C 
ATOM     20 CL1  UNL     1     147.029 125.924  94.983  0.00  0.00    -0.121 Cl
ATOM     21  H   UNL     1     140.979 127.164 106.178  0.00  0.00    +0.000 HD
ATOM     22  H   UNL     1     141.019 125.795 105.230  0.00  0.00    +0.000 HD
ENDROOT
TORSDOF 0
ENDMDL
MODEL 9
REMARK VINA RESULT:    -3.520      4.661      7.532
REMARK INTER + INTRA:          -3.520
REMARK INTER:                  -3.520
REMARK INTRA:                   0.000
REMARK UNBOUND:                 0.000
REMARK  Name = /home/vital/Documents/PhD_2021/Malaria_codes/scripts/../data/pdbqt_ligands/ligand_316_temp.pdb
REMARK                            x       y       z     vdW  Elec       q    Type
REMARK                         _______ _______ _______ _____ _____    ______ ____
ROOT
ATOM      1  C1  UNL     1     144.062 128.145 103.225  0.00  0.00    -0.043 C 
ATOM      2  C2  UNL     1     143.630 126.854 102.568  0.00  0.00    -0.062 C 
ATOM      3  C3  UNL     1     142.439 126.243 102.757  0.00  0.00    -0.077 C 
ATOM      4  C4  UNL     1     141.286 126.685 103.624  0.00  0.00    +0.026 C 
ATOM      5  C5  UNL     1     141.023 125.722 104.764  0.00  0.00    +0.134 A 
ATOM      6  N1  UNL     1     140.083 124.778 104.583  0.00  0.00    -0.236 NA
ATOM      7  C6  UNL     1     139.884 123.896 105.591  0.00  0.00    +0.055 A 
ATOM      8  C7  UNL     1     138.796 122.883 105.337  0.00  0.00    +0.016 C 
ATOM      9  C8  UNL     1     137.464 123.321 105.941  0.00  0.00    +0.074 C 
ATOM     10  O1  UNL     1     136.488 122.301 105.669  0.00  0.00    -0.302 OA
ATOM     11  N2  UNL     1     135.265 122.634 106.392  0.00  0.00    -0.215 NA
ATOM     12  C9  UNL     1     140.613 123.942 106.790  0.00  0.00    +0.022 A 
ATOM     13  C10 UNL     1     140.457 123.053 107.887  0.00  0.00    -0.051 A 
ATOM     14  C11 UNL     1     141.240 123.191 109.034  0.00  0.00    -0.061 A 
ATOM     15  C12 UNL     1     142.183 124.208 109.098  0.00  0.00    -0.060 A 
ATOM     16  C13 UNL     1     142.333 125.084 108.018  0.00  0.00    -0.036 A 
ATOM     17  C14 UNL     1     141.565 124.970 106.864  0.00  0.00    +0.075 A 
ATOM     18  N3  UNL     1     141.770 125.849 105.874  0.00  0.00    -0.232 NA
ATOM     19  C15 UNL     1     144.671 126.225 101.671  0.00  0.00    +0.043 C 
ATOM     20 CL1  UNL     1     144.566 126.915 100.017  0.00  0.00    -0.121 Cl
ATOM     21  H   UNL     1     134.558 121.921 106.211  0.00  0.00    +0.000 HD
ATOM     22  H   UNL     1     134.921 123.541 106.077  0.00  0.00    +0.000 HD
ENDROOT
TORSDOF 0
ENDMDL
