MODEL 1
REMARK VINA RESULT:    -4.399      0.000      0.000
REMARK INTER + INTRA:          -4.399
REMARK INTER:                  -4.399
REMARK INTRA:                   0.000
REMARK UNBOUND:                 0.000
REMARK  Name = /home/vital/Documents/PhD_2021/Malaria_codes/scripts/../data/pdbqt_ligands/ligand_217_temp.pdb
REMARK                            x       y       z     vdW  Elec       q    Type
REMARK                         _______ _______ _______ _____ _____    ______ ____
ROOT
ATOM      1  C1  UNL     1     142.963 127.384 103.944  0.00  0.00    +0.041 C 
ATOM      2  C2  UNL     1     141.512 127.511 103.420  0.00  0.00    +0.123 C 
ATOM      3  N1  UNL     1     140.718 126.452 104.043  0.00  0.00    -0.254 NA
ATOM      4  C3  UNL     1     141.055 125.248 103.761  0.00  0.00    +0.078 C 
ATOM      5  N2  UNL     1     140.441 124.113 104.222  0.00  0.00    -0.333 N 
ATOM      6  C4  UNL     1     139.535 124.124 105.362  0.00  0.00    +0.033 C 
ATOM      7  C5  UNL     1     138.167 124.708 105.005  0.00  0.00    +0.060 C 
ATOM      8  O1  UNL     1     137.254 124.498 106.080  0.00  0.00    -0.393 OA
ATOM      9  N3  UNL     1     141.488 127.451 101.965  0.00  0.00    -0.321 N 
ATOM     10  C6  UNL     1     141.473 128.724 101.340  0.00  0.00    +0.047 A 
ATOM     11  C7  UNL     1     142.662 129.456 101.225  0.00  0.00    -0.038 A 
ATOM     12  C8  UNL     1     142.662 130.726 100.642  0.00  0.00    -0.042 A 
ATOM     13  C9  UNL     1     141.471 131.276 100.173  0.00  0.00    +0.042 A 
ATOM     14 CL1  UNL     1     141.477 132.840  99.457  0.00  0.00    -0.083 Cl
ATOM     15  C10 UNL     1     140.274 130.572 100.282  0.00  0.00    -0.023 A 
ATOM     16  C11 UNL     1     140.279 129.305 100.865  0.00  0.00    +0.063 A 
ATOM     17 CL2  UNL     1     138.780 128.455 101.009  0.00  0.00    -0.082 Cl
ATOM     18  H   UNL     1     140.620 123.259 103.765  0.00  0.00    +0.000 HD
ATOM     19  H   UNL     1     137.160 123.546 106.243  0.00  0.00    +0.000 HD
ATOM     20  H   UNL     1     141.482 126.605 101.461  0.00  0.00    +0.000 HD
ENDROOT
TORSDOF 0
ENDMDL
MODEL 2
REMARK VINA RESULT:    -3.531     11.234     13.319
REMARK INTER + INTRA:          -3.531
REMARK INTER:                  -3.531
REMARK INTRA:                   0.000
REMARK UNBOUND:                 0.000
REMARK  Name = /home/vital/Documents/PhD_2021/Malaria_codes/scripts/../data/pdbqt_ligands/ligand_217_temp.pdb
REMARK                            x       y       z     vdW  Elec       q    Type
REMARK                         _______ _______ _______ _____ _____    ______ ____
ROOT
ATOM      1  C1  UNL     1     140.847 132.578  88.566  0.00  0.00    +0.041 C 
ATOM      2  C2  UNL     1     140.602 131.343  89.465  0.00  0.00    +0.123 C 
ATOM      3  N1  UNL     1     139.584 130.514  88.818  0.00  0.00    -0.254 NA
ATOM      4  C3  UNL     1     138.425 131.043  88.679  0.00  0.00    +0.078 C 
ATOM      5  N2  UNL     1     137.331 130.442  88.115  0.00  0.00    -0.333 N 
ATOM      6  C4  UNL     1     137.434 129.242  87.296  0.00  0.00    +0.033 C 
ATOM      7  C5  UNL     1     137.679 127.989  88.138  0.00  0.00    +0.060 C 
ATOM      8  O1  UNL     1     137.555 126.825  87.324  0.00  0.00    -0.393 OA
ATOM      9  N3  UNL     1     140.220 131.758  90.809  0.00  0.00    -0.321 N 
ATOM     10  C6  UNL     1     141.301 131.797  91.724  0.00  0.00    +0.047 A 
ATOM     11  C7  UNL     1     142.186 132.883  91.711  0.00  0.00    -0.038 A 
ATOM     12  C8  UNL     1     143.276 132.925  92.584  0.00  0.00    -0.042 A 
ATOM     13  C9  UNL     1     143.493 131.876  93.475  0.00  0.00    +0.042 A 
ATOM     14 CL1  UNL     1     144.838 131.932  94.546  0.00  0.00    -0.083 Cl
ATOM     15  C10 UNL     1     142.634 130.781  93.504  0.00  0.00    -0.023 A 
ATOM     16  C11 UNL     1     141.546 130.745  92.630  0.00  0.00    +0.063 A 
ATOM     17 CL2  UNL     1     140.502 129.367  92.668  0.00  0.00    -0.082 Cl
ATOM     18  H   UNL     1     136.442 130.835  88.270  0.00  0.00    +0.000 HD
ATOM     19  H   UNL     1     136.661 126.786  86.949  0.00  0.00    +0.000 HD
ATOM     20  H   UNL     1     139.296 131.990  91.057  0.00  0.00    +0.000 HD
ENDROOT
TORSDOF 0
ENDMDL
MODEL 3
REMARK VINA RESULT:    -3.474      2.949      3.718
REMARK INTER + INTRA:          -3.474
REMARK INTER:                  -3.474
REMARK INTRA:                   0.000
REMARK UNBOUND:                 0.000
REMARK  Name = /home/vital/Documents/PhD_2021/Malaria_codes/scripts/../data/pdbqt_ligands/ligand_217_temp.pdb
REMARK                            x       y       z     vdW  Elec       q    Type
REMARK                         _______ _______ _______ _____ _____    ______ ____
ROOT
ATOM      1  C1  UNL     1     139.824 128.133 101.007  0.00  0.00    +0.041 C 
ATOM      2  C2  UNL     1     141.347 128.268 101.246  0.00  0.00    +0.123 C 
ATOM      3  N1  UNL     1     141.787 127.094 102.000  0.00  0.00    -0.254 NA
ATOM      4  C3  UNL     1     141.290 126.954 103.174  0.00  0.00    +0.078 C 
ATOM      5  N2  UNL     1     141.574 125.939 104.049  0.00  0.00    -0.333 N 
ATOM      6  C4  UNL     1     142.222 124.704 103.630  0.00  0.00    +0.033 C 
ATOM      7  C5  UNL     1     143.719 124.895 103.379  0.00  0.00    +0.060 C 
ATOM      8  O1  UNL     1     144.344 123.628 103.187  0.00  0.00    -0.393 OA
ATOM      9  N3  UNL     1     141.647 129.521 101.927  0.00  0.00    -0.321 N 
ATOM     10  C6  UNL     1     142.026 130.570 101.054  0.00  0.00    +0.047 A 
ATOM     11  C7  UNL     1     141.045 131.270 100.340  0.00  0.00    -0.038 A 
ATOM     12  C8  UNL     1     141.401 132.287  99.450  0.00  0.00    -0.042 A 
ATOM     13  C9  UNL     1     142.743 132.608  99.263  0.00  0.00    +0.042 A 
ATOM     14 CL1  UNL     1     143.175 133.860  98.164  0.00  0.00    -0.083 Cl
ATOM     15  C10 UNL     1     143.739 131.924  99.954  0.00  0.00    -0.023 A 
ATOM     16  C11 UNL     1     143.378 130.910 100.842  0.00  0.00    +0.063 A 
ATOM     17 CL2  UNL     1     144.631 130.058 101.676  0.00  0.00    -0.082 Cl
ATOM     18  H   UNL     1     141.331 126.049 104.997  0.00  0.00    +0.000 HD
ATOM     19  H   UNL     1     144.222 123.083 103.980  0.00  0.00    +0.000 HD
ATOM     20  H   UNL     1     141.592 129.628 102.905  0.00  0.00    +0.000 HD
ENDROOT
TORSDOF 0
ENDMDL
MODEL 4
REMARK VINA RESULT:    -3.324     12.816     14.768
REMARK INTER + INTRA:          -3.324
REMARK INTER:                  -3.324
REMARK INTRA:                   0.000
REMARK UNBOUND:                 0.000
REMARK  Name = /home/vital/Documents/PhD_2021/Malaria_codes/scripts/../data/pdbqt_ligands/ligand_217_temp.pdb
REMARK                            x       y       z     vdW  Elec       q    Type
REMARK                         _______ _______ _______ _____ _____    ______ ____
ROOT
ATOM      1  C1  UNL     1     135.940 124.991  88.564  0.00  0.00    +0.041 C 
ATOM      2  C2  UNL     1     137.122 125.541  89.399  0.00  0.00    +0.123 C 
ATOM      3  N1  UNL     1     137.347 126.929  88.994  0.00  0.00    -0.254 NA
ATOM      4  C3  UNL     1     137.702 127.116  87.777  0.00  0.00    +0.078 C 
ATOM      5  N2  UNL     1     137.975 128.326  87.197  0.00  0.00    -0.333 N 
ATOM      6  C4  UNL     1     137.571 129.590  87.799  0.00  0.00    +0.033 C 
ATOM      7  C5  UNL     1     138.455 129.970  88.988  0.00  0.00    +0.060 C 
ATOM      8  O1  UNL     1     138.164 131.303  89.402  0.00  0.00    -0.393 OA
ATOM      9  N3  UNL     1     138.302 124.705  89.224  0.00  0.00    -0.321 N 
ATOM     10  C6  UNL     1     138.469 123.732  90.241  0.00  0.00    +0.047 A 
ATOM     11  C7  UNL     1     137.711 122.554  90.208  0.00  0.00    -0.038 A 
ATOM     12  C8  UNL     1     137.838 121.597  91.218  0.00  0.00    -0.042 A 
ATOM     13  C9  UNL     1     138.721 121.813  92.274  0.00  0.00    +0.042 A 
ATOM     14 CL1  UNL     1     138.872 120.632  93.515  0.00  0.00    -0.083 Cl
ATOM     15  C10 UNL     1     139.481 122.978  92.334  0.00  0.00    -0.023 A 
ATOM     16  C11 UNL     1     139.352 123.930  91.323  0.00  0.00    +0.063 A 
ATOM     17 CL2  UNL     1     140.289 125.379  91.426  0.00  0.00    -0.082 Cl
ATOM     18  H   UNL     1     138.462 128.343  86.342  0.00  0.00    +0.000 HD
ATOM     19  H   UNL     1     138.338 131.914  88.669  0.00  0.00    +0.000 HD
ATOM     20  H   UNL     1     138.927 124.806  88.469  0.00  0.00    +0.000 HD
ENDROOT
TORSDOF 0
ENDMDL
MODEL 5
REMARK VINA RESULT:    -3.273      5.096      7.454
REMARK INTER + INTRA:          -3.273
REMARK INTER:                  -3.273
REMARK INTRA:                   0.000
REMARK UNBOUND:                 0.000
REMARK  Name = /home/vital/Documents/PhD_2021/Malaria_codes/scripts/../data/pdbqt_ligands/ligand_217_temp.pdb
REMARK                            x       y       z     vdW  Elec       q    Type
REMARK                         _______ _______ _______ _____ _____    ______ ____
ROOT
ATOM      1  C1  UNL     1     139.279 128.429  98.397  0.00  0.00    +0.041 C 
ATOM      2  C2  UNL     1     140.546 127.942  99.141  0.00  0.00    +0.123 C 
ATOM      3  N1  UNL     1     141.265 129.123  99.620  0.00  0.00    -0.254 NA
ATOM      4  C3  UNL     1     141.709 129.921  98.721  0.00  0.00    +0.078 C 
ATOM      5  N2  UNL     1     142.417 131.072  98.948  0.00  0.00    -0.333 N 
ATOM      6  C4  UNL     1     142.465 131.714 100.254  0.00  0.00    +0.033 C 
ATOM      7  C5  UNL     1     143.380 130.970 101.229  0.00  0.00    +0.060 C 
ATOM      8  O1  UNL     1     143.565 131.747 102.410  0.00  0.00    -0.393 OA
ATOM      9  N3  UNL     1     141.359 127.103  98.269  0.00  0.00    -0.321 N 
ATOM     10  C6  UNL     1     141.130 125.714  98.436  0.00  0.00    +0.047 A 
ATOM     11  C7  UNL     1     140.004 125.119  97.851  0.00  0.00    -0.038 A 
ATOM     12  C8  UNL     1     139.744 123.758  98.030  0.00  0.00    -0.042 A 
ATOM     13  C9  UNL     1     140.606 122.981  98.802  0.00  0.00    +0.042 A 
ATOM     14 CL1  UNL     1     140.279 121.307  99.021  0.00  0.00    -0.083 Cl
ATOM     15  C10 UNL     1     141.727 123.549  99.401  0.00  0.00    -0.023 A 
ATOM     16  C11 UNL     1     141.983 124.909  99.218  0.00  0.00    +0.063 A 
ATOM     17 CL2  UNL     1     143.369 125.599  99.986  0.00  0.00    -0.082 Cl
ATOM     18  H   UNL     1     142.910 131.480  98.201  0.00  0.00    +0.000 HD
ATOM     19  H   UNL     1     143.973 132.596 102.177  0.00  0.00    +0.000 HD
ATOM     20  H   UNL     1     142.007 127.467  97.624  0.00  0.00    +0.000 HD
ENDROOT
TORSDOF 0
ENDMDL
MODEL 6
REMARK VINA RESULT:    -3.231     13.455     15.486
REMARK INTER + INTRA:          -3.231
REMARK INTER:                  -3.231
REMARK INTRA:                   0.000
REMARK UNBOUND:                 0.000
REMARK  Name = /home/vital/Documents/PhD_2021/Malaria_codes/scripts/../data/pdbqt_ligands/ligand_217_temp.pdb
REMARK                            x       y       z     vdW  Elec       q    Type
REMARK                         _______ _______ _______ _____ _____    ______ ____
ROOT
ATOM      1  C1  UNL     1     137.406 129.731  86.866  0.00  0.00    +0.041 C 
ATOM      2  C2  UNL     1     137.508 128.829  88.119  0.00  0.00    +0.123 C 
ATOM      3  N1  UNL     1     138.496 129.425  89.020  0.00  0.00    -0.254 NA
ATOM      4  C3  UNL     1     139.697 129.495  88.577  0.00  0.00    +0.078 C 
ATOM      5  N2  UNL     1     140.774 130.001  89.257  0.00  0.00    -0.333 N 
ATOM      6  C4  UNL     1     140.629 130.834  90.442  0.00  0.00    +0.033 C 
ATOM      7  C5  UNL     1     140.244 130.017  91.677  0.00  0.00    +0.060 C 
ATOM      8  O1  UNL     1     140.327 130.833  92.844  0.00  0.00    -0.393 OA
ATOM      9  N3  UNL     1     137.843 127.463  87.739  0.00  0.00    -0.321 N 
ATOM     10  C6  UNL     1     136.718 126.609  87.624  0.00  0.00    +0.047 A 
ATOM     11  C7  UNL     1     135.918 126.664  86.474  0.00  0.00    -0.038 A 
ATOM     12  C8  UNL     1     134.786 125.853  86.355  0.00  0.00    -0.042 A 
ATOM     13  C9  UNL     1     134.442 124.984  87.388  0.00  0.00    +0.042 A 
ATOM     14 CL1  UNL     1     133.046 123.990  87.237  0.00  0.00    -0.083 Cl
ATOM     15  C10 UNL     1     135.214 124.916  88.544  0.00  0.00    -0.023 A 
ATOM     16  C11 UNL     1     136.344 125.727  88.658  0.00  0.00    +0.063 A 
ATOM     17 CL2  UNL     1     137.279 125.642  90.110  0.00  0.00    -0.082 Cl
ATOM     18  H   UNL     1     141.680 129.793  88.931  0.00  0.00    +0.000 HD
ATOM     19  H   UNL     1     141.236 131.158  92.947  0.00  0.00    +0.000 HD
ATOM     20  H   UNL     1     138.766 127.161  87.577  0.00  0.00    +0.000 HD
ENDROOT
TORSDOF 0
ENDMDL
MODEL 7
REMARK VINA RESULT:    -3.133      1.723      1.956
REMARK INTER + INTRA:          -3.133
REMARK INTER:                  -3.133
REMARK INTRA:                   0.000
REMARK UNBOUND:                 0.000
REMARK  Name = /home/vital/Documents/PhD_2021/Malaria_codes/scripts/../data/pdbqt_ligands/ligand_217_temp.pdb
REMARK                            x       y       z     vdW  Elec       q    Type
REMARK                         _______ _______ _______ _____ _____    ______ ____
ROOT
ATOM      1  C1  UNL     1     144.836 128.461 103.260  0.00  0.00    +0.041 C 
ATOM      2  C2  UNL     1     143.300 128.414 103.075  0.00  0.00    +0.123 C 
ATOM      3  N1  UNL     1     142.787 127.308 103.883  0.00  0.00    -0.254 NA
ATOM      4  C3  UNL     1     143.184 126.134 103.557  0.00  0.00    +0.078 C 
ATOM      5  N2  UNL     1     142.818 124.963 104.168  0.00  0.00    -0.333 N 
ATOM      6  C4  UNL     1     142.193 124.932 105.483  0.00  0.00    +0.033 C 
ATOM      7  C5  UNL     1     140.723 125.355 105.432  0.00  0.00    +0.060 C 
ATOM      8  O1  UNL     1     140.102 125.100 106.690  0.00  0.00    -0.393 OA
ATOM      9  N3  UNL     1     142.960 128.287 101.664  0.00  0.00    -0.321 N 
ATOM     10  C6  UNL     1     142.665 129.521 101.033  0.00  0.00    +0.047 A 
ATOM     11  C7  UNL     1     143.710 130.367 100.637  0.00  0.00    -0.038 A 
ATOM     12  C8  UNL     1     143.439 131.602 100.042  0.00  0.00    -0.042 A 
ATOM     13  C9  UNL     1     142.120 132.004  99.843  0.00  0.00    +0.042 A 
ATOM     14 CL1  UNL     1     141.794 133.526  99.113  0.00  0.00    -0.083 Cl
ATOM     15  C10 UNL     1     141.064 131.186 100.234  0.00  0.00    -0.023 A 
ATOM     16  C11 UNL     1     141.339 129.953 100.827  0.00  0.00    +0.063 A 
ATOM     17 CL2  UNL     1     140.013 128.960 101.324  0.00  0.00    -0.082 Cl
ATOM     18  H   UNL     1     142.985 124.113 103.701  0.00  0.00    +0.000 HD
ATOM     19  H   UNL     1     140.153 124.152 106.890  0.00  0.00    +0.000 HD
ATOM     20  H   UNL     1     142.937 127.422 101.192  0.00  0.00    +0.000 HD
ENDROOT
TORSDOF 0
ENDMDL
MODEL 8
REMARK VINA RESULT:    -3.015     12.710     14.807
REMARK INTER + INTRA:          -3.015
REMARK INTER:                  -3.015
REMARK INTRA:                   0.000
REMARK UNBOUND:                 0.000
REMARK  Name = /home/vital/Documents/PhD_2021/Malaria_codes/scripts/../data/pdbqt_ligands/ligand_217_temp.pdb
REMARK                            x       y       z     vdW  Elec       q    Type
REMARK                         _______ _______ _______ _____ _____    ______ ____
ROOT
ATOM      1  C1  UNL     1     137.834 130.880  87.926  0.00  0.00    +0.041 C 
ATOM      2  C2  UNL     1     138.643 130.093  88.984  0.00  0.00    +0.123 C 
ATOM      3  N1  UNL     1     139.647 130.999  89.544  0.00  0.00    -0.254 NA
ATOM      4  C3  UNL     1     140.532 131.440  88.727  0.00  0.00    +0.078 C 
ATOM      5  N2  UNL     1     141.564 132.284  89.042  0.00  0.00    -0.333 N 
ATOM      6  C4  UNL     1     141.593 133.058  90.275  0.00  0.00    +0.033 C 
ATOM      7  C5  UNL     1     141.940 132.194  91.489  0.00  0.00    +0.060 C 
ATOM      8  O1  UNL     1     142.169 133.024  92.626  0.00  0.00    -0.393 OA
ATOM      9  N3  UNL     1     139.230 128.898  88.392  0.00  0.00    -0.321 N 
ATOM     10  C6  UNL     1     138.461 127.725  88.591  0.00  0.00    +0.047 A 
ATOM     11  C7  UNL     1     137.334 127.488  87.792  0.00  0.00    -0.038 A 
ATOM     12  C8  UNL     1     136.545 126.353  87.993  0.00  0.00    -0.042 A 
ATOM     13  C9  UNL     1     136.872 125.447  89.000  0.00  0.00    +0.042 A 
ATOM     14 CL1  UNL     1     135.895 124.053  89.244  0.00  0.00    -0.083 Cl
ATOM     15  C10 UNL     1     137.982 125.663  89.813  0.00  0.00    -0.023 A 
ATOM     16  C11 UNL     1     138.767 126.797  89.608  0.00  0.00    +0.063 A 
ATOM     17 CL2  UNL     1     140.129 127.057  90.641  0.00  0.00    -0.082 Cl
ATOM     18  H   UNL     1     142.315 132.370  88.410  0.00  0.00    +0.000 HD
ATOM     19  H   UNL     1     142.907 133.627  92.443  0.00  0.00    +0.000 HD
ATOM     20  H   UNL     1     140.083 128.905  87.900  0.00  0.00    +0.000 HD
ENDROOT
TORSDOF 0
ENDMDL
MODEL 9
REMARK VINA RESULT:    -2.568      5.968      8.711
REMARK INTER + INTRA:          -2.568
REMARK INTER:                  -2.568
REMARK INTRA:                   0.000
REMARK UNBOUND:                 0.000
REMARK  Name = /home/vital/Documents/PhD_2021/Malaria_codes/scripts/../data/pdbqt_ligands/ligand_217_temp.pdb
REMARK                            x       y       z     vdW  Elec       q    Type
REMARK                         _______ _______ _______ _____ _____    ______ ____
ROOT
ATOM      1  C1  UNL     1     143.429 128.405  96.456  0.00  0.00    +0.041 C 
ATOM      2  C2  UNL     1     143.086 129.790  97.056  0.00  0.00    +0.123 C 
ATOM      3  N1  UNL     1     143.984 130.774  96.451  0.00  0.00    -0.254 NA
ATOM      4  C3  UNL     1     145.234 130.624  96.688  0.00  0.00    +0.078 C 
ATOM      5  N2  UNL     1     146.241 131.435  96.233  0.00  0.00    -0.333 N 
ATOM      6  C4  UNL     1     146.049 132.380  95.142  0.00  0.00    +0.033 C 
ATOM      7  C5  UNL     1     145.263 133.616  95.582  0.00  0.00    +0.060 C 
ATOM      8  O1  UNL     1     145.290 134.601  94.550  0.00  0.00    -0.393 OA
ATOM      9  N3  UNL     1     143.186 129.755  98.509  0.00  0.00    -0.321 N 
ATOM     10  C6  UNL     1     141.948 129.534  99.163  0.00  0.00    +0.047 A 
ATOM     11  C7  UNL     1     141.420 128.238  99.233  0.00  0.00    -0.038 A 
ATOM     12  C8  UNL     1     140.186 128.004  99.845  0.00  0.00    -0.042 A 
ATOM     13  C9  UNL     1     139.466 129.067 100.387  0.00  0.00    +0.042 A 
ATOM     14 CL1  UNL     1     137.946 128.773 101.137  0.00  0.00    -0.083 Cl
ATOM     15  C10 UNL     1     139.964 130.365 100.323  0.00  0.00    -0.023 A 
ATOM     16  C11 UNL     1     141.197 130.593  99.712  0.00  0.00    +0.063 A 
ATOM     17 CL2  UNL     1     141.789 132.215  99.626  0.00  0.00    -0.082 Cl
ATOM     18  H   UNL     1     147.126 131.376  96.660  0.00  0.00    +0.000 HD
ATOM     19  H   UNL     1     146.209 134.855  94.370  0.00  0.00    +0.000 HD
ATOM     20  H   UNL     1     144.035 129.874  98.993  0.00  0.00    +0.000 HD
ENDROOT
TORSDOF 0
ENDMDL
