MODEL 1
REMARK VINA RESULT:    -4.883      0.000      0.000
REMARK INTER + INTRA:          -4.883
REMARK INTER:                  -4.883
REMARK INTRA:                   0.000
REMARK UNBOUND:                 0.000
REMARK  Name = /home/vital/Documents/PhD_2021/Malaria_codes/scripts/../data/pdbqt_ligands/ligand_343_temp.pdb
REMARK                            x       y       z     vdW  Elec       q    Type
REMARK                         _______ _______ _______ _____ _____    ______ ____
ROOT
ATOM      1  C1  UNL     1     139.370 125.574  91.177  0.00  0.00    -0.037 C 
ATOM      2  C2  UNL     1     138.309 125.029  90.251  0.00  0.00    -0.011 A 
ATOM      3  C3  UNL     1     137.914 123.676  90.305  0.00  0.00    +0.046 A 
ATOM      4 CL1  UNL     1     138.604 122.546  91.422  0.00  0.00    -0.083 Cl
ATOM      5  C4  UNL     1     136.932 123.177  89.447  0.00  0.00    -0.043 A 
ATOM      6  C5  UNL     1     136.327 124.016  88.521  0.00  0.00    -0.059 A 
ATOM      7  C6  UNL     1     136.702 125.357  88.450  0.00  0.00    -0.040 A 
ATOM      8  C7  UNL     1     137.685 125.880  89.300  0.00  0.00    +0.038 A 
ATOM      9  N1  UNL     1     138.075 127.238  89.240  0.00  0.00    -0.279 N 
ATOM     10  C8  UNL     1     137.617 128.246  88.409  0.00  0.00    +0.284 C 
ATOM     11  O1  UNL     1     136.756 128.130  87.545  0.00  0.00    -0.266 OA
ATOM     12  C9  UNL     1     138.280 129.513  88.666  0.00  0.00    +0.190 A 
ATOM     13  C10 UNL     1     138.133 130.754  88.081  0.00  0.00    -0.011 A 
ATOM     14  C11 UNL     1     139.043 131.622  88.735  0.00  0.00    -0.015 A 
ATOM     15  C12 UNL     1     139.701 130.869  89.688  0.00  0.00    +0.136 A 
ATOM     16  C13 UNL     1     140.739 131.149  90.679  0.00  0.00    +0.019 A 
ATOM     17  C14 UNL     1     141.280 132.440  90.800  0.00  0.00    -0.051 A 
ATOM     18  C15 UNL     1     142.272 132.719  91.745  0.00  0.00    -0.060 A 
ATOM     19  C16 UNL     1     142.738 131.711  92.585  0.00  0.00    -0.043 A 
ATOM     20  C17 UNL     1     142.210 130.428  92.475  0.00  0.00    +0.042 A 
ATOM     21 CL2  UNL     1     142.782 129.177  93.509  0.00  0.00    -0.084 Cl
ATOM     22  C18 UNL     1     141.219 130.145  91.533  0.00  0.00    -0.033 A 
ATOM     23  O2  UNL     1     139.237 129.582  89.646  0.00  0.00    -0.450 OA
ATOM     24  H   UNL     1     138.773 127.505  89.881  0.00  0.00    +0.000 HD
ENDROOT
TORSDOF 0
ENDMDL
MODEL 2
REMARK VINA RESULT:    -4.621      1.266      7.048
REMARK INTER + INTRA:          -4.621
REMARK INTER:                  -4.621
REMARK INTRA:                   0.000
REMARK UNBOUND:                 0.000
REMARK  Name = /home/vital/Documents/PhD_2021/Malaria_codes/scripts/../data/pdbqt_ligands/ligand_343_temp.pdb
REMARK                            x       y       z     vdW  Elec       q    Type
REMARK                         _______ _______ _______ _____ _____    ______ ____
ROOT
ATOM      1  C1  UNL     1     141.110 128.564  92.546  0.00  0.00    -0.037 C 
ATOM      2  C2  UNL     1     141.449 130.028  92.410  0.00  0.00    -0.011 A 
ATOM      3  C3  UNL     1     142.335 130.661  93.307  0.00  0.00    +0.046 A 
ATOM      4 CL1  UNL     1     143.094 129.822  94.618  0.00  0.00    -0.083 Cl
ATOM      5  C4  UNL     1     142.646 132.017  93.177  0.00  0.00    -0.043 A 
ATOM      6  C5  UNL     1     142.081 132.764  92.153  0.00  0.00    -0.059 A 
ATOM      7  C6  UNL     1     141.203 132.159  91.255  0.00  0.00    -0.040 A 
ATOM      8  C7  UNL     1     140.876 130.801  91.365  0.00  0.00    +0.038 A 
ATOM      9  N1  UNL     1     139.987 130.174  90.461  0.00  0.00    -0.279 N 
ATOM     10  C8  UNL     1     139.313 130.712  89.379  0.00  0.00    +0.284 C 
ATOM     11  O1  UNL     1     139.374 131.876  88.999  0.00  0.00    -0.266 OA
ATOM     12  C9  UNL     1     138.490 129.726  88.700  0.00  0.00    +0.190 A 
ATOM     13  C10 UNL     1     137.667 129.829  87.596  0.00  0.00    -0.011 A 
ATOM     14  C11 UNL     1     137.112 128.543  87.382  0.00  0.00    -0.015 A 
ATOM     15  C12 UNL     1     137.621 127.717  88.365  0.00  0.00    +0.136 A 
ATOM     16  C13 UNL     1     137.455 126.305  88.706  0.00  0.00    +0.019 A 
ATOM     17  C14 UNL     1     136.614 125.481  87.940  0.00  0.00    -0.051 A 
ATOM     18  C15 UNL     1     136.448 124.129  88.257  0.00  0.00    -0.060 A 
ATOM     19  C16 UNL     1     137.122 123.580  89.344  0.00  0.00    -0.043 A 
ATOM     20  C17 UNL     1     137.958 124.386  90.110  0.00  0.00    +0.042 A 
ATOM     21 CL2  UNL     1     138.795 123.714  91.456  0.00  0.00    -0.084 Cl
ATOM     22  C18 UNL     1     138.127 125.736  89.798  0.00  0.00    -0.033 A 
ATOM     23  O2  UNL     1     138.461 128.438  89.170  0.00  0.00    -0.450 OA
ATOM     24  H   UNL     1     139.825 129.217  90.626  0.00  0.00    +0.000 HD
ENDROOT
TORSDOF 0
ENDMDL
MODEL 3
REMARK VINA RESULT:    -4.592      6.807      9.490
REMARK INTER + INTRA:          -4.592
REMARK INTER:                  -4.592
REMARK INTRA:                   0.000
REMARK UNBOUND:                 0.000
REMARK  Name = /home/vital/Documents/PhD_2021/Malaria_codes/scripts/../data/pdbqt_ligands/ligand_343_temp.pdb
REMARK                            x       y       z     vdW  Elec       q    Type
REMARK                         _______ _______ _______ _____ _____    ______ ____
ROOT
ATOM      1  C1  UNL     1     142.337 128.658  94.259  0.00  0.00    -0.037 C 
ATOM      2  C2  UNL     1     143.325 129.523  93.517  0.00  0.00    -0.011 A 
ATOM      3  C3  UNL     1     143.800 129.162  92.238  0.00  0.00    +0.046 A 
ATOM      4 CL1  UNL     1     143.294 127.717  91.429  0.00  0.00    -0.083 Cl
ATOM      5  C4  UNL     1     144.715 129.966  91.555  0.00  0.00    -0.043 A 
ATOM      6  C5  UNL     1     145.171 131.143  92.132  0.00  0.00    -0.059 A 
ATOM      7  C6  UNL     1     144.717 131.519  93.395  0.00  0.00    -0.040 A 
ATOM      8  C7  UNL     1     143.799 130.729  94.100  0.00  0.00    +0.038 A 
ATOM      9  N1  UNL     1     143.328 131.098  95.381  0.00  0.00    -0.279 N 
ATOM     10  C8  UNL     1     143.641 132.210  96.142  0.00  0.00    +0.284 C 
ATOM     11  O1  UNL     1     144.413 133.108  95.824  0.00  0.00    -0.266 OA
ATOM     12  C9  UNL     1     142.937 132.221  97.414  0.00  0.00    +0.190 A 
ATOM     13  C10 UNL     1     142.953 133.123  98.458  0.00  0.00    -0.011 A 
ATOM     14  C11 UNL     1     142.069 132.619  99.444  0.00  0.00    -0.015 A 
ATOM     15  C12 UNL     1     141.556 131.434  98.955  0.00  0.00    +0.136 A 
ATOM     16  C13 UNL     1     140.614 130.437  99.462  0.00  0.00    +0.019 A 
ATOM     17  C14 UNL     1     140.016 130.598 100.723  0.00  0.00    -0.051 A 
ATOM     18  C15 UNL     1     139.113 129.652 101.217  0.00  0.00    -0.060 A 
ATOM     19  C16 UNL     1     138.794 128.529 100.458  0.00  0.00    -0.043 A 
ATOM     20  C17 UNL     1     139.379 128.359  99.207  0.00  0.00    +0.042 A 
ATOM     21 CL2  UNL     1     138.989 126.974  98.262  0.00  0.00    -0.084 Cl
ATOM     22  C18 UNL     1     140.281 129.301  98.709  0.00  0.00    -0.033 A 
ATOM     23  O2  UNL     1     142.086 131.189  97.717  0.00  0.00    -0.450 OA
ATOM     24  H   UNL     1     142.686 130.474  95.789  0.00  0.00    +0.000 HD
ENDROOT
TORSDOF 0
ENDMDL
MODEL 4
REMARK VINA RESULT:    -4.536      0.702      0.740
REMARK INTER + INTRA:          -4.536
REMARK INTER:                  -4.536
REMARK INTRA:                   0.000
REMARK UNBOUND:                 0.000
REMARK  Name = /home/vital/Documents/PhD_2021/Malaria_codes/scripts/../data/pdbqt_ligands/ligand_343_temp.pdb
REMARK                            x       y       z     vdW  Elec       q    Type
REMARK                         _______ _______ _______ _____ _____    ______ ____
ROOT
ATOM      1  C1  UNL     1     140.031 125.782  91.689  0.00  0.00    -0.037 C 
ATOM      2  C2  UNL     1     139.019 125.142  90.771  0.00  0.00    -0.011 A 
ATOM      3  C3  UNL     1     138.688 123.775  90.884  0.00  0.00    +0.046 A 
ATOM      4 CL1  UNL     1     139.406 122.736  92.068  0.00  0.00    -0.083 Cl
ATOM      5  C4  UNL     1     137.750 123.187  90.032  0.00  0.00    -0.043 A 
ATOM      6  C5  UNL     1     137.126 123.950  89.054  0.00  0.00    -0.059 A 
ATOM      7  C6  UNL     1     137.438 125.302  88.923  0.00  0.00    -0.040 A 
ATOM      8  C7  UNL     1     138.375 125.914  89.766  0.00  0.00    +0.038 A 
ATOM      9  N1  UNL     1     138.702 127.284  89.646  0.00  0.00    -0.279 N 
ATOM     10  C8  UNL     1     138.215 128.227  88.758  0.00  0.00    +0.284 C 
ATOM     11  O1  UNL     1     137.379 128.028  87.883  0.00  0.00    -0.266 OA
ATOM     12  C9  UNL     1     138.810 129.536  88.965  0.00  0.00    +0.190 A 
ATOM     13  C10 UNL     1     138.618 130.739  88.316  0.00  0.00    -0.011 A 
ATOM     14  C11 UNL     1     139.470 131.680  88.944  0.00  0.00    -0.015 A 
ATOM     15  C12 UNL     1     140.142 131.008  89.946  0.00  0.00    +0.136 A 
ATOM     16  C13 UNL     1     141.143 131.386  90.942  0.00  0.00    +0.019 A 
ATOM     17  C14 UNL     1     141.618 132.706  91.010  0.00  0.00    -0.051 A 
ATOM     18  C15 UNL     1     142.575 133.079  91.960  0.00  0.00    -0.060 A 
ATOM     19  C16 UNL     1     143.070 132.137  92.857  0.00  0.00    -0.043 A 
ATOM     20  C17 UNL     1     142.606 130.826  92.800  0.00  0.00    +0.042 A 
ATOM     21 CL2  UNL     1     143.215 129.656  93.907  0.00  0.00    -0.084 Cl
ATOM     22  C18 UNL     1     141.652 130.449  91.854  0.00  0.00    -0.033 A 
ATOM     23  O2  UNL     1     139.741 129.699  89.959  0.00  0.00    -0.450 OA
ATOM     24  H   UNL     1     139.371 127.616  90.287  0.00  0.00    +0.000 HD
ENDROOT
TORSDOF 0
ENDMDL
MODEL 5
REMARK VINA RESULT:    -4.267      1.752      7.103
REMARK INTER + INTRA:          -4.267
REMARK INTER:                  -4.267
REMARK INTRA:                   0.000
REMARK UNBOUND:                 0.000
REMARK  Name = /home/vital/Documents/PhD_2021/Malaria_codes/scripts/../data/pdbqt_ligands/ligand_343_temp.pdb
REMARK                            x       y       z     vdW  Elec       q    Type
REMARK                         _______ _______ _______ _____ _____    ______ ____
ROOT
ATOM      1  C1  UNL     1     140.850 128.399  90.988  0.00  0.00    -0.037 C 
ATOM      2  C2  UNL     1     140.384 129.597  90.198  0.00  0.00    -0.011 A 
ATOM      3  C3  UNL     1     141.052 130.837  90.284  0.00  0.00    +0.046 A 
ATOM      4 CL1  UNL     1     142.441 131.081  91.289  0.00  0.00    -0.083 Cl
ATOM      5  C4  UNL     1     140.616 131.943  89.551  0.00  0.00    -0.043 A 
ATOM      6  C5  UNL     1     139.510 131.834  88.720  0.00  0.00    -0.059 A 
ATOM      7  C6  UNL     1     138.834 130.619  88.620  0.00  0.00    -0.040 A 
ATOM      8  C7  UNL     1     139.252 129.496  89.345  0.00  0.00    +0.038 A 
ATOM      9  N1  UNL     1     138.577 128.257  89.253  0.00  0.00    -0.279 N 
ATOM     10  C8  UNL     1     137.466 127.917  88.501  0.00  0.00    +0.284 C 
ATOM     11  O1  UNL     1     136.848 128.665  87.751  0.00  0.00    -0.266 OA
ATOM     12  C9  UNL     1     137.079 126.529  88.688  0.00  0.00    +0.190 A 
ATOM     13  C10 UNL     1     136.050 125.788  88.143  0.00  0.00    -0.011 A 
ATOM     14  C11 UNL     1     136.157 124.484  88.688  0.00  0.00    -0.015 A 
ATOM     15  C12 UNL     1     137.245 124.492  89.539  0.00  0.00    +0.136 A 
ATOM     16  C13 UNL     1     137.884 123.494  90.395  0.00  0.00    +0.019 A 
ATOM     17  C14 UNL     1     137.381 122.184  90.463  0.00  0.00    -0.051 A 
ATOM     18  C15 UNL     1     137.985 121.222  91.277  0.00  0.00    -0.060 A 
ATOM     19  C16 UNL     1     139.103 121.555  92.038  0.00  0.00    -0.043 A 
ATOM     20  C17 UNL     1     139.611 122.849  91.979  0.00  0.00    +0.042 A 
ATOM     21 CL2  UNL     1     140.993 123.268  92.916  0.00  0.00    -0.084 Cl
ATOM     22  C18 UNL     1     139.012 123.813  91.167  0.00  0.00    -0.033 A 
ATOM     23  O2  UNL     1     137.808 125.740  89.540  0.00  0.00    -0.450 OA
ATOM     24  H   UNL     1     138.951 127.531  89.803  0.00  0.00    +0.000 HD
ENDROOT
TORSDOF 0
ENDMDL
MODEL 6
REMARK VINA RESULT:    -4.102     12.693     14.807
REMARK INTER + INTRA:          -4.102
REMARK INTER:                  -4.102
REMARK INTRA:                   0.000
REMARK UNBOUND:                 0.000
REMARK  Name = /home/vital/Documents/PhD_2021/Malaria_codes/scripts/../data/pdbqt_ligands/ligand_343_temp.pdb
REMARK                            x       y       z     vdW  Elec       q    Type
REMARK                         _______ _______ _______ _____ _____    ______ ____
ROOT
ATOM      1  C1  UNL     1     140.021 125.569 104.962  0.00  0.00    -0.037 C 
ATOM      2  C2  UNL     1     141.030 124.932 105.886  0.00  0.00    -0.011 A 
ATOM      3  C3  UNL     1     140.643 123.968 106.841  0.00  0.00    +0.046 A 
ATOM      4 CL1  UNL     1     139.002 123.445 107.027  0.00  0.00    -0.083 Cl
ATOM      5  C4  UNL     1     141.580 123.381 107.694  0.00  0.00    -0.043 A 
ATOM      6  C5  UNL     1     142.918 123.743 107.611  0.00  0.00    -0.059 A 
ATOM      7  C6  UNL     1     143.323 124.694 106.676  0.00  0.00    -0.040 A 
ATOM      8  C7  UNL     1     142.401 125.297 105.809  0.00  0.00    +0.038 A 
ATOM      9  N1  UNL     1     142.797 126.262 104.855  0.00  0.00    -0.279 N 
ATOM     10  C8  UNL     1     144.057 126.772 104.595  0.00  0.00    +0.284 C 
ATOM     11  O1  UNL     1     145.093 126.461 105.172  0.00  0.00    -0.266 OA
ATOM     12  C9  UNL     1     144.042 127.756 103.526  0.00  0.00    +0.190 A 
ATOM     13  C10 UNL     1     145.055 128.499 102.956  0.00  0.00    -0.011 A 
ATOM     14  C11 UNL     1     144.456 129.299 101.952  0.00  0.00    -0.015 A 
ATOM     15  C12 UNL     1     143.106 129.006 101.956  0.00  0.00    +0.136 A 
ATOM     16  C13 UNL     1     141.953 129.471 101.187  0.00  0.00    +0.019 A 
ATOM     17  C14 UNL     1     142.110 130.435 100.178  0.00  0.00    -0.051 A 
ATOM     18  C15 UNL     1     141.014 130.886  99.436  0.00  0.00    -0.060 A 
ATOM     19  C16 UNL     1     139.743 130.379  99.691  0.00  0.00    -0.043 A 
ATOM     20  C17 UNL     1     139.575 129.422 100.688  0.00  0.00    +0.042 A 
ATOM     21 CL2  UNL     1     138.006 128.791 101.009  0.00  0.00    -0.084 Cl
ATOM     22  C18 UNL     1     140.665 128.969 101.431  0.00  0.00    -0.033 A 
ATOM     23  O2  UNL     1     142.852 128.065 102.917  0.00  0.00    -0.450 OA
ATOM     24  H   UNL     1     142.073 126.623 104.295  0.00  0.00    +0.000 HD
ENDROOT
TORSDOF 0
ENDMDL
MODEL 7
REMARK VINA RESULT:    -4.095      2.433      6.542
REMARK INTER + INTRA:          -4.095
REMARK INTER:                  -4.095
REMARK INTRA:                   0.000
REMARK UNBOUND:                 0.000
REMARK  Name = /home/vital/Documents/PhD_2021/Malaria_codes/scripts/../data/pdbqt_ligands/ligand_343_temp.pdb
REMARK                            x       y       z     vdW  Elec       q    Type
REMARK                         _______ _______ _______ _____ _____    ______ ____
ROOT
ATOM      1  C1  UNL     1     140.101 129.632  89.752  0.00  0.00    -0.037 C 
ATOM      2  C2  UNL     1     139.172 130.200  88.708  0.00  0.00    -0.011 A 
ATOM      3  C3  UNL     1     139.320 131.521  88.236  0.00  0.00    +0.046 A 
ATOM      4 CL1  UNL     1     140.563 132.583  88.809  0.00  0.00    -0.083 Cl
ATOM      5  C4  UNL     1     138.458 132.043  87.269  0.00  0.00    -0.043 A 
ATOM      6  C5  UNL     1     137.434 131.258  86.755  0.00  0.00    -0.059 A 
ATOM      7  C6  UNL     1     137.269 129.950  87.207  0.00  0.00    -0.040 A 
ATOM      8  C7  UNL     1     138.121 129.405  88.176  0.00  0.00    +0.038 A 
ATOM      9  N1  UNL     1     137.966 128.080  88.644  0.00  0.00    -0.279 N 
ATOM     10  C8  UNL     1     137.030 127.126  88.282  0.00  0.00    +0.284 C 
ATOM     11  O1  UNL     1     136.135 127.272  87.457  0.00  0.00    -0.266 OA
ATOM     12  C9  UNL     1     137.212 125.877  89.001  0.00  0.00    +0.190 A 
ATOM     13  C10 UNL     1     136.517 124.686  88.952  0.00  0.00    -0.011 A 
ATOM     14  C11 UNL     1     137.141 123.812  89.876  0.00  0.00    -0.015 A 
ATOM     15  C12 UNL     1     138.187 124.511  90.446  0.00  0.00    +0.136 A 
ATOM     16  C13 UNL     1     139.203 124.199  91.450  0.00  0.00    +0.019 A 
ATOM     17  C14 UNL     1     139.242 122.932  92.055  0.00  0.00    -0.051 A 
ATOM     18  C15 UNL     1     140.209 122.622  93.016  0.00  0.00    -0.060 A 
ATOM     19  C16 UNL     1     141.154 123.575  93.386  0.00  0.00    -0.043 A 
ATOM     20  C17 UNL     1     141.126 124.834  92.793  0.00  0.00    +0.042 A 
ATOM     21 CL2  UNL     1     142.292 126.018  93.246  0.00  0.00    -0.084 Cl
ATOM     22  C18 UNL     1     140.163 125.148  91.834  0.00  0.00    -0.033 A 
ATOM     23  O2  UNL     1     138.231 125.772  89.914  0.00  0.00    -0.450 OA
ATOM     24  H   UNL     1     138.617 127.793  89.324  0.00  0.00    +0.000 HD
ENDROOT
TORSDOF 0
ENDMDL
MODEL 8
REMARK VINA RESULT:    -4.014      1.815      7.065
REMARK INTER + INTRA:          -4.014
REMARK INTER:                  -4.014
REMARK INTRA:                   0.000
REMARK UNBOUND:                 0.000
REMARK  Name = /home/vital/Documents/PhD_2021/Malaria_codes/scripts/../data/pdbqt_ligands/ligand_343_temp.pdb
REMARK                            x       y       z     vdW  Elec       q    Type
REMARK                         _______ _______ _______ _____ _____    ______ ____
ROOT
ATOM      1  C1  UNL     1     141.968 129.998  91.397  0.00  0.00    -0.037 C 
ATOM      2  C2  UNL     1     141.799 131.311  90.673  0.00  0.00    -0.011 A 
ATOM      3  C3  UNL     1     142.611 132.424  90.974  0.00  0.00    +0.046 A 
ATOM      4 CL1  UNL     1     143.852 132.375  92.181  0.00  0.00    -0.083 Cl
ATOM      5  C4  UNL     1     142.450 133.638  90.301  0.00  0.00    -0.043 A 
ATOM      6  C5  UNL     1     141.479 133.763  89.317  0.00  0.00    -0.059 A 
ATOM      7  C6  UNL     1     140.664 132.676  89.004  0.00  0.00    -0.040 A 
ATOM      8  C7  UNL     1     140.806 131.449  89.665  0.00  0.00    +0.038 A 
ATOM      9  N1  UNL     1     139.988 130.338  89.358  0.00  0.00    -0.279 N 
ATOM     10  C8  UNL     1     138.968 130.231  88.428  0.00  0.00    +0.284 C 
ATOM     11  O1  UNL     1     138.582 131.120  87.678  0.00  0.00    -0.266 OA
ATOM     12  C9  UNL     1     138.368 128.908  88.421  0.00  0.00    +0.190 A 
ATOM     13  C10 UNL     1     137.342 128.376  87.667  0.00  0.00    -0.011 A 
ATOM     14  C11 UNL     1     137.182 127.033  88.090  0.00  0.00    -0.015 A 
ATOM     15  C12 UNL     1     138.118 126.809  89.080  0.00  0.00    +0.136 A 
ATOM     16  C13 UNL     1     138.475 125.662  89.913  0.00  0.00    +0.019 A 
ATOM     17  C14 UNL     1     137.791 124.443  89.780  0.00  0.00    -0.051 A 
ATOM     18  C15 UNL     1     138.124 123.340  90.572  0.00  0.00    -0.060 A 
ATOM     19  C16 UNL     1     139.149 123.438  91.509  0.00  0.00    -0.043 A 
ATOM     20  C17 UNL     1     139.835 124.641  91.650  0.00  0.00    +0.042 A 
ATOM     21 CL2  UNL     1     141.103 124.770  92.808  0.00  0.00    -0.084 Cl
ATOM     22  C18 UNL     1     139.505 125.745  90.862  0.00  0.00    -0.033 A 
ATOM     23  O2  UNL     1     138.842 127.953  89.284  0.00  0.00    -0.450 OA
ATOM     24  H   UNL     1     140.170 129.523  89.879  0.00  0.00    +0.000 HD
ENDROOT
TORSDOF 0
ENDMDL
MODEL 9
REMARK VINA RESULT:    -3.966      2.636      4.018
REMARK INTER + INTRA:          -3.966
REMARK INTER:                  -3.966
REMARK INTRA:                   0.000
REMARK UNBOUND:                 0.000
REMARK  Name = /home/vital/Documents/PhD_2021/Malaria_codes/scripts/../data/pdbqt_ligands/ligand_343_temp.pdb
REMARK                            x       y       z     vdW  Elec       q    Type
REMARK                         _______ _______ _______ _____ _____    ______ ____
ROOT
ATOM      1  C1  UNL     1     137.782 127.886  88.464  0.00  0.00    -0.037 C 
ATOM      2  C2  UNL     1     137.377 126.438  88.587  0.00  0.00    -0.011 A 
ATOM      3  C3  UNL     1     136.446 125.859  87.699  0.00  0.00    +0.046 A 
ATOM      4 CL1  UNL     1     135.704 126.750  86.413  0.00  0.00    -0.083 Cl
ATOM      5  C4  UNL     1     136.075 124.518  87.817  0.00  0.00    -0.043 A 
ATOM      6  C5  UNL     1     136.623 123.731  88.820  0.00  0.00    -0.059 A 
ATOM      7  C6  UNL     1     137.544 124.282  89.710  0.00  0.00    -0.040 A 
ATOM      8  C7  UNL     1     137.933 125.625  89.611  0.00  0.00    +0.038 A 
ATOM      9  N1  UNL     1     138.866 126.197  90.505  0.00  0.00    -0.279 N 
ATOM     10  C8  UNL     1     139.533 125.614  91.568  0.00  0.00    +0.284 C 
ATOM     11  O1  UNL     1     139.426 124.449  91.934  0.00  0.00    -0.266 OA
ATOM     12  C9  UNL     1     140.415 126.551  92.244  0.00  0.00    +0.190 A 
ATOM     13  C10 UNL     1     141.251 126.395  93.331  0.00  0.00    -0.011 A 
ATOM     14  C11 UNL     1     141.870 127.651  93.551  0.00  0.00    -0.015 A 
ATOM     15  C12 UNL     1     141.382 128.513  92.588  0.00  0.00    +0.136 A 
ATOM     16  C13 UNL     1     141.607 129.920  92.264  0.00  0.00    +0.019 A 
ATOM     17  C14 UNL     1     142.500 130.694  93.023  0.00  0.00    -0.051 A 
ATOM     18  C15 UNL     1     142.723 132.041  92.721  0.00  0.00    -0.060 A 
ATOM     19  C16 UNL     1     142.055 132.636  91.654  0.00  0.00    -0.043 A 
ATOM     20  C17 UNL     1     141.168 131.880  90.894  0.00  0.00    +0.042 A 
ATOM     21 CL2  UNL     1     140.339 132.609  89.572  0.00  0.00    -0.084 Cl
ATOM     22  C18 UNL     1     140.942 130.535  91.191  0.00  0.00    -0.033 A 
ATOM     23  O2  UNL     1     140.493 127.843  91.791  0.00  0.00    -0.450 OA
ATOM     24  H   UNL     1     139.071 127.147  90.349  0.00  0.00    +0.000 HD
ENDROOT
TORSDOF 0
ENDMDL
