MODEL 1
REMARK VINA RESULT:    -4.779      0.000      0.000
REMARK INTER + INTRA:          -4.779
REMARK INTER:                  -4.779
REMARK INTRA:                   0.000
REMARK UNBOUND:                 0.000
REMARK  Name = /home/vital/Documents/PhD_2021/Malaria_codes/scripts/../data/pdbqt_ligands/ligand_215_temp.pdb
REMARK                            x       y       z     vdW  Elec       q    Type
REMARK                         _______ _______ _______ _____ _____    ______ ____
ROOT
ATOM      1  C1  UNL     1     138.420 128.637 100.946  0.00  0.00    -0.080 C 
ATOM      2  C2  UNL     1     139.656 129.150 100.953  0.00  0.00    +0.037 C 
ATOM      3 CL1  UNL     1     139.875 130.851 101.186  0.00  0.00    -0.084 Cl
ATOM      4  C3  UNL     1     140.849 128.341 100.766  0.00  0.00    -0.029 C 
ATOM      5  C4  UNL     1     141.233 127.831  99.576  0.00  0.00    -0.056 C 
ATOM      6  C5  UNL     1     140.593 128.048  98.295  0.00  0.00    -0.048 C 
ATOM      7  C6  UNL     1     141.018 127.465  97.165  0.00  0.00    -0.004 C 
ATOM      8  N1  UNL     1     140.483 127.621  95.919  0.00  0.00    -0.290 N 
ATOM      9  C7  UNL     1     140.885 127.008  94.735  0.00  0.00    +0.221 A 
ATOM     10  N2  UNL     1     140.205 127.364  93.638  0.00  0.00    -0.199 NA
ATOM     11  C8  UNL     1     140.571 126.807  92.474  0.00  0.00    +0.132 A 
ATOM     12  N3  UNL     1     139.854 127.261  91.350  0.00  0.00    -0.326 N 
ATOM     13  C9  UNL     1     140.627 128.207  90.520  0.00  0.00    +0.034 C 
ATOM     14  C10 UNL     1     140.669 129.607  91.152  0.00  0.00    +0.060 C 
ATOM     15  O1  UNL     1     139.336 130.085  91.347  0.00  0.00    -0.393 OA
ATOM     16  C11 UNL     1     141.587 125.848  92.376  0.00  0.00    +0.040 A 
ATOM     17  C12 UNL     1     141.966 125.168  91.191  0.00  0.00    -0.049 A 
ATOM     18  C13 UNL     1     142.995 124.229  91.204  0.00  0.00    -0.061 A 
ATOM     19  C14 UNL     1     143.650 123.958  92.398  0.00  0.00    -0.060 A 
ATOM     20  C15 UNL     1     143.261 124.618  93.567  0.00  0.00    -0.036 A 
ATOM     21  C16 UNL     1     142.234 125.554  93.579  0.00  0.00    +0.078 A 
ATOM     22  N4  UNL     1     141.900 126.133  94.736  0.00  0.00    -0.214 NA
ATOM     23  C17 UNL     1     141.629 128.038 102.036  0.00  0.00    -0.023 C 
ATOM     24  C18 UNL     1     143.103 128.482 102.028  0.00  0.00    -0.030 C 
ATOM     25  C19 UNL     1     143.272 129.976 101.983  0.00  0.00    -0.073 C 
ATOM     26  C20 UNL     1     143.854 130.694 101.017  0.00  0.00    +0.001 C 
ATOM     27 CL2  UNL     1     144.540 130.058  99.586  0.00  0.00    -0.092 Cl
ATOM     28  H   UNL     1     139.722 128.241  95.848  0.00  0.00    +0.000 HD
ATOM     29  H   UNL     1     138.935 126.977  91.139  0.00  0.00    +0.000 HD
ATOM     30  H   UNL     1     138.881 130.132  90.491  0.00  0.00    +0.000 HD
ENDROOT
TORSDOF 0
ENDMDL
MODEL 2
REMARK VINA RESULT:    -4.333      7.521      9.657
REMARK INTER + INTRA:          -4.333
REMARK INTER:                  -4.333
REMARK INTRA:                   0.000
REMARK UNBOUND:                 0.000
REMARK  Name = /home/vital/Documents/PhD_2021/Malaria_codes/scripts/../data/pdbqt_ligands/ligand_215_temp.pdb
REMARK                            x       y       z     vdW  Elec       q    Type
REMARK                         _______ _______ _______ _____ _____    ______ ____
ROOT
ATOM      1  C1  UNL     1     141.300 124.521 108.443  0.00  0.00    -0.080 C 
ATOM      2  C2  UNL     1     141.065 123.700 107.412  0.00  0.00    +0.037 C 
ATOM      3 CL1  UNL     1     141.977 122.238 107.256  0.00  0.00    -0.084 Cl
ATOM      4  C3  UNL     1     140.069 123.980 106.391  0.00  0.00    -0.029 C 
ATOM      5  C4  UNL     1     140.226 124.906 105.421  0.00  0.00    -0.056 C 
ATOM      6  C5  UNL     1     141.403 125.714 105.178  0.00  0.00    -0.048 C 
ATOM      7  C6  UNL     1     141.458 126.645 104.215  0.00  0.00    -0.004 C 
ATOM      8  N1  UNL     1     142.525 127.440 103.912  0.00  0.00    -0.290 N 
ATOM      9  C7  UNL     1     142.601 128.432 102.939  0.00  0.00    +0.221 A 
ATOM     10  N2  UNL     1     143.785 129.045 102.826  0.00  0.00    -0.199 NA
ATOM     11  C8  UNL     1     143.904 129.998 101.889  0.00  0.00    +0.132 A 
ATOM     12  N3  UNL     1     145.187 130.568 101.784  0.00  0.00    -0.326 N 
ATOM     13  C9  UNL     1     145.939 130.078 100.611  0.00  0.00    +0.034 C 
ATOM     14  C10 UNL     1     146.503 128.669 100.852  0.00  0.00    +0.060 C 
ATOM     15  O1  UNL     1     147.336 128.677 102.012  0.00  0.00    -0.393 OA
ATOM     16  C11 UNL     1     142.838 130.399 101.073  0.00  0.00    +0.040 A 
ATOM     17  C12 UNL     1     142.880 131.450 100.121  0.00  0.00    -0.049 A 
ATOM     18  C13 UNL     1     141.759 131.767  99.358  0.00  0.00    -0.061 A 
ATOM     19  C14 UNL     1     140.588 131.044  99.542  0.00  0.00    -0.060 A 
ATOM     20  C15 UNL     1     140.546 130.021 100.493  0.00  0.00    -0.036 A 
ATOM     21  C16 UNL     1     141.650 129.691 101.270  0.00  0.00    +0.078 A 
ATOM     22  N4  UNL     1     141.536 128.715 102.175  0.00  0.00    -0.214 NA
ATOM     23  C17 UNL     1     138.775 123.193 106.520  0.00  0.00    -0.023 C 
ATOM     24  C18 UNL     1     138.390 122.348 105.292  0.00  0.00    -0.030 C 
ATOM     25  C19 UNL     1     139.345 121.216 105.029  0.00  0.00    -0.073 C 
ATOM     26  C20 UNL     1     140.110 121.040 103.946  0.00  0.00    +0.001 C 
ATOM     27 CL2  UNL     1     140.179 122.091 102.599  0.00  0.00    -0.092 Cl
ATOM     28  H   UNL     1     143.339 127.295 104.446  0.00  0.00    +0.000 HD
ATOM     29  H   UNL     1     145.545 131.224 102.425  0.00  0.00    +0.000 HD
ATOM     30  H   UNL     1     148.069 129.299 101.879  0.00  0.00    +0.000 HD
ENDROOT
TORSDOF 0
ENDMDL
MODEL 3
REMARK VINA RESULT:    -4.257      7.680     11.481
REMARK INTER + INTRA:          -4.257
REMARK INTER:                  -4.257
REMARK INTRA:                   0.000
REMARK UNBOUND:                 0.000
REMARK  Name = /home/vital/Documents/PhD_2021/Malaria_codes/scripts/../data/pdbqt_ligands/ligand_215_temp.pdb
REMARK                            x       y       z     vdW  Elec       q    Type
REMARK                         _______ _______ _______ _____ _____    ______ ____
ROOT
ATOM      1  C1  UNL     1     134.146 124.773  89.283  0.00  0.00    -0.080 C 
ATOM      2  C2  UNL     1     135.168 124.201  88.633  0.00  0.00    +0.037 C 
ATOM      3 CL1  UNL     1     135.899 122.771  89.276  0.00  0.00    -0.084 Cl
ATOM      4  C3  UNL     1     135.712 124.732  87.394  0.00  0.00    -0.029 C 
ATOM      5  C4  UNL     1     136.485 125.837  87.325  0.00  0.00    -0.056 C 
ATOM      6  C5  UNL     1     136.962 126.631  88.438  0.00  0.00    -0.048 C 
ATOM      7  C6  UNL     1     137.693 127.743  88.276  0.00  0.00    -0.004 C 
ATOM      8  N1  UNL     1     138.190 128.541  89.265  0.00  0.00    -0.290 N 
ATOM      9  C7  UNL     1     138.926 129.714  89.126  0.00  0.00    +0.221 A 
ATOM     10  N2  UNL     1     139.323 130.290  90.268  0.00  0.00    -0.199 NA
ATOM     11  C8  UNL     1     140.047 131.415  90.176  0.00  0.00    +0.132 A 
ATOM     12  N3  UNL     1     140.479 131.942  91.408  0.00  0.00    -0.326 N 
ATOM     13  C9  UNL     1     141.908 131.684  91.675  0.00  0.00    +0.034 C 
ATOM     14  C10 UNL     1     142.145 130.235  92.127  0.00  0.00    +0.060 C 
ATOM     15  O1  UNL     1     141.362 129.962  93.291  0.00  0.00    -0.393 OA
ATOM     16  C11 UNL     1     140.356 132.024  88.953  0.00  0.00    +0.040 A 
ATOM     17  C12 UNL     1     141.050 133.250  88.796  0.00  0.00    -0.049 A 
ATOM     18  C13 UNL     1     141.307 133.768  87.528  0.00  0.00    -0.061 A 
ATOM     19  C14 UNL     1     140.870 133.070  86.410  0.00  0.00    -0.060 A 
ATOM     20  C15 UNL     1     140.171 131.870  86.570  0.00  0.00    -0.036 A 
ATOM     21  C16 UNL     1     139.899 131.338  87.825  0.00  0.00    +0.078 A 
ATOM     22  N4  UNL     1     139.209 130.196  87.907  0.00  0.00    -0.214 NA
ATOM     23  C17 UNL     1     135.296 123.989  86.135  0.00  0.00    -0.023 C 
ATOM     24  C18 UNL     1     136.451 123.441  85.278  0.00  0.00    -0.030 C 
ATOM     25  C19 UNL     1     137.234 122.354  85.962  0.00  0.00    -0.073 C 
ATOM     26  C20 UNL     1     138.526 122.383  86.305  0.00  0.00    +0.001 C 
ATOM     27 CL2  UNL     1     139.593 123.694  86.043  0.00  0.00    -0.092 Cl
ATOM     28  H   UNL     1     138.006 128.253  90.188  0.00  0.00    +0.000 HD
ATOM     29  H   UNL     1     139.890 132.432  92.027  0.00  0.00    +0.000 HD
ATOM     30  H   UNL     1     141.620 130.568  94.003  0.00  0.00    +0.000 HD
ENDROOT
TORSDOF 0
ENDMDL
MODEL 4
REMARK VINA RESULT:    -4.096      7.792     11.621
REMARK INTER + INTRA:          -4.096
REMARK INTER:                  -4.096
REMARK INTRA:                   0.000
REMARK UNBOUND:                 0.000
REMARK  Name = /home/vital/Documents/PhD_2021/Malaria_codes/scripts/../data/pdbqt_ligands/ligand_215_temp.pdb
REMARK                            x       y       z     vdW  Elec       q    Type
REMARK                         _______ _______ _______ _____ _____    ______ ____
ROOT
ATOM      1  C1  UNL     1     141.655 129.843 101.250  0.00  0.00    -0.080 C 
ATOM      2  C2  UNL     1     142.600 128.903 101.129  0.00  0.00    +0.037 C 
ATOM      3 CL1  UNL     1     142.910 128.194  99.581  0.00  0.00    -0.084 Cl
ATOM      4  C3  UNL     1     143.392 128.430 102.252  0.00  0.00    -0.029 C 
ATOM      5  C4  UNL     1     142.918 127.612 103.216  0.00  0.00    -0.056 C 
ATOM      6  C5  UNL     1     141.600 127.014 103.272  0.00  0.00    -0.048 C 
ATOM      7  C6  UNL     1     141.195 126.245 104.293  0.00  0.00    -0.004 C 
ATOM      8  N1  UNL     1     139.980 125.636 104.421  0.00  0.00    -0.290 N 
ATOM      9  C7  UNL     1     139.523 124.858 105.480  0.00  0.00    +0.221 A 
ATOM     10  N2  UNL     1     138.293 124.348 105.338  0.00  0.00    -0.199 NA
ATOM     11  C8  UNL     1     137.822 123.580 106.331  0.00  0.00    +0.132 A 
ATOM     12  N3  UNL     1     136.546 123.031 106.099  0.00  0.00    -0.326 N 
ATOM     13  C9  UNL     1     136.593 121.599 105.740  0.00  0.00    +0.034 C 
ATOM     14  C10 UNL     1     137.027 121.398 104.280  0.00  0.00    +0.060 C 
ATOM     15  O1  UNL     1     136.135 122.102 103.413  0.00  0.00    -0.393 OA
ATOM     16  C11 UNL     1     138.538 123.336 107.510  0.00  0.00    +0.040 A 
ATOM     17  C12 UNL     1     138.063 122.599 108.624  0.00  0.00    -0.049 A 
ATOM     18  C13 UNL     1     138.860 122.415 109.751  0.00  0.00    -0.061 A 
ATOM     19  C14 UNL     1     140.133 122.969 109.779  0.00  0.00    -0.060 A 
ATOM     20  C15 UNL     1     140.591 123.710 108.685  0.00  0.00    -0.036 A 
ATOM     21  C16 UNL     1     139.810 123.911 107.552  0.00  0.00    +0.078 A 
ATOM     22  N4  UNL     1     140.302 124.646 106.551  0.00  0.00    -0.214 NA
ATOM     23  C17 UNL     1     144.809 128.976 102.317  0.00  0.00    -0.023 C 
ATOM     24  C18 UNL     1     145.926 127.917 102.330  0.00  0.00    -0.030 C 
ATOM     25  C19 UNL     1     146.019 127.137 101.047  0.00  0.00    -0.073 C 
ATOM     26  C20 UNL     1     145.834 125.822 100.886  0.00  0.00    +0.001 C 
ATOM     27 CL2  UNL     1     145.434 124.717 102.129  0.00  0.00    -0.092 Cl
ATOM     28  H   UNL     1     139.351 125.763 103.674  0.00  0.00    +0.000 HD
ATOM     29  H   UNL     1     135.710 123.547 106.169  0.00  0.00    +0.000 HD
ATOM     30  H   UNL     1     135.235 121.761 103.531  0.00  0.00    +0.000 HD
ENDROOT
TORSDOF 0
ENDMDL
MODEL 5
REMARK VINA RESULT:    -4.043      6.200      8.802
REMARK INTER + INTRA:          -4.043
REMARK INTER:                  -4.043
REMARK INTRA:                   0.000
REMARK UNBOUND:                 0.000
REMARK  Name = /home/vital/Documents/PhD_2021/Malaria_codes/scripts/../data/pdbqt_ligands/ligand_215_temp.pdb
REMARK                            x       y       z     vdW  Elec       q    Type
REMARK                         _______ _______ _______ _____ _____    ______ ____
ROOT
ATOM      1  C1  UNL     1     141.382 124.924 108.931  0.00  0.00    -0.080 C 
ATOM      2  C2  UNL     1     142.470 124.354 108.400  0.00  0.00    +0.037 C 
ATOM      3 CL1  UNL     1     144.020 124.634 109.115  0.00  0.00    -0.084 Cl
ATOM      4  C3  UNL     1     142.420 123.500 107.225  0.00  0.00    -0.029 C 
ATOM      5  C4  UNL     1     142.233 123.958 105.968  0.00  0.00    -0.056 C 
ATOM      6  C5  UNL     1     142.126 125.344 105.560  0.00  0.00    -0.048 C 
ATOM      7  C6  UNL     1     141.897 125.710 104.291  0.00  0.00    -0.004 C 
ATOM      8  N1  UNL     1     141.792 126.987 103.819  0.00  0.00    -0.290 N 
ATOM      9  C7  UNL     1     141.527 127.396 102.516  0.00  0.00    +0.221 A 
ATOM     10  N2  UNL     1     141.510 128.719 102.314  0.00  0.00    -0.199 NA
ATOM     11  C8  UNL     1     141.272 129.154 101.068  0.00  0.00    +0.132 A 
ATOM     12  N3  UNL     1     141.320 130.552 100.910  0.00  0.00    -0.326 N 
ATOM     13  C9  UNL     1     142.561 131.015 100.256  0.00  0.00    +0.034 C 
ATOM     14  C10 UNL     1     143.748 131.009 101.232  0.00  0.00    +0.060 C 
ATOM     15  O1  UNL     1     143.443 131.828 102.362  0.00  0.00    -0.393 OA
ATOM     16  C11 UNL     1     140.999 128.289 100.000  0.00  0.00    +0.040 A 
ATOM     17  C12 UNL     1     140.665 128.690  98.681  0.00  0.00    -0.049 A 
ATOM     18  C13 UNL     1     140.412 127.744  97.690  0.00  0.00    -0.061 A 
ATOM     19  C14 UNL     1     140.483 126.394  98.007  0.00  0.00    -0.060 A 
ATOM     20  C15 UNL     1     140.796 126.005  99.313  0.00  0.00    -0.036 A 
ATOM     21  C16 UNL     1     141.047 126.930 100.319  0.00  0.00    +0.078 A 
ATOM     22  N4  UNL     1     141.320 126.489 101.550  0.00  0.00    -0.214 NA
ATOM     23  C17 UNL     1     142.528 122.010 107.505  0.00  0.00    -0.023 C 
ATOM     24  C18 UNL     1     143.684 121.284 106.792  0.00  0.00    -0.030 C 
ATOM     25  C19 UNL     1     145.042 121.726 107.263  0.00  0.00    -0.073 C 
ATOM     26  C20 UNL     1     145.994 122.324 106.538  0.00  0.00    +0.001 C 
ATOM     27 CL2  UNL     1     145.869 122.733 104.883  0.00  0.00    -0.092 Cl
ATOM     28  H   UNL     1     141.918 127.705 104.481  0.00  0.00    +0.000 HD
ATOM     29  H   UNL     1     140.601 131.158 101.204  0.00  0.00    +0.000 HD
ATOM     30  H   UNL     1     143.273 132.737 102.067  0.00  0.00    +0.000 HD
ENDROOT
TORSDOF 0
ENDMDL
MODEL 6
REMARK VINA RESULT:    -3.954      6.823      9.607
REMARK INTER + INTRA:          -3.954
REMARK INTER:                  -3.954
REMARK INTRA:                   0.000
REMARK UNBOUND:                 0.000
REMARK  Name = /home/vital/Documents/PhD_2021/Malaria_codes/scripts/../data/pdbqt_ligands/ligand_215_temp.pdb
REMARK                            x       y       z     vdW  Elec       q    Type
REMARK                         _______ _______ _______ _____ _____    ______ ____
ROOT
ATOM      1  C1  UNL     1     143.139 125.132 109.286  0.00  0.00    -0.080 C 
ATOM      2  C2  UNL     1     142.467 124.165 108.650  0.00  0.00    +0.037 C 
ATOM      3 CL1  UNL     1     143.168 122.590 108.501  0.00  0.00    -0.084 Cl
ATOM      4  C3  UNL     1     141.156 124.373 108.058  0.00  0.00    -0.029 C 
ATOM      5  C4  UNL     1     140.946 125.060 106.915  0.00  0.00    -0.056 C 
ATOM      6  C5  UNL     1     141.958 125.636 106.054  0.00  0.00    -0.048 C 
ATOM      7  C6  UNL     1     141.658 126.344 104.955  0.00  0.00    -0.004 C 
ATOM      8  N1  UNL     1     142.545 126.911 104.086  0.00  0.00    -0.290 N 
ATOM      9  C7  UNL     1     142.263 127.672 102.956  0.00  0.00    +0.221 A 
ATOM     10  N2  UNL     1     143.326 128.084 102.253  0.00  0.00    -0.199 NA
ATOM     11  C8  UNL     1     143.096 128.809 101.149  0.00  0.00    +0.132 A 
ATOM     12  N3  UNL     1     144.250 129.167 100.425  0.00  0.00    -0.326 N 
ATOM     13  C9  UNL     1     144.436 128.358  99.203  0.00  0.00    +0.034 C 
ATOM     14  C10 UNL     1     144.983 126.960  99.531  0.00  0.00    +0.060 C 
ATOM     15  O1  UNL     1     146.217 127.082 100.242  0.00  0.00    -0.393 OA
ATOM     16  C11 UNL     1     141.810 129.184 100.738  0.00  0.00    +0.040 A 
ATOM     17  C12 UNL     1     141.509 130.011  99.627  0.00  0.00    -0.049 A 
ATOM     18  C13 UNL     1     140.190 130.322  99.305  0.00  0.00    -0.061 A 
ATOM     19  C14 UNL     1     139.163 129.817 100.091  0.00  0.00    -0.060 A 
ATOM     20  C15 UNL     1     139.466 129.016 101.196  0.00  0.00    -0.036 A 
ATOM     21  C16 UNL     1     140.774 128.697 101.539  0.00  0.00    +0.078 A 
ATOM     22  N4  UNL     1     140.994 127.943 102.620  0.00  0.00    -0.214 NA
ATOM     23  C17 UNL     1     139.991 123.810 108.858  0.00  0.00    -0.023 C 
ATOM     24  C18 UNL     1     139.102 122.801 108.109  0.00  0.00    -0.030 C 
ATOM     25  C19 UNL     1     139.813 121.519 107.771  0.00  0.00    -0.073 C 
ATOM     26  C20 UNL     1     140.062 121.032 106.551  0.00  0.00    +0.001 C 
ATOM     27 CL2  UNL     1     139.624 121.779 105.076  0.00  0.00    -0.092 Cl
ATOM     28  H   UNL     1     143.499 126.763 104.282  0.00  0.00    +0.000 HD
ATOM     29  H   UNL     1     144.868 129.881 100.704  0.00  0.00    +0.000 HD
ATOM     30  H   UNL     1     146.860 127.559  99.694  0.00  0.00    +0.000 HD
ENDROOT
TORSDOF 0
ENDMDL
MODEL 7
REMARK VINA RESULT:    -3.932      4.500      6.172
REMARK INTER + INTRA:          -3.932
REMARK INTER:                  -3.932
REMARK INTRA:                   0.000
REMARK UNBOUND:                 0.000
REMARK  Name = /home/vital/Documents/PhD_2021/Malaria_codes/scripts/../data/pdbqt_ligands/ligand_215_temp.pdb
REMARK                            x       y       z     vdW  Elec       q    Type
REMARK                         _______ _______ _______ _____ _____    ______ ____
ROOT
ATOM      1  C1  UNL     1     140.389 123.734  98.188  0.00  0.00    -0.080 C 
ATOM      2  C2  UNL     1     141.606 123.501  97.682  0.00  0.00    +0.037 C 
ATOM      3 CL1  UNL     1     143.002 123.691  98.687  0.00  0.00    -0.084 Cl
ATOM      4  C3  UNL     1     141.823 123.095  96.303  0.00  0.00    -0.029 C 
ATOM      5  C4  UNL     1     141.711 123.929  95.247  0.00  0.00    -0.056 C 
ATOM      6  C5  UNL     1     141.434 125.350  95.292  0.00  0.00    -0.048 C 
ATOM      7  C6  UNL     1     141.296 126.097  94.187  0.00  0.00    -0.004 C 
ATOM      8  N1  UNL     1     141.046 127.439  94.139  0.00  0.00    -0.290 N 
ATOM      9  C7  UNL     1     140.870 128.233  93.009  0.00  0.00    +0.221 A 
ATOM     10  N2  UNL     1     140.669 129.536  93.242  0.00  0.00    -0.199 NA
ATOM     11  C8  UNL     1     140.508 130.338  92.179  0.00  0.00    +0.132 A 
ATOM     12  N3  UNL     1     140.354 131.703  92.487  0.00  0.00    -0.326 N 
ATOM     13  C9  UNL     1     141.573 132.494  92.221  0.00  0.00    +0.034 C 
ATOM     14  C10 UNL     1     142.628 132.289  93.319  0.00  0.00    +0.060 C 
ATOM     15  O1  UNL     1     142.073 132.637  94.588  0.00  0.00    -0.393 OA
ATOM     16  C11 UNL     1     140.496 129.862  90.861  0.00  0.00    +0.040 A 
ATOM     17  C12 UNL     1     140.255 130.646  89.705  0.00  0.00    -0.049 A 
ATOM     18  C13 UNL     1     140.267 130.070  88.437  0.00  0.00    -0.061 A 
ATOM     19  C14 UNL     1     140.513 128.709  88.312  0.00  0.00    -0.060 A 
ATOM     20  C15 UNL     1     140.733 127.937  89.457  0.00  0.00    -0.036 A 
ATOM     21  C16 UNL     1     140.721 128.489  90.732  0.00  0.00    +0.078 A 
ATOM     22  N4  UNL     1     140.918 127.690  91.784  0.00  0.00    -0.214 NA
ATOM     23  C17 UNL     1     142.131 121.620  96.106  0.00  0.00    -0.023 C 
ATOM     24  C18 UNL     1     143.459 121.311  95.391  0.00  0.00    -0.030 C 
ATOM     25  C19 UNL     1     144.670 121.714  96.189  0.00  0.00    -0.073 C 
ATOM     26  C20 UNL     1     145.592 122.623  95.853  0.00  0.00    +0.001 C 
ATOM     27 CL2  UNL     1     145.592 123.552  94.418  0.00  0.00    -0.092 Cl
ATOM     28  H   UNL     1     140.983 127.899  95.006  0.00  0.00    +0.000 HD
ATOM     29  H   UNL     1     139.521 132.091  92.841  0.00  0.00    +0.000 HD
ATOM     30  H   UNL     1     141.797 133.568  94.576  0.00  0.00    +0.000 HD
ENDROOT
TORSDOF 0
ENDMDL
MODEL 8
REMARK VINA RESULT:    -3.840      6.345     10.757
REMARK INTER + INTRA:          -3.840
REMARK INTER:                  -3.840
REMARK INTRA:                   0.000
REMARK UNBOUND:                 0.000
REMARK  Name = /home/vital/Documents/PhD_2021/Malaria_codes/scripts/../data/pdbqt_ligands/ligand_215_temp.pdb
REMARK                            x       y       z     vdW  Elec       q    Type
REMARK                         _______ _______ _______ _____ _____    ______ ____
ROOT
ATOM      1  C1  UNL     1     139.985 127.202  97.799  0.00  0.00    -0.080 C 
ATOM      2  C2  UNL     1     140.720 128.203  98.300  0.00  0.00    +0.037 C 
ATOM      3 CL1  UNL     1     142.108 128.763  97.433  0.00  0.00    -0.084 Cl
ATOM      4  C3  UNL     1     140.412 128.853  99.563  0.00  0.00    -0.029 C 
ATOM      5  C4  UNL     1     140.630 128.291 100.771  0.00  0.00    -0.056 C 
ATOM      6  C5  UNL     1     141.258 127.012 101.030  0.00  0.00    -0.048 C 
ATOM      7  C6  UNL     1     141.396 126.508 102.265  0.00  0.00    -0.004 C 
ATOM      8  N1  UNL     1     141.981 125.321 102.599  0.00  0.00    -0.290 N 
ATOM      9  C7  UNL     1     142.113 124.762 103.866  0.00  0.00    +0.221 A 
ATOM     10  N2  UNL     1     142.763 123.592 103.919  0.00  0.00    -0.199 NA
ATOM     11  C8  UNL     1     142.924 123.027 105.125  0.00  0.00    +0.132 A 
ATOM     12  N3  UNL     1     143.661 121.827 105.122  0.00  0.00    -0.326 N 
ATOM     13  C9  UNL     1     145.042 121.999 105.616  0.00  0.00    +0.034 C 
ATOM     14  C10 UNL     1     145.945 122.644 104.553  0.00  0.00    +0.060 C 
ATOM     15  O1  UNL     1     145.934 121.846 103.367  0.00  0.00    -0.393 OA
ATOM     16  C11 UNL     1     142.404 123.582 106.302  0.00  0.00    +0.040 A 
ATOM     17  C12 UNL     1     142.475 122.995 107.590  0.00  0.00    -0.049 A 
ATOM     18  C13 UNL     1     141.924 123.635 108.698  0.00  0.00    -0.061 A 
ATOM     19  C14 UNL     1     141.294 124.861 108.528  0.00  0.00    -0.060 A 
ATOM     20  C15 UNL     1     141.212 125.427 107.253  0.00  0.00    -0.036 A 
ATOM     21  C16 UNL     1     141.750 124.804 106.133  0.00  0.00    +0.078 A 
ATOM     22  N4  UNL     1     141.618 125.392 104.941  0.00  0.00    -0.214 NA
ATOM     23  C17 UNL     1     139.751 130.216  99.442  0.00  0.00    -0.023 C 
ATOM     24  C18 UNL     1     140.492 131.374 100.135  0.00  0.00    -0.030 C 
ATOM     25  C19 UNL     1     141.823 131.687  99.507  0.00  0.00    -0.073 C 
ATOM     26  C20 UNL     1     143.027 131.595 100.081  0.00  0.00    +0.001 C 
ATOM     27 CL2  UNL     1     143.326 131.084 101.685  0.00  0.00    -0.092 Cl
ATOM     28  H   UNL     1     142.355 124.797 101.853  0.00  0.00    +0.000 HD
ATOM     29  H   UNL     1     143.294 120.964 104.822  0.00  0.00    +0.000 HD
ATOM     30  H   UNL     1     146.263 120.957 103.572  0.00  0.00    +0.000 HD
ENDROOT
TORSDOF 0
ENDMDL
MODEL 9
REMARK VINA RESULT:    -3.293      4.371      9.221
REMARK INTER + INTRA:          -3.293
REMARK INTER:                  -3.293
REMARK INTRA:                   0.000
REMARK UNBOUND:                 0.000
REMARK  Name = /home/vital/Documents/PhD_2021/Malaria_codes/scripts/../data/pdbqt_ligands/ligand_215_temp.pdb
REMARK                            x       y       z     vdW  Elec       q    Type
REMARK                         _______ _______ _______ _____ _____    ______ ____
ROOT
ATOM      1  C1  UNL     1     143.233 121.602  92.375  0.00  0.00    -0.080 C 
ATOM      2  C2  UNL     1     142.288 122.238  91.673  0.00  0.00    +0.037 C 
ATOM      3 CL1  UNL     1     142.652 122.830  90.088  0.00  0.00    -0.084 Cl
ATOM      4  C3  UNL     1     140.946 122.470  92.182  0.00  0.00    -0.029 C 
ATOM      5  C4  UNL     1     140.648 123.389  93.125  0.00  0.00    -0.056 C 
ATOM      6  C5  UNL     1     141.563 124.334  93.732  0.00  0.00    -0.048 C 
ATOM      7  C6  UNL     1     141.189 125.187  94.697  0.00  0.00    -0.004 C 
ATOM      8  N1  UNL     1     141.980 126.114  95.314  0.00  0.00    -0.290 N 
ATOM      9  C7  UNL     1     141.628 126.990  96.336  0.00  0.00    +0.221 A 
ATOM     10  N2  UNL     1     142.592 127.825  96.742  0.00  0.00    -0.199 NA
ATOM     11  C8  UNL     1     142.289 128.696  97.716  0.00  0.00    +0.132 A 
ATOM     12  N3  UNL     1     143.327 129.582  98.062  0.00  0.00    -0.326 N 
ATOM     13  C9  UNL     1     143.125 130.942  97.523  0.00  0.00    +0.034 C 
ATOM     14  C10 UNL     1     143.464 131.011  96.026  0.00  0.00    +0.060 C 
ATOM     15  O1  UNL     1     144.813 130.586  95.820  0.00  0.00    -0.393 OA
ATOM     16  C11 UNL     1     141.036 128.730  98.344  0.00  0.00    +0.040 A 
ATOM     17  C12 UNL     1     140.682 129.572  99.428  0.00  0.00    -0.049 A 
ATOM     18  C13 UNL     1     139.403 129.525  99.979  0.00  0.00    -0.061 A 
ATOM     19  C14 UNL     1     138.473 128.635  99.459  0.00  0.00    -0.060 A 
ATOM     20  C15 UNL     1     138.833 127.795  98.402  0.00  0.00    -0.036 A 
ATOM     21  C16 UNL     1     140.104 127.820  97.840  0.00  0.00    +0.078 A 
ATOM     22  N4  UNL     1     140.387 126.975  96.845  0.00  0.00    -0.214 NA
ATOM     23  C17 UNL     1     139.876 121.547  91.623  0.00  0.00    -0.023 C 
ATOM     24  C18 UNL     1     138.692 122.249  90.934  0.00  0.00    -0.030 C 
ATOM     25  C19 UNL     1     139.082 122.970  89.672  0.00  0.00    -0.073 C 
ATOM     26  C20 UNL     1     139.000 124.284  89.435  0.00  0.00    +0.001 C 
ATOM     27 CL2  UNL     1     138.428 125.457  90.539  0.00  0.00    -0.092 Cl
ATOM     28  H   UNL     1     142.911 126.168  94.998  0.00  0.00    +0.000 HD
ATOM     29  H   UNL     1     144.105 129.322  98.606  0.00  0.00    +0.000 HD
ATOM     30  H   UNL     1     145.414 131.167  96.312  0.00  0.00    +0.000 HD
ENDROOT
TORSDOF 0
ENDMDL
