MODEL 1
REMARK VINA RESULT:    -4.291      0.000      0.000
REMARK INTER + INTRA:          -4.291
REMARK INTER:                  -4.291
REMARK INTRA:                   0.000
REMARK UNBOUND:                 0.000
REMARK  Name = /home/vital/Documents/PhD_2021/Malaria_codes/scripts/../data/pdbqt_ligands/ligand_27_temp.pdb
REMARK                            x       y       z     vdW  Elec       q    Type
REMARK                         _______ _______ _______ _____ _____    ______ ____
ROOT
ATOM      1  C   UNL     1     136.778 125.630  88.458  0.00  0.00    -0.031 C 
ATOM      2  C   UNL     1     136.995 126.819  87.532  0.00  0.00    +0.087 C 
ATOM      3  O   UNL     1     136.653 128.018  88.245  0.00  0.00    -0.489 OA
ATOM      4  C   UNL     1     137.674 128.936  88.247  0.00  0.00    +0.162 A 
ATOM      5  C   UNL     1     138.852 128.663  88.948  0.00  0.00    -0.016 A 
ATOM      6  C   UNL     1     139.871 129.612  88.994  0.00  0.00    -0.054 A 
ATOM      7  C   UNL     1     139.715 130.844  88.348  0.00  0.00    -0.030 A 
ATOM      8  C   UNL     1     140.811 131.888  88.411  0.00  0.00    +0.022 C 
ATOM      9  N   UNL     1     140.496 132.886  89.430  0.00  0.00    -0.307 N 
ATOM     10  C   UNL     1     141.602 133.817  89.757  0.00  0.00    +0.035 C 
ATOM     11  C   UNL     1     142.642 133.109  90.637  0.00  0.00    -0.047 C 
ATOM     12  C   UNL     1     142.232 134.556  88.523  0.00  0.00    +0.099 C 
ATOM     13  O   UNL     1     143.055 133.675  87.749  0.00  0.00    -0.386 OA
ATOM     14  C   UNL     1     142.923 135.858  88.909  0.00  0.00    +0.036 A 
ATOM     15  C   UNL     1     142.104 136.995  89.046  0.00  0.00    +0.130 A 
ATOM     16  F   UNL     1     140.783 136.888  88.838  0.00  0.00    -0.205 F 
ATOM     17  C   UNL     1     142.604 138.247  89.403  0.00  0.00    -0.026 A 
ATOM     18  C   UNL     1     143.964 138.398  89.643  0.00  0.00    -0.058 A 
ATOM     19  C   UNL     1     144.804 137.292  89.527  0.00  0.00    -0.043 A 
ATOM     20  C   UNL     1     144.291 136.033  89.169  0.00  0.00    +0.049 A 
ATOM     21 CL   UNL     1     145.439 134.737  89.093  0.00  0.00    -0.083 Cl
ATOM     22  C   UNL     1     138.510 131.122  87.675  0.00  0.00    -0.012 A 
ATOM     23  C   UNL     1     137.480 130.177  87.626  0.00  0.00    +0.162 A 
ATOM     24  O   UNL     1     136.279 130.355  86.989  0.00  0.00    -0.491 OA
ATOM     25  C   UNL     1     135.982 131.669  86.525  0.00  0.00    +0.079 C 
ATOM     26  H   UNL     1     140.232 132.395  90.284  0.00  0.00    +0.000 HD
ATOM     27  H   UNL     1     139.745 133.460  89.045  0.00  0.00    +0.000 HD
ATOM     28  H   UNL     1     143.804 133.375  88.288  0.00  0.00    +0.000 HD
ENDROOT
TORSDOF 0
ENDMDL
MODEL 2
REMARK VINA RESULT:    -3.764      5.102      6.217
REMARK INTER + INTRA:          -3.764
REMARK INTER:                  -3.764
REMARK INTRA:                   0.000
REMARK UNBOUND:                 0.000
REMARK  Name = /home/vital/Documents/PhD_2021/Malaria_codes/scripts/../data/pdbqt_ligands/ligand_27_temp.pdb
REMARK                            x       y       z     vdW  Elec       q    Type
REMARK                         _______ _______ _______ _____ _____    ______ ____
ROOT
ATOM      1  C   UNL     1     136.448 120.708  89.014  0.00  0.00    -0.031 C 
ATOM      2  C   UNL     1     137.063 121.950  88.384  0.00  0.00    +0.087 C 
ATOM      3  O   UNL     1     136.548 123.107  89.060  0.00  0.00    -0.489 OA
ATOM      4  C   UNL     1     137.544 123.916  89.548  0.00  0.00    +0.162 A 
ATOM      5  C   UNL     1     138.355 123.467  90.594  0.00  0.00    -0.016 A 
ATOM      6  C   UNL     1     139.334 124.303  91.125  0.00  0.00    -0.054 A 
ATOM      7  C   UNL     1     139.502 125.598  90.622  0.00  0.00    -0.030 A 
ATOM      8  C   UNL     1     140.551 126.520  91.209  0.00  0.00    +0.022 C 
ATOM      9  N   UNL     1     139.933 127.447  92.154  0.00  0.00    -0.307 N 
ATOM     10  C   UNL     1     140.887 128.232  92.974  0.00  0.00    +0.035 C 
ATOM     11  C   UNL     1     141.478 127.348  94.081  0.00  0.00    -0.047 C 
ATOM     12  C   UNL     1     141.975 129.014  92.157  0.00  0.00    +0.099 C 
ATOM     13  O   UNL     1     142.977 128.132  91.639  0.00  0.00    -0.386 OA
ATOM     14  C   UNL     1     142.543 130.202  92.925  0.00  0.00    +0.036 A 
ATOM     15  C   UNL     1     141.799 131.397  92.888  0.00  0.00    +0.130 A 
ATOM     16  F   UNL     1     140.649 131.439  92.198  0.00  0.00    -0.205 F 
ATOM     17  C   UNL     1     142.198 132.556  93.553  0.00  0.00    -0.026 A 
ATOM     18  C   UNL     1     143.375 132.551  94.291  0.00  0.00    -0.058 A 
ATOM     19  C   UNL     1     144.133 131.382  94.359  0.00  0.00    -0.043 A 
ATOM     20  C   UNL     1     143.721 130.218  93.688  0.00  0.00    +0.049 A 
ATOM     21 CL   UNL     1     144.737 128.829  93.882  0.00  0.00    -0.083 Cl
ATOM     22  C   UNL     1     138.655 126.054  89.593  0.00  0.00    -0.012 A 
ATOM     23  C   UNL     1     137.668 125.222  89.055  0.00  0.00    +0.162 A 
ATOM     24  O   UNL     1     136.806 125.575  88.048  0.00  0.00    -0.491 OA
ATOM     25  C   UNL     1     136.780 126.948  87.671  0.00  0.00    +0.079 C 
ATOM     26  H   UNL     1     139.341 126.908  92.786  0.00  0.00    +0.000 HD
ATOM     27  H   UNL     1     139.416 128.124  91.593  0.00  0.00    +0.000 HD
ATOM     28  H   UNL     1     143.450 127.712  92.374  0.00  0.00    +0.000 HD
ENDROOT
TORSDOF 0
ENDMDL
MODEL 3
REMARK VINA RESULT:    -3.677      5.301      9.121
REMARK INTER + INTRA:          -3.677
REMARK INTER:                  -3.677
REMARK INTRA:                   0.000
REMARK UNBOUND:                 0.000
REMARK  Name = /home/vital/Documents/PhD_2021/Malaria_codes/scripts/../data/pdbqt_ligands/ligand_27_temp.pdb
REMARK                            x       y       z     vdW  Elec       q    Type
REMARK                         _______ _______ _______ _____ _____    ______ ____
ROOT
ATOM      1  C   UNL     1     142.358 136.931  88.332  0.00  0.00    -0.031 C 
ATOM      2  C   UNL     1     141.218 135.938  88.515  0.00  0.00    +0.087 C 
ATOM      3  O   UNL     1     141.648 134.657  88.029  0.00  0.00    -0.489 OA
ATOM      4  C   UNL     1     141.512 133.666  88.970  0.00  0.00    +0.162 A 
ATOM      5  C   UNL     1     142.314 133.681  90.115  0.00  0.00    -0.016 A 
ATOM      6  C   UNL     1     142.214 132.651  91.047  0.00  0.00    -0.054 A 
ATOM      7  C   UNL     1     141.320 131.595  90.838  0.00  0.00    -0.030 A 
ATOM      8  C   UNL     1     141.222 130.462  91.838  0.00  0.00    +0.022 C 
ATOM      9  N   UNL     1     141.994 129.312  91.373  0.00  0.00    -0.307 N 
ATOM     10  C   UNL     1     142.177 128.236  92.375  0.00  0.00    +0.035 C 
ATOM     11  C   UNL     1     143.236 128.651  93.405  0.00  0.00    -0.047 C 
ATOM     12  C   UNL     1     140.850 127.706  93.028  0.00  0.00    +0.099 C 
ATOM     13  O   UNL     1     140.320 128.644  93.971  0.00  0.00    -0.386 OA
ATOM     14  C   UNL     1     140.993 126.294  93.583  0.00  0.00    +0.036 A 
ATOM     15  C   UNL     1     140.848 125.234  92.667  0.00  0.00    +0.130 A 
ATOM     16  F   UNL     1     140.600 125.504  91.377  0.00  0.00    -0.205 F 
ATOM     17  C   UNL     1     140.964 123.894  93.038  0.00  0.00    -0.026 A 
ATOM     18  C   UNL     1     141.236 123.571  94.361  0.00  0.00    -0.058 A 
ATOM     19  C   UNL     1     141.396 124.595  95.294  0.00  0.00    -0.043 A 
ATOM     20  C   UNL     1     141.281 125.943  94.911  0.00  0.00    +0.049 A 
ATOM     21 CL   UNL     1     141.535 127.114  96.162  0.00  0.00    -0.083 Cl
ATOM     22  C   UNL     1     140.543 131.572  89.663  0.00  0.00    -0.012 A 
ATOM     23  C   UNL     1     140.638 132.600  88.720  0.00  0.00    +0.162 A 
ATOM     24  O   UNL     1     139.917 132.667  87.555  0.00  0.00    -0.491 OA
ATOM     25  C   UNL     1     139.177 131.508  87.185  0.00  0.00    +0.079 C 
ATOM     26  H   UNL     1     142.916 129.643  91.092  0.00  0.00    +0.000 HD
ATOM     27  H   UNL     1     141.460 128.901  90.607  0.00  0.00    +0.000 HD
ATOM     28  H   UNL     1     140.947 128.758  94.703  0.00  0.00    +0.000 HD
ENDROOT
TORSDOF 0
ENDMDL
MODEL 4
REMARK VINA RESULT:    -3.610     14.743     17.070
REMARK INTER + INTRA:          -3.610
REMARK INTER:                  -3.610
REMARK INTRA:                   0.000
REMARK UNBOUND:                 0.000
REMARK  Name = /home/vital/Documents/PhD_2021/Malaria_codes/scripts/../data/pdbqt_ligands/ligand_27_temp.pdb
REMARK                            x       y       z     vdW  Elec       q    Type
REMARK                         _______ _______ _______ _____ _____    ______ ____
ROOT
ATOM      1  C   UNL     1     143.588 132.113  97.345  0.00  0.00    -0.031 C 
ATOM      2  C   UNL     1     142.270 131.758  98.018  0.00  0.00    +0.087 C 
ATOM      3  O   UNL     1     142.047 130.347  97.868  0.00  0.00    -0.489 OA
ATOM      4  C   UNL     1     141.838 129.718  99.070  0.00  0.00    +0.162 A 
ATOM      5  C   UNL     1     142.882 129.618  99.994  0.00  0.00    -0.016 A 
ATOM      6  C   UNL     1     142.687 128.937 101.193  0.00  0.00    -0.054 A 
ATOM      7  C   UNL     1     141.452 128.343 101.474  0.00  0.00    -0.030 A 
ATOM      8  C   UNL     1     141.240 127.584 102.767  0.00  0.00    +0.022 C 
ATOM      9  N   UNL     1     141.375 126.148 102.536  0.00  0.00    -0.307 N 
ATOM     10  C   UNL     1     141.435 125.319 103.763  0.00  0.00    +0.035 C 
ATOM     11  C   UNL     1     142.820 125.441 104.413  0.00  0.00    -0.047 C 
ATOM     12  C   UNL     1     140.253 125.546 104.772  0.00  0.00    +0.099 C 
ATOM     13  O   UNL     1     140.392 126.787 105.471  0.00  0.00    -0.386 OA
ATOM     14  C   UNL     1     140.026 124.349 105.688  0.00  0.00    +0.036 A 
ATOM     15  C   UNL     1     139.252 123.292 105.172  0.00  0.00    +0.130 A 
ATOM     16  F   UNL     1     138.760 123.378 103.927  0.00  0.00    -0.205 F 
ATOM     17  C   UNL     1     138.975 122.134 105.900  0.00  0.00    -0.026 A 
ATOM     18  C   UNL     1     139.479 121.997 107.186  0.00  0.00    -0.058 A 
ATOM     19  C   UNL     1     140.259 123.019 107.726  0.00  0.00    -0.043 A 
ATOM     20  C   UNL     1     140.535 124.181 106.986  0.00  0.00    +0.049 A 
ATOM     21 CL   UNL     1     141.542 125.357 107.762  0.00  0.00    -0.083 Cl
ATOM     22  C   UNL     1     140.418 128.419 100.520  0.00  0.00    -0.012 A 
ATOM     23  C   UNL     1     140.604 129.098  99.312  0.00  0.00    +0.162 A 
ATOM     24  O   UNL     1     139.656 129.231  98.330  0.00  0.00    -0.491 OA
ATOM     25  C   UNL     1     138.473 128.448  98.463  0.00  0.00    +0.079 C 
ATOM     26  H   UNL     1     142.233 125.992 102.007  0.00  0.00    +0.000 HD
ATOM     27  H   UNL     1     140.534 125.859 102.037  0.00  0.00    +0.000 HD
ATOM     28  H   UNL     1     141.199 126.767 106.010  0.00  0.00    +0.000 HD
ENDROOT
TORSDOF 0
ENDMDL
MODEL 5
REMARK VINA RESULT:    -3.368     14.901     16.152
REMARK INTER + INTRA:          -3.368
REMARK INTER:                  -3.368
REMARK INTRA:                   0.000
REMARK UNBOUND:                 0.000
REMARK  Name = /home/vital/Documents/PhD_2021/Malaria_codes/scripts/../data/pdbqt_ligands/ligand_27_temp.pdb
REMARK                            x       y       z     vdW  Elec       q    Type
REMARK                         _______ _______ _______ _____ _____    ______ ____
ROOT
ATOM      1  C   UNL     1     141.683 121.387 108.747  0.00  0.00    -0.031 C 
ATOM      2  C   UNL     1     140.905 121.724 107.483  0.00  0.00    +0.087 C 
ATOM      3  O   UNL     1     140.464 123.088 107.570  0.00  0.00    -0.489 OA
ATOM      4  C   UNL     1     140.860 123.837 106.490  0.00  0.00    +0.162 A 
ATOM      5  C   UNL     1     142.216 124.119 106.299  0.00  0.00    -0.016 A 
ATOM      6  C   UNL     1     142.617 124.920 105.232  0.00  0.00    -0.054 A 
ATOM      7  C   UNL     1     141.666 125.454 104.355  0.00  0.00    -0.030 A 
ATOM      8  C   UNL     1     142.094 126.342 103.206  0.00  0.00    +0.022 C 
ATOM      9  N   UNL     1     141.904 127.747 103.558  0.00  0.00    -0.307 N 
ATOM     10  C   UNL     1     142.513 128.716 102.617  0.00  0.00    +0.035 C 
ATOM     11  C   UNL     1     144.032 128.770 102.828  0.00  0.00    -0.047 C 
ATOM     12  C   UNL     1     142.101 128.526 101.113  0.00  0.00    +0.099 C 
ATOM     13  O   UNL     1     142.748 127.388 100.533  0.00  0.00    -0.386 OA
ATOM     14  C   UNL     1     142.259 129.803 100.296  0.00  0.00    +0.036 A 
ATOM     15  C   UNL     1     141.205 130.734 100.364  0.00  0.00    +0.130 A 
ATOM     16  F   UNL     1     140.134 130.468 101.126  0.00  0.00    -0.205 F 
ATOM     17  C   UNL     1     141.224 131.947  99.674  0.00  0.00    -0.026 A 
ATOM     18  C   UNL     1     142.321 132.269  98.886  0.00  0.00    -0.058 A 
ATOM     19  C   UNL     1     143.388 131.375  98.803  0.00  0.00    -0.043 A 
ATOM     20  C   UNL     1     143.362 130.157  99.504  0.00  0.00    +0.049 A 
ATOM     21 CL   UNL     1     144.766 129.155  99.339  0.00  0.00    -0.083 Cl
ATOM     22  C   UNL     1     140.300 125.193 104.578  0.00  0.00    -0.012 A 
ATOM     23  C   UNL     1     139.887 124.392 105.648  0.00  0.00    +0.162 A 
ATOM     24  O   UNL     1     138.584 124.077 105.937  0.00  0.00    -0.491 OA
ATOM     25  C   UNL     1     137.574 124.784 105.223  0.00  0.00    +0.079 C 
ATOM     26  H   UNL     1     142.313 127.900 104.480  0.00  0.00    +0.000 HD
ATOM     27  H   UNL     1     140.898 127.915 103.529  0.00  0.00    +0.000 HD
ATOM     28  H   UNL     1     143.708 127.528 100.528  0.00  0.00    +0.000 HD
ENDROOT
TORSDOF 0
ENDMDL
MODEL 6
REMARK VINA RESULT:    -3.339     16.516     19.204
REMARK INTER + INTRA:          -3.339
REMARK INTER:                  -3.339
REMARK INTRA:                   0.000
REMARK UNBOUND:                 0.000
REMARK  Name = /home/vital/Documents/PhD_2021/Malaria_codes/scripts/../data/pdbqt_ligands/ligand_27_temp.pdb
REMARK                            x       y       z     vdW  Elec       q    Type
REMARK                         _______ _______ _______ _____ _____    ______ ____
ROOT
ATOM      1  C   UNL     1     147.200 129.673 101.241  0.00  0.00    -0.031 C 
ATOM      2  C   UNL     1     145.778 129.966 101.699  0.00  0.00    +0.087 C 
ATOM      3  O   UNL     1     144.898 129.002 101.099  0.00  0.00    -0.489 OA
ATOM      4  C   UNL     1     144.139 128.336 102.028  0.00  0.00    +0.162 A 
ATOM      5  C   UNL     1     144.752 127.457 102.926  0.00  0.00    -0.016 A 
ATOM      6  C   UNL     1     143.979 126.741 103.837  0.00  0.00    -0.054 A 
ATOM      7  C   UNL     1     142.587 126.890 103.851  0.00  0.00    -0.030 A 
ATOM      8  C   UNL     1     141.740 126.100 104.826  0.00  0.00    +0.022 C 
ATOM      9  N   UNL     1     141.161 124.936 104.159  0.00  0.00    -0.307 N 
ATOM     10  C   UNL     1     140.516 123.954 105.063  0.00  0.00    +0.035 C 
ATOM     11  C   UNL     1     141.585 123.126 105.789  0.00  0.00    -0.047 C 
ATOM     12  C   UNL     1     139.434 124.556 106.030  0.00  0.00    +0.099 C 
ATOM     13  O   UNL     1     140.038 125.302 107.092  0.00  0.00    -0.386 OA
ATOM     14  C   UNL     1     138.430 123.513 106.508  0.00  0.00    +0.036 A 
ATOM     15  C   UNL     1     137.355 123.225 105.645  0.00  0.00    +0.130 A 
ATOM     16  F   UNL     1     137.262 123.861 104.468  0.00  0.00    -0.205 F 
ATOM     17  C   UNL     1     136.370 122.286 105.954  0.00  0.00    -0.026 A 
ATOM     18  C   UNL     1     136.438 121.594 107.156  0.00  0.00    -0.058 A 
ATOM     19  C   UNL     1     137.494 121.846 108.031  0.00  0.00    -0.043 A 
ATOM     20  C   UNL     1     138.484 122.791 107.710  0.00  0.00    +0.049 A 
ATOM     21 CL   UNL     1     139.756 122.983 108.870  0.00  0.00    -0.083 Cl
ATOM     22  C   UNL     1     141.977 127.751 102.918  0.00  0.00    -0.012 A 
ATOM     23  C   UNL     1     142.745 128.473 101.998  0.00  0.00    +0.162 A 
ATOM     24  O   UNL     1     142.240 129.339 101.062  0.00  0.00    -0.491 OA
ATOM     25  C   UNL     1     140.828 129.343 100.880  0.00  0.00    +0.079 C 
ATOM     26  H   UNL     1     141.906 124.458 103.653  0.00  0.00    +0.000 HD
ATOM     27  H   UNL     1     140.423 125.292 103.552  0.00  0.00    +0.000 HD
ATOM     28  H   UNL     1     140.580 124.709 107.638  0.00  0.00    +0.000 HD
ENDROOT
TORSDOF 0
ENDMDL
MODEL 7
REMARK VINA RESULT:    -3.270     17.172     19.835
REMARK INTER + INTRA:          -3.270
REMARK INTER:                  -3.270
REMARK INTRA:                   0.000
REMARK UNBOUND:                 0.000
REMARK  Name = /home/vital/Documents/PhD_2021/Malaria_codes/scripts/../data/pdbqt_ligands/ligand_27_temp.pdb
REMARK                            x       y       z     vdW  Elec       q    Type
REMARK                         _______ _______ _______ _____ _____    ______ ____
ROOT
ATOM      1  C   UNL     1     143.838 130.390  99.593  0.00  0.00    -0.031 C 
ATOM      2  C   UNL     1     144.311 129.226 100.453  0.00  0.00    +0.087 C 
ATOM      3  O   UNL     1     143.911 129.470 101.810  0.00  0.00    -0.489 OA
ATOM      4  C   UNL     1     143.178 128.434 102.335  0.00  0.00    +0.162 A 
ATOM      5  C   UNL     1     141.900 128.164 101.836  0.00  0.00    -0.016 A 
ATOM      6  C   UNL     1     141.134 127.146 102.399  0.00  0.00    -0.054 A 
ATOM      7  C   UNL     1     141.635 126.397 103.470  0.00  0.00    -0.030 A 
ATOM      8  C   UNL     1     140.799 125.303 104.100  0.00  0.00    +0.022 C 
ATOM      9  N   UNL     1     140.164 125.794 105.321  0.00  0.00    -0.307 N 
ATOM     10  C   UNL     1     139.130 124.899 105.891  0.00  0.00    +0.035 C 
ATOM     11  C   UNL     1     137.838 124.995 105.067  0.00  0.00    -0.047 C 
ATOM     12  C   UNL     1     139.598 123.421 106.141  0.00  0.00    +0.099 C 
ATOM     13  O   UNL     1     139.709 122.692 104.914  0.00  0.00    -0.386 OA
ATOM     14  C   UNL     1     138.763 122.713 107.202  0.00  0.00    +0.036 A 
ATOM     15  C   UNL     1     139.113 122.946 108.546  0.00  0.00    +0.130 A 
ATOM     16  F   UNL     1     140.138 123.763 108.831  0.00  0.00    -0.205 F 
ATOM     17  C   UNL     1     138.427 122.369 109.615  0.00  0.00    -0.026 A 
ATOM     18  C   UNL     1     137.350 121.530 109.365  0.00  0.00    -0.058 A 
ATOM     19  C   UNL     1     136.968 121.284 108.046  0.00  0.00    -0.043 A 
ATOM     20  C   UNL     1     137.662 121.872 106.974  0.00  0.00    +0.049 A 
ATOM     21 CL   UNL     1     137.065 121.509 105.390  0.00  0.00    -0.083 Cl
ATOM     22  C   UNL     1     142.909 126.702 103.988  0.00  0.00    -0.012 A 
ATOM     23  C   UNL     1     143.685 127.724 103.431  0.00  0.00    +0.162 A 
ATOM     24  O   UNL     1     144.936 128.084 103.862  0.00  0.00    -0.491 OA
ATOM     25  C   UNL     1     145.386 127.518 105.089  0.00  0.00    +0.079 C 
ATOM     26  H   UNL     1     139.725 126.691 105.110  0.00  0.00    +0.000 HD
ATOM     27  H   UNL     1     140.903 125.859 106.021  0.00  0.00    +0.000 HD
ATOM     28  H   UNL     1     138.835 122.625 104.497  0.00  0.00    +0.000 HD
ENDROOT
TORSDOF 0
ENDMDL
MODEL 8
REMARK VINA RESULT:    -3.250     14.485     16.033
REMARK INTER + INTRA:          -3.250
REMARK INTER:                  -3.250
REMARK INTRA:                   0.000
REMARK UNBOUND:                 0.000
REMARK  Name = /home/vital/Documents/PhD_2021/Malaria_codes/scripts/../data/pdbqt_ligands/ligand_27_temp.pdb
REMARK                            x       y       z     vdW  Elec       q    Type
REMARK                         _______ _______ _______ _____ _____    ______ ____
ROOT
ATOM      1  C   UNL     1     140.628 123.752 109.277  0.00  0.00    -0.031 C 
ATOM      2  C   UNL     1     141.884 124.320 108.631  0.00  0.00    +0.087 C 
ATOM      3  O   UNL     1     141.972 123.819 107.287  0.00  0.00    -0.489 OA
ATOM      4  C   UNL     1     142.082 124.824 106.359  0.00  0.00    +0.162 A 
ATOM      5  C   UNL     1     141.006 125.688 106.139  0.00  0.00    -0.016 A 
ATOM      6  C   UNL     1     141.097 126.678 105.163  0.00  0.00    -0.054 A 
ATOM      7  C   UNL     1     142.260 126.804 104.394  0.00  0.00    -0.030 A 
ATOM      8  C   UNL     1     142.356 127.866 103.317  0.00  0.00    +0.022 C 
ATOM      9  N   UNL     1     142.088 127.278 102.007  0.00  0.00    -0.307 N 
ATOM     10  C   UNL     1     141.911 128.256 100.907  0.00  0.00    +0.035 C 
ATOM     11  C   UNL     1     140.526 128.910 101.004  0.00  0.00    -0.047 C 
ATOM     12  C   UNL     1     143.078 129.295 100.751  0.00  0.00    +0.099 C 
ATOM     13  O   UNL     1     143.041 130.284 101.785  0.00  0.00    -0.386 OA
ATOM     14  C   UNL     1     143.159 129.880  99.346  0.00  0.00    +0.036 A 
ATOM     15  C   UNL     1     143.840 129.117  98.379  0.00  0.00    +0.130 A 
ATOM     16  F   UNL     1     144.376 127.936  98.723  0.00  0.00    -0.205 F 
ATOM     17  C   UNL     1     143.980 129.530  97.053  0.00  0.00    -0.026 A 
ATOM     18  C   UNL     1     143.427 130.738  96.650  0.00  0.00    -0.058 A 
ATOM     19  C   UNL     1     142.736 131.516  97.579  0.00  0.00    -0.043 A 
ATOM     20  C   UNL     1     142.597 131.091  98.912  0.00  0.00    +0.049 A 
ATOM     21 CL   UNL     1     141.688 132.135  99.953  0.00  0.00    -0.083 Cl
ATOM     22  C   UNL     1     143.324 125.905 104.600  0.00  0.00    -0.012 A 
ATOM     23  C   UNL     1     143.241 124.907 105.576  0.00  0.00    +0.162 A 
ATOM     24  O   UNL     1     144.227 123.995 105.852  0.00  0.00    -0.491 OA
ATOM     25  C   UNL     1     145.323 123.931 104.944  0.00  0.00    +0.079 C 
ATOM     26  H   UNL     1     141.235 126.723 102.077  0.00  0.00    +0.000 HD
ATOM     27  H   UNL     1     142.912 126.726 101.767  0.00  0.00    +0.000 HD
ATOM     28  H   UNL     1     142.221 130.797 101.714  0.00  0.00    +0.000 HD
ENDROOT
TORSDOF 0
ENDMDL
MODEL 9
REMARK VINA RESULT:    -2.957      9.504     10.842
REMARK INTER + INTRA:          -2.957
REMARK INTER:                  -2.957
REMARK INTRA:                   0.000
REMARK UNBOUND:                 0.000
REMARK  Name = /home/vital/Documents/PhD_2021/Malaria_codes/scripts/../data/pdbqt_ligands/ligand_27_temp.pdb
REMARK                            x       y       z     vdW  Elec       q    Type
REMARK                         _______ _______ _______ _____ _____    ______ ____
ROOT
ATOM      1  C   UNL     1     144.307 121.279  89.782  0.00  0.00    -0.031 C 
ATOM      2  C   UNL     1     143.526 122.583  89.879  0.00  0.00    +0.087 C 
ATOM      3  O   UNL     1     142.375 122.364  90.710  0.00  0.00    -0.489 OA
ATOM      4  C   UNL     1     142.306 123.250  91.756  0.00  0.00    +0.162 A 
ATOM      5  C   UNL     1     143.256 123.191  92.780  0.00  0.00    -0.016 A 
ATOM      6  C   UNL     1     143.161 124.055  93.868  0.00  0.00    -0.054 A 
ATOM      7  C   UNL     1     142.111 124.977  93.946  0.00  0.00    -0.030 A 
ATOM      8  C   UNL     1     141.991 125.906  95.136  0.00  0.00    +0.022 C 
ATOM      9  N   UNL     1     141.010 125.383  96.084  0.00  0.00    -0.307 N 
ATOM     10  C   UNL     1     140.982 126.069  97.398  0.00  0.00    +0.035 C 
ATOM     11  C   UNL     1     142.181 125.626  98.247  0.00  0.00    -0.047 C 
ATOM     12  C   UNL     1     140.815 127.629  97.326  0.00  0.00    +0.099 C 
ATOM     13  O   UNL     1     142.022 128.267  96.895  0.00  0.00    -0.386 OA
ATOM     14  C   UNL     1     140.236 128.216  98.608  0.00  0.00    +0.036 A 
ATOM     15  C   UNL     1     138.836 128.171  98.752  0.00  0.00    +0.130 A 
ATOM     16  F   UNL     1     138.088 127.627  97.781  0.00  0.00    -0.205 F 
ATOM     17  C   UNL     1     138.177 128.665  99.879  0.00  0.00    -0.026 A 
ATOM     18  C   UNL     1     138.915 129.223 100.914  0.00  0.00    -0.058 A 
ATOM     19  C   UNL     1     140.305 129.274 100.811  0.00  0.00    -0.043 A 
ATOM     20  C   UNL     1     140.962 128.773  99.674  0.00  0.00    +0.049 A 
ATOM     21 CL   UNL     1     142.691 128.870  99.689  0.00  0.00    -0.083 Cl
ATOM     22  C   UNL     1     141.139 125.003  92.926  0.00  0.00    -0.012 A 
ATOM     23  C   UNL     1     141.225 124.138  91.831  0.00  0.00    +0.162 A 
ATOM     24  O   UNL     1     140.333 124.097  90.789  0.00  0.00    -0.491 OA
ATOM     25  C   UNL     1     139.129 124.843  90.940  0.00  0.00    +0.079 C 
ATOM     26  H   UNL     1     141.220 124.398  96.246  0.00  0.00    +0.000 HD
ATOM     27  H   UNL     1     140.094 125.538  95.662  0.00  0.00    +0.000 HD
ATOM     28  H   UNL     1     142.724 128.106  97.546  0.00  0.00    +0.000 HD
ENDROOT
TORSDOF 0
ENDMDL
