MODEL 1
REMARK VINA RESULT:    -4.263      0.000      0.000
REMARK INTER + INTRA:          -4.263
REMARK INTER:                  -4.263
REMARK INTRA:                   0.000
REMARK UNBOUND:                 0.000
REMARK  Name = /home/vital/Documents/PhD_2021/Malaria_codes/scripts/../data/pdbqt_ligands/ligand_173_temp.pdb
REMARK                            x       y       z     vdW  Elec       q    Type
REMARK                         _______ _______ _______ _____ _____    ______ ____
ROOT
ATOM      1  C   UNL     1     139.242 131.425  87.232  0.00  0.00    -0.080 C 
ATOM      2  C   UNL     1     140.006 130.729  88.086  0.00  0.00    +0.037 C 
ATOM      3 CL   UNL     1     140.198 129.022  87.852  0.00  0.00    -0.084 Cl
ATOM      4  C   UNL     1     140.715 131.339  89.206  0.00  0.00    -0.025 C 
ATOM      5  C   UNL     1     141.669 132.261  88.968  0.00  0.00    -0.093 C 
ATOM      6  C   UNL     1     140.277 130.848  90.577  0.00  0.00    +0.035 C 
ATOM      7  C   UNL     1     140.919 131.540  91.706  0.00  0.00    -0.097 C 
ATOM      8  C   UNL     1     141.445 132.086  92.639  0.00  0.00    -0.100 C 
ATOM      9  C   UNL     1     142.108 132.751  93.778  0.00  0.00    +0.028 C 
ATOM     10  C   UNL     1     143.236 131.875  94.338  0.00  0.00    +0.060 C 
ATOM     11  N   UNL     1     143.973 132.496  95.453  0.00  0.00    -0.171 N 
ATOM     12  N   UNL     1     143.247 132.741  96.569  0.00  0.00    -0.151 N 
ATOM     13  C   UNL     1     143.737 133.531  97.491  0.00  0.00    +0.147 C 
ATOM     14  N   UNL     1     143.033 133.715  98.673  0.00  0.00    -0.326 N 
ATOM     15  C   UNL     1     141.920 132.846  99.041  0.00  0.00    +0.024 C 
ATOM     16  C   UNL     1     142.399 131.479  99.530  0.00  0.00    +0.038 C 
ATOM     17 CL   UNL     1     143.357 131.637 101.033  0.00  0.00    -0.124 Cl
ATOM     18  C   UNL     1     145.026 134.255  97.285  0.00  0.00    +0.039 A 
ATOM     19  C   UNL     1     145.707 134.962  98.282  0.00  0.00    -0.049 A 
ATOM     20  C   UNL     1     146.871 135.661  97.956  0.00  0.00    -0.061 A 
ATOM     21  C   UNL     1     147.340 135.668  96.641  0.00  0.00    -0.060 A 
ATOM     22  C   UNL     1     146.653 134.964  95.650  0.00  0.00    -0.039 A 
ATOM     23  C   UNL     1     145.511 134.225  95.976  0.00  0.00    +0.056 A 
ATOM     24  N   UNL     1     144.764 133.557  94.980  0.00  0.00    -0.248 N 
ATOM     25  H   UNL     1     142.360 132.329  96.687  0.00  0.00    +0.000 HD
ATOM     26  H   UNL     1     143.290 134.449  99.276  0.00  0.00    +0.000 HD
ATOM     27  H   UNL     1     144.795 133.814  94.030  0.00  0.00    +0.000 HD
ENDROOT
TORSDOF 0
ENDMDL
MODEL 2
REMARK VINA RESULT:    -4.175      6.689      9.453
REMARK INTER + INTRA:          -4.175
REMARK INTER:                  -4.175
REMARK INTRA:                   0.000
REMARK UNBOUND:                 0.000
REMARK  Name = /home/vital/Documents/PhD_2021/Malaria_codes/scripts/../data/pdbqt_ligands/ligand_173_temp.pdb
REMARK                            x       y       z     vdW  Elec       q    Type
REMARK                         _______ _______ _______ _____ _____    ______ ____
ROOT
ATOM      1  C   UNL     1     135.896 122.879  88.882  0.00  0.00    -0.080 C 
ATOM      2  C   UNL     1     135.516 124.144  89.115  0.00  0.00    +0.037 C 
ATOM      3 CL   UNL     1     133.840 124.485  89.398  0.00  0.00    -0.084 Cl
ATOM      4  C   UNL     1     136.449 125.264  89.167  0.00  0.00    -0.025 C 
ATOM      5  C   UNL     1     137.410 125.287  90.112  0.00  0.00    -0.093 C 
ATOM      6  C   UNL     1     136.226 126.325  88.101  0.00  0.00    +0.035 C 
ATOM      7  C   UNL     1     137.233 127.400  88.091  0.00  0.00    -0.097 C 
ATOM      8  C   UNL     1     138.038 128.292  88.079  0.00  0.00    -0.100 C 
ATOM      9  C   UNL     1     139.022 129.392  88.082  0.00  0.00    +0.028 C 
ATOM     10  C   UNL     1     138.449 130.633  88.777  0.00  0.00    +0.060 C 
ATOM     11  N   UNL     1     139.396 131.760  88.856  0.00  0.00    -0.171 N 
ATOM     12  N   UNL     1     139.788 132.278  87.668  0.00  0.00    -0.151 N 
ATOM     13  C   UNL     1     140.823 133.080  87.631  0.00  0.00    +0.147 C 
ATOM     14  N   UNL     1     141.174 133.679  86.429  0.00  0.00    -0.326 N 
ATOM     15  C   UNL     1     140.273 133.674  85.282  0.00  0.00    +0.024 C 
ATOM     16  C   UNL     1     139.125 134.669  85.451  0.00  0.00    +0.038 C 
ATOM     17 CL   UNL     1     139.742 136.348  85.527  0.00  0.00    -0.124 Cl
ATOM     18  C   UNL     1     141.644 133.343  88.850  0.00  0.00    +0.039 A 
ATOM     19  C   UNL     1     142.639 134.322  88.939  0.00  0.00    -0.049 A 
ATOM     20  C   UNL     1     143.392 134.432  90.111  0.00  0.00    -0.061 A 
ATOM     21  C   UNL     1     143.165 133.558  91.175  0.00  0.00    -0.060 A 
ATOM     22  C   UNL     1     142.172 132.581  91.077  0.00  0.00    -0.039 A 
ATOM     23  C   UNL     1     141.383 132.492  89.926  0.00  0.00    +0.056 A 
ATOM     24  N   UNL     1     140.417 131.472  89.778  0.00  0.00    -0.248 N 
ATOM     25  H   UNL     1     139.302 132.055  86.842  0.00  0.00    +0.000 HD
ATOM     26  H   UNL     1     142.052 134.117  86.349  0.00  0.00    +0.000 HD
ATOM     27  H   UNL     1     140.455 130.626  90.281  0.00  0.00    +0.000 HD
ENDROOT
TORSDOF 0
ENDMDL
MODEL 3
REMARK VINA RESULT:    -3.996      6.386     10.118
REMARK INTER + INTRA:          -3.996
REMARK INTER:                  -3.996
REMARK INTRA:                   0.000
REMARK UNBOUND:                 0.000
REMARK  Name = /home/vital/Documents/PhD_2021/Malaria_codes/scripts/../data/pdbqt_ligands/ligand_173_temp.pdb
REMARK                            x       y       z     vdW  Elec       q    Type
REMARK                         _______ _______ _______ _____ _____    ______ ____
ROOT
ATOM      1  C   UNL     1     141.484 120.875  96.845  0.00  0.00    -0.080 C 
ATOM      2  C   UNL     1     142.202 121.494  95.897  0.00  0.00    +0.037 C 
ATOM      3 CL   UNL     1     143.842 121.000  95.621  0.00  0.00    -0.084 Cl
ATOM      4  C   UNL     1     141.668 122.558  95.054  0.00  0.00    -0.025 C 
ATOM      5  C   UNL     1     140.637 122.299  94.227  0.00  0.00    -0.093 C 
ATOM      6  C   UNL     1     142.364 123.901  95.213  0.00  0.00    +0.035 C 
ATOM      7  C   UNL     1     141.756 124.997  94.441  0.00  0.00    -0.097 C 
ATOM      8  C   UNL     1     141.280 125.900  93.805  0.00  0.00    -0.100 C 
ATOM      9  C   UNL     1     140.699 126.998  93.009  0.00  0.00    +0.028 C 
ATOM     10  C   UNL     1     141.525 127.246  91.739  0.00  0.00    +0.060 C 
ATOM     11  N   UNL     1     140.976 128.302  90.871  0.00  0.00    -0.171 N 
ATOM     12  N   UNL     1     140.941 129.544  91.411  0.00  0.00    -0.151 N 
ATOM     13  C   UNL     1     140.226 130.474  90.831  0.00  0.00    +0.147 C 
ATOM     14  N   UNL     1     140.257 131.767  91.335  0.00  0.00    -0.326 N 
ATOM     15  C   UNL     1     141.268 132.186  92.300  0.00  0.00    +0.024 C 
ATOM     16  C   UNL     1     142.632 132.401  91.644  0.00  0.00    +0.038 C 
ATOM     17 CL   UNL     1     142.567 133.739  90.457  0.00  0.00    -0.124 Cl
ATOM     18  C   UNL     1     139.361 130.165  89.654  0.00  0.00    +0.039 A 
ATOM     19  C   UNL     1     138.719 131.128  88.867  0.00  0.00    -0.049 A 
ATOM     20  C   UNL     1     137.877 130.719  87.831  0.00  0.00    -0.061 A 
ATOM     21  C   UNL     1     137.664 129.360  87.596  0.00  0.00    -0.060 A 
ATOM     22  C   UNL     1     138.304 128.404  88.388  0.00  0.00    -0.039 A 
ATOM     23  C   UNL     1     139.184 128.804  89.399  0.00  0.00    +0.056 A 
ATOM     24  N   UNL     1     139.794 127.858  90.254  0.00  0.00    -0.248 N 
ATOM     25  H   UNL     1     141.448 129.744  92.231  0.00  0.00    +0.000 HD
ATOM     26  H   UNL     1     139.581 132.416  91.034  0.00  0.00    +0.000 HD
ATOM     27  H   UNL     1     139.421 126.960  90.405  0.00  0.00    +0.000 HD
ENDROOT
TORSDOF 0
ENDMDL
MODEL 4
REMARK VINA RESULT:    -3.845      6.072      8.509
REMARK INTER + INTRA:          -3.845
REMARK INTER:                  -3.845
REMARK INTRA:                   0.000
REMARK UNBOUND:                 0.000
REMARK  Name = /home/vital/Documents/PhD_2021/Malaria_codes/scripts/../data/pdbqt_ligands/ligand_173_temp.pdb
REMARK                            x       y       z     vdW  Elec       q    Type
REMARK                         _______ _______ _______ _____ _____    ______ ____
ROOT
ATOM      1  C   UNL     1     142.864 136.093  87.444  0.00  0.00    -0.080 C 
ATOM      2  C   UNL     1     142.031 135.691  88.415  0.00  0.00    +0.037 C 
ATOM      3 CL   UNL     1     141.116 136.877  89.289  0.00  0.00    -0.084 Cl
ATOM      4  C   UNL     1     141.829 134.290  88.768  0.00  0.00    -0.025 C 
ATOM      5  C   UNL     1     141.316 133.440  87.858  0.00  0.00    -0.093 C 
ATOM      6  C   UNL     1     142.242 133.930  90.187  0.00  0.00    +0.035 C 
ATOM      7  C   UNL     1     142.136 132.496  90.507  0.00  0.00    -0.097 C 
ATOM      8  C   UNL     1     142.042 131.331  90.788  0.00  0.00    -0.100 C 
ATOM      9  C   UNL     1     141.907 129.902  91.129  0.00  0.00    +0.028 C 
ATOM     10  C   UNL     1     140.626 129.653  91.935  0.00  0.00    +0.060 C 
ATOM     11  N   UNL     1     140.403 128.236  92.273  0.00  0.00    -0.171 N 
ATOM     12  N   UNL     1     141.336 127.673  93.077  0.00  0.00    -0.151 N 
ATOM     13  C   UNL     1     141.372 126.370  93.200  0.00  0.00    +0.147 C 
ATOM     14  N   UNL     1     142.272 125.797  94.089  0.00  0.00    -0.326 N 
ATOM     15  C   UNL     1     142.971 126.597  95.090  0.00  0.00    +0.024 C 
ATOM     16  C   UNL     1     142.057 126.985  96.252  0.00  0.00    +0.038 C 
ATOM     17 CL   UNL     1     141.508 125.533  97.145  0.00  0.00    -0.124 Cl
ATOM     18  C   UNL     1     140.483 125.490  92.387  0.00  0.00    +0.039 A 
ATOM     19  C   UNL     1     140.326 124.115  92.591  0.00  0.00    -0.049 A 
ATOM     20  C   UNL     1     139.518 123.378  91.722  0.00  0.00    -0.061 A 
ATOM     21  C   UNL     1     138.887 124.008  90.648  0.00  0.00    -0.060 A 
ATOM     22  C   UNL     1     139.051 125.380  90.448  0.00  0.00    -0.039 A 
ATOM     23  C   UNL     1     139.822 126.134  91.339  0.00  0.00    +0.056 A 
ATOM     24  N   UNL     1     140.055 127.511  91.121  0.00  0.00    -0.248 N 
ATOM     25  H   UNL     1     141.980 128.237  93.564  0.00  0.00    +0.000 HD
ATOM     26  H   UNL     1     142.443 124.829  94.042  0.00  0.00    +0.000 HD
ATOM     27  H   UNL     1     139.979 127.929  90.233  0.00  0.00    +0.000 HD
ENDROOT
TORSDOF 0
ENDMDL
MODEL 5
REMARK VINA RESULT:    -3.735      8.157     11.487
REMARK INTER + INTRA:          -3.735
REMARK INTER:                  -3.735
REMARK INTRA:                   0.000
REMARK UNBOUND:                 0.000
REMARK  Name = /home/vital/Documents/PhD_2021/Malaria_codes/scripts/../data/pdbqt_ligands/ligand_173_temp.pdb
REMARK                            x       y       z     vdW  Elec       q    Type
REMARK                         _______ _______ _______ _____ _____    ______ ____
ROOT
ATOM      1  C   UNL     1     130.536 121.989  90.433  0.00  0.00    -0.080 C 
ATOM      2  C   UNL     1     131.275 122.352  89.375  0.00  0.00    +0.037 C 
ATOM      3 CL   UNL     1     130.912 121.678  87.819  0.00  0.00    -0.084 Cl
ATOM      4  C   UNL     1     132.368 123.314  89.454  0.00  0.00    -0.025 C 
ATOM      5  C   UNL     1     132.112 124.585  89.820  0.00  0.00    -0.093 C 
ATOM      6  C   UNL     1     133.736 122.750  89.101  0.00  0.00    +0.035 C 
ATOM      7  C   UNL     1     134.850 123.695  89.282  0.00  0.00    -0.097 C 
ATOM      8  C   UNL     1     135.769 124.458  89.412  0.00  0.00    -0.100 C 
ATOM      9  C   UNL     1     136.890 125.407  89.558  0.00  0.00    +0.028 C 
ATOM     10  C   UNL     1     137.293 125.988  88.197  0.00  0.00    +0.060 C 
ATOM     11  N   UNL     1     138.380 126.980  88.273  0.00  0.00    -0.171 N 
ATOM     12  N   UNL     1     139.568 126.512  88.724  0.00  0.00    -0.151 N 
ATOM     13  C   UNL     1     140.495 127.364  89.084  0.00  0.00    +0.147 C 
ATOM     14  N   UNL     1     141.742 126.888  89.467  0.00  0.00    -0.326 N 
ATOM     15  C   UNL     1     142.144 125.510  89.210  0.00  0.00    +0.024 C 
ATOM     16  C   UNL     1     142.499 125.281  87.740  0.00  0.00    +0.038 C 
ATOM     17 CL   UNL     1     143.923 126.257  87.268  0.00  0.00    -0.124 Cl
ATOM     18  C   UNL     1     140.229 128.832  89.115  0.00  0.00    +0.039 A 
ATOM     19  C   UNL     1     141.209 129.812  89.304  0.00  0.00    -0.049 A 
ATOM     20  C   UNL     1     140.833 131.155  89.383  0.00  0.00    -0.061 A 
ATOM     21  C   UNL     1     139.487 131.512  89.295  0.00  0.00    -0.060 A 
ATOM     22  C   UNL     1     138.514 130.529  89.111  0.00  0.00    -0.039 A 
ATOM     23  C   UNL     1     138.885 129.186  88.985  0.00  0.00    +0.056 A 
ATOM     24  N   UNL     1     137.913 128.167  88.862  0.00  0.00    -0.248 N 
ATOM     25  H   UNL     1     139.732 125.544  88.781  0.00  0.00    +0.000 HD
ATOM     26  H   UNL     1     142.368 127.495  89.922  0.00  0.00    +0.000 HD
ATOM     27  H   UNL     1     136.983 128.280  89.165  0.00  0.00    +0.000 HD
ENDROOT
TORSDOF 0
ENDMDL
MODEL 6
REMARK VINA RESULT:    -3.710      7.389     10.417
REMARK INTER + INTRA:          -3.710
REMARK INTER:                  -3.710
REMARK INTRA:                   0.000
REMARK UNBOUND:                 0.000
REMARK  Name = /home/vital/Documents/PhD_2021/Malaria_codes/scripts/../data/pdbqt_ligands/ligand_173_temp.pdb
REMARK                            x       y       z     vdW  Elec       q    Type
REMARK                         _______ _______ _______ _____ _____    ______ ____
ROOT
ATOM      1  C   UNL     1     142.132 136.382  89.151  0.00  0.00    -0.080 C 
ATOM      2  C   UNL     1     142.238 135.273  88.405  0.00  0.00    +0.037 C 
ATOM      3 CL   UNL     1     142.804 135.404  86.771  0.00  0.00    -0.084 Cl
ATOM      4  C   UNL     1     141.924 133.939  88.904  0.00  0.00    -0.025 C 
ATOM      5  C   UNL     1     142.636 133.425  89.926  0.00  0.00    -0.093 C 
ATOM      6  C   UNL     1     140.775 133.249  88.185  0.00  0.00    +0.035 C 
ATOM      7  C   UNL     1     140.392 131.947  88.759  0.00  0.00    -0.097 C 
ATOM      8  C   UNL     1     140.077 130.877  89.206  0.00  0.00    -0.100 C 
ATOM      9  C   UNL     1     139.707 129.557  89.752  0.00  0.00    +0.028 C 
ATOM     10  C   UNL     1     140.304 128.429  88.901  0.00  0.00    +0.060 C 
ATOM     11  N   UNL     1     140.012 127.079  89.415  0.00  0.00    -0.171 N 
ATOM     12  N   UNL     1     138.703 126.732  89.435  0.00  0.00    -0.151 N 
ATOM     13  C   UNL     1     138.331 125.682  90.122  0.00  0.00    +0.147 C 
ATOM     14  N   UNL     1     137.004 125.276  90.074  0.00  0.00    -0.326 N 
ATOM     15  C   UNL     1     136.081 125.798  89.073  0.00  0.00    +0.024 C 
ATOM     16  C   UNL     1     136.326 125.185  87.694  0.00  0.00    +0.038 C 
ATOM     17 CL   UNL     1     136.012 123.423  87.713  0.00  0.00    -0.124 Cl
ATOM     18  C   UNL     1     139.299 124.929  90.972  0.00  0.00    +0.039 A 
ATOM     19  C   UNL     1     139.029 123.699  91.582  0.00  0.00    -0.049 A 
ATOM     20  C   UNL     1     139.989 123.119  92.415  0.00  0.00    -0.061 A 
ATOM     21  C   UNL     1     141.199 123.773  92.650  0.00  0.00    -0.060 A 
ATOM     22  C   UNL     1     141.460 125.002  92.042  0.00  0.00    -0.039 A 
ATOM     23  C   UNL     1     140.524 125.569  91.171  0.00  0.00    +0.056 A 
ATOM     24  N   UNL     1     140.738 126.841  90.594  0.00  0.00    -0.248 N 
ATOM     25  H   UNL     1     138.039 127.264  88.938  0.00  0.00    +0.000 HD
ATOM     26  H   UNL     1     136.679 124.620  90.733  0.00  0.00    +0.000 HD
ATOM     27  H   UNL     1     141.347 127.508  90.987  0.00  0.00    +0.000 HD
ENDROOT
TORSDOF 0
ENDMDL
MODEL 7
REMARK VINA RESULT:    -3.598      4.649      6.934
REMARK INTER + INTRA:          -3.598
REMARK INTER:                  -3.598
REMARK INTRA:                   0.000
REMARK UNBOUND:                 0.000
REMARK  Name = /home/vital/Documents/PhD_2021/Malaria_codes/scripts/../data/pdbqt_ligands/ligand_173_temp.pdb
REMARK                            x       y       z     vdW  Elec       q    Type
REMARK                         _______ _______ _______ _____ _____    ______ ____
ROOT
ATOM      1  C   UNL     1     137.258 123.907  88.168  0.00  0.00    -0.080 C 
ATOM      2  C   UNL     1     136.929 125.079  88.731  0.00  0.00    +0.037 C 
ATOM      3 CL   UNL     1     135.253 125.473  88.944  0.00  0.00    -0.084 Cl
ATOM      4  C   UNL     1     137.914 126.045  89.203  0.00  0.00    -0.025 C 
ATOM      5  C   UNL     1     138.757 125.706  90.197  0.00  0.00    -0.093 C 
ATOM      6  C   UNL     1     137.879 127.386  88.486  0.00  0.00    +0.035 C 
ATOM      7  C   UNL     1     138.942 128.322  88.892  0.00  0.00    -0.097 C 
ATOM      8  C   UNL     1     139.794 129.102  89.223  0.00  0.00    -0.100 C 
ATOM      9  C   UNL     1     140.834 130.059  89.647  0.00  0.00    +0.028 C 
ATOM     10  C   UNL     1     140.258 131.092  90.624  0.00  0.00    +0.060 C 
ATOM     11  N   UNL     1     141.254 132.056  91.124  0.00  0.00    -0.171 N 
ATOM     12  N   UNL     1     141.812 132.859  90.188  0.00  0.00    -0.151 N 
ATOM     13  C   UNL     1     142.889 133.540  90.490  0.00  0.00    +0.147 C 
ATOM     14  N   UNL     1     143.413 134.428  89.560  0.00  0.00    -0.326 N 
ATOM     15  C   UNL     1     142.654 134.838  88.384  0.00  0.00    +0.024 C 
ATOM     16  C   UNL     1     141.555 135.841  88.734  0.00  0.00    +0.038 C 
ATOM     17 CL   UNL     1     142.256 137.362  89.365  0.00  0.00    -0.124 Cl
ATOM     18  C   UNL     1     143.576 133.362  91.803  0.00  0.00    +0.039 A 
ATOM     19  C   UNL     1     144.610 134.178  92.274  0.00  0.00    -0.049 A 
ATOM     20  C   UNL     1     145.226 133.874  93.490  0.00  0.00    -0.061 A 
ATOM     21  C   UNL     1     144.825 132.753  94.218  0.00  0.00    -0.060 A 
ATOM     22  C   UNL     1     143.795 131.941  93.740  0.00  0.00    -0.039 A 
ATOM     23  C   UNL     1     143.142 132.263  92.546  0.00  0.00    +0.056 A 
ATOM     24  N   UNL     1     142.141 131.421  92.010  0.00  0.00    -0.248 N 
ATOM     25  H   UNL     1     141.413 132.930  89.291  0.00  0.00    +0.000 HD
ATOM     26  H   UNL     1     144.319 134.788  89.698  0.00  0.00    +0.000 HD
ATOM     27  H   UNL     1     142.071 130.466  92.239  0.00  0.00    +0.000 HD
ENDROOT
TORSDOF 0
ENDMDL
MODEL 8
REMARK VINA RESULT:    -3.508      7.354     10.251
REMARK INTER + INTRA:          -3.508
REMARK INTER:                  -3.508
REMARK INTRA:                   0.000
REMARK UNBOUND:                 0.000
REMARK  Name = /home/vital/Documents/PhD_2021/Malaria_codes/scripts/../data/pdbqt_ligands/ligand_173_temp.pdb
REMARK                            x       y       z     vdW  Elec       q    Type
REMARK                         _______ _______ _______ _____ _____    ______ ____
ROOT
ATOM      1  C   UNL     1     131.293 121.895  87.173  0.00  0.00    -0.080 C 
ATOM      2  C   UNL     1     132.589 121.998  86.842  0.00  0.00    +0.037 C 
ATOM      3 CL   UNL     1     133.286 120.819  85.779  0.00  0.00    -0.084 Cl
ATOM      4  C   UNL     1     133.452 123.076  87.312  0.00  0.00    -0.025 C 
ATOM      5  C   UNL     1     133.175 124.349  86.972  0.00  0.00    -0.093 C 
ATOM      6  C   UNL     1     134.619 122.621  88.175  0.00  0.00    +0.035 C 
ATOM      7  C   UNL     1     135.427 123.718  88.734  0.00  0.00    -0.097 C 
ATOM      8  C   UNL     1     136.106 124.601  89.187  0.00  0.00    -0.100 C 
ATOM      9  C   UNL     1     136.942 125.691  89.725  0.00  0.00    +0.028 C 
ATOM     10  C   UNL     1     138.222 125.855  88.895  0.00  0.00    +0.060 C 
ATOM     11  N   UNL     1     139.086 126.959  89.350  0.00  0.00    -0.171 N 
ATOM     12  N   UNL     1     139.594 126.827  90.599  0.00  0.00    -0.151 N 
ATOM     13  C   UNL     1     140.133 127.868  91.182  0.00  0.00    +0.147 C 
ATOM     14  N   UNL     1     140.729 127.715  92.426  0.00  0.00    -0.326 N 
ATOM     15  C   UNL     1     141.028 126.396  92.973  0.00  0.00    +0.024 C 
ATOM     16  C   UNL     1     142.246 125.760  92.303  0.00  0.00    +0.038 C 
ATOM     17 CL   UNL     1     143.723 126.719  92.622  0.00  0.00    -0.124 Cl
ATOM     18  C   UNL     1     140.098 129.218  90.546  0.00  0.00    +0.039 A 
ATOM     19  C   UNL     1     140.808 130.331  91.009  0.00  0.00    -0.049 A 
ATOM     20  C   UNL     1     140.644 131.564  90.373  0.00  0.00    -0.061 A 
ATOM     21  C   UNL     1     139.764 131.686  89.297  0.00  0.00    -0.060 A 
ATOM     22  C   UNL     1     139.055 130.572  88.843  0.00  0.00    -0.039 A 
ATOM     23  C   UNL     1     139.247 129.324  89.445  0.00  0.00    +0.056 A 
ATOM     24  N   UNL     1     138.495 128.196  89.045  0.00  0.00    -0.248 N 
ATOM     25  H   UNL     1     139.558 125.960  91.062  0.00  0.00    +0.000 HD
ATOM     26  H   UNL     1     140.956 128.516  92.952  0.00  0.00    +0.000 HD
ATOM     27  H   UNL     1     137.625 128.271  88.589  0.00  0.00    +0.000 HD
ENDROOT
TORSDOF 0
ENDMDL
