MODEL 1
REMARK VINA RESULT:    -4.168      0.000      0.000
REMARK INTER + INTRA:          -4.168
REMARK INTER:                  -4.168
REMARK INTRA:                   0.000
REMARK UNBOUND:                 0.000
REMARK  Name = /home/vital/Documents/PhD_2021/Malaria_codes/scripts/../data/pdbqt_ligands/ligand_368_temp.pdb
REMARK                            x       y       z     vdW  Elec       q    Type
REMARK                         _______ _______ _______ _____ _____    ______ ____
ROOT
ATOM      1  C   UNL     1     143.443 131.898  98.054  0.00  0.00    -0.014 C 
ATOM      2  C   UNL     1     142.563 132.428  99.184  0.00  0.00    +0.182 C 
ATOM      3  C   UNL     1     142.091 133.788  98.841  0.00  0.00    +0.107 C 
ATOM      4  N   UNL     1     141.749 134.866  98.572  0.00  0.00    -0.193 NA
ATOM      5  O   UNL     1     141.426 131.570  99.344  0.00  0.00    -0.475 OA
ATOM      6  C   UNL     1     141.496 130.526 100.221  0.00  0.00    +0.122 A 
ATOM      7  C   UNL     1     142.643 130.049 100.854  0.00  0.00    -0.020 A 
ATOM      8  C   UNL     1     142.560 128.959 101.728  0.00  0.00    -0.054 A 
ATOM      9  C   UNL     1     141.335 128.326 101.978  0.00  0.00    -0.033 A 
ATOM     10  C   UNL     1     141.257 127.155 102.931  0.00  0.00    +0.021 C 
ATOM     11  N   UNL     1     141.498 127.598 104.307  0.00  0.00    -0.309 N 
ATOM     12  C   UNL     1     141.178 126.552 105.298  0.00  0.00    +0.026 C 
ATOM     13  C   UNL     1     142.015 125.251 105.202  0.00  0.00    +0.093 C 
ATOM     14  O   UNL     1     141.546 124.435 104.121  0.00  0.00    -0.386 OA
ATOM     15  C   UNL     1     141.946 124.442 106.483  0.00  0.00    -0.018 A 
ATOM     16  C   UNL     1     140.764 123.786 106.863  0.00  0.00    -0.056 A 
ATOM     17  C   UNL     1     140.709 123.049 108.046  0.00  0.00    -0.061 A 
ATOM     18  C   UNL     1     141.833 122.959 108.864  0.00  0.00    -0.062 A 
ATOM     19  C   UNL     1     143.013 123.607 108.501  0.00  0.00    -0.061 A 
ATOM     20  C   UNL     1     143.070 124.345 107.317  0.00  0.00    -0.056 A 
ATOM     21  C   UNL     1     140.189 128.808 101.337  0.00  0.00    -0.054 A 
ATOM     22  C   UNL     1     140.274 129.895 100.464  0.00  0.00    -0.020 A 
ATOM     23  H   UNL     1     140.919 128.416 104.494  0.00  0.00    +0.000 HD
ATOM     24  H   UNL     1     142.491 127.815 104.394  0.00  0.00    +0.000 HD
ATOM     25  H   UNL     1     140.626 124.176 104.286  0.00  0.00    +0.000 HD
ENDROOT
TORSDOF 0
ENDMDL
MODEL 2
REMARK VINA RESULT:    -4.017      2.416      3.704
REMARK INTER + INTRA:          -4.017
REMARK INTER:                  -4.017
REMARK INTRA:                   0.000
REMARK UNBOUND:                 0.000
REMARK  Name = /home/vital/Documents/PhD_2021/Malaria_codes/scripts/../data/pdbqt_ligands/ligand_368_temp.pdb
REMARK                            x       y       z     vdW  Elec       q    Type
REMARK                         _______ _______ _______ _____ _____    ______ ____
ROOT
ATOM      1  C   UNL     1     143.252 132.004  94.300  0.00  0.00    -0.014 C 
ATOM      2  C   UNL     1     144.206 132.405  95.423  0.00  0.00    +0.182 C 
ATOM      3  C   UNL     1     145.072 133.511  94.960  0.00  0.00    +0.107 C 
ATOM      4  N   UNL     1     145.765 134.362  94.575  0.00  0.00    -0.193 NA
ATOM      5  O   UNL     1     143.447 132.854  96.554  0.00  0.00    -0.475 OA
ATOM      6  C   UNL     1     143.086 131.953  97.515  0.00  0.00    +0.122 A 
ATOM      7  C   UNL     1     143.191 130.566  97.434  0.00  0.00    -0.020 A 
ATOM      8  C   UNL     1     142.772 129.766  98.504  0.00  0.00    -0.054 A 
ATOM      9  C   UNL     1     142.237 130.339  99.666  0.00  0.00    -0.033 A 
ATOM     10  C   UNL     1     141.796 129.466 100.819  0.00  0.00    +0.021 C 
ATOM     11  N   UNL     1     142.955 128.841 101.460  0.00  0.00    -0.309 N 
ATOM     12  C   UNL     1     142.609 128.193 102.741  0.00  0.00    +0.026 C 
ATOM     13  C   UNL     1     141.591 127.027 102.653  0.00  0.00    +0.093 C 
ATOM     14  O   UNL     1     140.261 127.536 102.497  0.00  0.00    -0.386 OA
ATOM     15  C   UNL     1     141.631 126.152 103.891  0.00  0.00    -0.018 A 
ATOM     16  C   UNL     1     141.156 126.622 105.126  0.00  0.00    -0.056 A 
ATOM     17  C   UNL     1     141.201 125.811 106.260  0.00  0.00    -0.061 A 
ATOM     18  C   UNL     1     141.724 124.523 106.176  0.00  0.00    -0.062 A 
ATOM     19  C   UNL     1     142.202 124.044 104.957  0.00  0.00    -0.061 A 
ATOM     20  C   UNL     1     142.157 124.853 103.821  0.00  0.00    -0.056 A 
ATOM     21  C   UNL     1     142.132 131.733  99.739  0.00  0.00    -0.054 A 
ATOM     22  C   UNL     1     142.550 132.528  98.670  0.00  0.00    -0.020 A 
ATOM     23  H   UNL     1     143.659 129.558 101.636  0.00  0.00    +0.000 HD
ATOM     24  H   UNL     1     143.308 128.119 100.832  0.00  0.00    +0.000 HD
ATOM     25  H   UNL     1     140.025 128.069 103.272  0.00  0.00    +0.000 HD
ENDROOT
TORSDOF 0
ENDMDL
MODEL 3
REMARK VINA RESULT:    -3.807      2.887     10.134
REMARK INTER + INTRA:          -3.807
REMARK INTER:                  -3.807
REMARK INTRA:                   0.000
REMARK UNBOUND:                 0.000
REMARK  Name = /home/vital/Documents/PhD_2021/Malaria_codes/scripts/../data/pdbqt_ligands/ligand_368_temp.pdb
REMARK                            x       y       z     vdW  Elec       q    Type
REMARK                         _______ _______ _______ _____ _____    ______ ____
ROOT
ATOM      1  C   UNL     1     145.350 123.652 107.638  0.00  0.00    -0.014 C 
ATOM      2  C   UNL     1     144.667 123.188 106.353  0.00  0.00    +0.182 C 
ATOM      3  C   UNL     1     144.302 121.759 106.480  0.00  0.00    +0.107 C 
ATOM      4  N   UNL     1     144.045 120.630 106.582  0.00  0.00    -0.193 NA
ATOM      5  O   UNL     1     143.473 123.953 106.145  0.00  0.00    -0.475 OA
ATOM      6  C   UNL     1     143.536 125.100 105.405  0.00  0.00    +0.122 A 
ATOM      7  C   UNL     1     144.693 125.751 104.981  0.00  0.00    -0.020 A 
ATOM      8  C   UNL     1     144.600 126.929 104.229  0.00  0.00    -0.054 A 
ATOM      9  C   UNL     1     143.353 127.475 103.896  0.00  0.00    -0.033 A 
ATOM     10  C   UNL     1     143.265 128.742 103.076  0.00  0.00    +0.021 C 
ATOM     11  N   UNL     1     143.709 128.495 101.703  0.00  0.00    -0.309 N 
ATOM     12  C   UNL     1     143.399 129.621 100.800  0.00  0.00    +0.026 C 
ATOM     13  C   UNL     1     144.080 130.971 101.146  0.00  0.00    +0.093 C 
ATOM     14  O   UNL     1     143.406 131.602 102.242  0.00  0.00    -0.386 OA
ATOM     15  C   UNL     1     144.077 131.921  99.965  0.00  0.00    -0.018 A 
ATOM     16  C   UNL     1     142.886 132.510  99.512  0.00  0.00    -0.056 A 
ATOM     17  C   UNL     1     142.892 133.379  98.420  0.00  0.00    -0.061 A 
ATOM     18  C   UNL     1     144.089 133.669  97.767  0.00  0.00    -0.062 A 
ATOM     19  C   UNL     1     145.279 133.090  98.205  0.00  0.00    -0.061 A 
ATOM     20  C   UNL     1     145.274 132.220  99.297  0.00  0.00    -0.056 A 
ATOM     21  C   UNL     1     142.196 126.817 104.328  0.00  0.00    -0.054 A 
ATOM     22  C   UNL     1     142.291 125.643 105.079  0.00  0.00    -0.020 A 
ATOM     23  H   UNL     1     143.244 127.657 101.353  0.00  0.00    +0.000 HD
ATOM     24  H   UNL     1     144.723 128.380 101.720  0.00  0.00    +0.000 HD
ATOM     25  H   UNL     1     142.489 131.796 101.990  0.00  0.00    +0.000 HD
ENDROOT
TORSDOF 0
ENDMDL
MODEL 4
REMARK VINA RESULT:    -3.602      6.497     10.725
REMARK INTER + INTRA:          -3.602
REMARK INTER:                  -3.602
REMARK INTRA:                   0.000
REMARK UNBOUND:                 0.000
REMARK  Name = /home/vital/Documents/PhD_2021/Malaria_codes/scripts/../data/pdbqt_ligands/ligand_368_temp.pdb
REMARK                            x       y       z     vdW  Elec       q    Type
REMARK                         _______ _______ _______ _____ _____    ______ ____
ROOT
ATOM      1  C   UNL     1     141.213 133.870  87.997  0.00  0.00    -0.014 C 
ATOM      2  C   UNL     1     142.093 132.649  88.254  0.00  0.00    +0.182 C 
ATOM      3  C   UNL     1     142.556 132.098  86.961  0.00  0.00    +0.107 C 
ATOM      4  N   UNL     1     142.890 131.658  85.938  0.00  0.00    -0.193 NA
ATOM      5  O   UNL     1     143.236 133.040  89.026  0.00  0.00    -0.475 OA
ATOM      6  C   UNL     1     143.175 132.974  90.389  0.00  0.00    +0.122 A 
ATOM      7  C   UNL     1     142.033 132.761  91.159  0.00  0.00    -0.020 A 
ATOM      8  C   UNL     1     142.125 132.726  92.556  0.00  0.00    -0.054 A 
ATOM      9  C   UNL     1     143.354 132.908  93.202  0.00  0.00    -0.033 A 
ATOM     10  C   UNL     1     143.443 132.859  94.711  0.00  0.00    +0.021 C 
ATOM     11  N   UNL     1     143.202 131.497  95.193  0.00  0.00    -0.309 N 
ATOM     12  C   UNL     1     143.532 131.340  96.623  0.00  0.00    +0.026 C 
ATOM     13  C   UNL     1     142.703 132.207  97.606  0.00  0.00    +0.093 C 
ATOM     14  O   UNL     1     143.174 133.560  97.597  0.00  0.00    -0.386 OA
ATOM     15  C   UNL     1     142.780 131.677  99.025  0.00  0.00    -0.018 A 
ATOM     16  C   UNL     1     143.967 131.770  99.769  0.00  0.00    -0.056 A 
ATOM     17  C   UNL     1     144.030 131.275 101.072  0.00  0.00    -0.061 A 
ATOM     18  C   UNL     1     142.909 130.680 101.647  0.00  0.00    -0.062 A 
ATOM     19  C   UNL     1     141.725 130.579 100.919  0.00  0.00    -0.061 A 
ATOM     20  C   UNL     1     141.660 131.074  99.615  0.00  0.00    -0.056 A 
ATOM     21  C   UNL     1     144.496 133.125  92.422  0.00  0.00    -0.054 A 
ATOM     22  C   UNL     1     144.402 133.161  91.029  0.00  0.00    -0.020 A 
ATOM     23  H   UNL     1     143.777 130.851  94.652  0.00  0.00    +0.000 HD
ATOM     24  H   UNL     1     142.208 131.297  95.079  0.00  0.00    +0.000 HD
ATOM     25  H   UNL     1     144.096 133.583  97.897  0.00  0.00    +0.000 HD
ENDROOT
TORSDOF 0
ENDMDL
MODEL 5
REMARK VINA RESULT:    -3.587     14.863     16.920
REMARK INTER + INTRA:          -3.587
REMARK INTER:                  -3.587
REMARK INTRA:                   0.000
REMARK UNBOUND:                 0.000
REMARK  Name = /home/vital/Documents/PhD_2021/Malaria_codes/scripts/../data/pdbqt_ligands/ligand_368_temp.pdb
REMARK                            x       y       z     vdW  Elec       q    Type
REMARK                         _______ _______ _______ _____ _____    ______ ____
ROOT
ATOM      1  C   UNL     1     136.224 125.860  89.142  0.00  0.00    -0.014 C 
ATOM      2  C   UNL     1     136.821 126.262  87.796  0.00  0.00    +0.182 C 
ATOM      3  C   UNL     1     136.191 125.463  86.722  0.00  0.00    +0.107 C 
ATOM      4  N   UNL     1     135.708 124.810  85.890  0.00  0.00    -0.193 NA
ATOM      5  O   UNL     1     136.558 127.651  87.554  0.00  0.00    -0.475 OA
ATOM      6  C   UNL     1     137.471 128.583  87.959  0.00  0.00    +0.122 A 
ATOM      7  C   UNL     1     138.570 128.363  88.787  0.00  0.00    -0.020 A 
ATOM      8  C   UNL     1     139.420 129.424  89.123  0.00  0.00    -0.054 A 
ATOM      9  C   UNL     1     139.181 130.719  88.642  0.00  0.00    -0.033 A 
ATOM     10  C   UNL     1     140.110 131.855  89.004  0.00  0.00    +0.021 C 
ATOM     11  N   UNL     1     141.413 131.676  88.358  0.00  0.00    -0.309 N 
ATOM     12  C   UNL     1     142.263 132.879  88.464  0.00  0.00    +0.026 C 
ATOM     13  C   UNL     1     142.646 133.309  89.903  0.00  0.00    +0.093 C 
ATOM     14  O   UNL     1     141.546 133.974  90.536  0.00  0.00    -0.386 OA
ATOM     15  C   UNL     1     143.843 134.240  89.912  0.00  0.00    -0.018 A 
ATOM     16  C   UNL     1     143.742 135.554  89.426  0.00  0.00    -0.056 A 
ATOM     17  C   UNL     1     144.850 136.402  89.433  0.00  0.00    -0.061 A 
ATOM     18  C   UNL     1     146.073 135.948  89.922  0.00  0.00    -0.062 A 
ATOM     19  C   UNL     1     146.188 134.645  90.405  0.00  0.00    -0.061 A 
ATOM     20  C   UNL     1     145.081 133.795  90.400  0.00  0.00    -0.056 A 
ATOM     21  C   UNL     1     138.073 130.933  87.814  0.00  0.00    -0.054 A 
ATOM     22  C   UNL     1     137.227 129.872  87.481  0.00  0.00    -0.020 A 
ATOM     23  H   UNL     1     141.263 131.467  87.371  0.00  0.00    +0.000 HD
ATOM     24  H   UNL     1     141.894 130.912  88.833  0.00  0.00    +0.000 HD
ATOM     25  H   UNL     1     141.327 134.779  90.041  0.00  0.00    +0.000 HD
ENDROOT
TORSDOF 0
ENDMDL
MODEL 6
REMARK VINA RESULT:    -3.582     15.216     16.158
REMARK INTER + INTRA:          -3.582
REMARK INTER:                  -3.582
REMARK INTRA:                   0.000
REMARK UNBOUND:                 0.000
REMARK  Name = /home/vital/Documents/PhD_2021/Malaria_codes/scripts/../data/pdbqt_ligands/ligand_368_temp.pdb
REMARK                            x       y       z     vdW  Elec       q    Type
REMARK                         _______ _______ _______ _____ _____    ______ ____
ROOT
ATOM      1  C   UNL     1     143.588 135.359  89.395  0.00  0.00    -0.014 C 
ATOM      2  C   UNL     1     142.139 135.754  89.118  0.00  0.00    +0.182 C 
ATOM      3  C   UNL     1     142.040 137.228  89.035  0.00  0.00    +0.107 C 
ATOM      4  N   UNL     1     141.971 138.388  88.999  0.00  0.00    -0.193 NA
ATOM      5  O   UNL     1     141.724 135.191  87.867  0.00  0.00    -0.475 OA
ATOM      6  C   UNL     1     141.131 133.960  87.853  0.00  0.00    +0.122 A 
ATOM      7  C   UNL     1     141.061 133.061  88.916  0.00  0.00    -0.020 A 
ATOM      8  C   UNL     1     140.423 131.826  88.749  0.00  0.00    -0.054 A 
ATOM      9  C   UNL     1     139.853 131.469  87.519  0.00  0.00    -0.033 A 
ATOM     10  C   UNL     1     139.159 130.136  87.354  0.00  0.00    +0.021 C 
ATOM     11  N   UNL     1     137.915 130.107  88.128  0.00  0.00    -0.309 N 
ATOM     12  C   UNL     1     137.075 128.940  87.797  0.00  0.00    +0.026 C 
ATOM     13  C   UNL     1     137.699 127.552  88.094  0.00  0.00    +0.093 C 
ATOM     14  O   UNL     1     138.655 127.209  87.084  0.00  0.00    -0.386 OA
ATOM     15  C   UNL     1     136.647 126.462  88.154  0.00  0.00    -0.018 A 
ATOM     16  C   UNL     1     135.978 126.038  86.995  0.00  0.00    -0.056 A 
ATOM     17  C   UNL     1     135.007 125.038  87.061  0.00  0.00    -0.061 A 
ATOM     18  C   UNL     1     134.690 124.452  88.285  0.00  0.00    -0.062 A 
ATOM     19  C   UNL     1     135.345 124.866  89.444  0.00  0.00    -0.061 A 
ATOM     20  C   UNL     1     136.317 125.866  89.381  0.00  0.00    -0.056 A 
ATOM     21  C   UNL     1     139.931 132.375  86.456  0.00  0.00    -0.054 A 
ATOM     22  C   UNL     1     140.569 133.607  86.625  0.00  0.00    -0.020 A 
ATOM     23  H   UNL     1     137.387 130.957  87.931  0.00  0.00    +0.000 HD
ATOM     24  H   UNL     1     138.164 130.042  89.115  0.00  0.00    +0.000 HD
ATOM     25  H   UNL     1     138.210 127.148  86.225  0.00  0.00    +0.000 HD
ENDROOT
TORSDOF 0
ENDMDL
MODEL 7
REMARK VINA RESULT:    -3.394      2.321      9.964
REMARK INTER + INTRA:          -3.394
REMARK INTER:                  -3.394
REMARK INTRA:                   0.000
REMARK UNBOUND:                 0.000
REMARK  Name = /home/vital/Documents/PhD_2021/Malaria_codes/scripts/../data/pdbqt_ligands/ligand_368_temp.pdb
REMARK                            x       y       z     vdW  Elec       q    Type
REMARK                         _______ _______ _______ _____ _____    ______ ____
ROOT
ATOM      1  C   UNL     1     139.632 122.597 106.794  0.00  0.00    -0.014 C 
ATOM      2  C   UNL     1     140.528 123.632 107.472  0.00  0.00    +0.182 C 
ATOM      3  C   UNL     1     140.788 123.215 108.868  0.00  0.00    +0.107 C 
ATOM      4  N   UNL     1     140.963 122.890 109.970  0.00  0.00    -0.193 NA
ATOM      5  O   UNL     1     141.776 123.711 106.772  0.00  0.00    -0.475 OA
ATOM      6  C   UNL     1     141.917 124.617 105.759  0.00  0.00    +0.122 A 
ATOM      7  C   UNL     1     140.900 125.360 105.163  0.00  0.00    -0.020 A 
ATOM      8  C   UNL     1     141.197 126.250 104.124  0.00  0.00    -0.054 A 
ATOM      9  C   UNL     1     142.511 126.406 103.662  0.00  0.00    -0.033 A 
ATOM     10  C   UNL     1     142.821 127.378 102.546  0.00  0.00    +0.021 C 
ATOM     11  N   UNL     1     142.641 128.757 103.003  0.00  0.00    -0.309 N 
ATOM     12  C   UNL     1     143.177 129.742 102.043  0.00  0.00    +0.026 C 
ATOM     13  C   UNL     1     142.512 129.752 100.643  0.00  0.00    +0.093 C 
ATOM     14  O   UNL     1     142.991 128.654  99.855  0.00  0.00    -0.386 OA
ATOM     15  C   UNL     1     142.793 131.041  99.896  0.00  0.00    -0.018 A 
ATOM     16  C   UNL     1     144.078 131.331  99.410  0.00  0.00    -0.056 A 
ATOM     17  C   UNL     1     144.328 132.523  98.728  0.00  0.00    -0.061 A 
ATOM     18  C   UNL     1     143.299 133.439  98.525  0.00  0.00    -0.062 A 
ATOM     19  C   UNL     1     142.019 133.165  99.004  0.00  0.00    -0.061 A 
ATOM     20  C   UNL     1     141.766 131.973  99.686  0.00  0.00    -0.056 A 
ATOM     21  C   UNL     1     143.527 125.655 104.264  0.00  0.00    -0.054 A 
ATOM     22  C   UNL     1     143.227 124.766 105.299  0.00  0.00    -0.020 A 
ATOM     23  H   UNL     1     143.122 128.873 103.894  0.00  0.00    +0.000 HD
ATOM     24  H   UNL     1     141.639 128.926 103.095  0.00  0.00    +0.000 HD
ATOM     25  H   UNL     1     143.947 128.744  99.722  0.00  0.00    +0.000 HD
ENDROOT
TORSDOF 0
ENDMDL
MODEL 8
REMARK VINA RESULT:    -3.170      2.634      9.939
REMARK INTER + INTRA:          -3.170
REMARK INTER:                  -3.170
REMARK INTRA:                   0.000
REMARK UNBOUND:                 0.000
REMARK  Name = /home/vital/Documents/PhD_2021/Malaria_codes/scripts/../data/pdbqt_ligands/ligand_368_temp.pdb
REMARK                            x       y       z     vdW  Elec       q    Type
REMARK                         _______ _______ _______ _____ _____    ______ ____
ROOT
ATOM      1  C   UNL     1     141.160 121.141 105.896  0.00  0.00    -0.014 C 
ATOM      2  C   UNL     1     139.907 122.004 105.761  0.00  0.00    +0.182 C 
ATOM      3  C   UNL     1     138.805 121.395 106.539  0.00  0.00    +0.107 C 
ATOM      4  N   UNL     1     137.941 120.892 107.131  0.00  0.00    -0.193 NA
ATOM      5  O   UNL     1     140.173 123.313 106.283  0.00  0.00    -0.475 OA
ATOM      6  C   UNL     1     140.634 124.285 105.443  0.00  0.00    +0.122 A 
ATOM      7  C   UNL     1     141.089 124.107 104.137  0.00  0.00    -0.020 A 
ATOM      8  C   UNL     1     141.541 125.205 103.395  0.00  0.00    -0.054 A 
ATOM      9  C   UNL     1     141.551 126.493 103.947  0.00  0.00    -0.033 A 
ATOM     10  C   UNL     1     142.033 127.672 103.132  0.00  0.00    +0.021 C 
ATOM     11  N   UNL     1     141.092 127.964 102.048  0.00  0.00    -0.309 N 
ATOM     12  C   UNL     1     141.375 129.254 101.390  0.00  0.00    +0.026 C 
ATOM     13  C   UNL     1     142.754 129.367 100.691  0.00  0.00    +0.093 C 
ATOM     14  O   UNL     1     143.789 129.581 101.659  0.00  0.00    -0.386 OA
ATOM     15  C   UNL     1     142.786 130.506  99.690  0.00  0.00    -0.018 A 
ATOM     16  C   UNL     1     142.767 131.844 100.115  0.00  0.00    -0.056 A 
ATOM     17  C   UNL     1     142.791 132.885  99.187  0.00  0.00    -0.061 A 
ATOM     18  C   UNL     1     142.833 132.603  97.823  0.00  0.00    -0.062 A 
ATOM     19  C   UNL     1     142.849 131.279  97.387  0.00  0.00    -0.061 A 
ATOM     20  C   UNL     1     142.825 130.236  98.314  0.00  0.00    -0.056 A 
ATOM     21  C   UNL     1     141.096 126.664 105.259  0.00  0.00    -0.054 A 
ATOM     22  C   UNL     1     140.647 125.567 105.998  0.00  0.00    -0.020 A 
ATOM     23  H   UNL     1     140.147 127.993 102.432  0.00  0.00    +0.000 HD
ATOM     24  H   UNL     1     141.187 127.229 101.347  0.00  0.00    +0.000 HD
ATOM     25  H   UNL     1     143.629 130.418 102.123  0.00  0.00    +0.000 HD
ENDROOT
TORSDOF 0
ENDMDL
