MODEL 1
REMARK VINA RESULT:    -5.098      0.000      0.000
REMARK INTER + INTRA:          -5.098
REMARK INTER:                  -5.098
REMARK INTRA:                   0.000
REMARK UNBOUND:                 0.000
REMARK  Name = /home/vital/Documents/PhD_2021/Malaria_codes/scripts/../data/pdbqt_ligands/ligand_146_temp.pdb
REMARK                            x       y       z     vdW  Elec       q    Type
REMARK                         _______ _______ _______ _____ _____    ______ ____
ROOT
ATOM      1  C1  UNL     1     141.681 122.634 104.445  0.00  0.00    -0.031 C 
ATOM      2  C2  UNL     1     141.006 123.982 104.275  0.00  0.00    +0.090 C 
ATOM      3  O1  UNL     1     141.998 124.928 103.857  0.00  0.00    -0.461 OA
ATOM      4  C3  UNL     1     141.523 126.182 103.661  0.00  0.00    +0.342 C 
ATOM      5  O2  UNL     1     140.366 126.546 103.821  0.00  0.00    -0.245 OA
ATOM      6  C4  UNL     1     142.602 127.087 103.206  0.00  0.00    +0.099 A 
ATOM      7  C5  UNL     1     143.927 126.784 103.453  0.00  0.00    +0.044 A 
ATOM      8  N1  UNL     1     144.964 127.572 103.092  0.00  0.00    -0.254 NA
ATOM      9  C6  UNL     1     144.719 128.739 102.463  0.00  0.00    +0.076 A 
ATOM     10  C7  UNL     1     145.795 129.568 102.088  0.00  0.00    -0.022 A 
ATOM     11  C8  UNL     1     147.206 129.124 102.410  0.00  0.00    -0.037 C 
ATOM     12  C9  UNL     1     145.570 130.825 101.480  0.00  0.00    -0.045 A 
ATOM     13  C10 UNL     1     146.702 131.742 101.103  0.00  0.00    -0.039 C 
ATOM     14  C11 UNL     1     144.263 131.221 101.205  0.00  0.00    -0.058 A 
ATOM     15  C12 UNL     1     143.194 130.397 101.547  0.00  0.00    -0.050 A 
ATOM     16  C13 UNL     1     143.397 129.149 102.172  0.00  0.00    +0.023 A 
ATOM     17  C14 UNL     1     142.318 128.293 102.545  0.00  0.00    +0.056 A 
ATOM     18  N2  UNL     1     140.973 128.613 102.172  0.00  0.00    -0.313 N 
ATOM     19  C15 UNL     1     140.417 128.468 100.871  0.00  0.00    +0.032 A 
ATOM     20  C16 UNL     1     139.041 128.700 100.709  0.00  0.00    -0.037 A 
ATOM     21  C17 UNL     1     138.438 128.624  99.450  0.00  0.00    -0.018 A 
ATOM     22  C18 UNL     1     139.218 128.329  98.339  0.00  0.00    +0.117 A 
ATOM     23  O3  UNL     1     138.676 128.244  97.092  0.00  0.00    -0.507 OA
ATOM     24  C19 UNL     1     140.583 128.116  98.470  0.00  0.00    -0.018 A 
ATOM     25  C20 UNL     1     141.182 128.193  99.730  0.00  0.00    -0.037 A 
ATOM     26  H   UNL     1     140.383 128.963 102.877  0.00  0.00    +0.000 HD
ATOM     27  H   UNL     1     137.758 128.382  96.970  0.00  0.00    +0.000 HD
ENDROOT
TORSDOF 0
ENDMDL
MODEL 2
REMARK VINA RESULT:    -5.071      2.139      3.029
REMARK INTER + INTRA:          -5.071
REMARK INTER:                  -5.071
REMARK INTRA:                   0.000
REMARK UNBOUND:                 0.000
REMARK  Name = /home/vital/Documents/PhD_2021/Malaria_codes/scripts/../data/pdbqt_ligands/ligand_146_temp.pdb
REMARK                            x       y       z     vdW  Elec       q    Type
REMARK                         _______ _______ _______ _____ _____    ______ ____
ROOT
ATOM      1  C1  UNL     1     145.121 125.325 103.818  0.00  0.00    -0.031 C 
ATOM      2  C2  UNL     1     143.973 126.316 103.822  0.00  0.00    +0.090 C 
ATOM      3  O1  UNL     1     144.297 127.380 102.919  0.00  0.00    -0.461 OA
ATOM      4  C3  UNL     1     143.344 128.339 102.823  0.00  0.00    +0.342 C 
ATOM      5  O2  UNL     1     142.284 128.362 103.433  0.00  0.00    -0.245 OA
ATOM      6  C4  UNL     1     143.745 129.382 101.853  0.00  0.00    +0.099 A 
ATOM      7  C5  UNL     1     145.074 129.568 101.527  0.00  0.00    +0.044 A 
ATOM      8  N1  UNL     1     145.518 130.516 100.672  0.00  0.00    -0.254 NA
ATOM      9  C6  UNL     1     144.634 131.355 100.097  0.00  0.00    +0.076 A 
ATOM     10  C7  UNL     1     145.091 132.347  99.208  0.00  0.00    -0.022 A 
ATOM     11  C8  UNL     1     146.574 132.449  98.926  0.00  0.00    -0.037 C 
ATOM     12  C9  UNL     1     144.196 133.280  98.634  0.00  0.00    -0.045 A 
ATOM     13  C10 UNL     1     144.665 134.371  97.710  0.00  0.00    -0.039 C 
ATOM     14  C11 UNL     1     142.835 133.178  98.918  0.00  0.00    -0.058 A 
ATOM     15  C12 UNL     1     142.371 132.184  99.774  0.00  0.00    -0.050 A 
ATOM     16  C13 UNL     1     143.250 131.256 100.372  0.00  0.00    +0.023 A 
ATOM     17  C14 UNL     1     142.800 130.237 101.263  0.00  0.00    +0.056 A 
ATOM     18  N2  UNL     1     141.401 130.028 101.483  0.00  0.00    -0.313 N 
ATOM     19  C15 UNL     1     140.504 129.397 100.577  0.00  0.00    +0.032 A 
ATOM     20  C16 UNL     1     139.189 129.153 101.009  0.00  0.00    -0.037 A 
ATOM     21  C17 UNL     1     138.243 128.582 100.154  0.00  0.00    -0.018 A 
ATOM     22  C18 UNL     1     138.605 128.266  98.850  0.00  0.00    +0.117 A 
ATOM     23  O3  UNL     1     137.718 127.708  97.980  0.00  0.00    -0.507 OA
ATOM     24  C19 UNL     1     139.891 128.518  98.394  0.00  0.00    -0.018 A 
ATOM     25  C20 UNL     1     140.835 129.089  99.252  0.00  0.00    -0.037 A 
ATOM     26  H   UNL     1     141.028 130.349 102.335  0.00  0.00    +0.000 HD
ATOM     27  H   UNL     1     136.842 127.526  98.257  0.00  0.00    +0.000 HD
ENDROOT
TORSDOF 0
ENDMDL
MODEL 3
REMARK VINA RESULT:    -4.610      9.203     12.815
REMARK INTER + INTRA:          -4.610
REMARK INTER:                  -4.610
REMARK INTRA:                   0.000
REMARK UNBOUND:                 0.000
REMARK  Name = /home/vital/Documents/PhD_2021/Malaria_codes/scripts/../data/pdbqt_ligands/ligand_146_temp.pdb
REMARK                            x       y       z     vdW  Elec       q    Type
REMARK                         _______ _______ _______ _____ _____    ______ ____
ROOT
ATOM      1  C1  UNL     1     145.480 133.879  93.521  0.00  0.00    -0.031 C 
ATOM      2  C2  UNL     1     144.166 133.174  93.799  0.00  0.00    +0.090 C 
ATOM      3  O1  UNL     1     143.463 133.036  92.558  0.00  0.00    -0.461 OA
ATOM      4  C3  UNL     1     142.264 132.412  92.664  0.00  0.00    +0.342 C 
ATOM      5  O2  UNL     1     141.762 131.991  93.696  0.00  0.00    -0.245 OA
ATOM      6  C4  UNL     1     141.619 132.287  91.338  0.00  0.00    +0.099 A 
ATOM      7  C5  UNL     1     141.972 133.127  90.300  0.00  0.00    +0.044 A 
ATOM      8  N1  UNL     1     141.409 133.090  89.071  0.00  0.00    -0.254 NA
ATOM      9  C6  UNL     1     140.430 132.199  88.819  0.00  0.00    +0.076 A 
ATOM     10  C7  UNL     1     139.837 132.159  87.542  0.00  0.00    -0.022 A 
ATOM     11  C8  UNL     1     140.314 133.129  86.484  0.00  0.00    -0.037 C 
ATOM     12  C9  UNL     1     138.768 131.276  87.262  0.00  0.00    -0.045 A 
ATOM     13  C10 UNL     1     138.094 131.239  85.917  0.00  0.00    -0.039 C 
ATOM     14  C11 UNL     1     138.334 130.400  88.256  0.00  0.00    -0.058 A 
ATOM     15  C12 UNL     1     138.932 130.413  89.512  0.00  0.00    -0.050 A 
ATOM     16  C13 UNL     1     139.986 131.300  89.817  0.00  0.00    +0.023 A 
ATOM     17  C14 UNL     1     140.607 131.342  91.101  0.00  0.00    +0.056 A 
ATOM     18  N2  UNL     1     140.269 130.379  92.105  0.00  0.00    -0.313 N 
ATOM     19  C15 UNL     1     140.696 129.023  92.130  0.00  0.00    +0.032 A 
ATOM     20  C16 UNL     1     140.383 128.251  93.261  0.00  0.00    -0.037 A 
ATOM     21  C17 UNL     1     140.729 126.898  93.330  0.00  0.00    -0.018 A 
ATOM     22  C18 UNL     1     141.379 126.305  92.255  0.00  0.00    +0.117 A 
ATOM     23  O3  UNL     1     141.735 124.991  92.276  0.00  0.00    -0.507 OA
ATOM     24  C19 UNL     1     141.679 127.042  91.118  0.00  0.00    -0.018 A 
ATOM     25  C20 UNL     1     141.332 128.394  91.052  0.00  0.00    -0.037 A 
ATOM     26  H   UNL     1     139.691 130.683  92.841  0.00  0.00    +0.000 HD
ATOM     27  H   UNL     1     141.546 124.466  93.029  0.00  0.00    +0.000 HD
ENDROOT
TORSDOF 0
ENDMDL
MODEL 4
REMARK VINA RESULT:    -4.204     12.013     15.529
REMARK INTER + INTRA:          -4.204
REMARK INTER:                  -4.204
REMARK INTRA:                   0.000
REMARK UNBOUND:                 0.000
REMARK  Name = /home/vital/Documents/PhD_2021/Malaria_codes/scripts/../data/pdbqt_ligands/ligand_146_temp.pdb
REMARK                            x       y       z     vdW  Elec       q    Type
REMARK                         _______ _______ _______ _____ _____    ______ ____
ROOT
ATOM      1  C1  UNL     1     135.588 130.713  85.474  0.00  0.00    -0.031 C 
ATOM      2  C2  UNL     1     135.483 129.205  85.352  0.00  0.00    +0.090 C 
ATOM      3  O1  UNL     1     136.227 128.618  86.428  0.00  0.00    -0.461 OA
ATOM      4  C3  UNL     1     136.211 127.263  86.441  0.00  0.00    +0.342 C 
ATOM      5  O2  UNL     1     135.643 126.543  85.631  0.00  0.00    -0.245 OA
ATOM      6  C4  UNL     1     136.976 126.740  87.594  0.00  0.00    +0.099 A 
ATOM      7  C5  UNL     1     137.940 127.515  88.210  0.00  0.00    +0.044 A 
ATOM      8  N1  UNL     1     138.697 127.097  89.249  0.00  0.00    -0.254 NA
ATOM      9  C6  UNL     1     138.533 125.847  89.726  0.00  0.00    +0.076 A 
ATOM     10  C7  UNL     1     139.321 125.405  90.807  0.00  0.00    -0.022 A 
ATOM     11  C8  UNL     1     140.343 126.350  91.401  0.00  0.00    -0.037 C 
ATOM     12  C9  UNL     1     139.215 124.081  91.292  0.00  0.00    -0.045 A 
ATOM     13  C10 UNL     1     140.072 123.574  92.421  0.00  0.00    -0.039 C 
ATOM     14  C11 UNL     1     138.278 123.221  90.721  0.00  0.00    -0.058 A 
ATOM     15  C12 UNL     1     137.476 123.658  89.671  0.00  0.00    -0.050 A 
ATOM     16  C13 UNL     1     137.580 124.968  89.160  0.00  0.00    +0.023 A 
ATOM     17  C14 UNL     1     136.779 125.436  88.076  0.00  0.00    +0.056 A 
ATOM     18  N2  UNL     1     135.727 124.622  87.545  0.00  0.00    -0.313 N 
ATOM     19  C15 UNL     1     134.464 124.394  88.159  0.00  0.00    +0.032 A 
ATOM     20  C16 UNL     1     133.495 123.678  87.437  0.00  0.00    -0.037 A 
ATOM     21  C17 UNL     1     132.252 123.376  87.999  0.00  0.00    -0.018 A 
ATOM     22  C18 UNL     1     131.977 123.778  89.300  0.00  0.00    +0.117 A 
ATOM     23  O3  UNL     1     130.780 123.506  89.891  0.00  0.00    -0.507 OA
ATOM     24  C19 UNL     1     132.926 124.467  90.042  0.00  0.00    -0.018 A 
ATOM     25  C20 UNL     1     134.168 124.768  89.477  0.00  0.00    -0.037 A 
ATOM     26  H   UNL     1     135.892 124.183  86.680  0.00  0.00    +0.000 HD
ATOM     27  H   UNL     1     130.119 123.042  89.417  0.00  0.00    +0.000 HD
ENDROOT
TORSDOF 0
ENDMDL
MODEL 5
REMARK VINA RESULT:    -4.155     11.667     15.014
REMARK INTER + INTRA:          -4.155
REMARK INTER:                  -4.155
REMARK INTRA:                   0.000
REMARK UNBOUND:                 0.000
REMARK  Name = /home/vital/Documents/PhD_2021/Malaria_codes/scripts/../data/pdbqt_ligands/ligand_146_temp.pdb
REMARK                            x       y       z     vdW  Elec       q    Type
REMARK                         _______ _______ _______ _____ _____    ______ ____
ROOT
ATOM      1  C1  UNL     1     137.341 130.971  87.295  0.00  0.00    -0.031 C 
ATOM      2  C2  UNL     1     136.968 129.583  86.810  0.00  0.00    +0.090 C 
ATOM      3  O1  UNL     1     137.455 128.631  87.763  0.00  0.00    -0.461 OA
ATOM      4  C3  UNL     1     137.182 127.341  87.452  0.00  0.00    +0.342 C 
ATOM      5  O2  UNL     1     136.588 126.953  86.456  0.00  0.00    -0.245 OA
ATOM      6  C4  UNL     1     137.693 126.428  88.498  0.00  0.00    +0.099 A 
ATOM      7  C5  UNL     1     138.707 126.828  89.348  0.00  0.00    +0.044 A 
ATOM      8  N1  UNL     1     139.243 126.042  90.308  0.00  0.00    -0.254 NA
ATOM      9  C6  UNL     1     138.791 124.782  90.460  0.00  0.00    +0.076 A 
ATOM     10  C7  UNL     1     139.348 123.956  91.457  0.00  0.00    -0.022 A 
ATOM     11  C8  UNL     1     140.453 124.510  92.330  0.00  0.00    -0.037 C 
ATOM     12  C9  UNL     1     138.937 122.611  91.604  0.00  0.00    -0.045 A 
ATOM     13  C10 UNL     1     139.543 121.700  92.637  0.00  0.00    -0.039 C 
ATOM     14  C11 UNL     1     137.929 122.116  90.779  0.00  0.00    -0.058 A 
ATOM     15  C12 UNL     1     137.352 122.932  89.810  0.00  0.00    -0.050 A 
ATOM     16  C13 UNL     1     137.762 124.270  89.635  0.00  0.00    +0.023 A 
ATOM     17  C14 UNL     1     137.197 125.122  88.639  0.00  0.00    +0.056 A 
ATOM     18  N2  UNL     1     136.080 124.686  87.857  0.00  0.00    -0.313 N 
ATOM     19  C15 UNL     1     134.734 124.601  88.308  0.00  0.00    +0.032 A 
ATOM     20  C16 UNL     1     133.739 124.282  87.369  0.00  0.00    -0.037 A 
ATOM     21  C17 UNL     1     132.403 124.134  87.754  0.00  0.00    -0.018 A 
ATOM     22  C18 UNL     1     132.059 124.289  89.091  0.00  0.00    +0.117 A 
ATOM     23  O3  UNL     1     130.771 124.154  89.514  0.00  0.00    -0.507 OA
ATOM     24  C19 UNL     1     133.027 124.583  90.041  0.00  0.00    -0.018 A 
ATOM     25  C20 UNL     1     134.361 124.730  89.652  0.00  0.00    -0.037 A 
ATOM     26  H   UNL     1     136.260 124.422  86.926  0.00  0.00    +0.000 HD
ATOM     27  H   UNL     1     130.094 123.956  88.897  0.00  0.00    +0.000 HD
ENDROOT
TORSDOF 0
ENDMDL
MODEL 6
REMARK VINA RESULT:    -3.651      4.474      7.763
REMARK INTER + INTRA:          -3.651
REMARK INTER:                  -3.651
REMARK INTRA:                   0.000
REMARK UNBOUND:                 0.000
REMARK  Name = /home/vital/Documents/PhD_2021/Malaria_codes/scripts/../data/pdbqt_ligands/ligand_146_temp.pdb
REMARK                            x       y       z     vdW  Elec       q    Type
REMARK                         _______ _______ _______ _____ _____    ______ ____
ROOT
ATOM      1  C1  UNL     1     145.142 129.667  94.219  0.00  0.00    -0.031 C 
ATOM      2  C2  UNL     1     143.682 129.375  94.509  0.00  0.00    +0.090 C 
ATOM      3  O1  UNL     1     143.599 128.083  95.123  0.00  0.00    -0.461 OA
ATOM      4  C3  UNL     1     142.339 127.697  95.441  0.00  0.00    +0.342 C 
ATOM      5  O2  UNL     1     141.318 128.340  95.240  0.00  0.00    -0.245 OA
ATOM      6  C4  UNL     1     142.345 126.369  96.094  0.00  0.00    +0.099 A 
ATOM      7  C5  UNL     1     143.405 125.501  95.914  0.00  0.00    +0.044 A 
ATOM      8  N1  UNL     1     143.469 124.264  96.455  0.00  0.00    -0.254 NA
ATOM      9  C6  UNL     1     142.445 123.817  97.208  0.00  0.00    +0.076 A 
ATOM     10  C7  UNL     1     142.504 122.527  97.771  0.00  0.00    -0.022 A 
ATOM     11  C8  UNL     1     143.722 121.670  97.506  0.00  0.00    -0.037 C 
ATOM     12  C9  UNL     1     141.421 122.007  98.518  0.00  0.00    -0.045 A 
ATOM     13  C10 UNL     1     141.446 120.618  99.098  0.00  0.00    -0.039 C 
ATOM     14  C11 UNL     1     140.302 122.807  98.738  0.00  0.00    -0.058 A 
ATOM     15  C12 UNL     1     140.245 124.094  98.209  0.00  0.00    -0.050 A 
ATOM     16  C13 UNL     1     141.307 124.623  97.445  0.00  0.00    +0.023 A 
ATOM     17  C14 UNL     1     141.267 125.933  96.881  0.00  0.00    +0.056 A 
ATOM     18  N2  UNL     1     140.189 126.824  97.185  0.00  0.00    -0.313 N 
ATOM     19  C15 UNL     1     140.015 127.529  98.409  0.00  0.00    +0.032 A 
ATOM     20  C16 UNL     1     138.974 128.468  98.491  0.00  0.00    -0.037 A 
ATOM     21  C17 UNL     1     138.716 129.160  99.678  0.00  0.00    -0.018 A 
ATOM     22  C18 UNL     1     139.494 128.900 100.799  0.00  0.00    +0.117 A 
ATOM     23  O3  UNL     1     139.281 129.549 101.979  0.00  0.00    -0.507 OA
ATOM     24  C19 UNL     1     140.515 127.961 100.750  0.00  0.00    -0.018 A 
ATOM     25  C20 UNL     1     140.770 127.272  99.561  0.00  0.00    -0.037 A 
ATOM     26  H   UNL     1     139.509 126.961  96.487  0.00  0.00    +0.000 HD
ATOM     27  H   UNL     1     138.600 130.188 102.045  0.00  0.00    +0.000 HD
ENDROOT
TORSDOF 0
ENDMDL
MODEL 7
REMARK VINA RESULT:    -3.513      4.235      6.661
REMARK INTER + INTRA:          -3.513
REMARK INTER:                  -3.513
REMARK INTRA:                   0.000
REMARK UNBOUND:                 0.000
REMARK  Name = /home/vital/Documents/PhD_2021/Malaria_codes/scripts/../data/pdbqt_ligands/ligand_146_temp.pdb
REMARK                            x       y       z     vdW  Elec       q    Type
REMARK                         _______ _______ _______ _____ _____    ______ ____
ROOT
ATOM      1  C1  UNL     1     140.601 126.873  93.008  0.00  0.00    -0.031 C 
ATOM      2  C2  UNL     1     141.282 126.789  94.361  0.00  0.00    +0.090 C 
ATOM      3  O1  UNL     1     141.954 128.033  94.600  0.00  0.00    -0.461 OA
ATOM      4  C3  UNL     1     142.604 128.094  95.788  0.00  0.00    +0.342 C 
ATOM      5  O2  UNL     1     142.663 127.202  96.622  0.00  0.00    -0.245 OA
ATOM      6  C4  UNL     1     143.244 129.416  95.967  0.00  0.00    +0.099 A 
ATOM      7  C5  UNL     1     143.535 130.212  94.876  0.00  0.00    +0.044 A 
ATOM      8  N1  UNL     1     144.143 131.417  94.959  0.00  0.00    -0.254 NA
ATOM      9  C6  UNL     1     144.512 131.890  96.166  0.00  0.00    +0.076 A 
ATOM     10  C7  UNL     1     145.149 133.143  96.258  0.00  0.00    -0.022 A 
ATOM     11  C8  UNL     1     145.409 133.926  94.990  0.00  0.00    -0.037 C 
ATOM     12  C9  UNL     1     145.601 133.641  97.502  0.00  0.00    -0.045 A 
ATOM     13  C10 UNL     1     146.316 134.960  97.621  0.00  0.00    -0.039 C 
ATOM     14  C11 UNL     1     145.365 132.898  98.657  0.00  0.00    -0.058 A 
ATOM     15  C12 UNL     1     144.712 131.671  98.580  0.00  0.00    -0.050 A 
ATOM     16  C13 UNL     1     144.270 131.148  97.346  0.00  0.00    +0.023 A 
ATOM     17  C14 UNL     1     143.611 129.888  97.238  0.00  0.00    +0.056 A 
ATOM     18  N2  UNL     1     143.246 129.155  98.413  0.00  0.00    -0.313 N 
ATOM     19  C15 UNL     1     142.158 129.460  99.277  0.00  0.00    +0.032 A 
ATOM     20  C16 UNL     1     141.858 128.557 100.310  0.00  0.00    -0.037 A 
ATOM     21  C17 UNL     1     140.834 128.819 101.225  0.00  0.00    -0.018 A 
ATOM     22  C18 UNL     1     140.113 130.001 101.118  0.00  0.00    +0.117 A 
ATOM     23  O3  UNL     1     139.106 130.302 101.985  0.00  0.00    -0.507 OA
ATOM     24  C19 UNL     1     140.404 130.920 100.118  0.00  0.00    -0.018 A 
ATOM     25  C20 UNL     1     141.428 130.654  99.206  0.00  0.00    -0.037 A 
ATOM     26  H   UNL     1     143.796 128.371  98.642  0.00  0.00    +0.000 HD
ATOM     27  H   UNL     1     138.885 129.702 102.671  0.00  0.00    +0.000 HD
ENDROOT
TORSDOF 0
ENDMDL
MODEL 8
REMARK VINA RESULT:    -3.390      2.296      2.678
REMARK INTER + INTRA:          -3.390
REMARK INTER:                  -3.390
REMARK INTRA:                   0.000
REMARK UNBOUND:                 0.000
REMARK  Name = /home/vital/Documents/PhD_2021/Malaria_codes/scripts/../data/pdbqt_ligands/ligand_146_temp.pdb
REMARK                            x       y       z     vdW  Elec       q    Type
REMARK                         _______ _______ _______ _____ _____    ______ ____
ROOT
ATOM      1  C1  UNL     1     140.162 124.160 106.561  0.00  0.00    -0.031 C 
ATOM      2  C2  UNL     1     140.367 125.526 105.934  0.00  0.00    +0.090 C 
ATOM      3  O1  UNL     1     141.413 125.418 104.959  0.00  0.00    -0.461 OA
ATOM      4  C3  UNL     1     141.695 126.577 104.315  0.00  0.00    +0.342 C 
ATOM      5  O2  UNL     1     141.153 127.656 104.506  0.00  0.00    -0.245 OA
ATOM      6  C4  UNL     1     142.762 126.372 103.311  0.00  0.00    +0.099 A 
ATOM      7  C5  UNL     1     143.634 125.305 103.416  0.00  0.00    +0.044 A 
ATOM      8  N1  UNL     1     144.649 125.069 102.555  0.00  0.00    -0.254 NA
ATOM      9  C6  UNL     1     144.855 125.916 101.528  0.00  0.00    +0.076 A 
ATOM     10  C7  UNL     1     145.913 125.678 100.629  0.00  0.00    -0.022 A 
ATOM     11  C8  UNL     1     146.799 124.470 100.847  0.00  0.00    -0.037 C 
ATOM     12  C9  UNL     1     146.193 126.579  99.576  0.00  0.00    -0.045 A 
ATOM     13  C10 UNL     1     147.339 126.364  98.625  0.00  0.00    -0.039 C 
ATOM     14  C11 UNL     1     145.374 127.693  99.401  0.00  0.00    -0.058 A 
ATOM     15  C12 UNL     1     144.309 127.923 100.267  0.00  0.00    -0.050 A 
ATOM     16  C13 UNL     1     144.026 127.046 101.335  0.00  0.00    +0.023 A 
ATOM     17  C14 UNL     1     142.949 127.267 102.245  0.00  0.00    +0.056 A 
ATOM     18  N2  UNL     1     142.018 128.332 102.025  0.00  0.00    -0.313 N 
ATOM     19  C15 UNL     1     140.977 128.337 101.056  0.00  0.00    +0.032 A 
ATOM     20  C16 UNL     1     140.067 129.407 101.066  0.00  0.00    -0.037 A 
ATOM     21  C17 UNL     1     139.051 129.500 100.111  0.00  0.00    -0.018 A 
ATOM     22  C18 UNL     1     138.950 128.525  99.127  0.00  0.00    +0.117 A 
ATOM     23  O3  UNL     1     137.977 128.573  98.174  0.00  0.00    -0.507 OA
ATOM     24  C19 UNL     1     139.850 127.469  99.083  0.00  0.00    -0.018 A 
ATOM     25  C20 UNL     1     140.865 127.380 100.039  0.00  0.00    -0.037 A 
ATOM     26  H   UNL     1     142.105 129.130 102.595  0.00  0.00    +0.000 HD
ATOM     27  H   UNL     1     137.354 129.272  98.176  0.00  0.00    +0.000 HD
ENDROOT
TORSDOF 0
ENDMDL
MODEL 9
REMARK VINA RESULT:    -3.350      4.495      6.475
REMARK INTER + INTRA:          -3.350
REMARK INTER:                  -3.350
REMARK INTRA:                   0.000
REMARK UNBOUND:                 0.000
REMARK  Name = /home/vital/Documents/PhD_2021/Malaria_codes/scripts/../data/pdbqt_ligands/ligand_146_temp.pdb
REMARK                            x       y       z     vdW  Elec       q    Type
REMARK                         _______ _______ _______ _____ _____    ______ ____
ROOT
ATOM      1  C1  UNL     1     145.697 121.816  97.473  0.00  0.00    -0.031 C 
ATOM      2  C2  UNL     1     144.411 122.225  96.782  0.00  0.00    +0.090 C 
ATOM      3  O1  UNL     1     143.785 123.245  97.571  0.00  0.00    -0.461 OA
ATOM      4  C3  UNL     1     142.618 123.708  97.059  0.00  0.00    +0.342 C 
ATOM      5  O2  UNL     1     142.085 123.325  96.027  0.00  0.00    -0.245 OA
ATOM      6  C4  UNL     1     142.055 124.773  97.916  0.00  0.00    +0.099 A 
ATOM      7  C5  UNL     1     142.417 124.874  99.246  0.00  0.00    +0.044 A 
ATOM      8  N1  UNL     1     141.925 125.802 100.097  0.00  0.00    -0.254 NA
ATOM      9  C6  UNL     1     141.012 126.688  99.652  0.00  0.00    +0.076 A 
ATOM     10  C7  UNL     1     140.493 127.655 100.535  0.00  0.00    -0.022 A 
ATOM     11  C8  UNL     1     140.972 127.668 101.970  0.00  0.00    -0.037 C 
ATOM     12  C9  UNL     1     139.491 128.562 100.116  0.00  0.00    -0.045 A 
ATOM     13  C10 UNL     1     138.895 129.580 101.050  0.00  0.00    -0.039 C 
ATOM     14  C11 UNL     1     139.052 128.524  98.794  0.00  0.00    -0.058 A 
ATOM     15  C12 UNL     1     139.579 127.591  97.907  0.00  0.00    -0.050 A 
ATOM     16  C13 UNL     1     140.565 126.665  98.310  0.00  0.00    +0.023 A 
ATOM     17  C14 UNL     1     141.111 125.689  97.424  0.00  0.00    +0.056 A 
ATOM     18  N2  UNL     1     140.772 125.699  96.033  0.00  0.00    -0.313 N 
ATOM     19  C15 UNL     1     141.271 126.613  95.064  0.00  0.00    +0.032 A 
ATOM     20  C16 UNL     1     140.940 126.397  93.716  0.00  0.00    -0.037 A 
ATOM     21  C17 UNL     1     141.356 127.283  92.719  0.00  0.00    -0.018 A 
ATOM     22  C18 UNL     1     142.095 128.405  93.071  0.00  0.00    +0.117 A 
ATOM     23  O3  UNL     1     142.522 129.298  92.134  0.00  0.00    -0.507 OA
ATOM     24  C19 UNL     1     142.416 128.653  94.398  0.00  0.00    -0.018 A 
ATOM     25  C20 UNL     1     141.999 127.764  95.392  0.00  0.00    -0.037 A 
ATOM     26  H   UNL     1     140.139 125.014  95.720  0.00  0.00    +0.000 HD
ATOM     27  H   UNL     1     142.322 129.160  91.230  0.00  0.00    +0.000 HD
ENDROOT
TORSDOF 0
ENDMDL
