MODEL 1
REMARK VINA RESULT:    -4.457      0.000      0.000
REMARK INTER + INTRA:          -4.457
REMARK INTER:                  -4.457
REMARK INTRA:                   0.000
REMARK UNBOUND:                 0.000
REMARK  Name = /home/vital/Documents/PhD_2021/Malaria_codes/scripts/../data/pdbqt_ligands/ligand_455_temp.pdb
REMARK                            x       y       z     vdW  Elec       q    Type
REMARK                         _______ _______ _______ _____ _____    ______ ____
ROOT
ATOM      1  C1  UNL     1     138.422 122.431  91.053  0.00  0.00    -0.031 C 
ATOM      2  C2  UNL     1     138.505 123.838  90.572  0.00  0.00    +0.016 A 
ATOM      3  C3  UNL     1     137.603 124.614  89.861  0.00  0.00    +0.083 A 
ATOM      4  C4  UNL     1     136.302 124.162  89.389  0.00  0.00    +0.001 A 
ATOM      5  C5  UNL     1     135.174 124.962  89.614  0.00  0.00    -0.053 A 
ATOM      6  C6  UNL     1     133.916 124.556  89.167  0.00  0.00    -0.061 A 
ATOM      7  C7  UNL     1     133.776 123.351  88.480  0.00  0.00    -0.062 A 
ATOM      8  C8  UNL     1     134.894 122.555  88.235  0.00  0.00    -0.061 A 
ATOM      9  C9  UNL     1     136.154 122.961  88.683  0.00  0.00    -0.053 A 
ATOM     10  N1  UNL     1     138.003 125.924  89.644  0.00  0.00    -0.224 NA
ATOM     11  C10 UNL     1     139.196 126.118  90.147  0.00  0.00    +0.165 A 
ATOM     12  N2  UNL     1     139.811 127.339  90.036  0.00  0.00    -0.263 N 
ATOM     13  C11 UNL     1     141.027 127.712  90.564  0.00  0.00    +0.240 C 
ATOM     14  O1  UNL     1     141.788 127.002  91.218  0.00  0.00    -0.274 OA
ATOM     15  C12 UNL     1     141.472 129.095  90.183  0.00  0.00    +0.147 C 
ATOM     16  S1  UNL     1     140.315 130.292  90.758  0.00  0.00    +0.005 S 
ATOM     17  O2  UNL     1     139.098 130.118  89.982  0.00  0.00    -0.169 OA
ATOM     18  O3  UNL     1     140.283 130.281  92.205  0.00  0.00    -0.169 OA
ATOM     19  C13 UNL     1     141.044 131.835  90.260  0.00  0.00    +0.089 A 
ATOM     20  C14 UNL     1     140.652 132.435  89.058  0.00  0.00    -0.036 A 
ATOM     21  C15 UNL     1     141.225 133.651  88.681  0.00  0.00    -0.046 A 
ATOM     22  C16 UNL     1     142.170 134.260  89.508  0.00  0.00    +0.018 A 
ATOM     23 BR1  UNL     1     142.940 135.907  88.993  0.00  0.00    -0.050 Br
ATOM     24  C17 UNL     1     142.547 133.668  90.714  0.00  0.00    -0.046 A 
ATOM     25  C18 UNL     1     141.979 132.452  91.098  0.00  0.00    -0.036 A 
ATOM     26  S2  UNL     1     139.909 124.773  90.902  0.00  0.00    -0.057 S 
ATOM     27  H   UNL     1     139.329 128.026  89.521  0.00  0.00    +0.000 HD
ENDROOT
TORSDOF 0
ENDMDL
MODEL 2
REMARK VINA RESULT:    -4.096      2.035      3.874
REMARK INTER + INTRA:          -4.096
REMARK INTER:                  -4.096
REMARK INTRA:                   0.000
REMARK UNBOUND:                 0.000
REMARK  Name = /home/vital/Documents/PhD_2021/Malaria_codes/scripts/../data/pdbqt_ligands/ligand_455_temp.pdb
REMARK                            x       y       z     vdW  Elec       q    Type
REMARK                         _______ _______ _______ _____ _____    ______ ____
ROOT
ATOM      1  C1  UNL     1     136.341 123.060  89.103  0.00  0.00    -0.031 C 
ATOM      2  C2  UNL     1     137.229 124.221  89.387  0.00  0.00    +0.016 A 
ATOM      3  C3  UNL     1     138.426 124.306  90.082  0.00  0.00    +0.083 A 
ATOM      4  C4  UNL     1     139.090 123.190  90.740  0.00  0.00    +0.001 A 
ATOM      5  C5  UNL     1     140.461 122.988  90.532  0.00  0.00    -0.053 A 
ATOM      6  C6  UNL     1     141.124 121.931  91.156  0.00  0.00    -0.061 A 
ATOM      7  C7  UNL     1     140.426 121.072  92.003  0.00  0.00    -0.062 A 
ATOM      8  C8  UNL     1     139.065 121.274  92.232  0.00  0.00    -0.061 A 
ATOM      9  C9  UNL     1     138.400 122.333  91.607  0.00  0.00    -0.053 A 
ATOM     10  N1  UNL     1     139.012 125.563  90.085  0.00  0.00    -0.224 NA
ATOM     11  C10 UNL     1     138.253 126.413  89.441  0.00  0.00    +0.165 A 
ATOM     12  N2  UNL     1     138.619 127.731  89.329  0.00  0.00    -0.263 N 
ATOM     13  C11 UNL     1     137.963 128.723  88.634  0.00  0.00    +0.240 C 
ATOM     14  O1  UNL     1     136.916 128.602  88.002  0.00  0.00    -0.274 OA
ATOM     15  C12 UNL     1     138.566 130.090  88.785  0.00  0.00    +0.147 C 
ATOM     16  S1  UNL     1     140.222 130.099  88.184  0.00  0.00    +0.005 S 
ATOM     17  O2  UNL     1     141.014 129.293  89.098  0.00  0.00    -0.169 OA
ATOM     18  O3  UNL     1     140.223 129.832  86.761  0.00  0.00    -0.169 OA
ATOM     19  C13 UNL     1     140.723 131.792  88.401  0.00  0.00    +0.089 A 
ATOM     20  C14 UNL     1     141.428 132.168  89.549  0.00  0.00    -0.036 A 
ATOM     21  C15 UNL     1     141.825 133.497  89.705  0.00  0.00    -0.046 A 
ATOM     22  C16 UNL     1     141.526 134.432  88.713  0.00  0.00    +0.018 A 
ATOM     23 BR1  UNL     1     142.066 136.230  88.928  0.00  0.00    -0.050 Br
ATOM     24  C17 UNL     1     140.837 134.051  87.560  0.00  0.00    -0.046 A 
ATOM     25  C18 UNL     1     140.437 132.724  87.398  0.00  0.00    -0.036 A 
ATOM     26  S2  UNL     1     136.814 125.781  88.796  0.00  0.00    -0.057 S 
ATOM     27  H   UNL     1     139.442 127.997  89.798  0.00  0.00    +0.000 HD
ENDROOT
TORSDOF 0
ENDMDL
MODEL 3
REMARK VINA RESULT:    -4.088      6.913      8.821
REMARK INTER + INTRA:          -4.088
REMARK INTER:                  -4.088
REMARK INTRA:                   0.000
REMARK UNBOUND:                 0.000
REMARK  Name = /home/vital/Documents/PhD_2021/Malaria_codes/scripts/../data/pdbqt_ligands/ligand_455_temp.pdb
REMARK                            x       y       z     vdW  Elec       q    Type
REMARK                         _______ _______ _______ _____ _____    ______ ____
ROOT
ATOM      1  C1  UNL     1     144.758 129.087  99.808  0.00  0.00    -0.031 C 
ATOM      2  C2  UNL     1     143.951 129.419  98.601  0.00  0.00    +0.016 A 
ATOM      3  C3  UNL     1     142.580 129.497  98.413  0.00  0.00    +0.083 A 
ATOM      4  C4  UNL     1     141.580 129.226  99.436  0.00  0.00    +0.001 A 
ATOM      5  C5  UNL     1     140.527 130.132  99.624  0.00  0.00    -0.053 A 
ATOM      6  C6  UNL     1     139.551 129.894 100.593  0.00  0.00    -0.061 A 
ATOM      7  C7  UNL     1     139.612 128.742 101.375  0.00  0.00    -0.062 A 
ATOM      8  C8  UNL     1     140.645 127.825 101.186  0.00  0.00    -0.061 A 
ATOM      9  C9  UNL     1     141.623 128.063 100.216  0.00  0.00    -0.053 A 
ATOM     10  N1  UNL     1     142.185 129.906  97.148  0.00  0.00    -0.224 NA
ATOM     11  C10 UNL     1     143.236 130.094  96.390  0.00  0.00    +0.165 A 
ATOM     12  N2  UNL     1     143.093 130.484  95.082  0.00  0.00    -0.263 N 
ATOM     13  C11 UNL     1     144.096 130.781  94.186  0.00  0.00    +0.240 C 
ATOM     14  O1  UNL     1     145.305 130.729  94.399  0.00  0.00    -0.274 OA
ATOM     15  C12 UNL     1     143.616 131.085  92.796  0.00  0.00    +0.147 C 
ATOM     16  S1  UNL     1     142.554 132.489  92.807  0.00  0.00    +0.005 S 
ATOM     17  O2  UNL     1     141.333 132.098  93.492  0.00  0.00    -0.169 OA
ATOM     18  O3  UNL     1     143.299 133.659  93.222  0.00  0.00    -0.169 OA
ATOM     19  C13 UNL     1     142.149 132.707  91.088  0.00  0.00    +0.089 A 
ATOM     20  C14 UNL     1     140.969 132.160  90.576  0.00  0.00    -0.036 A 
ATOM     21  C15 UNL     1     140.656 132.345  89.228  0.00  0.00    -0.046 A 
ATOM     22  C16 UNL     1     141.516 133.079  88.410  0.00  0.00    +0.018 A 
ATOM     23 BR1  UNL     1     141.088 133.327  86.587  0.00  0.00    -0.050 Br
ATOM     24  C17 UNL     1     142.685 133.638  88.928  0.00  0.00    -0.046 A 
ATOM     25  C18 UNL     1     143.004 133.458  90.274  0.00  0.00    -0.036 A 
ATOM     26  S2  UNL     1     144.740 129.802  97.123  0.00  0.00    -0.057 S 
ATOM     27  H   UNL     1     142.171 130.561  94.748  0.00  0.00    +0.000 HD
ENDROOT
TORSDOF 0
ENDMDL
MODEL 4
REMARK VINA RESULT:    -3.968      2.954      4.428
REMARK INTER + INTRA:          -3.968
REMARK INTER:                  -3.968
REMARK INTRA:                   0.000
REMARK UNBOUND:                 0.000
REMARK  Name = /home/vital/Documents/PhD_2021/Malaria_codes/scripts/../data/pdbqt_ligands/ligand_455_temp.pdb
REMARK                            x       y       z     vdW  Elec       q    Type
REMARK                         _______ _______ _______ _____ _____    ______ ____
ROOT
ATOM      1  C1  UNL     1     136.617 128.221  86.420  0.00  0.00    -0.031 C 
ATOM      2  C2  UNL     1     137.555 128.570  87.523  0.00  0.00    +0.016 A 
ATOM      3  C3  UNL     1     138.014 127.828  88.600  0.00  0.00    +0.083 A 
ATOM      4  C4  UNL     1     137.620 126.459  88.900  0.00  0.00    +0.001 A 
ATOM      5  C5  UNL     1     138.607 125.511  89.198  0.00  0.00    -0.053 A 
ATOM      6  C6  UNL     1     138.258 124.193  89.495  0.00  0.00    -0.061 A 
ATOM      7  C7  UNL     1     136.916 123.813  89.508  0.00  0.00    -0.062 A 
ATOM      8  C8  UNL     1     135.924 124.752  89.230  0.00  0.00    -0.061 A 
ATOM      9  C9  UNL     1     136.274 126.073  88.931  0.00  0.00    -0.053 A 
ATOM     10  N1  UNL     1     138.946 128.473  89.399  0.00  0.00    -0.224 NA
ATOM     11  C10 UNL     1     139.155 129.687  88.955  0.00  0.00    +0.165 A 
ATOM     12  N2  UNL     1     140.028 130.526  89.599  0.00  0.00    -0.263 N 
ATOM     13  C11 UNL     1     140.397 131.798  89.219  0.00  0.00    +0.240 C 
ATOM     14  O1  UNL     1     139.990 132.413  88.237  0.00  0.00    -0.274 OA
ATOM     15  C12 UNL     1     141.302 132.498  90.192  0.00  0.00    +0.147 C 
ATOM     16  S1  UNL     1     142.805 131.602  90.386  0.00  0.00    +0.005 S 
ATOM     17  O2  UNL     1     142.481 130.366  91.079  0.00  0.00    -0.169 OA
ATOM     18  O3  UNL     1     143.526 131.586  89.131  0.00  0.00    -0.169 OA
ATOM     19  C13 UNL     1     143.738 132.612  91.515  0.00  0.00    +0.089 A 
ATOM     20  C14 UNL     1     143.713 132.331  92.884  0.00  0.00    -0.036 A 
ATOM     21  C15 UNL     1     144.456 133.124  93.760  0.00  0.00    -0.046 A 
ATOM     22  C16 UNL     1     145.222 134.179  93.262  0.00  0.00    +0.018 A 
ATOM     23 BR1  UNL     1     146.227 135.249  94.452  0.00  0.00    -0.050 Br
ATOM     24  C17 UNL     1     145.258 134.447  91.893  0.00  0.00    -0.046 A 
ATOM     25  C18 UNL     1     144.518 133.658  91.011  0.00  0.00    -0.036 A 
ATOM     26  S2  UNL     1     138.269 130.133  87.576  0.00  0.00    -0.057 S 
ATOM     27  H   UNL     1     140.436 130.181  90.426  0.00  0.00    +0.000 HD
ENDROOT
TORSDOF 0
ENDMDL
MODEL 5
REMARK VINA RESULT:    -3.899      9.267     12.205
REMARK INTER + INTRA:          -3.899
REMARK INTER:                  -3.899
REMARK INTRA:                   0.000
REMARK UNBOUND:                 0.000
REMARK  Name = /home/vital/Documents/PhD_2021/Malaria_codes/scripts/../data/pdbqt_ligands/ligand_455_temp.pdb
REMARK                            x       y       z     vdW  Elec       q    Type
REMARK                         _______ _______ _______ _____ _____    ______ ____
ROOT
ATOM      1  C1  UNL     1     145.073 133.625  94.391  0.00  0.00    -0.031 C 
ATOM      2  C2  UNL     1     144.322 132.710  95.295  0.00  0.00    +0.016 A 
ATOM      3  C3  UNL     1     143.282 131.830  95.042  0.00  0.00    +0.083 A 
ATOM      4  C4  UNL     1     142.657 131.625  93.744  0.00  0.00    +0.001 A 
ATOM      5  C5  UNL     1     142.455 130.320  93.277  0.00  0.00    -0.053 A 
ATOM      6  C6  UNL     1     141.852 130.095  92.039  0.00  0.00    -0.061 A 
ATOM      7  C7  UNL     1     141.435 131.173  91.260  0.00  0.00    -0.062 A 
ATOM      8  C8  UNL     1     141.615 132.476  91.722  0.00  0.00    -0.061 A 
ATOM      9  C9  UNL     1     142.219 132.702  92.962  0.00  0.00    -0.053 A 
ATOM     10  N1  UNL     1     142.870 131.083  96.136  0.00  0.00    -0.224 NA
ATOM     11  C10 UNL     1     143.559 131.423  97.197  0.00  0.00    +0.165 A 
ATOM     12  N2  UNL     1     143.313 130.829  98.409  0.00  0.00    -0.263 N 
ATOM     13  C11 UNL     1     143.991 131.034  99.590  0.00  0.00    +0.240 C 
ATOM     14  O1  UNL     1     144.932 131.804  99.769  0.00  0.00    -0.274 OA
ATOM     15  C12 UNL     1     143.417 130.304 100.770  0.00  0.00    +0.147 C 
ATOM     16  S1  UNL     1     143.454 128.565 100.492  0.00  0.00    +0.005 S 
ATOM     17  O2  UNL     1     142.495 128.279  99.438  0.00  0.00    -0.169 OA
ATOM     18  O3  UNL     1     144.827 128.118 100.393  0.00  0.00    -0.169 OA
ATOM     19  C13 UNL     1     142.793 127.897 102.003  0.00  0.00    +0.089 A 
ATOM     20  C14 UNL     1     141.433 127.579 102.087  0.00  0.00    -0.036 A 
ATOM     21  C15 UNL     1     140.927 127.047 103.274  0.00  0.00    -0.046 A 
ATOM     22  C16 UNL     1     141.779 126.829 104.357  0.00  0.00    +0.018 A 
ATOM     23 BR1  UNL     1     141.088 126.108 105.961  0.00  0.00    -0.050 Br
ATOM     24  C17 UNL     1     143.138 127.132 104.265  0.00  0.00    -0.046 A 
ATOM     25  C18 UNL     1     143.652 127.664 103.081  0.00  0.00    -0.036 A 
ATOM     26  S2  UNL     1     144.726 132.635  96.964  0.00  0.00    -0.057 S 
ATOM     27  H   UNL     1     142.569 130.186  98.438  0.00  0.00    +0.000 HD
ENDROOT
TORSDOF 0
ENDMDL
MODEL 6
REMARK VINA RESULT:    -3.853      0.996      1.071
REMARK INTER + INTRA:          -3.853
REMARK INTER:                  -3.853
REMARK INTRA:                   0.000
REMARK UNBOUND:                 0.000
REMARK  Name = /home/vital/Documents/PhD_2021/Malaria_codes/scripts/../data/pdbqt_ligands/ligand_455_temp.pdb
REMARK                            x       y       z     vdW  Elec       q    Type
REMARK                         _______ _______ _______ _____ _____    ______ ____
ROOT
ATOM      1  C1  UNL     1     138.903 122.644  91.876  0.00  0.00    -0.031 C 
ATOM      2  C2  UNL     1     139.108 124.011  91.321  0.00  0.00    +0.016 A 
ATOM      3  C3  UNL     1     138.366 124.747  90.411  0.00  0.00    +0.083 A 
ATOM      4  C4  UNL     1     137.154 124.283  89.751  0.00  0.00    +0.001 A 
ATOM      5  C5  UNL     1     136.028 125.115  89.720  0.00  0.00    -0.053 A 
ATOM      6  C6  UNL     1     134.855 124.698  89.089  0.00  0.00    -0.061 A 
ATOM      7  C7  UNL     1     134.801 123.448  88.473  0.00  0.00    -0.062 A 
ATOM      8  C8  UNL     1     135.922 122.619  88.483  0.00  0.00    -0.061 A 
ATOM      9  C9  UNL     1     137.097 123.036  89.115  0.00  0.00    -0.053 A 
ATOM     10  N1  UNL     1     138.834 126.032  90.178  0.00  0.00    -0.224 NA
ATOM     11  C10 UNL     1     139.928 126.242  90.867  0.00  0.00    +0.165 A 
ATOM     12  N2  UNL     1     140.587 127.442  90.781  0.00  0.00    -0.263 N 
ATOM     13  C11 UNL     1     141.703 127.833  91.487  0.00  0.00    +0.240 C 
ATOM     14  O1  UNL     1     142.319 127.160  92.311  0.00  0.00    -0.274 OA
ATOM     15  C12 UNL     1     142.247 129.177  91.095  0.00  0.00    +0.147 C 
ATOM     16  S1  UNL     1     141.042 130.431  91.374  0.00  0.00    +0.005 S 
ATOM     17  O2  UNL     1     139.973 130.221  90.411  0.00  0.00    -0.169 OA
ATOM     18  O3  UNL     1     140.760 130.526  92.791  0.00  0.00    -0.169 OA
ATOM     19  C13 UNL     1     141.890 131.922  90.906  0.00  0.00    +0.089 A 
ATOM     20  C14 UNL     1     141.730 132.439  89.616  0.00  0.00    -0.036 A 
ATOM     21  C15 UNL     1     142.393 133.615  89.262  0.00  0.00    -0.046 A 
ATOM     22  C16 UNL     1     143.198 134.267  90.197  0.00  0.00    +0.018 A 
ATOM     23 BR1  UNL     1     144.092 135.860  89.713  0.00  0.00    -0.050 Br
ATOM     24  C17 UNL     1     143.343 133.759  91.489  0.00  0.00    -0.046 A 
ATOM     25  C18 UNL     1     142.683 132.583  91.850  0.00  0.00    -0.036 A 
ATOM     26  S2  UNL     1     140.460 124.945  91.826  0.00  0.00    -0.057 S 
ATOM     27  H   UNL     1     140.221 128.097  90.143  0.00  0.00    +0.000 HD
ENDROOT
TORSDOF 0
ENDMDL
MODEL 7
REMARK VINA RESULT:    -3.774      4.274      9.358
REMARK INTER + INTRA:          -3.774
REMARK INTER:                  -3.774
REMARK INTRA:                   0.000
REMARK UNBOUND:                 0.000
REMARK  Name = /home/vital/Documents/PhD_2021/Malaria_codes/scripts/../data/pdbqt_ligands/ligand_455_temp.pdb
REMARK                            x       y       z     vdW  Elec       q    Type
REMARK                         _______ _______ _______ _____ _____    ______ ____
ROOT
ATOM      1  C1  UNL     1     144.092 127.758  91.939  0.00  0.00    -0.031 C 
ATOM      2  C2  UNL     1     142.623 127.607  91.744  0.00  0.00    +0.016 A 
ATOM      3  C3  UNL     1     141.591 128.527  91.838  0.00  0.00    +0.083 A 
ATOM      4  C4  UNL     1     141.751 129.929  92.196  0.00  0.00    +0.001 A 
ATOM      5  C5  UNL     1     141.124 130.912  91.419  0.00  0.00    -0.053 A 
ATOM      6  C6  UNL     1     141.256 132.263  91.742  0.00  0.00    -0.061 A 
ATOM      7  C7  UNL     1     142.007 132.644  92.854  0.00  0.00    -0.062 A 
ATOM      8  C8  UNL     1     142.621 131.674  93.645  0.00  0.00    -0.061 A 
ATOM      9  C9  UNL     1     142.490 130.320  93.321  0.00  0.00    -0.053 A 
ATOM     10  N1  UNL     1     140.335 128.032  91.520  0.00  0.00    -0.224 NA
ATOM     11  C10 UNL     1     140.417 126.757  91.230  0.00  0.00    +0.165 A 
ATOM     12  N2  UNL     1     139.293 126.043  90.901  0.00  0.00    -0.263 N 
ATOM     13  C11 UNL     1     139.227 124.723  90.513  0.00  0.00    +0.240 C 
ATOM     14  O1  UNL     1     140.173 123.943  90.412  0.00  0.00    -0.274 OA
ATOM     15  C12 UNL     1     137.833 124.203  90.313  0.00  0.00    +0.147 C 
ATOM     16  S1  UNL     1     137.014 125.114  89.048  0.00  0.00    +0.005 S 
ATOM     17  O2  UNL     1     136.789 126.454  89.562  0.00  0.00    -0.169 OA
ATOM     18  O3  UNL     1     137.689 124.904  87.784  0.00  0.00    -0.169 OA
ATOM     19  C13 UNL     1     135.428 124.317  88.934  0.00  0.00    +0.089 A 
ATOM     20  C14 UNL     1     134.336 124.837  89.636  0.00  0.00    -0.036 A 
ATOM     21  C15 UNL     1     133.093 124.210  89.532  0.00  0.00    -0.046 A 
ATOM     22  C16 UNL     1     132.950 123.080  88.725  0.00  0.00    +0.018 A 
ATOM     23 BR1  UNL     1     131.266 122.235  88.588  0.00  0.00    -0.050 Br
ATOM     24  C17 UNL     1     134.038 122.573  88.013  0.00  0.00    -0.046 A 
ATOM     25  C18 UNL     1     135.283 123.195  88.112  0.00  0.00    -0.036 A 
ATOM     26  S2  UNL     1     141.971 126.076  91.315  0.00  0.00    -0.057 S 
ATOM     27  H   UNL     1     138.438 126.528  90.947  0.00  0.00    +0.000 HD
ENDROOT
TORSDOF 0
ENDMDL
MODEL 8
REMARK VINA RESULT:    -3.687      4.139      6.001
REMARK INTER + INTRA:          -3.687
REMARK INTER:                  -3.687
REMARK INTRA:                   0.000
REMARK UNBOUND:                 0.000
REMARK  Name = /home/vital/Documents/PhD_2021/Malaria_codes/scripts/../data/pdbqt_ligands/ligand_455_temp.pdb
REMARK                            x       y       z     vdW  Elec       q    Type
REMARK                         _______ _______ _______ _____ _____    ______ ____
ROOT
ATOM      1  C1  UNL     1     138.412 130.489  86.722  0.00  0.00    -0.031 C 
ATOM      2  C2  UNL     1     139.003 130.360  88.083  0.00  0.00    +0.016 A 
ATOM      3  C3  UNL     1     139.067 129.281  88.951  0.00  0.00    +0.083 A 
ATOM      4  C4  UNL     1     138.506 127.963  88.689  0.00  0.00    +0.001 A 
ATOM      5  C5  UNL     1     139.291 126.826  88.920  0.00  0.00    -0.053 A 
ATOM      6  C6  UNL     1     138.777 125.550  88.683  0.00  0.00    -0.061 A 
ATOM      7  C7  UNL     1     137.469 125.399  88.225  0.00  0.00    -0.062 A 
ATOM      8  C8  UNL     1     136.673 126.523  88.009  0.00  0.00    -0.061 A 
ATOM      9  C9  UNL     1     137.188 127.802  88.245  0.00  0.00    -0.053 A 
ATOM     10  N1  UNL     1     139.764 129.517  90.127  0.00  0.00    -0.224 NA
ATOM     11  C10 UNL     1     140.180 130.759  90.159  0.00  0.00    +0.165 A 
ATOM     12  N2  UNL     1     140.880 131.232  91.240  0.00  0.00    -0.263 N 
ATOM     13  C11 UNL     1     141.434 132.484  91.391  0.00  0.00    +0.240 C 
ATOM     14  O1  UNL     1     141.382 133.409  90.583  0.00  0.00    -0.274 OA
ATOM     15  C12 UNL     1     142.056 132.730  92.736  0.00  0.00    +0.147 C 
ATOM     16  S1  UNL     1     143.367 131.589  93.022  0.00  0.00    +0.005 S 
ATOM     17  O2  UNL     1     142.766 130.275  93.179  0.00  0.00    -0.169 OA
ATOM     18  O3  UNL     1     144.426 131.814  92.060  0.00  0.00    -0.169 OA
ATOM     19  C13 UNL     1     143.992 132.078  94.614  0.00  0.00    +0.089 A 
ATOM     20  C14 UNL     1     143.542 131.430  95.768  0.00  0.00    -0.036 A 
ATOM     21  C15 UNL     1     144.045 131.815  97.012  0.00  0.00    -0.046 A 
ATOM     22  C16 UNL     1     144.997 132.833  97.091  0.00  0.00    +0.018 A 
ATOM     23 BR1  UNL     1     145.676 133.350  98.776  0.00  0.00    -0.050 Br
ATOM     24  C17 UNL     1     145.457 133.467  95.936  0.00  0.00    -0.046 A 
ATOM     25  C18 UNL     1     144.958 133.087  94.689  0.00  0.00    -0.036 A 
ATOM     26  S2  UNL     1     139.778 131.710  88.811  0.00  0.00    -0.057 S 
ATOM     27  H   UNL     1     140.999 130.608  91.992  0.00  0.00    +0.000 HD
ENDROOT
TORSDOF 0
ENDMDL
MODEL 9
REMARK VINA RESULT:    -3.447      5.996     10.048
REMARK INTER + INTRA:          -3.447
REMARK INTER:                  -3.447
REMARK INTRA:                   0.000
REMARK UNBOUND:                 0.000
REMARK  Name = /home/vital/Documents/PhD_2021/Malaria_codes/scripts/../data/pdbqt_ligands/ligand_455_temp.pdb
REMARK                            x       y       z     vdW  Elec       q    Type
REMARK                         _______ _______ _______ _____ _____    ______ ____
ROOT
ATOM      1  C1  UNL     1     145.827 133.866  97.679  0.00  0.00    -0.031 C 
ATOM      2  C2  UNL     1     144.901 133.097  96.803  0.00  0.00    +0.016 A 
ATOM      3  C3  UNL     1     143.841 132.258  97.110  0.00  0.00    +0.083 A 
ATOM      4  C4  UNL     1     143.404 131.922  98.457  0.00  0.00    +0.001 A 
ATOM      5  C5  UNL     1     142.042 131.998  98.776  0.00  0.00    -0.053 A 
ATOM      6  C6  UNL     1     141.594 131.676 100.058  0.00  0.00    -0.061 A 
ATOM      7  C7  UNL     1     142.504 131.264 101.031  0.00  0.00    -0.062 A 
ATOM      8  C8  UNL     1     143.859 131.168 100.720  0.00  0.00    -0.061 A 
ATOM      9  C9  UNL     1     144.308 131.490  99.436  0.00  0.00    -0.053 A 
ATOM     10  N1  UNL     1     143.154 131.759  96.013  0.00  0.00    -0.224 NA
ATOM     11  C10 UNL     1     143.710 132.182  94.905  0.00  0.00    +0.165 A 
ATOM     12  N2  UNL     1     143.213 131.800  93.685  0.00  0.00    -0.263 N 
ATOM     13  C11 UNL     1     143.647 132.209  92.443  0.00  0.00    +0.240 C 
ATOM     14  O1  UNL     1     144.575 132.981  92.211  0.00  0.00    -0.274 OA
ATOM     15  C12 UNL     1     142.959 131.533  91.291  0.00  0.00    +0.147 C 
ATOM     16  S1  UNL     1     141.230 131.868  91.329  0.00  0.00    +0.005 S 
ATOM     17  O2  UNL     1     140.684 131.174  92.483  0.00  0.00    -0.169 OA
ATOM     18  O3  UNL     1     141.005 133.285  91.135  0.00  0.00    -0.169 OA
ATOM     19  C13 UNL     1     140.624 131.037  89.877  0.00  0.00    +0.089 A 
ATOM     20  C14 UNL     1     140.099 129.745  89.983  0.00  0.00    -0.036 A 
ATOM     21  C15 UNL     1     139.618 129.106  88.839  0.00  0.00    -0.046 A 
ATOM     22  C16 UNL     1     139.655 129.762  87.608  0.00  0.00    +0.018 A 
ATOM     23 BR1  UNL     1     139.001 128.893  86.063  0.00  0.00    -0.050 Br
ATOM     24  C17 UNL     1     140.164 131.058  87.509  0.00  0.00    -0.046 A 
ATOM     25  C18 UNL     1     140.647 131.704  88.648  0.00  0.00    -0.036 A 
ATOM     26  S2  UNL     1     145.065 133.188  95.094  0.00  0.00    -0.057 S 
ATOM     27  H   UNL     1     142.464 131.162  93.698  0.00  0.00    +0.000 HD
ENDROOT
TORSDOF 0
ENDMDL
