MODEL 1
REMARK VINA RESULT:    -5.218      0.000      0.000
REMARK INTER + INTRA:          -5.218
REMARK INTER:                  -5.218
REMARK INTRA:                   0.000
REMARK UNBOUND:                 0.000
REMARK  Name = /home/vital/Documents/PhD_2021/Malaria_codes/scripts/../data/pdbqt_ligands/ligand_57_temp.pdb
REMARK                            x       y       z     vdW  Elec       q    Type
REMARK                         _______ _______ _______ _____ _____    ______ ____
ROOT
ATOM      1  N   UNL     1     142.726 132.824  97.576  0.00  0.00    -0.195 NA
ATOM      2  C   UNL     1     142.504 132.555  98.685  0.00  0.00    +0.078 C 
ATOM      3  C   UNL     1     142.175 132.176 100.076  0.00  0.00    +0.086 C 
ATOM      4  N   UNL     1     140.826 131.602 100.256  0.00  0.00    -0.273 N 
ATOM      5  C   UNL     1     140.646 130.362  99.491  0.00  0.00    +0.164 C 
ATOM      6  C   UNL     1     139.313 129.766  99.856  0.00  0.00    +0.004 C 
ATOM      7  C   UNL     1     138.617 129.037  99.030  0.00  0.00    -0.120 C 
ATOM      8  C   UNL     1     138.074 128.275  98.127  0.00  0.00    -0.018 C 
ATOM      9  C   UNL     1     138.881 127.600  97.136  0.00  0.00    -0.036 C 
ATOM     10  C   UNL     1     139.959 126.826  97.350  0.00  0.00    +0.031 C 
ATOM     11  N   UNL     1     140.455 126.430  98.561  0.00  0.00    -0.235 N 
ATOM     12  C   UNL     1     141.323 127.174  99.217  0.00  0.00    +0.171 C 
ATOM     13  C   UNL     1     141.791 126.520 100.540  0.00  0.00    +0.065 C 
ATOM     14  N   UNL     1     141.141 125.336 100.882  0.00  0.00    -0.355 N 
ATOM     15  C   UNL     1     142.752 127.082 101.292  0.00  0.00    -0.056 C 
ATOM     16  C   UNL     1     143.287 126.525 102.581  0.00  0.00    -0.013 C 
ATOM     17  C   UNL     1     142.492 127.023 103.755  0.00  0.00    -0.069 C 
ATOM     18  C   UNL     1     141.902 126.216 104.641  0.00  0.00    +0.001 C 
ATOM     19 CL   UNL     1     140.960 126.804 105.947  0.00  0.00    -0.092 Cl
ATOM     20  N   UNL     1     141.782 128.420  98.788  0.00  0.00    -0.245 N 
ATOM     21  O   UNL     1     141.686 129.414  99.799  0.00  0.00    -0.249 OA
ATOM     22  H   UNL     1     142.907 133.044  96.670  0.00  0.00    +0.000 HD
ATOM     23  H   UNL     1     140.135 132.284  99.944  0.00  0.00    +0.000 HD
ATOM     24  H   UNL     1     140.709 131.380 101.244  0.00  0.00    +0.000 HD
ATOM     25  H   UNL     1     140.158 125.575  98.950  0.00  0.00    +0.000 HD
ATOM     26  H   UNL     1     140.443 124.970 100.293  0.00  0.00    +0.000 HD
ATOM     27  H   UNL     1     141.380 124.865 101.713  0.00  0.00    +0.000 HD
ATOM     28  H   UNL     1     142.133 128.591  97.884  0.00  0.00    +0.000 HD
ENDROOT
TORSDOF 0
ENDMDL
MODEL 2
REMARK VINA RESULT:    -5.177      2.256      2.647
REMARK INTER + INTRA:          -5.177
REMARK INTER:                  -5.177
REMARK INTRA:                   0.000
REMARK UNBOUND:                 0.000
REMARK  Name = /home/vital/Documents/PhD_2021/Malaria_codes/scripts/../data/pdbqt_ligands/ligand_57_temp.pdb
REMARK                            x       y       z     vdW  Elec       q    Type
REMARK                         _______ _______ _______ _____ _____    ______ ____
ROOT
ATOM      1  N   UNL     1     142.679 132.475  96.159  0.00  0.00    -0.195 NA
ATOM      2  C   UNL     1     143.235 132.444  97.180  0.00  0.00    +0.078 C 
ATOM      3  C   UNL     1     143.890 132.382  98.505  0.00  0.00    +0.086 C 
ATOM      4  N   UNL     1     142.960 132.293  99.648  0.00  0.00    -0.273 N 
ATOM      5  C   UNL     1     142.134 131.081  99.596  0.00  0.00    +0.164 C 
ATOM      6  C   UNL     1     141.338 130.990 100.871  0.00  0.00    +0.004 C 
ATOM      7  C   UNL     1     140.172 130.412 100.935  0.00  0.00    -0.120 C 
ATOM      8  C   UNL     1     139.059 129.744 100.858  0.00  0.00    -0.018 C 
ATOM      9  C   UNL     1     138.871 128.721  99.856  0.00  0.00    -0.036 C 
ATOM     10  C   UNL     1     139.681 127.683  99.585  0.00  0.00    +0.031 C 
ATOM     11  N   UNL     1     140.805 127.320 100.275  0.00  0.00    -0.235 N 
ATOM     12  C   UNL     1     141.982 127.836  99.978  0.00  0.00    +0.171 C 
ATOM     13  C   UNL     1     143.124 127.255 100.846  0.00  0.00    +0.065 C 
ATOM     14  N   UNL     1     142.721 126.395 101.864  0.00  0.00    -0.355 N 
ATOM     15  C   UNL     1     144.407 127.583 100.617  0.00  0.00    -0.056 C 
ATOM     16  C   UNL     1     145.589 127.068 101.388  0.00  0.00    -0.013 C 
ATOM     17  C   UNL     1     145.886 127.947 102.570  0.00  0.00    -0.069 C 
ATOM     18  C   UNL     1     145.949 127.497 103.827  0.00  0.00    +0.001 C 
ATOM     19 CL   UNL     1     146.242 128.525 105.167  0.00  0.00    -0.092 Cl
ATOM     20  N   UNL     1     142.197 128.802  98.994  0.00  0.00    -0.245 N 
ATOM     21  O   UNL     1     142.957 129.905  99.471  0.00  0.00    -0.249 OA
ATOM     22  H   UNL     1     142.225 132.501  95.326  0.00  0.00    +0.000 HD
ATOM     23  H   UNL     1     142.348 133.108  99.638  0.00  0.00    +0.000 HD
ATOM     24  H   UNL     1     143.516 132.257 100.502  0.00  0.00    +0.000 HD
ATOM     25  H   UNL     1     140.734 126.664 101.006  0.00  0.00    +0.000 HD
ATOM     26  H   UNL     1     141.766 126.190 101.986  0.00  0.00    +0.000 HD
ATOM     27  H   UNL     1     143.391 125.991 102.463  0.00  0.00    +0.000 HD
ATOM     28  H   UNL     1     141.860 128.728  98.072  0.00  0.00    +0.000 HD
ENDROOT
TORSDOF 0
ENDMDL
MODEL 3
REMARK VINA RESULT:    -4.883      2.617      5.101
REMARK INTER + INTRA:          -4.883
REMARK INTER:                  -4.883
REMARK INTRA:                   0.000
REMARK UNBOUND:                 0.000
REMARK  Name = /home/vital/Documents/PhD_2021/Malaria_codes/scripts/../data/pdbqt_ligands/ligand_57_temp.pdb
REMARK                            x       y       z     vdW  Elec       q    Type
REMARK                         _______ _______ _______ _____ _____    ______ ____
ROOT
ATOM      1  N   UNL     1     138.246 128.265  97.067  0.00  0.00    -0.195 NA
ATOM      2  C   UNL     1     139.208 127.717  97.421  0.00  0.00    +0.078 C 
ATOM      3  C   UNL     1     140.465 127.070  97.858  0.00  0.00    +0.086 C 
ATOM      4  N   UNL     1     141.696 127.723  97.369  0.00  0.00    -0.273 N 
ATOM      5  C   UNL     1     141.815 129.107  97.846  0.00  0.00    +0.164 C 
ATOM      6  C   UNL     1     143.163 129.637  97.437  0.00  0.00    +0.004 C 
ATOM      7  C   UNL     1     143.382 130.900  97.202  0.00  0.00    -0.120 C 
ATOM      8  C   UNL     1     143.464 132.191  97.071  0.00  0.00    -0.018 C 
ATOM      9  C   UNL     1     142.565 133.071  97.782  0.00  0.00    -0.036 C 
ATOM     10  C   UNL     1     142.297 133.076  99.099  0.00  0.00    +0.031 C 
ATOM     11  N   UNL     1     142.902 132.313 100.060  0.00  0.00    -0.235 N 
ATOM     12  C   UNL     1     142.455 131.108 100.352  0.00  0.00    +0.171 C 
ATOM     13  C   UNL     1     143.251 130.438 101.498  0.00  0.00    +0.065 C 
ATOM     14  N   UNL     1     144.366 131.145 101.942  0.00  0.00    -0.355 N 
ATOM     15  C   UNL     1     142.876 129.251 102.005  0.00  0.00    -0.056 C 
ATOM     16  C   UNL     1     143.568 128.523 103.121  0.00  0.00    -0.013 C 
ATOM     17  C   UNL     1     144.646 127.620 102.591  0.00  0.00    -0.069 C 
ATOM     18  C   UNL     1     145.921 127.684 102.985  0.00  0.00    +0.001 C 
ATOM     19 CL   UNL     1     147.145 126.676 102.332  0.00  0.00    -0.092 Cl
ATOM     20  N   UNL     1     141.385 130.483  99.711  0.00  0.00    -0.245 N 
ATOM     21  O   UNL     1     141.702 129.166  99.281  0.00  0.00    -0.249 OA
ATOM     22  H   UNL     1     137.461 128.713  96.778  0.00  0.00    +0.000 HD
ATOM     23  H   UNL     1     141.683 127.728  96.349  0.00  0.00    +0.000 HD
ATOM     24  H   UNL     1     142.493 127.198  97.727  0.00  0.00    +0.000 HD
ATOM     25  H   UNL     1     143.684 132.670 100.540  0.00  0.00    +0.000 HD
ATOM     26  H   UNL     1     144.594 132.011 101.534  0.00  0.00    +0.000 HD
ATOM     27  H   UNL     1     144.926 130.779 102.665  0.00  0.00    +0.000 HD
ATOM     28  H   UNL     1     140.508 130.907  99.571  0.00  0.00    +0.000 HD
ENDROOT
TORSDOF 0
ENDMDL
MODEL 4
REMARK VINA RESULT:    -4.844      1.322      1.422
REMARK INTER + INTRA:          -4.844
REMARK INTER:                  -4.844
REMARK INTRA:                   0.000
REMARK UNBOUND:                 0.000
REMARK  Name = /home/vital/Documents/PhD_2021/Malaria_codes/scripts/../data/pdbqt_ligands/ligand_57_temp.pdb
REMARK                            x       y       z     vdW  Elec       q    Type
REMARK                         _______ _______ _______ _____ _____    ______ ____
ROOT
ATOM      1  N   UNL     1     142.426 133.019  98.338  0.00  0.00    -0.195 NA
ATOM      2  C   UNL     1     142.589 132.448  99.337  0.00  0.00    +0.078 C 
ATOM      3  C   UNL     1     142.742 131.691 100.599  0.00  0.00    +0.086 C 
ATOM      4  N   UNL     1     141.502 131.056 101.090  0.00  0.00    -0.273 N 
ATOM      5  C   UNL     1     140.969 130.072 100.140  0.00  0.00    +0.164 C 
ATOM      6  C   UNL     1     139.808 129.365 100.786  0.00  0.00    +0.004 C 
ATOM      7  C   UNL     1     138.812 128.876 100.102  0.00  0.00    -0.120 C 
ATOM      8  C   UNL     1     137.929 128.381  99.286  0.00  0.00    -0.018 C 
ATOM      9  C   UNL     1     138.282 128.027  97.931  0.00  0.00    -0.036 C 
ATOM     10  C   UNL     1     139.303 127.250  97.528  0.00  0.00    +0.031 C 
ATOM     11  N   UNL     1     140.161 126.547  98.328  0.00  0.00    -0.235 N 
ATOM     12  C   UNL     1     141.259 127.102  98.802  0.00  0.00    +0.171 C 
ATOM     13  C   UNL     1     142.110 126.119  99.643  0.00  0.00    +0.065 C 
ATOM     14  N   UNL     1     141.532 124.871  99.865  0.00  0.00    -0.355 N 
ATOM     15  C   UNL     1     143.314 126.475 100.120  0.00  0.00    -0.056 C 
ATOM     16  C   UNL     1     144.223 125.597 100.932  0.00  0.00    -0.013 C 
ATOM     17  C   UNL     1     143.932 125.731 102.400  0.00  0.00    -0.069 C 
ATOM     18  C   UNL     1     143.631 124.696 103.190  0.00  0.00    +0.001 C 
ATOM     19 CL   UNL     1     143.256 124.876 104.852  0.00  0.00    -0.092 Cl
ATOM     20  N   UNL     1     141.632 128.429  98.585  0.00  0.00    -0.245 N 
ATOM     21  O   UNL     1     141.975 129.102  99.789  0.00  0.00    -0.249 OA
ATOM     22  H   UNL     1     142.294 133.485  97.522  0.00  0.00    +0.000 HD
ATOM     23  H   UNL     1     140.800 131.780 101.242  0.00  0.00    +0.000 HD
ATOM     24  H   UNL     1     141.723 130.567 101.957  0.00  0.00    +0.000 HD
ATOM     25  H   UNL     1     139.954 125.611  98.554  0.00  0.00    +0.000 HD
ATOM     26  H   UNL     1     140.646 124.666  99.491  0.00  0.00    +0.000 HD
ATOM     27  H   UNL     1     142.011 124.195 100.397  0.00  0.00    +0.000 HD
ATOM     28  H   UNL     1     141.656 128.852  97.697  0.00  0.00    +0.000 HD
ENDROOT
TORSDOF 0
ENDMDL
MODEL 5
REMARK VINA RESULT:    -4.839      3.199      5.983
REMARK INTER + INTRA:          -4.839
REMARK INTER:                  -4.839
REMARK INTRA:                   0.000
REMARK UNBOUND:                 0.000
REMARK  Name = /home/vital/Documents/PhD_2021/Malaria_codes/scripts/../data/pdbqt_ligands/ligand_57_temp.pdb
REMARK                            x       y       z     vdW  Elec       q    Type
REMARK                         _______ _______ _______ _____ _____    ______ ____
ROOT
ATOM      1  N   UNL     1     142.218 124.284 103.147  0.00  0.00    -0.195 NA
ATOM      2  C   UNL     1     142.864 124.784 102.320  0.00  0.00    +0.078 C 
ATOM      3  C   UNL     1     143.634 125.445 101.243  0.00  0.00    +0.086 C 
ATOM      4  N   UNL     1     142.826 125.878 100.085  0.00  0.00    -0.273 N 
ATOM      5  C   UNL     1     141.807 126.866 100.460  0.00  0.00    +0.164 C 
ATOM      6  C   UNL     1     141.144 127.368  99.205  0.00  0.00    +0.004 C 
ATOM      7  C   UNL     1     139.911 127.788  99.179  0.00  0.00    -0.120 C 
ATOM      8  C   UNL     1     138.700 128.238  99.323  0.00  0.00    -0.018 C 
ATOM      9  C   UNL     1     138.239 128.747 100.594  0.00  0.00    -0.036 C 
ATOM     10  C   UNL     1     138.831 129.674 101.367  0.00  0.00    +0.031 C 
ATOM     11  N   UNL     1     139.944 130.407 101.058  0.00  0.00    -0.235 N 
ATOM     12  C   UNL     1     141.153 129.952 101.323  0.00  0.00    +0.171 C 
ATOM     13  C   UNL     1     142.266 130.957 100.938  0.00  0.00    +0.065 C 
ATOM     14  N   UNL     1     141.832 132.102 100.273  0.00  0.00    -0.355 N 
ATOM     15  C   UNL     1     143.554 130.713 101.230  0.00  0.00    -0.056 C 
ATOM     16  C   UNL     1     144.707 131.624 100.915  0.00  0.00    -0.013 C 
ATOM     17  C   UNL     1     145.268 131.331  99.552  0.00  0.00    -0.069 C 
ATOM     18  C   UNL     1     145.386 132.251  98.590  0.00  0.00    +0.001 C 
ATOM     19 CL   UNL     1     145.985 131.885  97.026  0.00  0.00    -0.092 Cl
ATOM     20  N   UNL     1     141.424 128.704 101.886  0.00  0.00    -0.245 N 
ATOM     21  O   UNL     1     142.403 127.979 101.155  0.00  0.00    -0.249 OA
ATOM     22  H   UNL     1     141.691 123.876 103.822  0.00  0.00    +0.000 HD
ATOM     23  H   UNL     1     142.361 125.064  99.685  0.00  0.00    +0.000 HD
ATOM     24  H   UNL     1     143.454 126.316  99.411  0.00  0.00    +0.000 HD
ATOM     25  H   UNL     1     139.840 131.288 100.631  0.00  0.00    +0.000 HD
ATOM     26  H   UNL     1     140.874 132.228 100.086  0.00  0.00    +0.000 HD
ATOM     27  H   UNL     1     142.483 132.784  99.991  0.00  0.00    +0.000 HD
ATOM     28  H   UNL     1     140.985 128.364 102.699  0.00  0.00    +0.000 HD
ENDROOT
TORSDOF 0
ENDMDL
MODEL 6
REMARK VINA RESULT:    -4.432      3.567      5.754
REMARK INTER + INTRA:          -4.432
REMARK INTER:                  -4.432
REMARK INTRA:                   0.000
REMARK UNBOUND:                 0.000
REMARK  Name = /home/vital/Documents/PhD_2021/Malaria_codes/scripts/../data/pdbqt_ligands/ligand_57_temp.pdb
REMARK                            x       y       z     vdW  Elec       q    Type
REMARK                         _______ _______ _______ _____ _____    ______ ____
ROOT
ATOM      1  N   UNL     1     146.362 134.145  97.406  0.00  0.00    -0.195 NA
ATOM      2  C   UNL     1     145.455 133.494  97.082  0.00  0.00    +0.078 C 
ATOM      3  C   UNL     1     144.326 132.617  96.701  0.00  0.00    +0.086 C 
ATOM      4  N   UNL     1     144.593 131.172  96.846  0.00  0.00    -0.273 N 
ATOM      5  C   UNL     1     144.887 130.800  98.236  0.00  0.00    +0.164 C 
ATOM      6  C   UNL     1     144.986 129.300  98.318  0.00  0.00    +0.004 C 
ATOM      7  C   UNL     1     145.736 128.690  99.191  0.00  0.00    -0.120 C 
ATOM      8  C   UNL     1     146.469 128.225 100.159  0.00  0.00    -0.018 C 
ATOM      9  C   UNL     1     146.695 128.996 101.360  0.00  0.00    -0.036 C 
ATOM     10  C   UNL     1     145.770 129.576 102.145  0.00  0.00    +0.031 C 
ATOM     11  N   UNL     1     144.412 129.468 102.026  0.00  0.00    -0.235 N 
ATOM     12  C   UNL     1     143.730 130.289 101.252  0.00  0.00    +0.171 C 
ATOM     13  C   UNL     1     142.205 130.025 101.298  0.00  0.00    +0.065 C 
ATOM     14  N   UNL     1     141.816 128.908 102.034  0.00  0.00    -0.355 N 
ATOM     15  C   UNL     1     141.340 130.828 100.656  0.00  0.00    -0.056 C 
ATOM     16  C   UNL     1     139.846 130.670 100.648  0.00  0.00    -0.013 C 
ATOM     17  C   UNL     1     139.404 129.784  99.517  0.00  0.00    -0.069 C 
ATOM     18  C   UNL     1     138.665 128.684  99.687  0.00  0.00    +0.001 C 
ATOM     19 CL   UNL     1     138.211 127.662  98.388  0.00  0.00    -0.092 Cl
ATOM     20  N   UNL     1     144.299 131.291 100.465  0.00  0.00    -0.245 N 
ATOM     21  O   UNL     1     143.843 131.252  99.119  0.00  0.00    -0.249 OA
ATOM     22  H   UNL     1     147.102 134.677  97.671  0.00  0.00    +0.000 HD
ATOM     23  H   UNL     1     145.393 130.925  96.264  0.00  0.00    +0.000 HD
ATOM     24  H   UNL     1     143.755 130.668  96.558  0.00  0.00    +0.000 HD
ATOM     25  H   UNL     1     143.936 128.766 102.526  0.00  0.00    +0.000 HD
ATOM     26  H   UNL     1     142.494 128.355 102.485  0.00  0.00    +0.000 HD
ATOM     27  H   UNL     1     140.862 128.672 102.105  0.00  0.00    +0.000 HD
ATOM     28  H   UNL     1     144.944 131.953 100.804  0.00  0.00    +0.000 HD
ENDROOT
TORSDOF 0
ENDMDL
MODEL 7
REMARK VINA RESULT:    -4.428     12.368     15.003
REMARK INTER + INTRA:          -4.428
REMARK INTER:                  -4.428
REMARK INTRA:                   0.000
REMARK UNBOUND:                 0.000
REMARK  Name = /home/vital/Documents/PhD_2021/Malaria_codes/scripts/../data/pdbqt_ligands/ligand_57_temp.pdb
REMARK                            x       y       z     vdW  Elec       q    Type
REMARK                         _______ _______ _______ _____ _____    ______ ____
ROOT
ATOM      1  N   UNL     1     130.342 121.790  91.216  0.00  0.00    -0.195 NA
ATOM      2  C   UNL     1     131.477 121.583  91.353  0.00  0.00    +0.078 C 
ATOM      3  C   UNL     1     132.929 121.318  91.466  0.00  0.00    +0.086 C 
ATOM      4  N   UNL     1     133.552 120.778  90.241  0.00  0.00    -0.273 N 
ATOM      5  C   UNL     1     133.441 121.705  89.108  0.00  0.00    +0.164 C 
ATOM      6  C   UNL     1     134.236 121.151  87.957  0.00  0.00    +0.004 C 
ATOM      7  C   UNL     1     133.931 121.384  86.712  0.00  0.00    -0.120 C 
ATOM      8  C   UNL     1     133.548 121.761  85.528  0.00  0.00    -0.018 C 
ATOM      9  C   UNL     1     132.833 123.002  85.335  0.00  0.00    -0.036 C 
ATOM     10  C   UNL     1     133.186 124.225  85.769  0.00  0.00    +0.031 C 
ATOM     11  N   UNL     1     134.353 124.565  86.396  0.00  0.00    -0.235 N 
ATOM     12  C   UNL     1     134.473 124.474  87.706  0.00  0.00    +0.171 C 
ATOM     13  C   UNL     1     135.855 124.953  88.213  0.00  0.00    +0.065 C 
ATOM     14  N   UNL     1     136.775 125.277  87.220  0.00  0.00    -0.355 N 
ATOM     15  C   UNL     1     136.124 125.032  89.527  0.00  0.00    -0.056 C 
ATOM     16  C   UNL     1     137.422 125.495  90.124  0.00  0.00    -0.013 C 
ATOM     17  C   UNL     1     138.374 124.346  90.301  0.00  0.00    -0.069 C 
ATOM     18  C   UNL     1     139.605 124.321  89.781  0.00  0.00    +0.001 C 
ATOM     19 CL   UNL     1     140.658 122.980  89.955  0.00  0.00    -0.092 Cl
ATOM     20  N   UNL     1     133.478 123.998  88.561  0.00  0.00    -0.245 N 
ATOM     21  O   UNL     1     133.959 123.004  89.456  0.00  0.00    -0.249 OA
ATOM     22  H   UNL     1     129.415 121.960  91.105  0.00  0.00    +0.000 HD
ATOM     23  H   UNL     1     133.091 119.903  89.995  0.00  0.00    +0.000 HD
ATOM     24  H   UNL     1     134.544 120.634  90.431  0.00  0.00    +0.000 HD
ATOM     25  H   UNL     1     135.115 124.883  85.860  0.00  0.00    +0.000 HD
ATOM     26  H   UNL     1     136.523 125.200  86.271  0.00  0.00    +0.000 HD
ATOM     27  H   UNL     1     137.678 125.584  87.465  0.00  0.00    +0.000 HD
ATOM     28  H   UNL     1     132.546 124.316  88.546  0.00  0.00    +0.000 HD
ENDROOT
TORSDOF 0
ENDMDL
MODEL 8
REMARK VINA RESULT:    -4.409      1.852      2.417
REMARK INTER + INTRA:          -4.409
REMARK INTER:                  -4.409
REMARK INTRA:                   0.000
REMARK UNBOUND:                 0.000
REMARK  Name = /home/vital/Documents/PhD_2021/Malaria_codes/scripts/../data/pdbqt_ligands/ligand_57_temp.pdb
REMARK                            x       y       z     vdW  Elec       q    Type
REMARK                         _______ _______ _______ _____ _____    ______ ____
ROOT
ATOM      1  N   UNL     1     142.024 132.057  99.289  0.00  0.00    -0.195 NA
ATOM      2  C   UNL     1     141.264 131.559 100.014  0.00  0.00    +0.078 C 
ATOM      3  C   UNL     1     140.291 130.878 100.896  0.00  0.00    +0.086 C 
ATOM      4  N   UNL     1     139.460 129.859 100.225  0.00  0.00    -0.273 N 
ATOM      5  C   UNL     1     140.267 128.767  99.666  0.00  0.00    +0.164 C 
ATOM      6  C   UNL     1     139.337 127.703  99.148  0.00  0.00    +0.004 C 
ATOM      7  C   UNL     1     139.647 126.919  98.155  0.00  0.00    -0.120 C 
ATOM      8  C   UNL     1     140.123 126.168  97.205  0.00  0.00    -0.018 C 
ATOM      9  C   UNL     1     141.546 125.972  97.051  0.00  0.00    -0.036 C 
ATOM     10  C   UNL     1     142.425 125.588  97.993  0.00  0.00    +0.031 C 
ATOM     11  N   UNL     1     142.136 125.201  99.272  0.00  0.00    -0.235 N 
ATOM     12  C   UNL     1     142.046 126.085 100.246  0.00  0.00    +0.171 C 
ATOM     13  C   UNL     1     141.760 125.431 101.621  0.00  0.00    +0.065 C 
ATOM     14  N   UNL     1     141.523 124.059 101.590  0.00  0.00    -0.355 N 
ATOM     15  C   UNL     1     141.739 126.163 102.747  0.00  0.00    -0.056 C 
ATOM     16  C   UNL     1     141.486 125.628 104.128  0.00  0.00    -0.013 C 
ATOM     17  C   UNL     1     140.017 125.635 104.449  0.00  0.00    -0.069 C 
ATOM     18  C   UNL     1     139.340 124.548 104.828  0.00  0.00    +0.001 C 
ATOM     19 CL   UNL     1     137.655 124.568 105.142  0.00  0.00    -0.092 Cl
ATOM     20  N   UNL     1     142.187 127.463 100.081  0.00  0.00    -0.245 N 
ATOM     21  O   UNL     1     141.123 128.195 100.674  0.00  0.00    -0.249 OA
ATOM     22  H   UNL     1     142.644 132.464  98.697  0.00  0.00    +0.000 HD
ATOM     23  H   UNL     1     138.941 130.303  99.468  0.00  0.00    +0.000 HD
ATOM     24  H   UNL     1     138.831 129.459 100.921  0.00  0.00    +0.000 HD
ATOM     25  H   UNL     1     141.993 124.247  99.469  0.00  0.00    +0.000 HD
ATOM     26  H   UNL     1     141.552 123.574 100.735  0.00  0.00    +0.000 HD
ATOM     27  H   UNL     1     141.328 123.574 102.425  0.00  0.00    +0.000 HD
ATOM     28  H   UNL     1     142.940 127.883  99.605  0.00  0.00    +0.000 HD
ENDROOT
TORSDOF 0
ENDMDL
MODEL 9
REMARK VINA RESULT:    -4.228      3.946      6.696
REMARK INTER + INTRA:          -4.228
REMARK INTER:                  -4.228
REMARK INTRA:                   0.000
REMARK UNBOUND:                 0.000
REMARK  Name = /home/vital/Documents/PhD_2021/Malaria_codes/scripts/../data/pdbqt_ligands/ligand_57_temp.pdb
REMARK                            x       y       z     vdW  Elec       q    Type
REMARK                         _______ _______ _______ _____ _____    ______ ____
ROOT
ATOM      1  N   UNL     1     141.670 123.006  99.437  0.00  0.00    -0.195 NA
ATOM      2  C   UNL     1     141.648 123.584  98.429  0.00  0.00    +0.078 C 
ATOM      3  C   UNL     1     141.580 124.360  97.171  0.00  0.00    +0.086 C 
ATOM      4  N   UNL     1     140.422 125.270  97.071  0.00  0.00    -0.273 N 
ATOM      5  C   UNL     1     140.427 126.291  98.125  0.00  0.00    +0.164 C 
ATOM      6  C   UNL     1     139.311 127.264  97.854  0.00  0.00    +0.004 C 
ATOM      7  C   UNL     1     138.697 127.915  98.801  0.00  0.00    -0.120 C 
ATOM      8  C   UNL     1     138.230 128.541  99.840  0.00  0.00    -0.018 C 
ATOM      9  C   UNL     1     139.040 128.737 101.020  0.00  0.00    -0.036 C 
ATOM     10  C   UNL     1     140.279 129.254 101.085  0.00  0.00    +0.031 C 
ATOM     11  N   UNL     1     140.992 129.802 100.054  0.00  0.00    -0.235 N 
ATOM     12  C   UNL     1     141.748 129.052  99.276  0.00  0.00    +0.171 C 
ATOM     13  C   UNL     1     142.504 129.876  98.205  0.00  0.00    +0.065 C 
ATOM     14  N   UNL     1     142.176 131.229  98.152  0.00  0.00    -0.355 N 
ATOM     15  C   UNL     1     143.402 129.299  97.390  0.00  0.00    -0.056 C 
ATOM     16  C   UNL     1     144.197 130.006  96.329  0.00  0.00    -0.013 C 
ATOM     17  C   UNL     1     143.459 130.019  95.020  0.00  0.00    -0.069 C 
ATOM     18  C   UNL     1     143.172 131.136  94.346  0.00  0.00    +0.001 C 
ATOM     19 CL   UNL     1     142.288 131.132  92.878  0.00  0.00    -0.092 Cl
ATOM     20  N   UNL     1     141.868 127.666  99.386  0.00  0.00    -0.245 N 
ATOM     21  O   UNL     1     141.679 127.003  98.143  0.00  0.00    -0.249 OA
ATOM     22  H   UNL     1     141.688 122.535 100.260  0.00  0.00    +0.000 HD
ATOM     23  H   UNL     1     139.565 124.722  97.148  0.00  0.00    +0.000 HD
ATOM     24  H   UNL     1     140.476 125.748  96.171  0.00  0.00    +0.000 HD
ATOM     25  H   UNL     1     140.939 130.772  99.890  0.00  0.00    +0.000 HD
ATOM     26  H   UNL     1     141.509 131.598  98.775  0.00  0.00    +0.000 HD
ATOM     27  H   UNL     1     142.611 131.816  97.492  0.00  0.00    +0.000 HD
ATOM     28  H   UNL     1     142.062 127.200 100.231  0.00  0.00    +0.000 HD
ENDROOT
TORSDOF 0
ENDMDL
