MODEL 1
REMARK VINA RESULT:    -4.802      0.000      0.000
REMARK INTER + INTRA:          -4.802
REMARK INTER:                  -4.802
REMARK INTRA:                   0.000
REMARK UNBOUND:                 0.000
REMARK  Name = /home/vital/Documents/PhD_2021/Malaria_codes/scripts/../data/pdbqt_ligands/ligand_322_temp.pdb
REMARK                            x       y       z     vdW  Elec       q    Type
REMARK                         _______ _______ _______ _____ _____    ______ ____
ROOT
ATOM      1  O1  UNL     1     140.296 132.841  88.280  0.00  0.00    -0.270 OA
ATOM      2  C1  UNL     1     140.529 132.102  89.228  0.00  0.00    +0.250 C 
ATOM      3  N1  UNL     1     139.987 130.863  89.481  0.00  0.00    -0.261 N 
ATOM      4  C2  UNL     1     139.019 130.220  88.753  0.00  0.00    +0.165 A 
ATOM      5  N2  UNL     1     138.645 129.003  89.071  0.00  0.00    -0.223 NA
ATOM      6  C3  UNL     1     137.649 128.574  88.196  0.00  0.00    +0.098 A 
ATOM      7  C4  UNL     1     137.037 127.250  88.297  0.00  0.00    +0.090 A 
ATOM      8  C5  UNL     1     137.446 126.357  89.283  0.00  0.00    -0.034 A 
ATOM      9  C6  UNL     1     136.840 125.104  89.348  0.00  0.00    -0.058 A 
ATOM     10  C7  UNL     1     135.847 124.780  88.433  0.00  0.00    -0.044 A 
ATOM     11  C8  UNL     1     135.498 125.726  87.483  0.00  0.00    +0.028 A 
ATOM     12  N3  UNL     1     136.067 126.949  87.394  0.00  0.00    -0.253 NA
ATOM     13  C9  UNL     1     137.293 129.501  87.235  0.00  0.00    +0.006 A 
ATOM     14  S1  UNL     1     138.218 130.929  87.430  0.00  0.00    -0.060 S 
ATOM     15  C10 UNL     1     141.542 132.552  90.224  0.00  0.00    +0.039 A 
ATOM     16  C11 UNL     1     142.628 133.316  89.771  0.00  0.00    -0.046 A 
ATOM     17  C12 UNL     1     143.600 133.762  90.670  0.00  0.00    -0.018 A 
ATOM     18  C13 UNL     1     143.478 133.452  92.020  0.00  0.00    +0.135 A 
ATOM     19  O2  UNL     1     144.455 133.909  92.859  0.00  0.00    -0.505 OA
ATOM     20  C14 UNL     1     142.390 132.706  92.480  0.00  0.00    +0.083 A 
ATOM     21 CL1  UNL     1     142.235 132.337  94.157  0.00  0.00    -0.080 Cl
ATOM     22  C15 UNL     1     141.417 132.256  91.588  0.00  0.00    -0.028 A 
ATOM     23  H   UNL     1     140.331 130.387  90.271  0.00  0.00    +0.000 HD
ATOM     24  H   UNL     1     145.171 134.406  92.517  0.00  0.00    +0.000 HD
ENDROOT
TORSDOF 0
ENDMDL
MODEL 2
REMARK VINA RESULT:    -4.331      3.911      8.662
REMARK INTER + INTRA:          -4.331
REMARK INTER:                  -4.331
REMARK INTRA:                   0.000
REMARK UNBOUND:                 0.000
REMARK  Name = /home/vital/Documents/PhD_2021/Malaria_codes/scripts/../data/pdbqt_ligands/ligand_322_temp.pdb
REMARK                            x       y       z     vdW  Elec       q    Type
REMARK                         _______ _______ _______ _____ _____    ______ ____
ROOT
ATOM      1  O1  UNL     1     136.486 127.825  87.401  0.00  0.00    -0.270 OA
ATOM      2  C1  UNL     1     137.068 127.311  88.348  0.00  0.00    +0.250 C 
ATOM      3  N1  UNL     1     138.032 127.877  89.150  0.00  0.00    -0.261 N 
ATOM      4  C2  UNL     1     138.592 129.121  89.015  0.00  0.00    +0.165 A 
ATOM      5  N2  UNL     1     139.455 129.562  89.900  0.00  0.00    -0.223 NA
ATOM      6  C3  UNL     1     139.887 130.837  89.540  0.00  0.00    +0.098 A 
ATOM      7  C4  UNL     1     140.851 131.591  90.342  0.00  0.00    +0.090 A 
ATOM      8  C5  UNL     1     141.368 131.052  91.516  0.00  0.00    -0.034 A 
ATOM      9  C6  UNL     1     142.283 131.799  92.253  0.00  0.00    -0.058 A 
ATOM     10  C7  UNL     1     142.656 133.058  91.799  0.00  0.00    -0.044 A 
ATOM     11  C8  UNL     1     142.095 133.521  90.620  0.00  0.00    +0.028 A 
ATOM     12  N3  UNL     1     141.205 132.820  89.884  0.00  0.00    -0.253 NA
ATOM     13  C9  UNL     1     139.332 131.321  88.371  0.00  0.00    +0.006 A 
ATOM     14  S1  UNL     1     138.255 130.164  87.714  0.00  0.00    -0.060 S 
ATOM     15  C10 UNL     1     136.681 125.922  88.728  0.00  0.00    +0.039 A 
ATOM     16  C11 UNL     1     135.346 125.531  88.553  0.00  0.00    -0.046 A 
ATOM     17  C12 UNL     1     134.940 124.238  88.892  0.00  0.00    -0.018 A 
ATOM     18  C13 UNL     1     135.872 123.337  89.394  0.00  0.00    +0.135 A 
ATOM     19  O2  UNL     1     135.426 122.085  89.712  0.00  0.00    -0.505 OA
ATOM     20  C14 UNL     1     137.208 123.715  89.554  0.00  0.00    +0.083 A 
ATOM     21 CL1  UNL     1     138.364 122.590  90.163  0.00  0.00    -0.080 Cl
ATOM     22  C15 UNL     1     137.619 125.005  89.219  0.00  0.00    -0.028 A 
ATOM     23  H   UNL     1     138.354 127.329  89.902  0.00  0.00    +0.000 HD
ATOM     24  H   UNL     1     134.524 121.865  89.592  0.00  0.00    +0.000 HD
ENDROOT
TORSDOF 0
ENDMDL
MODEL 3
REMARK VINA RESULT:    -4.319      6.557     10.640
REMARK INTER + INTRA:          -4.319
REMARK INTER:                  -4.319
REMARK INTRA:                   0.000
REMARK UNBOUND:                 0.000
REMARK  Name = /home/vital/Documents/PhD_2021/Malaria_codes/scripts/../data/pdbqt_ligands/ligand_322_temp.pdb
REMARK                            x       y       z     vdW  Elec       q    Type
REMARK                         _______ _______ _______ _____ _____    ______ ____
ROOT
ATOM      1  O1  UNL     1     133.690 125.082  87.592  0.00  0.00    -0.270 OA
ATOM      2  C1  UNL     1     133.861 124.573  88.692  0.00  0.00    +0.250 C 
ATOM      3  N1  UNL     1     134.984 124.638  89.484  0.00  0.00    -0.261 N 
ATOM      4  C2  UNL     1     136.178 125.238  89.177  0.00  0.00    +0.165 A 
ATOM      5  N2  UNL     1     137.146 125.286  90.061  0.00  0.00    -0.223 NA
ATOM      6  C3  UNL     1     138.252 125.931  89.512  0.00  0.00    +0.098 A 
ATOM      7  C4  UNL     1     139.488 126.142  90.265  0.00  0.00    +0.090 A 
ATOM      8  C5  UNL     1     139.595 125.705  91.583  0.00  0.00    -0.034 A 
ATOM      9  C6  UNL     1     140.787 125.924  92.268  0.00  0.00    -0.058 A 
ATOM     10  C7  UNL     1     141.835 126.568  91.623  0.00  0.00    -0.044 A 
ATOM     11  C8  UNL     1     141.647 126.971  90.311  0.00  0.00    +0.028 A 
ATOM     12  N3  UNL     1     140.503 126.774  89.620  0.00  0.00    -0.253 NA
ATOM     13  C9  UNL     1     138.081 126.349  88.206  0.00  0.00    +0.006 A 
ATOM     14  S1  UNL     1     136.515 125.928  87.659  0.00  0.00    -0.060 S 
ATOM     15  C10 UNL     1     132.723 123.817  89.289  0.00  0.00    +0.039 A 
ATOM     16  C11 UNL     1     131.418 124.256  89.021  0.00  0.00    -0.046 A 
ATOM     17  C12 UNL     1     130.322 123.576  89.557  0.00  0.00    -0.018 A 
ATOM     18  C13 UNL     1     130.532 122.454  90.351  0.00  0.00    +0.135 A 
ATOM     19  O2  UNL     1     129.428 121.824  90.852  0.00  0.00    -0.505 OA
ATOM     20  C14 UNL     1     131.829 122.001  90.607  0.00  0.00    +0.083 A 
ATOM     21 CL1  UNL     1     132.085 120.600  91.579  0.00  0.00    -0.080 Cl
ATOM     22  C15 UNL     1     132.928 122.676  90.076  0.00  0.00    -0.028 A 
ATOM     23  H   UNL     1     134.923 124.206  90.367  0.00  0.00    +0.000 HD
ATOM     24  H   UNL     1     128.573 122.155  90.661  0.00  0.00    +0.000 HD
ENDROOT
TORSDOF 0
ENDMDL
MODEL 4
REMARK VINA RESULT:    -3.942      5.858     10.185
REMARK INTER + INTRA:          -3.942
REMARK INTER:                  -3.942
REMARK INTRA:                   0.000
REMARK UNBOUND:                 0.000
REMARK  Name = /home/vital/Documents/PhD_2021/Malaria_codes/scripts/../data/pdbqt_ligands/ligand_322_temp.pdb
REMARK                            x       y       z     vdW  Elec       q    Type
REMARK                         _______ _______ _______ _____ _____    ______ ____
ROOT
ATOM      1  O1  UNL     1     136.558 123.570  89.706  0.00  0.00    -0.270 OA
ATOM      2  C1  UNL     1     135.596 124.210  89.302  0.00  0.00    +0.250 C 
ATOM      3  N1  UNL     1     135.594 125.476  88.764  0.00  0.00    -0.261 N 
ATOM      4  C2  UNL     1     136.668 126.317  88.627  0.00  0.00    +0.165 A 
ATOM      5  N2  UNL     1     136.534 127.476  88.028  0.00  0.00    -0.223 NA
ATOM      6  C3  UNL     1     137.755 128.147  88.023  0.00  0.00    +0.098 A 
ATOM      7  C4  UNL     1     137.919 129.467  87.417  0.00  0.00    +0.090 A 
ATOM      8  C5  UNL     1     136.843 130.102  86.804  0.00  0.00    -0.034 A 
ATOM      9  C6  UNL     1     137.037 131.359  86.237  0.00  0.00    -0.058 A 
ATOM     10  C7  UNL     1     138.295 131.946  86.298  0.00  0.00    -0.044 A 
ATOM     11  C8  UNL     1     139.313 131.247  86.926  0.00  0.00    +0.028 A 
ATOM     12  N3  UNL     1     139.156 130.027  87.484  0.00  0.00    -0.253 NA
ATOM     13  C9  UNL     1     138.787 127.463  88.638  0.00  0.00    +0.006 A 
ATOM     14  S1  UNL     1     138.219 125.959  89.228  0.00  0.00    -0.060 S 
ATOM     15  C10 UNL     1     134.258 123.552  89.348  0.00  0.00    +0.039 A 
ATOM     16  C11 UNL     1     134.190 122.166  89.150  0.00  0.00    -0.046 A 
ATOM     17  C12 UNL     1     132.959 121.508  89.188  0.00  0.00    -0.018 A 
ATOM     18  C13 UNL     1     131.800 122.236  89.435  0.00  0.00    +0.135 A 
ATOM     19  O2  UNL     1     130.620 121.548  89.461  0.00  0.00    -0.505 OA
ATOM     20  C14 UNL     1     131.863 123.615  89.651  0.00  0.00    +0.083 A 
ATOM     21 CL1  UNL     1     130.426 124.512  89.972  0.00  0.00    -0.080 Cl
ATOM     22  C15 UNL     1     133.090 124.279  89.613  0.00  0.00    -0.028 A 
ATOM     23  H   UNL     1     134.727 125.815  88.443  0.00  0.00    +0.000 HD
ATOM     24  H   UNL     1     130.614 120.623  89.312  0.00  0.00    +0.000 HD
ENDROOT
TORSDOF 0
ENDMDL
MODEL 5
REMARK VINA RESULT:    -3.925     14.833     18.470
REMARK INTER + INTRA:          -3.925
REMARK INTER:                  -3.925
REMARK INTRA:                   0.000
REMARK UNBOUND:                 0.000
REMARK  Name = /home/vital/Documents/PhD_2021/Malaria_codes/scripts/../data/pdbqt_ligands/ligand_322_temp.pdb
REMARK                            x       y       z     vdW  Elec       q    Type
REMARK                         _______ _______ _______ _____ _____    ______ ____
ROOT
ATOM      1  O1  UNL     1     141.316 144.049  99.504  0.00  0.00    -0.270 OA
ATOM      2  C1  UNL     1     141.767 142.976  99.885  0.00  0.00    +0.250 C 
ATOM      3  N1  UNL     1     141.691 142.433 101.146  0.00  0.00    -0.261 N 
ATOM      4  C2  UNL     1     141.145 143.010 102.263  0.00  0.00    +0.165 A 
ATOM      5  N2  UNL     1     141.077 142.344 103.391  0.00  0.00    -0.223 NA
ATOM      6  C3  UNL     1     140.496 143.143 104.375  0.00  0.00    +0.098 A 
ATOM      7  C4  UNL     1     140.280 142.668 105.741  0.00  0.00    +0.090 A 
ATOM      8  C5  UNL     1     140.645 141.375 106.105  0.00  0.00    -0.034 A 
ATOM      9  C6  UNL     1     140.424 140.959 107.416  0.00  0.00    -0.058 A 
ATOM     10  C7  UNL     1     139.849 141.840 108.322  0.00  0.00    -0.044 A 
ATOM     11  C8  UNL     1     139.515 143.109 107.879  0.00  0.00    +0.028 A 
ATOM     12  N3  UNL     1     139.716 143.543 106.615  0.00  0.00    -0.253 NA
ATOM     13  C9  UNL     1     140.148 144.411 103.950  0.00  0.00    +0.006 A 
ATOM     14  S1  UNL     1     140.553 144.605 102.298  0.00  0.00    -0.060 S 
ATOM     15  C10 UNL     1     142.454 142.117  98.878  0.00  0.00    +0.039 A 
ATOM     16  C11 UNL     1     141.992 142.144  97.554  0.00  0.00    -0.046 A 
ATOM     17  C12 UNL     1     142.607 141.357  96.578  0.00  0.00    -0.018 A 
ATOM     18  C13 UNL     1     143.688 140.555  96.925  0.00  0.00    +0.135 A 
ATOM     19  O2  UNL     1     144.255 139.803  95.934  0.00  0.00    -0.505 OA
ATOM     20  C14 UNL     1     144.165 140.537  98.238  0.00  0.00    +0.083 A 
ATOM     21 CL1  UNL     1     145.515 139.552  98.661  0.00  0.00    -0.080 Cl
ATOM     22  C15 UNL     1     143.554 141.319  99.219  0.00  0.00    -0.028 A 
ATOM     23  H   UNL     1     142.070 141.530 101.259  0.00  0.00    +0.000 HD
ATOM     24  H   UNL     1     143.911 139.839  95.064  0.00  0.00    +0.000 HD
ENDROOT
TORSDOF 0
ENDMDL
MODEL 6
REMARK VINA RESULT:    -3.903      5.083      9.514
REMARK INTER + INTRA:          -3.903
REMARK INTER:                  -3.903
REMARK INTRA:                   0.000
REMARK UNBOUND:                 0.000
REMARK  Name = /home/vital/Documents/PhD_2021/Malaria_codes/scripts/../data/pdbqt_ligands/ligand_322_temp.pdb
REMARK                            x       y       z     vdW  Elec       q    Type
REMARK                         _______ _______ _______ _____ _____    ______ ____
ROOT
ATOM      1  O1  UNL     1     139.931 124.008  91.976  0.00  0.00    -0.270 OA
ATOM      2  C1  UNL     1     139.371 124.825  91.256  0.00  0.00    +0.250 C 
ATOM      3  N1  UNL     1     139.544 126.189  91.240  0.00  0.00    -0.261 N 
ATOM      4  C2  UNL     1     140.339 126.931  92.076  0.00  0.00    +0.165 A 
ATOM      5  N2  UNL     1     140.464 128.225  91.900  0.00  0.00    -0.223 NA
ATOM      6  C3  UNL     1     141.309 128.752  92.876  0.00  0.00    +0.098 A 
ATOM      7  C4  UNL     1     141.645 130.174  92.933  0.00  0.00    +0.090 A 
ATOM      8  C5  UNL     1     141.131 131.060  91.991  0.00  0.00    -0.034 A 
ATOM      9  C6  UNL     1     141.474 132.407  92.077  0.00  0.00    -0.058 A 
ATOM     10  C7  UNL     1     142.315 132.831  93.098  0.00  0.00    -0.044 A 
ATOM     11  C8  UNL     1     142.784 131.885  93.995  0.00  0.00    +0.028 A 
ATOM     12  N3  UNL     1     142.470 130.572  93.938  0.00  0.00    -0.253 NA
ATOM     13  C9  UNL     1     141.794 127.822  93.776  0.00  0.00    +0.006 A 
ATOM     14  S1  UNL     1     141.184 126.269  93.396  0.00  0.00    -0.060 S 
ATOM     15  C10 UNL     1     138.410 124.308  90.240  0.00  0.00    +0.039 A 
ATOM     16  C11 UNL     1     138.667 123.060  89.654  0.00  0.00    -0.046 A 
ATOM     17  C12 UNL     1     137.792 122.537  88.700  0.00  0.00    -0.018 A 
ATOM     18  C13 UNL     1     136.657 123.257  88.342  0.00  0.00    +0.135 A 
ATOM     19  O2  UNL     1     135.832 122.703  87.404  0.00  0.00    -0.505 OA
ATOM     20  C14 UNL     1     136.386 124.493  88.935  0.00  0.00    +0.083 A 
ATOM     21 CL1  UNL     1     134.970 125.375  88.500  0.00  0.00    -0.080 Cl
ATOM     22  C15 UNL     1     137.257 125.022  89.888  0.00  0.00    -0.028 A 
ATOM     23  H   UNL     1     139.043 126.687  90.554  0.00  0.00    +0.000 HD
ATOM     24  H   UNL     1     136.044 121.872  87.026  0.00  0.00    +0.000 HD
ENDROOT
TORSDOF 0
ENDMDL
MODEL 7
REMARK VINA RESULT:    -3.871      2.431      3.258
REMARK INTER + INTRA:          -3.871
REMARK INTER:                  -3.871
REMARK INTRA:                   0.000
REMARK UNBOUND:                 0.000
REMARK  Name = /home/vital/Documents/PhD_2021/Malaria_codes/scripts/../data/pdbqt_ligands/ligand_322_temp.pdb
REMARK                            x       y       z     vdW  Elec       q    Type
REMARK                         _______ _______ _______ _____ _____    ______ ____
ROOT
ATOM      1  O1  UNL     1     138.278 130.239  87.849  0.00  0.00    -0.270 OA
ATOM      2  C1  UNL     1     139.032 129.979  88.778  0.00  0.00    +0.250 C 
ATOM      3  N1  UNL     1     139.180 128.777  89.429  0.00  0.00    -0.261 N 
ATOM      4  C2  UNL     1     138.463 127.627  89.214  0.00  0.00    +0.165 A 
ATOM      5  N2  UNL     1     138.761 126.526  89.863  0.00  0.00    -0.223 NA
ATOM      6  C3  UNL     1     137.890 125.507  89.483  0.00  0.00    +0.098 A 
ATOM      7  C4  UNL     1     137.980 124.156  90.035  0.00  0.00    +0.090 A 
ATOM      8  C5  UNL     1     138.964 123.837  90.966  0.00  0.00    -0.034 A 
ATOM      9  C6  UNL     1     139.019 122.540  91.470  0.00  0.00    -0.058 A 
ATOM     10  C7  UNL     1     138.093 121.601  91.032  0.00  0.00    -0.044 A 
ATOM     11  C8  UNL     1     137.146 121.999  90.103  0.00  0.00    +0.028 A 
ATOM     12  N3  UNL     1     137.067 123.249  89.597  0.00  0.00    -0.253 NA
ATOM     13  C9  UNL     1     136.942 125.882  88.550  0.00  0.00    +0.006 A 
ATOM     14  S1  UNL     1     137.145 127.532  88.144  0.00  0.00    -0.060 S 
ATOM     15  C10 UNL     1     139.938 131.061  89.259  0.00  0.00    +0.039 A 
ATOM     16  C11 UNL     1     140.425 131.986  88.324  0.00  0.00    -0.046 A 
ATOM     17  C12 UNL     1     141.274 133.018  88.731  0.00  0.00    -0.018 A 
ATOM     18  C13 UNL     1     141.624 133.129  90.072  0.00  0.00    +0.135 A 
ATOM     19  O2  UNL     1     142.457 134.155  90.420  0.00  0.00    -0.505 OA
ATOM     20  C14 UNL     1     141.127 132.222  91.011  0.00  0.00    +0.083 A 
ATOM     21 CL1  UNL     1     141.552 132.372  92.676  0.00  0.00    -0.080 Cl
ATOM     22  C15 UNL     1     140.281 131.188  90.611  0.00  0.00    -0.028 A 
ATOM     23  H   UNL     1     139.876 128.737  90.125  0.00  0.00    +0.000 HD
ATOM     24  H   UNL     1     142.772 134.745  89.765  0.00  0.00    +0.000 HD
ENDROOT
TORSDOF 0
ENDMDL
MODEL 8
REMARK VINA RESULT:    -3.666      6.221      9.209
REMARK INTER + INTRA:          -3.666
REMARK INTER:                  -3.666
REMARK INTRA:                   0.000
REMARK UNBOUND:                 0.000
REMARK  Name = /home/vital/Documents/PhD_2021/Malaria_codes/scripts/../data/pdbqt_ligands/ligand_322_temp.pdb
REMARK                            x       y       z     vdW  Elec       q    Type
REMARK                         _______ _______ _______ _____ _____    ______ ____
ROOT
ATOM      1  O1  UNL     1     145.344 132.637  97.763  0.00  0.00    -0.270 OA
ATOM      2  C1  UNL     1     144.254 132.082  97.706  0.00  0.00    +0.250 C 
ATOM      3  N1  UNL     1     143.441 131.937  96.606  0.00  0.00    -0.261 N 
ATOM      4  C2  UNL     1     143.654 132.442  95.349  0.00  0.00    +0.165 A 
ATOM      5  N2  UNL     1     142.826 132.163  94.371  0.00  0.00    -0.223 NA
ATOM      6  C3  UNL     1     143.247 132.797  93.203  0.00  0.00    +0.098 A 
ATOM      7  C4  UNL     1     142.524 132.667  91.939  0.00  0.00    +0.090 A 
ATOM      8  C5  UNL     1     141.377 131.883  91.858  0.00  0.00    -0.034 A 
ATOM      9  C6  UNL     1     140.715 131.783  90.637  0.00  0.00    -0.058 A 
ATOM     10  C7  UNL     1     141.214 132.466  89.535  0.00  0.00    -0.044 A 
ATOM     11  C8  UNL     1     142.361 133.225  89.700  0.00  0.00    +0.028 A 
ATOM     12  N3  UNL     1     143.025 133.342  90.870  0.00  0.00    -0.253 NA
ATOM     13  C9  UNL     1     144.396 133.552  93.345  0.00  0.00    +0.006 A 
ATOM     14  S1  UNL     1     144.955 133.468  94.960  0.00  0.00    -0.060 S 
ATOM     15  C10 UNL     1     143.735 131.445  98.950  0.00  0.00    +0.039 A 
ATOM     16  C11 UNL     1     144.657 130.879  99.843  0.00  0.00    -0.046 A 
ATOM     17  C12 UNL     1     144.216 130.275 101.022  0.00  0.00    -0.018 A 
ATOM     18  C13 UNL     1     142.856 130.248 101.311  0.00  0.00    +0.135 A 
ATOM     19  O2  UNL     1     142.474 129.644 102.476  0.00  0.00    -0.505 OA
ATOM     20  C14 UNL     1     141.934 130.826 100.435  0.00  0.00    +0.083 A 
ATOM     21 CL1  UNL     1     140.250 130.803 100.804  0.00  0.00    -0.080 Cl
ATOM     22  C15 UNL     1     142.367 131.429  99.254  0.00  0.00    -0.028 A 
ATOM     23  H   UNL     1     142.617 131.413  96.735  0.00  0.00    +0.000 HD
ATOM     24  H   UNL     1     143.118 129.267 103.041  0.00  0.00    +0.000 HD
ENDROOT
TORSDOF 0
ENDMDL
MODEL 9
REMARK VINA RESULT:    -3.558      6.989      9.386
REMARK INTER + INTRA:          -3.558
REMARK INTER:                  -3.558
REMARK INTRA:                   0.000
REMARK UNBOUND:                 0.000
REMARK  Name = /home/vital/Documents/PhD_2021/Malaria_codes/scripts/../data/pdbqt_ligands/ligand_322_temp.pdb
REMARK                            x       y       z     vdW  Elec       q    Type
REMARK                         _______ _______ _______ _____ _____    ______ ____
ROOT
ATOM      1  O1  UNL     1     142.539 126.537  92.257  0.00  0.00    -0.270 OA
ATOM      2  C1  UNL     1     141.319 126.624  92.317  0.00  0.00    +0.250 C 
ATOM      3  N1  UNL     1     140.549 126.910  93.420  0.00  0.00    -0.261 N 
ATOM      4  C2  UNL     1     140.986 127.097  94.706  0.00  0.00    +0.165 A 
ATOM      5  N2  UNL     1     140.144 127.437  95.653  0.00  0.00    -0.223 NA
ATOM      6  C3  UNL     1     140.821 127.555  96.865  0.00  0.00    +0.098 A 
ATOM      7  C4  UNL     1     140.144 127.931  98.105  0.00  0.00    +0.090 A 
ATOM      8  C5  UNL     1     138.778 128.196  98.112  0.00  0.00    -0.034 A 
ATOM      9  C6  UNL     1     138.168 128.551  99.313  0.00  0.00    -0.058 A 
ATOM     10  C7  UNL     1     138.934 128.629 100.468  0.00  0.00    -0.044 A 
ATOM     11  C8  UNL     1     140.288 128.349 100.376  0.00  0.00    +0.028 A 
ATOM     12  N3  UNL     1     140.908 128.003  99.227  0.00  0.00    -0.253 NA
ATOM     13  C9  UNL     1     142.175 127.288  96.792  0.00  0.00    +0.006 A 
ATOM     14  S1  UNL     1     142.605 126.883  95.185  0.00  0.00    -0.060 S 
ATOM     15  C10 UNL     1     140.550 126.440  91.053  0.00  0.00    +0.039 A 
ATOM     16  C11 UNL     1     141.129 126.871  89.851  0.00  0.00    -0.046 A 
ATOM     17  C12 UNL     1     140.445 126.716  88.643  0.00  0.00    -0.018 A 
ATOM     18  C13 UNL     1     139.189 126.120  88.639  0.00  0.00    +0.135 A 
ATOM     19  O2  UNL     1     138.560 125.992  87.433  0.00  0.00    -0.505 OA
ATOM     20  C14 UNL     1     138.613 125.672  89.831  0.00  0.00    +0.083 A 
ATOM     21 CL1  UNL     1     137.062 124.920  89.818  0.00  0.00    -0.080 Cl
ATOM     22  C15 UNL     1     139.290 125.825  91.041  0.00  0.00    -0.028 A 
ATOM     23  H   UNL     1     139.579 126.989  93.270  0.00  0.00    +0.000 HD
ATOM     24  H   UNL     1     138.975 126.303  86.653  0.00  0.00    +0.000 HD
ENDROOT
TORSDOF 0
ENDMDL
