MODEL 1
REMARK VINA RESULT:    -3.173      0.000      0.000
REMARK INTER + INTRA:          -3.173
REMARK INTER:                  -3.173
REMARK INTRA:                   0.000
REMARK UNBOUND:                 0.000
REMARK  Name = /home/vital/Documents/PhD_2021/Malaria_codes/scripts/../data/pdbqt_ligands/ligand_451_temp.pdb
REMARK                            x       y       z     vdW  Elec       q    Type
REMARK                         _______ _______ _______ _____ _____    ______ ____
ROOT
ATOM      1  C1  UNL     1     140.286 143.661 103.199  0.00  0.00    +0.079 C 
ATOM      2  O1  UNL     1     140.470 142.384 103.802  0.00  0.00    -0.491 OA
ATOM      3  C2  UNL     1     140.298 142.323 105.162  0.00  0.00    +0.165 A 
ATOM      4  C3  UNL     1     139.963 143.383 105.997  0.00  0.00    +0.029 A 
ATOM      5  C4  UNL     1     139.826 143.150 107.366  0.00  0.00    +0.162 A 
ATOM      6  O2  UNL     1     139.495 144.211 108.166  0.00  0.00    -0.503 OA
ATOM      7  C5  UNL     1     140.014 141.880 107.930  0.00  0.00    +0.165 A 
ATOM      8  O3  UNL     1     139.842 141.819 109.289  0.00  0.00    -0.491 OA
ATOM      9  C6  UNL     1     140.026 140.543 109.893  0.00  0.00    +0.079 C 
ATOM     10  C7  UNL     1     140.349 140.820 107.094  0.00  0.00    +0.029 A 
ATOM     11  C8  UNL     1     140.486 141.053 105.726  0.00  0.00    +0.162 A 
ATOM     12  O4  UNL     1     140.817 139.992 104.925  0.00  0.00    -0.503 OA
ATOM     13  H   UNL     1     139.369 145.060 107.790  0.00  0.00    +0.000 HD
ATOM     14  H   UNL     1     140.917 140.114 104.002  0.00  0.00    +0.000 HD
ENDROOT
TORSDOF 0
ENDMDL
MODEL 2
REMARK VINA RESULT:    -3.161     12.438     13.715
REMARK INTER + INTRA:          -3.161
REMARK INTER:                  -3.161
REMARK INTRA:                   0.000
REMARK UNBOUND:                 0.000
REMARK  Name = /home/vital/Documents/PhD_2021/Malaria_codes/scripts/../data/pdbqt_ligands/ligand_451_temp.pdb
REMARK                            x       y       z     vdW  Elec       q    Type
REMARK                         _______ _______ _______ _____ _____    ______ ____
ROOT
ATOM      1  C1  UNL     1     146.250 132.124  99.293  0.00  0.00    +0.079 C 
ATOM      2  O1  UNL     1     145.329 131.978 100.370  0.00  0.00    -0.491 OA
ATOM      3  C2  UNL     1     144.100 131.458 100.053  0.00  0.00    +0.165 A 
ATOM      4  C3  UNL     1     143.674 131.065  98.788  0.00  0.00    +0.029 A 
ATOM      5  C4  UNL     1     142.385 130.554  98.636  0.00  0.00    +0.162 A 
ATOM      6  O2  UNL     1     141.991 130.173  97.381  0.00  0.00    -0.503 OA
ATOM      7  C5  UNL     1     141.502 130.422  99.716  0.00  0.00    +0.165 A 
ATOM      8  O3  UNL     1     140.272 129.903  99.399  0.00  0.00    -0.491 OA
ATOM      9  C6  UNL     1     139.351 129.757 100.476  0.00  0.00    +0.079 C 
ATOM     10  C7  UNL     1     141.927 130.816 100.981  0.00  0.00    +0.029 A 
ATOM     11  C8  UNL     1     143.216 131.327 101.133  0.00  0.00    +0.162 A 
ATOM     12  O4  UNL     1     143.610 131.707 102.388  0.00  0.00    -0.503 OA
ATOM     13  H   UNL     1     142.581 130.261  96.658  0.00  0.00    +0.000 HD
ATOM     14  H   UNL     1     144.469 132.054 102.525  0.00  0.00    +0.000 HD
ENDROOT
TORSDOF 0
ENDMDL
MODEL 3
REMARK VINA RESULT:    -3.157     15.731     17.544
REMARK INTER + INTRA:          -3.157
REMARK INTER:                  -3.157
REMARK INTRA:                   0.000
REMARK UNBOUND:                 0.000
REMARK  Name = /home/vital/Documents/PhD_2021/Malaria_codes/scripts/../data/pdbqt_ligands/ligand_451_temp.pdb
REMARK                            x       y       z     vdW  Elec       q    Type
REMARK                         _______ _______ _______ _____ _____    ______ ____
ROOT
ATOM      1  C1  UNL     1     141.464 133.495  88.549  0.00  0.00    +0.079 C 
ATOM      2  O1  UNL     1     142.522 133.729  89.473  0.00  0.00    -0.491 OA
ATOM      3  C2  UNL     1     142.369 133.188  90.724  0.00  0.00    +0.165 A 
ATOM      4  C3  UNL     1     141.285 132.437  91.169  0.00  0.00    +0.029 A 
ATOM      5  C4  UNL     1     141.286 131.958  92.478  0.00  0.00    +0.162 A 
ATOM      6  O2  UNL     1     140.207 131.222  92.891  0.00  0.00    -0.503 OA
ATOM      7  C5  UNL     1     142.344 132.206  93.364  0.00  0.00    +0.165 A 
ATOM      8  O3  UNL     1     142.191 131.664  94.615  0.00  0.00    -0.491 OA
ATOM      9  C6  UNL     1     143.249 131.899  95.539  0.00  0.00    +0.079 C 
ATOM     10  C7  UNL     1     143.427 132.956  92.919  0.00  0.00    +0.029 A 
ATOM     11  C8  UNL     1     143.427 133.435  91.610  0.00  0.00    +0.162 A 
ATOM     12  O4  UNL     1     144.506 134.172  91.197  0.00  0.00    -0.503 OA
ATOM     13  H   UNL     1     139.500 131.055  92.300  0.00  0.00    +0.000 HD
ATOM     14  H   UNL     1     144.537 134.509  90.323  0.00  0.00    +0.000 HD
ENDROOT
TORSDOF 0
ENDMDL
MODEL 4
REMARK VINA RESULT:    -3.140     12.181     13.728
REMARK INTER + INTRA:          -3.140
REMARK INTER:                  -3.140
REMARK INTRA:                   0.000
REMARK UNBOUND:                 0.000
REMARK  Name = /home/vital/Documents/PhD_2021/Malaria_codes/scripts/../data/pdbqt_ligands/ligand_451_temp.pdb
REMARK                            x       y       z     vdW  Elec       q    Type
REMARK                         _______ _______ _______ _____ _____    ______ ____
ROOT
ATOM      1  C1  UNL     1     142.522 127.619 102.960  0.00  0.00    +0.079 C 
ATOM      2  O1  UNL     1     143.325 128.758 102.668  0.00  0.00    -0.491 OA
ATOM      3  C2  UNL     1     142.822 129.636 101.743  0.00  0.00    +0.165 A 
ATOM      4  C3  UNL     1     141.611 129.518 101.069  0.00  0.00    +0.029 A 
ATOM      5  C4  UNL     1     141.246 130.505 100.154  0.00  0.00    +0.162 A 
ATOM      6  O2  UNL     1     140.048 130.364  99.504  0.00  0.00    -0.503 OA
ATOM      7  C5  UNL     1     142.059 131.615  99.888  0.00  0.00    +0.165 A 
ATOM      8  O3  UNL     1     141.556 132.494  98.963  0.00  0.00    -0.491 OA
ATOM      9  C6  UNL     1     142.359 133.633  98.671  0.00  0.00    +0.079 C 
ATOM     10  C7  UNL     1     143.270 131.734 100.562  0.00  0.00    +0.029 A 
ATOM     11  C8  UNL     1     143.635 130.747 101.477  0.00  0.00    +0.162 A 
ATOM     12  O4  UNL     1     144.833 130.888 102.127  0.00  0.00    -0.503 OA
ATOM     13  H   UNL     1     139.503 129.622  99.681  0.00  0.00    +0.000 HD
ATOM     14  H   UNL     1     145.108 130.243 102.748  0.00  0.00    +0.000 HD
ENDROOT
TORSDOF 0
ENDMDL
MODEL 5
REMARK VINA RESULT:    -3.136     12.500     13.632
REMARK INTER + INTRA:          -3.136
REMARK INTER:                  -3.136
REMARK INTRA:                   0.000
REMARK UNBOUND:                 0.000
REMARK  Name = /home/vital/Documents/PhD_2021/Malaria_codes/scripts/../data/pdbqt_ligands/ligand_451_temp.pdb
REMARK                            x       y       z     vdW  Elec       q    Type
REMARK                         _______ _______ _______ _____ _____    ______ ____
ROOT
ATOM      1  C1  UNL     1     139.518 129.853  99.726  0.00  0.00    +0.079 C 
ATOM      2  O1  UNL     1     140.513 130.165  98.757  0.00  0.00    -0.491 OA
ATOM      3  C2  UNL     1     141.696 130.667  99.239  0.00  0.00    +0.165 A 
ATOM      4  C3  UNL     1     142.008 130.897 100.574  0.00  0.00    +0.029 A 
ATOM      5  C4  UNL     1     143.263 131.415 100.896  0.00  0.00    +0.162 A 
ATOM      6  O2  UNL     1     143.545 131.631 102.219  0.00  0.00    -0.503 OA
ATOM      7  C5  UNL     1     144.222 131.712  99.919  0.00  0.00    +0.165 A 
ATOM      8  O3  UNL     1     145.405 132.214 100.400  0.00  0.00    -0.491 OA
ATOM      9  C6  UNL     1     146.400 132.526  99.431  0.00  0.00    +0.079 C 
ATOM     10  C7  UNL     1     143.910 131.482  98.583  0.00  0.00    +0.029 A 
ATOM     11  C8  UNL     1     142.655 130.964  98.261  0.00  0.00    +0.162 A 
ATOM     12  O4  UNL     1     142.372 130.748  96.938  0.00  0.00    -0.503 OA
ATOM     13  H   UNL     1     142.905 131.433 102.874  0.00  0.00    +0.000 HD
ATOM     14  H   UNL     1     141.539 130.401  96.687  0.00  0.00    +0.000 HD
ENDROOT
TORSDOF 0
ENDMDL
MODEL 6
REMARK VINA RESULT:    -3.124     15.963     18.054
REMARK INTER + INTRA:          -3.124
REMARK INTER:                  -3.124
REMARK INTRA:                   0.000
REMARK UNBOUND:                 0.000
REMARK  Name = /home/vital/Documents/PhD_2021/Malaria_codes/scripts/../data/pdbqt_ligands/ligand_451_temp.pdb
REMARK                            x       y       z     vdW  Elec       q    Type
REMARK                         _______ _______ _______ _____ _____    ______ ____
ROOT
ATOM      1  C1  UNL     1     143.306 131.690  95.403  0.00  0.00    +0.079 C 
ATOM      2  O1  UNL     1     142.221 131.476  94.506  0.00  0.00    -0.491 OA
ATOM      3  C2  UNL     1     142.326 132.066  93.272  0.00  0.00    +0.165 A 
ATOM      4  C3  UNL     1     143.384 132.848  92.821  0.00  0.00    +0.029 A 
ATOM      5  C4  UNL     1     143.334 133.377  91.532  0.00  0.00    +0.162 A 
ATOM      6  O2  UNL     1     144.390 134.144  91.113  0.00  0.00    -0.503 OA
ATOM      7  C5  UNL     1     142.252 133.148  90.672  0.00  0.00    +0.165 A 
ATOM      8  O3  UNL     1     142.356 133.738  89.438  0.00  0.00    -0.491 OA
ATOM      9  C6  UNL     1     141.272 133.524  88.540  0.00  0.00    +0.079 C 
ATOM     10  C7  UNL     1     141.193 132.366  91.122  0.00  0.00    +0.029 A 
ATOM     11  C8  UNL     1     141.243 131.837  92.412  0.00  0.00    +0.162 A 
ATOM     12  O4  UNL     1     140.188 131.070  92.831  0.00  0.00    -0.503 OA
ATOM     13  H   UNL     1     145.114 134.298  91.687  0.00  0.00    +0.000 HD
ATOM     14  H   UNL     1     140.190 130.700  93.691  0.00  0.00    +0.000 HD
ENDROOT
TORSDOF 0
ENDMDL
MODEL 7
REMARK VINA RESULT:    -3.033     11.830     13.553
REMARK INTER + INTRA:          -3.033
REMARK INTER:                  -3.033
REMARK INTRA:                   0.000
REMARK UNBOUND:                 0.000
REMARK  Name = /home/vital/Documents/PhD_2021/Malaria_codes/scripts/../data/pdbqt_ligands/ligand_451_temp.pdb
REMARK                            x       y       z     vdW  Elec       q    Type
REMARK                         _______ _______ _______ _____ _____    ______ ____
ROOT
ATOM      1  C1  UNL     1     142.274 133.736  98.769  0.00  0.00    +0.079 C 
ATOM      2  O1  UNL     1     142.757 133.001  99.889  0.00  0.00    -0.491 OA
ATOM      3  C2  UNL     1     142.216 131.755 100.079  0.00  0.00    +0.165 A 
ATOM      4  C3  UNL     1     141.246 131.150  99.286  0.00  0.00    +0.029 A 
ATOM      5  C4  UNL     1     140.801 129.871  99.621  0.00  0.00    +0.162 A 
ATOM      6  O2  UNL     1     139.846 129.297  98.823  0.00  0.00    -0.503 OA
ATOM      7  C5  UNL     1     141.297 129.173 100.730  0.00  0.00    +0.165 A 
ATOM      8  O3  UNL     1     140.756 127.927 100.920  0.00  0.00    -0.491 OA
ATOM      9  C6  UNL     1     141.239 127.192 102.040  0.00  0.00    +0.079 C 
ATOM     10  C7  UNL     1     142.267 129.778 101.523  0.00  0.00    +0.029 A 
ATOM     11  C8  UNL     1     142.712 131.057 101.189  0.00  0.00    +0.162 A 
ATOM     12  O4  UNL     1     143.667 131.631 101.986  0.00  0.00    -0.503 OA
ATOM     13  H   UNL     1     139.513 129.763  98.082  0.00  0.00    +0.000 HD
ATOM     14  H   UNL     1     143.989 132.488 101.789  0.00  0.00    +0.000 HD
ENDROOT
TORSDOF 0
ENDMDL
MODEL 8
REMARK VINA RESULT:    -3.010     24.543     26.224
REMARK INTER + INTRA:          -3.010
REMARK INTER:                  -3.010
REMARK INTRA:                   0.000
REMARK UNBOUND:                 0.000
REMARK  Name = /home/vital/Documents/PhD_2021/Malaria_codes/scripts/../data/pdbqt_ligands/ligand_451_temp.pdb
REMARK                            x       y       z     vdW  Elec       q    Type
REMARK                         _______ _______ _______ _____ _____    ______ ____
ROOT
ATOM      1  C1  UNL     1     128.466 130.826  88.160  0.00  0.00    +0.079 C 
ATOM      2  O1  UNL     1     128.408 132.164  87.678  0.00  0.00    -0.491 OA
ATOM      3  C2  UNL     1     127.183 132.602  87.242  0.00  0.00    +0.165 A 
ATOM      4  C3  UNL     1     126.004 131.865  87.227  0.00  0.00    +0.029 A 
ATOM      5  C4  UNL     1     124.838 132.462  86.748  0.00  0.00    +0.162 A 
ATOM      6  O2  UNL     1     123.690 131.714  86.745  0.00  0.00    -0.503 OA
ATOM      7  C5  UNL     1     124.814 133.783  86.280  0.00  0.00    +0.165 A 
ATOM      8  O3  UNL     1     123.589 134.221  85.844  0.00  0.00    -0.491 OA
ATOM      9  C6  UNL     1     123.531 135.560  85.362  0.00  0.00    +0.079 C 
ATOM     10  C7  UNL     1     125.993 134.520  86.295  0.00  0.00    +0.029 A 
ATOM     11  C8  UNL     1     127.159 133.923  86.774  0.00  0.00    +0.162 A 
ATOM     12  O4  UNL     1     128.307 134.671  86.777  0.00  0.00    -0.503 OA
ATOM     13  H   UNL     1     123.705 130.832  87.058  0.00  0.00    +0.000 HD
ATOM     14  H   UNL     1     129.107 134.300  87.092  0.00  0.00    +0.000 HD
ENDROOT
TORSDOF 0
ENDMDL
MODEL 9
REMARK VINA RESULT:    -2.618     25.456     26.980
REMARK INTER + INTRA:          -2.618
REMARK INTER:                  -2.618
REMARK INTRA:                   0.000
REMARK UNBOUND:                 0.000
REMARK  Name = /home/vital/Documents/PhD_2021/Malaria_codes/scripts/../data/pdbqt_ligands/ligand_451_temp.pdb
REMARK                            x       y       z     vdW  Elec       q    Type
REMARK                         _______ _______ _______ _____ _____    ______ ____
ROOT
ATOM      1  C1  UNL     1     123.323 135.701  86.557  0.00  0.00    +0.079 C 
ATOM      2  O1  UNL     1     123.348 134.367  86.060  0.00  0.00    -0.491 OA
ATOM      3  C2  UNL     1     124.581 133.769  85.984  0.00  0.00    +0.165 A 
ATOM      4  C3  UNL     1     125.797 134.342  86.343  0.00  0.00    +0.029 A 
ATOM      5  C4  UNL     1     126.965 133.594  86.202  0.00  0.00    +0.162 A 
ATOM      6  O2  UNL     1     128.149 134.182  86.564  0.00  0.00    -0.503 OA
ATOM      7  C5  UNL     1     126.958 132.282  85.710  0.00  0.00    +0.165 A 
ATOM      8  O3  UNL     1     128.190 131.684  85.634  0.00  0.00    -0.491 OA
ATOM      9  C6  UNL     1     128.216 130.350  85.137  0.00  0.00    +0.079 C 
ATOM     10  C7  UNL     1     125.742 131.709  85.351  0.00  0.00    +0.029 A 
ATOM     11  C8  UNL     1     124.574 132.457  85.492  0.00  0.00    +0.162 A 
ATOM     12  O4  UNL     1     123.390 131.869  85.130  0.00  0.00    -0.503 OA
ATOM     13  H   UNL     1     128.156 135.059  86.893  0.00  0.00    +0.000 HD
ATOM     14  H   UNL     1     122.587 132.344  85.212  0.00  0.00    +0.000 HD
ENDROOT
TORSDOF 0
ENDMDL
