MODEL 1
REMARK VINA RESULT:    -4.552      0.000      0.000
REMARK INTER + INTRA:          -4.552
REMARK INTER:                  -4.552
REMARK INTRA:                   0.000
REMARK UNBOUND:                 0.000
REMARK  Name = /home/vital/Documents/PhD_2021/Malaria_codes/scripts/../data/pdbqt_ligands/ligand_435_temp.pdb
REMARK                            x       y       z     vdW  Elec       q    Type
REMARK                         _______ _______ _______ _____ _____    ______ ____
ROOT
ATOM      1  C   UNL     1     139.532 126.412  89.949  0.00  0.00    -0.039 C 
ATOM      2  C   UNL     1     139.166 124.951  89.710  0.00  0.00    +0.054 C 
ATOM      3  O   UNL     1     139.708 124.546  88.456  0.00  0.00    -0.392 OA
ATOM      4  C   UNL     1     137.649 124.739  89.738  0.00  0.00    -0.009 C 
ATOM      5  C   UNL     1     137.198 123.323  89.330  0.00  0.00    +0.023 C 
ATOM      6  C   UNL     1     137.742 122.245  90.266  0.00  0.00    -0.047 C 
ATOM      7  N   UNL     1     135.741 123.246  89.302  0.00  0.00    -0.309 N 
ATOM      8  C   UNL     1     134.975 123.819  88.313  0.00  0.00    +0.248 C 
ATOM      9  O   UNL     1     135.466 124.454  87.381  0.00  0.00    -0.270 OA
ATOM     10  C   UNL     1     133.487 123.653  88.409  0.00  0.00    +0.079 A 
ATOM     11  C   UNL     1     132.822 122.906  89.400  0.00  0.00    +0.143 A 
ATOM     12  O   UNL     1     133.567 122.272  90.371  0.00  0.00    -0.505 OA
ATOM     13  C   UNL     1     131.414 122.816  89.390  0.00  0.00    +0.101 A 
ATOM     14  C   UNL     1     130.618 122.056  90.391  0.00  0.00    +0.340 C 
ATOM     15  O   UNL     1     129.406 121.974  90.437  0.00  0.00    -0.245 OA
ATOM     16  O   UNL     1     131.383 121.416  91.301  0.00  0.00    -0.477 OA
ATOM     17  C   UNL     1     130.680 123.478  88.392  0.00  0.00    -0.044 A 
ATOM     18  C   UNL     1     131.332 124.223  87.411  0.00  0.00    -0.060 A 
ATOM     19  C   UNL     1     132.724 124.308  87.422  0.00  0.00    -0.046 A 
ATOM     20  H   UNL     1     139.329 125.092  87.749  0.00  0.00    +0.000 HD
ATOM     21  H   UNL     1     135.283 122.761  90.026  0.00  0.00    +0.000 HD
ATOM     22  H   UNL     1     134.502 122.342  90.364  0.00  0.00    +0.000 HD
ENDROOT
TORSDOF 0
ENDMDL
MODEL 2
REMARK VINA RESULT:    -4.418      9.511     12.148
REMARK INTER + INTRA:          -4.418
REMARK INTER:                  -4.418
REMARK INTRA:                   0.000
REMARK UNBOUND:                 0.000
REMARK  Name = /home/vital/Documents/PhD_2021/Malaria_codes/scripts/../data/pdbqt_ligands/ligand_435_temp.pdb
REMARK                            x       y       z     vdW  Elec       q    Type
REMARK                         _______ _______ _______ _____ _____    ______ ____
ROOT
ATOM      1  C   UNL     1     142.530 128.182  92.217  0.00  0.00    -0.039 C 
ATOM      2  C   UNL     1     142.031 126.957  92.974  0.00  0.00    +0.054 C 
ATOM      3  O   UNL     1     140.801 126.533  92.394  0.00  0.00    -0.392 OA
ATOM      4  C   UNL     1     141.850 127.253  94.467  0.00  0.00    -0.009 C 
ATOM      5  C   UNL     1     141.182 126.116  95.264  0.00  0.00    +0.023 C 
ATOM      6  C   UNL     1     142.000 124.826  95.236  0.00  0.00    -0.047 C 
ATOM      7  N   UNL     1     140.974 126.526  96.649  0.00  0.00    -0.309 N 
ATOM      8  C   UNL     1     140.002 127.421  97.032  0.00  0.00    +0.248 C 
ATOM      9  O   UNL     1     139.242 127.956  96.228  0.00  0.00    -0.270 OA
ATOM     10  C   UNL     1     139.899 127.743  98.494  0.00  0.00    +0.079 A 
ATOM     11  C   UNL     1     140.681 127.155  99.506  0.00  0.00    +0.143 A 
ATOM     12  O   UNL     1     141.624 126.211  99.158  0.00  0.00    -0.505 OA
ATOM     13  C   UNL     1     140.495 127.533 100.852  0.00  0.00    +0.101 A 
ATOM     14  C   UNL     1     141.270 126.975 101.993  0.00  0.00    +0.340 C 
ATOM     15  O   UNL     1     141.162 127.291 103.162  0.00  0.00    -0.245 OA
ATOM     16  O   UNL     1     142.154 126.026 101.619  0.00  0.00    -0.477 OA
ATOM     17  C   UNL     1     139.531 128.503 101.177  0.00  0.00    -0.044 A 
ATOM     18  C   UNL     1     138.757 129.092 100.179  0.00  0.00    -0.060 A 
ATOM     19  C   UNL     1     138.942 128.714  98.850  0.00  0.00    -0.046 A 
ATOM     20  H   UNL     1     140.146 127.245  92.467  0.00  0.00    +0.000 HD
ATOM     21  H   UNL     1     141.558 126.143  97.343  0.00  0.00    +0.000 HD
ATOM     22  H   UNL     1     141.736 125.970  98.259  0.00  0.00    +0.000 HD
ENDROOT
TORSDOF 0
ENDMDL
MODEL 3
REMARK VINA RESULT:    -4.319     14.105     15.187
REMARK INTER + INTRA:          -4.319
REMARK INTER:                  -4.319
REMARK INTRA:                   0.000
REMARK UNBOUND:                 0.000
REMARK  Name = /home/vital/Documents/PhD_2021/Malaria_codes/scripts/../data/pdbqt_ligands/ligand_435_temp.pdb
REMARK                            x       y       z     vdW  Elec       q    Type
REMARK                         _______ _______ _______ _____ _____    ______ ____
ROOT
ATOM      1  C   UNL     1     146.074 135.119  98.132  0.00  0.00    -0.039 C 
ATOM      2  C   UNL     1     146.113 133.644  97.747  0.00  0.00    +0.054 C 
ATOM      3  O   UNL     1     145.869 133.533  96.348  0.00  0.00    -0.392 OA
ATOM      4  C   UNL     1     145.089 132.829  98.543  0.00  0.00    -0.009 C 
ATOM      5  C   UNL     1     144.949 131.364  98.084  0.00  0.00    +0.023 C 
ATOM      6  C   UNL     1     146.250 130.578  98.235  0.00  0.00    -0.047 C 
ATOM      7  N   UNL     1     143.892 130.698  98.838  0.00  0.00    -0.309 N 
ATOM      8  C   UNL     1     142.553 130.934  98.629  0.00  0.00    +0.248 C 
ATOM      9  O   UNL     1     142.147 131.741  97.795  0.00  0.00    -0.270 OA
ATOM     10  C   UNL     1     141.577 130.170  99.475  0.00  0.00    +0.079 A 
ATOM     11  C   UNL     1     141.927 129.189 100.421  0.00  0.00    +0.143 A 
ATOM     12  O   UNL     1     143.259 128.889 100.611  0.00  0.00    -0.505 OA
ATOM     13  C   UNL     1     140.922 128.530 101.160  0.00  0.00    +0.101 A 
ATOM     14  C   UNL     1     141.187 127.483 102.183  0.00  0.00    +0.340 C 
ATOM     15  O   UNL     1     140.356 126.910 102.860  0.00  0.00    -0.245 OA
ATOM     16  O   UNL     1     142.498 127.186 102.312  0.00  0.00    -0.477 OA
ATOM     17  C   UNL     1     139.573 128.861 100.950  0.00  0.00    -0.044 A 
ATOM     18  C   UNL     1     139.220 129.835 100.018  0.00  0.00    -0.060 A 
ATOM     19  C   UNL     1     140.216 130.482  99.288  0.00  0.00    -0.046 A 
ATOM     20  H   UNL     1     144.992 133.895  96.143  0.00  0.00    +0.000 HD
ATOM     21  H   UNL     1     144.150 130.048  99.530  0.00  0.00    +0.000 HD
ATOM     22  H   UNL     1     143.916 129.335 100.112  0.00  0.00    +0.000 HD
ENDROOT
TORSDOF 0
ENDMDL
MODEL 4
REMARK VINA RESULT:    -4.230     14.262     16.217
REMARK INTER + INTRA:          -4.230
REMARK INTER:                  -4.230
REMARK INTRA:                   0.000
REMARK UNBOUND:                 0.000
REMARK  Name = /home/vital/Documents/PhD_2021/Malaria_codes/scripts/../data/pdbqt_ligands/ligand_435_temp.pdb
REMARK                            x       y       z     vdW  Elec       q    Type
REMARK                         _______ _______ _______ _____ _____    ______ ____
ROOT
ATOM      1  C   UNL     1     143.579 122.712 103.165  0.00  0.00    -0.039 C 
ATOM      2  C   UNL     1     143.680 124.062 103.868  0.00  0.00    +0.054 C 
ATOM      3  O   UNL     1     142.859 124.032 105.030  0.00  0.00    -0.392 OA
ATOM      4  C   UNL     1     143.266 125.210 102.941  0.00  0.00    -0.009 C 
ATOM      5  C   UNL     1     143.176 126.584 103.635  0.00  0.00    +0.023 C 
ATOM      6  C   UNL     1     144.516 127.035 104.213  0.00  0.00    -0.047 C 
ATOM      7  N   UNL     1     142.690 127.591 102.697  0.00  0.00    -0.309 N 
ATOM      8  C   UNL     1     141.381 127.667 102.284  0.00  0.00    +0.248 C 
ATOM      9  O   UNL     1     140.520 126.878 102.666  0.00  0.00    -0.270 OA
ATOM     10  C   UNL     1     141.024 128.762 101.321  0.00  0.00    +0.079 A 
ATOM     11  C   UNL     1     141.913 129.749 100.857  0.00  0.00    +0.143 A 
ATOM     12  O   UNL     1     143.219 129.733 101.300  0.00  0.00    -0.505 OA
ATOM     13  C   UNL     1     141.466 130.734  99.953  0.00  0.00    +0.101 A 
ATOM     14  C   UNL     1     142.325 131.817  99.402  0.00  0.00    +0.340 C 
ATOM     15  O   UNL     1     141.989 132.668  98.602  0.00  0.00    -0.245 OA
ATOM     16  O   UNL     1     143.584 131.793  99.889  0.00  0.00    -0.477 OA
ATOM     17  C   UNL     1     140.131 130.723  99.514  0.00  0.00    -0.044 A 
ATOM     18  C   UNL     1     139.247 129.745  99.965  0.00  0.00    -0.060 A 
ATOM     19  C   UNL     1     139.692 128.774 100.861  0.00  0.00    -0.046 A 
ATOM     20  H   UNL     1     141.937 123.873 104.771  0.00  0.00    +0.000 HD
ATOM     21  H   UNL     1     143.332 128.248 102.343  0.00  0.00    +0.000 HD
ATOM     22  H   UNL     1     143.501 129.071 101.901  0.00  0.00    +0.000 HD
ENDROOT
TORSDOF 0
ENDMDL
MODEL 5
REMARK VINA RESULT:    -4.208     12.799     15.048
REMARK INTER + INTRA:          -4.208
REMARK INTER:                  -4.208
REMARK INTRA:                   0.000
REMARK UNBOUND:                 0.000
REMARK  Name = /home/vital/Documents/PhD_2021/Malaria_codes/scripts/../data/pdbqt_ligands/ligand_435_temp.pdb
REMARK                            x       y       z     vdW  Elec       q    Type
REMARK                         _______ _______ _______ _____ _____    ______ ____
ROOT
ATOM      1  C   UNL     1     147.144 135.316  98.820  0.00  0.00    -0.039 C 
ATOM      2  C   UNL     1     146.261 134.793  97.692  0.00  0.00    +0.054 C 
ATOM      3  O   UNL     1     145.477 135.872  97.191  0.00  0.00    -0.392 OA
ATOM      4  C   UNL     1     145.361 133.647  98.168  0.00  0.00    -0.009 C 
ATOM      5  C   UNL     1     144.318 133.186  97.131  0.00  0.00    +0.023 C 
ATOM      6  C   UNL     1     144.962 132.650  95.854  0.00  0.00    -0.047 C 
ATOM      7  N   UNL     1     143.456 132.158  97.706  0.00  0.00    -0.309 N 
ATOM      8  C   UNL     1     142.476 132.428  98.633  0.00  0.00    +0.248 C 
ATOM      9  O   UNL     1     142.263 133.561  99.059  0.00  0.00    -0.270 OA
ATOM     10  C   UNL     1     141.660 131.271  99.131  0.00  0.00    +0.079 A 
ATOM     11  C   UNL     1     141.783 129.944  98.677  0.00  0.00    +0.143 A 
ATOM     12  O   UNL     1     142.717 129.654  97.706  0.00  0.00    -0.505 OA
ATOM     13  C   UNL     1     140.958 128.935  99.216  0.00  0.00    +0.101 A 
ATOM     14  C   UNL     1     141.011 127.505  98.808  0.00  0.00    +0.340 C 
ATOM     15  O   UNL     1     140.340 126.600  99.264  0.00  0.00    -0.245 OA
ATOM     16  O   UNL     1     141.907 127.267  97.827  0.00  0.00    -0.477 OA
ATOM     17  C   UNL     1     140.020 129.259 100.210  0.00  0.00    -0.044 A 
ATOM     18  C   UNL     1     139.897 130.570 100.667  0.00  0.00    -0.060 A 
ATOM     19  C   UNL     1     140.712 131.565 100.130  0.00  0.00    -0.046 A 
ATOM     20  H   UNL     1     144.917 136.223  97.901  0.00  0.00    +0.000 HD
ATOM     21  H   UNL     1     143.582 131.226  97.416  0.00  0.00    +0.000 HD
ATOM     22  H   UNL     1     143.258 130.336  97.358  0.00  0.00    +0.000 HD
ENDROOT
TORSDOF 0
ENDMDL
MODEL 6
REMARK VINA RESULT:    -4.202     12.744     15.497
REMARK INTER + INTRA:          -4.202
REMARK INTER:                  -4.202
REMARK INTRA:                   0.000
REMARK UNBOUND:                 0.000
REMARK  Name = /home/vital/Documents/PhD_2021/Malaria_codes/scripts/../data/pdbqt_ligands/ligand_435_temp.pdb
REMARK                            x       y       z     vdW  Elec       q    Type
REMARK                         _______ _______ _______ _____ _____    ______ ____
ROOT
ATOM      1  C   UNL     1     146.647 128.260 105.210  0.00  0.00    -0.039 C 
ATOM      2  C   UNL     1     146.799 128.579 103.726  0.00  0.00    +0.054 C 
ATOM      3  O   UNL     1     147.339 129.890 103.595  0.00  0.00    -0.392 OA
ATOM      4  C   UNL     1     145.461 128.468 102.988  0.00  0.00    -0.009 C 
ATOM      5  C   UNL     1     145.502 128.946 101.523  0.00  0.00    +0.023 C 
ATOM      6  C   UNL     1     146.468 128.125 100.669  0.00  0.00    -0.047 C 
ATOM      7  N   UNL     1     144.168 128.886 100.935  0.00  0.00    -0.309 N 
ATOM      8  C   UNL     1     143.169 129.781 101.241  0.00  0.00    +0.248 C 
ATOM      9  O   UNL     1     143.324 130.694 102.049  0.00  0.00    -0.270 OA
ATOM     10  C   UNL     1     141.848 129.601 100.553  0.00  0.00    +0.079 A 
ATOM     11  C   UNL     1     141.574 128.625  99.576  0.00  0.00    +0.143 A 
ATOM     12  O   UNL     1     142.574 127.751  99.207  0.00  0.00    -0.505 OA
ATOM     13  C   UNL     1     140.292 128.551  98.992  0.00  0.00    +0.101 A 
ATOM     14  C   UNL     1     139.901 127.557  97.956  0.00  0.00    +0.340 C 
ATOM     15  O   UNL     1     138.804 127.440  97.447  0.00  0.00    -0.245 OA
ATOM     16  O   UNL     1     140.916 126.746  97.590  0.00  0.00    -0.477 OA
ATOM     17  C   UNL     1     139.290 129.450  99.393  0.00  0.00    -0.044 A 
ATOM     18  C   UNL     1     139.554 130.416 100.363  0.00  0.00    -0.060 A 
ATOM     19  C   UNL     1     140.822 130.488 100.936  0.00  0.00    -0.046 A 
ATOM     20  H   UNL     1     146.734 130.531 104.001  0.00  0.00    +0.000 HD
ATOM     21  H   UNL     1     143.973 128.170 100.288  0.00  0.00    +0.000 HD
ATOM     22  H   UNL     1     143.420 127.813  99.604  0.00  0.00    +0.000 HD
ENDROOT
TORSDOF 0
ENDMDL
MODEL 7
REMARK VINA RESULT:    -4.194      2.837      3.086
REMARK INTER + INTRA:          -4.194
REMARK INTER:                  -4.194
REMARK INTRA:                   0.000
REMARK UNBOUND:                 0.000
REMARK  Name = /home/vital/Documents/PhD_2021/Malaria_codes/scripts/../data/pdbqt_ligands/ligand_435_temp.pdb
REMARK                            x       y       z     vdW  Elec       q    Type
REMARK                         _______ _______ _______ _____ _____    ______ ____
ROOT
ATOM      1  C   UNL     1     137.217 129.152  85.333  0.00  0.00    -0.039 C 
ATOM      2  C   UNL     1     137.536 128.011  86.293  0.00  0.00    +0.054 C 
ATOM      3  O   UNL     1     138.641 127.277  85.776  0.00  0.00    -0.392 OA
ATOM      4  C   UNL     1     136.326 127.094  86.499  0.00  0.00    -0.009 C 
ATOM      5  C   UNL     1     136.624 125.823  87.318  0.00  0.00    +0.023 C 
ATOM      6  C   UNL     1     137.098 126.140  88.736  0.00  0.00    -0.047 C 
ATOM      7  N   UNL     1     135.439 124.976  87.384  0.00  0.00    -0.309 N 
ATOM      8  C   UNL     1     134.984 124.233  86.319  0.00  0.00    +0.248 C 
ATOM      9  O   UNL     1     135.539 124.240  85.223  0.00  0.00    -0.270 OA
ATOM     10  C   UNL     1     133.754 123.400  86.535  0.00  0.00    +0.079 A 
ATOM     11  C   UNL     1     133.068 123.276  87.758  0.00  0.00    +0.143 A 
ATOM     12  O   UNL     1     133.535 123.964  88.857  0.00  0.00    -0.505 OA
ATOM     13  C   UNL     1     131.921 122.460  87.845  0.00  0.00    +0.101 A 
ATOM     14  C   UNL     1     131.126 122.266  89.087  0.00  0.00    +0.340 C 
ATOM     15  O   UNL     1     130.118 121.595  89.201  0.00  0.00    -0.245 OA
ATOM     16  O   UNL     1     131.636 122.921  90.152  0.00  0.00    -0.477 OA
ATOM     17  C   UNL     1     131.464 121.777  86.706  0.00  0.00    -0.044 A 
ATOM     18  C   UNL     1     132.135 121.898  85.491  0.00  0.00    -0.060 A 
ATOM     19  C   UNL     1     133.270 122.704  85.409  0.00  0.00    -0.046 A 
ATOM     20  H   UNL     1     138.409 126.910  84.908  0.00  0.00    +0.000 HD
ATOM     21  H   UNL     1     134.939 124.934  88.231  0.00  0.00    +0.000 HD
ATOM     22  H   UNL     1     134.299 124.503  88.783  0.00  0.00    +0.000 HD
ENDROOT
TORSDOF 0
ENDMDL
MODEL 8
REMARK VINA RESULT:    -4.191      2.439      3.140
REMARK INTER + INTRA:          -4.191
REMARK INTER:                  -4.191
REMARK INTRA:                   0.000
REMARK UNBOUND:                 0.000
REMARK  Name = /home/vital/Documents/PhD_2021/Malaria_codes/scripts/../data/pdbqt_ligands/ligand_435_temp.pdb
REMARK                            x       y       z     vdW  Elec       q    Type
REMARK                         _______ _______ _______ _____ _____    ______ ____
ROOT
ATOM      1  C   UNL     1     140.249 124.956  91.120  0.00  0.00    -0.039 C 
ATOM      2  C   UNL     1     139.582 125.646  89.935  0.00  0.00    +0.054 C 
ATOM      3  O   UNL     1     139.353 127.011  90.273  0.00  0.00    -0.392 OA
ATOM      4  C   UNL     1     138.269 124.957  89.548  0.00  0.00    -0.009 C 
ATOM      5  C   UNL     1     137.453 125.702  88.474  0.00  0.00    +0.023 C 
ATOM      6  C   UNL     1     138.209 125.832  87.153  0.00  0.00    -0.047 C 
ATOM      7  N   UNL     1     136.185 125.018  88.240  0.00  0.00    -0.309 N 
ATOM      8  C   UNL     1     135.133 125.058  89.125  0.00  0.00    +0.248 C 
ATOM      9  O   UNL     1     135.190 125.664  90.193  0.00  0.00    -0.270 OA
ATOM     10  C   UNL     1     133.886 124.313  88.747  0.00  0.00    +0.079 A 
ATOM     11  C   UNL     1     133.693 123.629  87.532  0.00  0.00    +0.143 A 
ATOM     12  O   UNL     1     134.709 123.621  86.601  0.00  0.00    -0.505 OA
ATOM     13  C   UNL     1     132.474 122.963  87.283  0.00  0.00    +0.101 A 
ATOM     14  C   UNL     1     132.172 122.211  86.035  0.00  0.00    +0.340 C 
ATOM     15  O   UNL     1     131.149 121.602  85.790  0.00  0.00    -0.245 OA
ATOM     16  O   UNL     1     133.173 122.261  85.131  0.00  0.00    -0.477 OA
ATOM     17  C   UNL     1     131.459 122.982  88.253  0.00  0.00    -0.044 A 
ATOM     18  C   UNL     1     131.646 123.653  89.460  0.00  0.00    -0.060 A 
ATOM     19  C   UNL     1     132.850 124.311  89.703  0.00  0.00    -0.046 A 
ATOM     20  H   UNL     1     138.767 127.059  91.044  0.00  0.00    +0.000 HD
ATOM     21  H   UNL     1     136.078 124.504  87.407  0.00  0.00    +0.000 HD
ATOM     22  H   UNL     1     135.513 124.068  86.782  0.00  0.00    +0.000 HD
ENDROOT
TORSDOF 0
ENDMDL
MODEL 9
REMARK VINA RESULT:    -3.786      2.624      2.753
REMARK INTER + INTRA:          -3.786
REMARK INTER:                  -3.786
REMARK INTRA:                   0.000
REMARK UNBOUND:                 0.000
REMARK  Name = /home/vital/Documents/PhD_2021/Malaria_codes/scripts/../data/pdbqt_ligands/ligand_435_temp.pdb
REMARK                            x       y       z     vdW  Elec       q    Type
REMARK                         _______ _______ _______ _____ _____    ______ ____
ROOT
ATOM      1  C   UNL     1     138.711 127.736  85.319  0.00  0.00    -0.039 C 
ATOM      2  C   UNL     1     138.813 126.532  86.248  0.00  0.00    +0.054 C 
ATOM      3  O   UNL     1     139.745 125.608  85.694  0.00  0.00    -0.392 OA
ATOM      4  C   UNL     1     137.449 125.865  86.456  0.00  0.00    -0.009 C 
ATOM      5  C   UNL     1     137.503 124.540  87.240  0.00  0.00    +0.023 C 
ATOM      6  C   UNL     1     138.049 124.721  88.656  0.00  0.00    -0.047 C 
ATOM      7  N   UNL     1     136.174 123.940  87.309  0.00  0.00    -0.309 N 
ATOM      8  C   UNL     1     135.568 123.328  86.236  0.00  0.00    +0.248 C 
ATOM      9  O   UNL     1     136.098 123.254  85.130  0.00  0.00    -0.270 OA
ATOM     10  C   UNL     1     134.201 122.748  86.456  0.00  0.00    +0.079 A 
ATOM     11  C   UNL     1     133.521 122.730  87.688  0.00  0.00    +0.143 A 
ATOM     12  O   UNL     1     134.129 123.284  88.794  0.00  0.00    -0.505 OA
ATOM     13  C   UNL     1     132.237 122.153  87.778  0.00  0.00    +0.101 A 
ATOM     14  C   UNL     1     131.436 122.087  89.030  0.00  0.00    +0.340 C 
ATOM     15  O   UNL     1     130.318 121.625  89.147  0.00  0.00    -0.245 OA
ATOM     16  O   UNL     1     132.080 122.602  90.099  0.00  0.00    -0.477 OA
ATOM     17  C   UNL     1     131.639 121.602  86.633  0.00  0.00    -0.044 A 
ATOM     18  C   UNL     1     132.305 121.620  85.409  0.00  0.00    -0.060 A 
ATOM     19  C   UNL     1     133.574 122.189  85.324  0.00  0.00    -0.046 A 
ATOM     20  H   UNL     1     139.433 125.316  84.823  0.00  0.00    +0.000 HD
ATOM     21  H   UNL     1     135.688 123.975  88.164  0.00  0.00    +0.000 HD
ATOM     22  H   UNL     1     134.983 123.664  88.718  0.00  0.00    +0.000 HD
ENDROOT
TORSDOF 0
ENDMDL
