MODEL 1
REMARK VINA RESULT:    -5.040      0.000      0.000
REMARK INTER + INTRA:          -5.040
REMARK INTER:                  -5.040
REMARK INTRA:                   0.000
REMARK UNBOUND:                 0.000
REMARK  Name = /home/vital/Documents/PhD_2021/Malaria_codes/scripts/../data/pdbqt_ligands/ligand_340_temp.pdb
REMARK                            x       y       z     vdW  Elec       q    Type
REMARK                         _______ _______ _______ _____ _____    ______ ____
ROOT
ATOM      1  C1  UNL     1     141.328 125.207 108.875  0.00  0.00    +0.079 C 
ATOM      2  O1  UNL     1     140.677 123.949 109.026  0.00  0.00    -0.495 OA
ATOM      3  C2  UNL     1     140.348 123.277 107.879  0.00  0.00    +0.122 A 
ATOM      4  C3  UNL     1     139.507 122.181 108.066  0.00  0.00    -0.020 A 
ATOM      5  C4  UNL     1     139.107 121.406 106.981  0.00  0.00    -0.056 A 
ATOM      6  C5  UNL     1     139.548 121.725 105.696  0.00  0.00    -0.038 A 
ATOM      7  C6  UNL     1     140.393 122.828 105.488  0.00  0.00    +0.052 A 
ATOM      8  N1  UNL     1     140.846 123.123 104.164  0.00  0.00    -0.294 N 
ATOM      9  C7  UNL     1     140.976 122.178 103.157  0.00  0.00    +0.030 A 
ATOM     10  C8  UNL     1     141.496 122.827 102.067  0.00  0.00    +0.047 A 
ATOM     11  N2  UNL     1     141.657 124.155 102.329  0.00  0.00    -0.230 NA
ATOM     12  C9  UNL     1     141.268 124.315 103.580  0.00  0.00    +0.174 A 
ATOM     13  S1  UNL     1     141.142 125.896 104.292  0.00  0.00    -0.078 S 
ATOM     14  C10 UNL     1     142.418 126.792 103.360  0.00  0.00    +0.078 C 
ATOM     15  C11 UNL     1     141.858 127.554 102.169  0.00  0.00    +0.228 C 
ATOM     16  O2  UNL     1     142.214 128.716 101.972  0.00  0.00    -0.275 OA
ATOM     17  N3  UNL     1     141.084 126.790 101.312  0.00  0.00    -0.282 N 
ATOM     18  C12 UNL     1     140.360 127.262 100.190  0.00  0.00    +0.079 A 
ATOM     19  C13 UNL     1     140.225 126.405  99.072  0.00  0.00    -0.026 A 
ATOM     20  C14 UNL     1     140.826 125.025  99.037  0.00  0.00    -0.038 C 
ATOM     21  C15 UNL     1     139.503 126.841  97.948  0.00  0.00    -0.057 A 
ATOM     22  C16 UNL     1     138.908 128.103  97.924  0.00  0.00    -0.058 A 
ATOM     23  C17 UNL     1     139.006 128.933  99.036  0.00  0.00    -0.018 A 
ATOM     24  C18 UNL     1     139.728 128.523 100.165  0.00  0.00    +0.141 A 
ATOM     25  O3  UNL     1     139.658 129.273 101.315  0.00  0.00    -0.493 OA
ATOM     26  C19 UNL     1     140.084 130.621 101.117  0.00  0.00    +0.079 C 
ATOM     27  C20 UNL     1     140.802 123.588 106.593  0.00  0.00    +0.004 A 
ATOM     28  H   UNL     1     141.032 125.825 101.501  0.00  0.00    +0.000 HD
ENDROOT
TORSDOF 0
ENDMDL
MODEL 2
REMARK VINA RESULT:    -5.022      2.413      8.516
REMARK INTER + INTRA:          -5.022
REMARK INTER:                  -5.022
REMARK INTRA:                   0.000
REMARK UNBOUND:                 0.000
REMARK  Name = /home/vital/Documents/PhD_2021/Malaria_codes/scripts/../data/pdbqt_ligands/ligand_340_temp.pdb
REMARK                            x       y       z     vdW  Elec       q    Type
REMARK                         _______ _______ _______ _____ _____    ______ ____
ROOT
ATOM      1  C1  UNL     1     138.984 128.705  98.946  0.00  0.00    +0.079 C 
ATOM      2  O1  UNL     1     139.635 129.969  98.861  0.00  0.00    -0.495 OA
ATOM      3  C2  UNL     1     140.733 130.158  99.657  0.00  0.00    +0.122 A 
ATOM      4  C3  UNL     1     141.188 131.474  99.721  0.00  0.00    -0.020 A 
ATOM      5  C4  UNL     1     142.305 131.798 100.486  0.00  0.00    -0.056 A 
ATOM      6  C5  UNL     1     142.977 130.801 101.195  0.00  0.00    -0.038 A 
ATOM      7  C6  UNL     1     142.532 129.470 101.145  0.00  0.00    +0.052 A 
ATOM      8  N1  UNL     1     143.249 128.465 101.865  0.00  0.00    -0.294 N 
ATOM      9  C7  UNL     1     144.597 128.544 102.180  0.00  0.00    +0.030 A 
ATOM     10  C8  UNL     1     144.929 127.371 102.808  0.00  0.00    +0.047 A 
ATOM     11  N2  UNL     1     143.834 126.571 102.944  0.00  0.00    -0.230 NA
ATOM     12  C9  UNL     1     142.844 127.234 102.378  0.00  0.00    +0.174 A 
ATOM     13  S1  UNL     1     141.204 126.660 102.468  0.00  0.00    -0.078 S 
ATOM     14  C10 UNL     1     141.477 124.867 102.576  0.00  0.00    +0.078 C 
ATOM     15  C11 UNL     1     141.475 124.352 104.007  0.00  0.00    +0.228 C 
ATOM     16  O2  UNL     1     140.838 123.336 104.283  0.00  0.00    -0.275 OA
ATOM     17  N3  UNL     1     142.337 125.021 104.858  0.00  0.00    -0.282 N 
ATOM     18  C12 UNL     1     142.460 124.821 106.254  0.00  0.00    +0.079 A 
ATOM     19  C13 UNL     1     143.735 124.994 106.846  0.00  0.00    -0.026 A 
ATOM     20  C14 UNL     1     144.951 125.372 106.044  0.00  0.00    -0.038 C 
ATOM     21  C15 UNL     1     143.886 124.811 108.231  0.00  0.00    -0.057 A 
ATOM     22  C16 UNL     1     142.795 124.475 109.033  0.00  0.00    -0.058 A 
ATOM     23  C17 UNL     1     141.534 124.343 108.462  0.00  0.00    -0.018 A 
ATOM     24  C18 UNL     1     141.360 124.511 107.082  0.00  0.00    +0.141 A 
ATOM     25  O3  UNL     1     140.086 124.559 106.567  0.00  0.00    -0.493 OA
ATOM     26  C19 UNL     1     139.333 123.382 106.858  0.00  0.00    +0.079 C 
ATOM     27  C20 UNL     1     141.416 129.156 100.355  0.00  0.00    +0.004 A 
ATOM     28  H   UNL     1     142.921 125.703 104.454  0.00  0.00    +0.000 HD
ENDROOT
TORSDOF 0
ENDMDL
MODEL 3
REMARK VINA RESULT:    -4.934      6.829     12.059
REMARK INTER + INTRA:          -4.934
REMARK INTER:                  -4.934
REMARK INTRA:                   0.000
REMARK UNBOUND:                 0.000
REMARK  Name = /home/vital/Documents/PhD_2021/Malaria_codes/scripts/../data/pdbqt_ligands/ligand_340_temp.pdb
REMARK                            x       y       z     vdW  Elec       q    Type
REMARK                         _______ _______ _______ _____ _____    ______ ____
ROOT
ATOM      1  C1  UNL     1     144.557 129.319  90.545  0.00  0.00    +0.079 C 
ATOM      2  O1  UNL     1     144.743 130.685  90.187  0.00  0.00    -0.495 OA
ATOM      3  C2  UNL     1     144.655 131.609  91.193  0.00  0.00    +0.122 A 
ATOM      4  C3  UNL     1     144.603 132.935  90.765  0.00  0.00    -0.020 A 
ATOM      5  C4  UNL     1     144.525 133.972  91.690  0.00  0.00    -0.056 A 
ATOM      6  C5  UNL     1     144.499 133.688  93.056  0.00  0.00    -0.038 A 
ATOM      7  C6  UNL     1     144.547 132.358  93.506  0.00  0.00    +0.052 A 
ATOM      8  N1  UNL     1     144.537 132.094  94.911  0.00  0.00    -0.294 N 
ATOM      9  C7  UNL     1     144.999 132.980  95.874  0.00  0.00    +0.030 A 
ATOM     10  C8  UNL     1     144.887 132.346  97.085  0.00  0.00    +0.047 A 
ATOM     11  N2  UNL     1     144.330 131.112  96.932  0.00  0.00    -0.230 NA
ATOM     12  C9  UNL     1     144.129 130.976  95.635  0.00  0.00    +0.174 A 
ATOM     13  S1  UNL     1     143.270 129.607  94.992  0.00  0.00    -0.078 S 
ATOM     14  C10 UNL     1     143.666 128.342  96.235  0.00  0.00    +0.078 C 
ATOM     15  C11 UNL     1     142.592 128.202  97.302  0.00  0.00    +0.228 C 
ATOM     16  O2  UNL     1     142.210 127.079  97.632  0.00  0.00    -0.275 OA
ATOM     17  N3  UNL     1     142.240 129.389  97.920  0.00  0.00    -0.282 N 
ATOM     18  C12 UNL     1     141.204 129.566  98.868  0.00  0.00    +0.079 A 
ATOM     19  C13 UNL     1     141.382 130.537  99.882  0.00  0.00    -0.026 A 
ATOM     20  C14 UNL     1     142.628 131.374  99.986  0.00  0.00    -0.038 C 
ATOM     21  C15 UNL     1     140.366 130.742 100.832  0.00  0.00    -0.057 A 
ATOM     22  C16 UNL     1     139.179 130.010 100.780  0.00  0.00    -0.058 A 
ATOM     23  C17 UNL     1     138.984 129.082  99.763  0.00  0.00    -0.018 A 
ATOM     24  C18 UNL     1     139.986 128.854  98.811  0.00  0.00    +0.141 A 
ATOM     25  O3  UNL     1     139.705 128.075  97.714  0.00  0.00    -0.493 OA
ATOM     26  C19 UNL     1     139.277 126.760  98.071  0.00  0.00    +0.079 C 
ATOM     27  C20 UNL     1     144.644 131.324  92.563  0.00  0.00    +0.004 A 
ATOM     28  H   UNL     1     142.761 130.189  97.676  0.00  0.00    +0.000 HD
ENDROOT
TORSDOF 0
ENDMDL
MODEL 4
REMARK VINA RESULT:    -4.818      2.466      3.331
REMARK INTER + INTRA:          -4.818
REMARK INTER:                  -4.818
REMARK INTRA:                   0.000
REMARK UNBOUND:                 0.000
REMARK  Name = /home/vital/Documents/PhD_2021/Malaria_codes/scripts/../data/pdbqt_ligands/ligand_340_temp.pdb
REMARK                            x       y       z     vdW  Elec       q    Type
REMARK                         _______ _______ _______ _____ _____    ______ ____
ROOT
ATOM      1  C1  UNL     1     146.307 125.764 107.895  0.00  0.00    +0.079 C 
ATOM      2  O1  UNL     1     145.303 125.148 108.697  0.00  0.00    -0.495 OA
ATOM      3  C2  UNL     1     144.068 124.984 108.128  0.00  0.00    +0.122 A 
ATOM      4  C3  UNL     1     143.063 124.606 109.017  0.00  0.00    -0.020 A 
ATOM      5  C4  UNL     1     141.764 124.394 108.563  0.00  0.00    -0.056 A 
ATOM      6  C5  UNL     1     141.461 124.561 107.211  0.00  0.00    -0.038 A 
ATOM      7  C6  UNL     1     142.460 124.945 106.302  0.00  0.00    +0.052 A 
ATOM      8  N1  UNL     1     142.129 125.091 104.919  0.00  0.00    -0.294 N 
ATOM      9  C7  UNL     1     141.094 124.416 104.290  0.00  0.00    +0.030 A 
ATOM     10  C8  UNL     1     141.136 124.766 102.965  0.00  0.00    +0.047 A 
ATOM     11  N2  UNL     1     142.128 125.672 102.739  0.00  0.00    -0.230 NA
ATOM     12  C9  UNL     1     142.710 125.855 103.909  0.00  0.00    +0.174 A 
ATOM     13  S1  UNL     1     143.935 127.070 104.130  0.00  0.00    -0.078 S 
ATOM     14  C10 UNL     1     144.655 127.134 102.463  0.00  0.00    +0.078 C 
ATOM     15  C11 UNL     1     144.062 128.240 101.603  0.00  0.00    +0.228 C 
ATOM     16  O2  UNL     1     144.811 128.964 100.947  0.00  0.00    -0.275 OA
ATOM     17  N3  UNL     1     142.680 128.230 101.529  0.00  0.00    -0.282 N 
ATOM     18  C12 UNL     1     141.867 129.197 100.889  0.00  0.00    +0.079 A 
ATOM     19  C13 UNL     1     140.660 128.766 100.290  0.00  0.00    -0.026 A 
ATOM     20  C14 UNL     1     140.221 127.326 100.305  0.00  0.00    -0.038 C 
ATOM     21  C15 UNL     1     139.827 129.704  99.655  0.00  0.00    -0.057 A 
ATOM     22  C16 UNL     1     140.169 131.056  99.620  0.00  0.00    -0.058 A 
ATOM     23  C17 UNL     1     141.335 131.490 100.242  0.00  0.00    -0.018 A 
ATOM     24  C18 UNL     1     142.186 130.572 100.872  0.00  0.00    +0.141 A 
ATOM     25  O3  UNL     1     143.230 131.038 101.635  0.00  0.00    -0.493 OA
ATOM     26  C19 UNL     1     144.124 131.866 100.892  0.00  0.00    +0.079 C 
ATOM     27  C20 UNL     1     143.768 125.137 106.770  0.00  0.00    +0.004 A 
ATOM     28  H   UNL     1     142.217 127.478 101.965  0.00  0.00    +0.000 HD
ENDROOT
TORSDOF 0
ENDMDL
MODEL 5
REMARK VINA RESULT:    -4.792      6.306      9.123
REMARK INTER + INTRA:          -4.792
REMARK INTER:                  -4.792
REMARK INTRA:                   0.000
REMARK UNBOUND:                 0.000
REMARK  Name = /home/vital/Documents/PhD_2021/Malaria_codes/scripts/../data/pdbqt_ligands/ligand_340_temp.pdb
REMARK                            x       y       z     vdW  Elec       q    Type
REMARK                         _______ _______ _______ _____ _____    ______ ____
ROOT
ATOM      1  C1  UNL     1     142.548 131.285  98.121  0.00  0.00    +0.079 C 
ATOM      2  O1  UNL     1     141.631 131.141  99.201  0.00  0.00    -0.495 OA
ATOM      3  C2  UNL     1     140.880 129.996  99.230  0.00  0.00    +0.122 A 
ATOM      4  C3  UNL     1     139.836 130.006 100.154  0.00  0.00    -0.020 A 
ATOM      5  C4  UNL     1     139.006 128.897 100.292  0.00  0.00    -0.056 A 
ATOM      6  C5  UNL     1     139.214 127.767  99.501  0.00  0.00    -0.038 A 
ATOM      7  C6  UNL     1     140.259 127.740  98.561  0.00  0.00    +0.052 A 
ATOM      8  N1  UNL     1     140.463 126.563  97.776  0.00  0.00    -0.294 N 
ATOM      9  C7  UNL     1     140.099 125.286  98.176  0.00  0.00    +0.030 A 
ATOM     10  C8  UNL     1     140.516 124.426  97.193  0.00  0.00    +0.047 A 
ATOM     11  N2  UNL     1     141.088 125.113  96.164  0.00  0.00    -0.230 NA
ATOM     12  C9  UNL     1     141.051 126.381  96.526  0.00  0.00    +0.174 A 
ATOM     13  S1  UNL     1     141.526 127.647  95.432  0.00  0.00    -0.078 S 
ATOM     14  C10 UNL     1     142.753 126.775  94.415  0.00  0.00    +0.078 C 
ATOM     15  C11 UNL     1     142.168 126.219  93.126  0.00  0.00    +0.228 C 
ATOM     16  O2  UNL     1     142.774 126.382  92.066  0.00  0.00    -0.275 OA
ATOM     17  N3  UNL     1     141.042 125.433  93.300  0.00  0.00    -0.282 N 
ATOM     18  C12 UNL     1     140.240 124.877  92.274  0.00  0.00    +0.079 A 
ATOM     19  C13 UNL     1     139.627 123.623  92.508  0.00  0.00    -0.026 A 
ATOM     20  C14 UNL     1     139.804 122.868  93.797  0.00  0.00    -0.038 C 
ATOM     21  C15 UNL     1     138.817 123.051  91.512  0.00  0.00    -0.057 A 
ATOM     22  C16 UNL     1     138.599 123.709  90.301  0.00  0.00    -0.058 A 
ATOM     23  C17 UNL     1     139.169 124.959  90.082  0.00  0.00    -0.018 A 
ATOM     24  C18 UNL     1     139.988 125.545  91.056  0.00  0.00    +0.141 A 
ATOM     25  O3  UNL     1     140.387 126.850  90.900  0.00  0.00    -0.493 OA
ATOM     26  C19 UNL     1     141.109 127.061  89.687  0.00  0.00    +0.079 C 
ATOM     27  C20 UNL     1     141.099 128.857  98.447  0.00  0.00    +0.004 A 
ATOM     28  H   UNL     1     140.773 125.242  94.227  0.00  0.00    +0.000 HD
ENDROOT
TORSDOF 0
ENDMDL
MODEL 6
REMARK VINA RESULT:    -4.784     14.853     16.728
REMARK INTER + INTRA:          -4.784
REMARK INTER:                  -4.784
REMARK INTRA:                   0.000
REMARK UNBOUND:                 0.000
REMARK  Name = /home/vital/Documents/PhD_2021/Malaria_codes/scripts/../data/pdbqt_ligands/ligand_340_temp.pdb
REMARK                            x       y       z     vdW  Elec       q    Type
REMARK                         _______ _______ _______ _____ _____    ______ ____
ROOT
ATOM      1  C1  UNL     1     133.913 120.657  90.582  0.00  0.00    +0.079 C 
ATOM      2  O1  UNL     1     132.509 120.884  90.653  0.00  0.00    -0.495 OA
ATOM      3  C2  UNL     1     132.019 121.966  89.970  0.00  0.00    +0.122 A 
ATOM      4  C3  UNL     1     130.694 122.288  90.261  0.00  0.00    -0.020 A 
ATOM      5  C4  UNL     1     130.073 123.359  89.625  0.00  0.00    -0.056 A 
ATOM      6  C5  UNL     1     130.777 124.118  88.689  0.00  0.00    -0.038 A 
ATOM      7  C6  UNL     1     132.114 123.810  88.385  0.00  0.00    +0.052 A 
ATOM      8  N1  UNL     1     132.808 124.592  87.410  0.00  0.00    -0.294 N 
ATOM      9  C7  UNL     1     132.188 125.271  86.371  0.00  0.00    +0.030 A 
ATOM     10  C8  UNL     1     133.183 125.840  85.619  0.00  0.00    +0.047 A 
ATOM     11  N2  UNL     1     134.405 125.588  86.165  0.00  0.00    -0.230 NA
ATOM     12  C9  UNL     1     134.166 124.843  87.229  0.00  0.00    +0.174 A 
ATOM     13  S1  UNL     1     135.435 124.421  88.340  0.00  0.00    -0.078 S 
ATOM     14  C10 UNL     1     136.872 124.414  87.228  0.00  0.00    +0.078 C 
ATOM     15  C11 UNL     1     137.638 125.728  87.239  0.00  0.00    +0.228 C 
ATOM     16  O2  UNL     1     138.866 125.712  87.317  0.00  0.00    -0.275 OA
ATOM     17  N3  UNL     1     136.857 126.847  87.008  0.00  0.00    -0.282 N 
ATOM     18  C12 UNL     1     137.286 128.195  87.064  0.00  0.00    +0.079 A 
ATOM     19  C13 UNL     1     136.683 129.128  86.187  0.00  0.00    -0.026 A 
ATOM     20  C14 UNL     1     135.616 128.733  85.201  0.00  0.00    -0.038 C 
ATOM     21  C15 UNL     1     137.082 130.475  86.227  0.00  0.00    -0.057 A 
ATOM     22  C16 UNL     1     138.054 130.908  87.128  0.00  0.00    -0.058 A 
ATOM     23  C17 UNL     1     138.621 130.002  88.019  0.00  0.00    -0.018 A 
ATOM     24  C18 UNL     1     138.247 128.652  87.992  0.00  0.00    +0.141 A 
ATOM     25  O3  UNL     1     138.678 127.816  88.994  0.00  0.00    -0.493 OA
ATOM     26  C19 UNL     1     140.101 127.766  89.092  0.00  0.00    +0.079 C 
ATOM     27  C20 UNL     1     132.721 122.717  89.021  0.00  0.00    +0.004 A 
ATOM     28  H   UNL     1     135.911 126.691  86.783  0.00  0.00    +0.000 HD
ENDROOT
TORSDOF 0
ENDMDL
MODEL 7
REMARK VINA RESULT:    -4.685      3.206      3.863
REMARK INTER + INTRA:          -4.685
REMARK INTER:                  -4.685
REMARK INTRA:                   0.000
REMARK UNBOUND:                 0.000
REMARK  Name = /home/vital/Documents/PhD_2021/Malaria_codes/scripts/../data/pdbqt_ligands/ligand_340_temp.pdb
REMARK                            x       y       z     vdW  Elec       q    Type
REMARK                         _______ _______ _______ _____ _____    ______ ____
ROOT
ATOM      1  C1  UNL     1     147.290 127.726 106.402  0.00  0.00    +0.079 C 
ATOM      2  O1  UNL     1     146.842 126.625 107.186  0.00  0.00    -0.495 OA
ATOM      3  C2  UNL     1     145.862 125.836 106.646  0.00  0.00    +0.122 A 
ATOM      4  C3  UNL     1     145.289 124.928 107.536  0.00  0.00    -0.020 A 
ATOM      5  C4  UNL     1     144.290 124.058 107.109  0.00  0.00    -0.056 A 
ATOM      6  C5  UNL     1     143.855 124.092 105.783  0.00  0.00    -0.038 A 
ATOM      7  C6  UNL     1     144.418 125.003 104.874  0.00  0.00    +0.052 A 
ATOM      8  N1  UNL     1     143.968 125.005 103.517  0.00  0.00    -0.294 N 
ATOM      9  C7  UNL     1     143.430 123.901 102.872  0.00  0.00    +0.030 A 
ATOM     10  C8  UNL     1     143.184 124.277 101.576  0.00  0.00    +0.047 A 
ATOM     11  N2  UNL     1     143.503 125.588 101.387  0.00  0.00    -0.230 NA
ATOM     12  C9  UNL     1     143.968 126.007 102.549  0.00  0.00    +0.174 A 
ATOM     13  S1  UNL     1     144.342 127.684 102.821  0.00  0.00    -0.078 S 
ATOM     14  C10 UNL     1     144.795 128.209 101.142  0.00  0.00    +0.078 C 
ATOM     15  C11 UNL     1     143.639 128.845 100.387  0.00  0.00    +0.228 C 
ATOM     16  O2  UNL     1     143.825 129.890  99.764  0.00  0.00    -0.275 OA
ATOM     17  N3  UNL     1     142.485 128.081 100.356  0.00  0.00    -0.282 N 
ATOM     18  C12 UNL     1     141.235 128.470  99.816  0.00  0.00    +0.079 A 
ATOM     19  C13 UNL     1     140.422 127.474  99.225  0.00  0.00    -0.026 A 
ATOM     20  C14 UNL     1     140.843 126.031  99.147  0.00  0.00    -0.038 C 
ATOM     21  C15 UNL     1     139.171 127.829  98.689  0.00  0.00    -0.057 A 
ATOM     22  C16 UNL     1     138.716 129.146  98.745  0.00  0.00    -0.058 A 
ATOM     23  C17 UNL     1     139.495 130.120  99.360  0.00  0.00    -0.018 A 
ATOM     24  C18 UNL     1     140.749 129.792  99.892  0.00  0.00    +0.141 A 
ATOM     25  O3  UNL     1     141.418 130.721 100.654  0.00  0.00    -0.493 OA
ATOM     26  C19 UNL     1     141.663 131.936  99.947  0.00  0.00    +0.079 C 
ATOM     27  C20 UNL     1     145.437 125.860 105.314  0.00  0.00    +0.004 A 
ATOM     28  H   UNL     1     142.539 127.179 100.748  0.00  0.00    +0.000 HD
ENDROOT
TORSDOF 0
ENDMDL
MODEL 8
REMARK VINA RESULT:    -4.452      6.453      8.809
REMARK INTER + INTRA:          -4.452
REMARK INTER:                  -4.452
REMARK INTRA:                   0.000
REMARK UNBOUND:                 0.000
REMARK  Name = /home/vital/Documents/PhD_2021/Malaria_codes/scripts/../data/pdbqt_ligands/ligand_340_temp.pdb
REMARK                            x       y       z     vdW  Elec       q    Type
REMARK                         _______ _______ _______ _____ _____    ______ ____
ROOT
ATOM      1  C1  UNL     1     143.579 131.626 100.117  0.00  0.00    +0.079 C 
ATOM      2  O1  UNL     1     142.376 131.491 100.867  0.00  0.00    -0.495 OA
ATOM      3  C2  UNL     1     141.459 130.580 100.412  0.00  0.00    +0.122 A 
ATOM      4  C3  UNL     1     140.210 130.653 101.028  0.00  0.00    -0.020 A 
ATOM      5  C4  UNL     1     139.193 129.774 100.666  0.00  0.00    -0.056 A 
ATOM      6  C5  UNL     1     139.420 128.813  99.680  0.00  0.00    -0.038 A 
ATOM      7  C6  UNL     1     140.671 128.726  99.047  0.00  0.00    +0.052 A 
ATOM      8  N1  UNL     1     140.885 127.720  98.054  0.00  0.00    -0.294 N 
ATOM      9  C7  UNL     1     140.200 126.515  98.006  0.00  0.00    +0.030 A 
ATOM     10  C8  UNL     1     140.727 125.799  96.962  0.00  0.00    +0.047 A 
ATOM     11  N2  UNL     1     141.687 126.522  96.319  0.00  0.00    -0.230 NA
ATOM     12  C9  UNL     1     141.771 127.661  96.980  0.00  0.00    +0.174 A 
ATOM     13  S1  UNL     1     142.760 128.970  96.404  0.00  0.00    -0.078 S 
ATOM     14  C10 UNL     1     144.056 128.053  95.520  0.00  0.00    +0.078 C 
ATOM     15  C11 UNL     1     143.784 127.930  94.029  0.00  0.00    +0.228 C 
ATOM     16  O2  UNL     1     144.691 128.154  93.228  0.00  0.00    -0.275 OA
ATOM     17  N3  UNL     1     142.536 127.420  93.714  0.00  0.00    -0.282 N 
ATOM     18  C12 UNL     1     141.984 127.296  92.417  0.00  0.00    +0.079 A 
ATOM     19  C13 UNL     1     141.117 126.207  92.159  0.00  0.00    -0.026 A 
ATOM     20  C14 UNL     1     140.774 125.184  93.209  0.00  0.00    -0.038 C 
ATOM     21  C15 UNL     1     140.545 126.063  90.883  0.00  0.00    -0.057 A 
ATOM     22  C16 UNL     1     140.811 126.986  89.871  0.00  0.00    -0.058 A 
ATOM     23  C17 UNL     1     141.631 128.079  90.132  0.00  0.00    -0.018 A 
ATOM     24  C18 UNL     1     142.219 128.238  91.393  0.00  0.00    +0.141 A 
ATOM     25  O3  UNL     1     142.871 129.412  91.686  0.00  0.00    -0.493 OA
ATOM     26  C19 UNL     1     143.941 129.685  90.781  0.00  0.00    +0.079 C 
ATOM     27  C20 UNL     1     141.692 129.606  99.435  0.00  0.00    +0.004 A 
ATOM     28  H   UNL     1     141.978 127.115  94.466  0.00  0.00    +0.000 HD
ENDROOT
TORSDOF 0
ENDMDL
MODEL 9
REMARK VINA RESULT:    -4.326     14.871     17.678
REMARK INTER + INTRA:          -4.326
REMARK INTER:                  -4.326
REMARK INTRA:                   0.000
REMARK UNBOUND:                 0.000
REMARK  Name = /home/vital/Documents/PhD_2021/Malaria_codes/scripts/../data/pdbqt_ligands/ligand_340_temp.pdb
REMARK                            x       y       z     vdW  Elec       q    Type
REMARK                         _______ _______ _______ _____ _____    ______ ____
ROOT
ATOM      1  C1  UNL     1     138.324 130.550  88.424  0.00  0.00    +0.079 C 
ATOM      2  O1  UNL     1     139.563 130.104  88.966  0.00  0.00    -0.495 OA
ATOM      3  C2  UNL     1     139.887 128.788  88.775  0.00  0.00    +0.122 A 
ATOM      4  C3  UNL     1     140.977 128.342  89.521  0.00  0.00    -0.020 A 
ATOM      5  C4  UNL     1     141.417 127.025  89.408  0.00  0.00    -0.056 A 
ATOM      6  C5  UNL     1     140.765 126.143  88.546  0.00  0.00    -0.038 A 
ATOM      7  C6  UNL     1     139.663 126.574  87.789  0.00  0.00    +0.052 A 
ATOM      8  N1  UNL     1     139.023 125.657  86.898  0.00  0.00    -0.294 N 
ATOM      9  C7  UNL     1     139.657 124.571  86.312  0.00  0.00    +0.030 A 
ATOM     10  C8  UNL     1     138.742 123.978  85.480  0.00  0.00    +0.047 A 
ATOM     11  N2  UNL     1     137.541 124.618  85.551  0.00  0.00    -0.230 NA
ATOM     12  C9  UNL     1     137.724 125.614  86.397  0.00  0.00    +0.174 A 
ATOM     13  S1  UNL     1     136.397 126.606  86.926  0.00  0.00    -0.078 S 
ATOM     14  C10 UNL     1     135.302 126.510  85.480  0.00  0.00    +0.078 C 
ATOM     15  C11 UNL     1     134.232 125.438  85.615  0.00  0.00    +0.228 C 
ATOM     16  O2  UNL     1     133.068 125.704  85.318  0.00  0.00    -0.275 OA
ATOM     17  N3  UNL     1     134.717 124.181  85.935  0.00  0.00    -0.282 N 
ATOM     18  C12 UNL     1     133.943 123.031  86.221  0.00  0.00    +0.079 A 
ATOM     19  C13 UNL     1     134.457 121.767  85.845  0.00  0.00    -0.026 A 
ATOM     20  C14 UNL     1     135.784 121.610  85.152  0.00  0.00    -0.038 C 
ATOM     21  C15 UNL     1     133.715 120.606  86.125  0.00  0.00    -0.057 A 
ATOM     22  C16 UNL     1     132.486 120.683  86.780  0.00  0.00    -0.058 A 
ATOM     23  C17 UNL     1     131.995 121.919  87.185  0.00  0.00    -0.018 A 
ATOM     24  C18 UNL     1     132.712 123.091  86.909  0.00  0.00    +0.141 A 
ATOM     25  O3  UNL     1     132.306 124.276  87.476  0.00  0.00    -0.493 OA
ATOM     26  C19 UNL     1     130.964 124.617  87.131  0.00  0.00    +0.079 C 
ATOM     27  C20 UNL     1     139.243 127.908  87.898  0.00  0.00    +0.004 A 
ATOM     28  H   UNL     1     135.696 124.078  85.967  0.00  0.00    +0.000 HD
ENDROOT
TORSDOF 0
ENDMDL
