MODEL 1
REMARK VINA RESULT:    -4.921      0.000      0.000
REMARK INTER + INTRA:          -4.921
REMARK INTER:                  -4.921
REMARK INTRA:                   0.000
REMARK UNBOUND:                 0.000
REMARK  Name = /home/vital/Documents/PhD_2021/Malaria_codes/scripts/../data/pdbqt_ligands/ligand_117_temp.pdb
REMARK                            x       y       z     vdW  Elec       q    Type
REMARK                         _______ _______ _______ _____ _____    ______ ____
ROOT
ATOM      1  C1  UNL     1     138.651 123.675 109.863  0.00  0.00    -0.063 C 
ATOM      2  C2  UNL     1     138.289 122.205 110.014  0.00  0.00    -0.032 C 
ATOM      3  C3  UNL     1     138.348 121.454 108.688  0.00  0.00    +0.048 C 
ATOM      4  O1  UNL     1     137.366 121.991 107.799  0.00  0.00    -0.371 OA
ATOM      5  C4  UNL     1     137.444 121.410 106.497  0.00  0.00    +0.124 C 
ATOM      6  C5  UNL     1     138.459 122.114 105.589  0.00  0.00    +0.244 C 
ATOM      7  O2  UNL     1     138.993 121.520 104.659  0.00  0.00    -0.273 OA
ATOM      8  N1  UNL     1     138.627 123.431 105.952  0.00  0.00    -0.261 N 
ATOM      9  C6  UNL     1     139.447 124.360 105.370  0.00  0.00    +0.188 A 
ATOM     10  N2  UNL     1     139.566 125.582 105.839  0.00  0.00    -0.126 NA
ATOM     11  N3  UNL     1     140.446 126.342 105.095  0.00  0.00    -0.144 NA
ATOM     12  C7  UNL     1     140.951 125.664 104.085  0.00  0.00    +0.108 A 
ATOM     13  C8  UNL     1     141.929 126.209 103.093  0.00  0.00    +0.023 C 
ATOM     14  C9  UNL     1     141.286 126.622 101.788  0.00  0.00    -0.041 A 
ATOM     15  C10 UNL     1     140.433 127.732 101.735  0.00  0.00    -0.055 A 
ATOM     16  C11 UNL     1     139.824 128.111 100.533  0.00  0.00    -0.020 A 
ATOM     17  C12 UNL     1     140.063 127.386  99.367  0.00  0.00    +0.120 A 
ATOM     18  O3  UNL     1     139.536 127.648  98.132  0.00  0.00    -0.495 OA
ATOM     19  C13 UNL     1     138.589 128.705  98.051  0.00  0.00    +0.079 C 
ATOM     20  C14 UNL     1     140.917 126.282  99.415  0.00  0.00    -0.020 A 
ATOM     21  C15 UNL     1     141.522 125.898 100.613  0.00  0.00    -0.055 A 
ATOM     22  S1  UNL     1     140.394 124.041 103.991  0.00  0.00    -0.035 S 
ATOM     23  H   UNL     1     138.095 123.741 106.720  0.00  0.00    +0.000 HD
ENDROOT
TORSDOF 0
ENDMDL
MODEL 2
REMARK VINA RESULT:    -4.652      6.620      7.661
REMARK INTER + INTRA:          -4.652
REMARK INTER:                  -4.652
REMARK INTRA:                   0.000
REMARK UNBOUND:                 0.000
REMARK  Name = /home/vital/Documents/PhD_2021/Malaria_codes/scripts/../data/pdbqt_ligands/ligand_117_temp.pdb
REMARK                            x       y       z     vdW  Elec       q    Type
REMARK                         _______ _______ _______ _____ _____    ______ ____
ROOT
ATOM      1  C1  UNL     1     137.555 122.618  97.200  0.00  0.00    -0.063 C 
ATOM      2  C2  UNL     1     138.366 121.343  97.377  0.00  0.00    -0.032 C 
ATOM      3  C3  UNL     1     139.723 121.604  98.023  0.00  0.00    +0.048 C 
ATOM      4  O1  UNL     1     140.507 122.426  97.156  0.00  0.00    -0.371 OA
ATOM      5  C4  UNL     1     141.748 122.806  97.751  0.00  0.00    +0.124 C 
ATOM      6  C5  UNL     1     141.634 124.063  98.622  0.00  0.00    +0.244 C 
ATOM      7  O2  UNL     1     142.417 124.266  99.542  0.00  0.00    -0.273 OA
ATOM      8  N1  UNL     1     140.602 124.870  98.203  0.00  0.00    -0.261 N 
ATOM      9  C6  UNL     1     140.207 126.067  98.738  0.00  0.00    +0.188 A 
ATOM     10  N2  UNL     1     139.165 126.728  98.284  0.00  0.00    -0.126 NA
ATOM     11  N3  UNL     1     138.955 127.906  98.974  0.00  0.00    -0.144 NA
ATOM     12  C7  UNL     1     139.855 128.091  99.919  0.00  0.00    +0.108 A 
ATOM     13  C8  UNL     1     139.901 129.272 100.835  0.00  0.00    +0.023 C 
ATOM     14  C9  UNL     1     140.920 130.310 100.418  0.00  0.00    -0.041 A 
ATOM     15  C10 UNL     1     140.727 131.069  99.256  0.00  0.00    -0.055 A 
ATOM     16  C11 UNL     1     141.672 132.021  98.856  0.00  0.00    -0.020 A 
ATOM     17  C12 UNL     1     142.822 132.228  99.617  0.00  0.00    +0.120 A 
ATOM     18  O3  UNL     1     143.819 133.123  99.341  0.00  0.00    -0.495 OA
ATOM     19  C13 UNL     1     143.714 133.845  98.122  0.00  0.00    +0.079 C 
ATOM     20  C14 UNL     1     143.015 131.477 100.778  0.00  0.00    -0.020 A 
ATOM     21  C15 UNL     1     142.077 130.523 101.177  0.00  0.00    -0.055 A 
ATOM     22  S1  UNL     1     141.009 126.822 100.036  0.00  0.00    -0.035 S 
ATOM     23  H   UNL     1     140.086 124.550  97.427  0.00  0.00    +0.000 HD
ENDROOT
TORSDOF 0
ENDMDL
MODEL 3
REMARK VINA RESULT:    -4.329      4.335      9.820
REMARK INTER + INTRA:          -4.329
REMARK INTER:                  -4.329
REMARK INTRA:                   0.000
REMARK UNBOUND:                 0.000
REMARK  Name = /home/vital/Documents/PhD_2021/Malaria_codes/scripts/../data/pdbqt_ligands/ligand_117_temp.pdb
REMARK                            x       y       z     vdW  Elec       q    Type
REMARK                         _______ _______ _______ _____ _____    ______ ____
ROOT
ATOM      1  C1  UNL     1     144.126 130.105  95.948  0.00  0.00    -0.063 C 
ATOM      2  C2  UNL     1     144.125 131.626  95.924  0.00  0.00    -0.032 C 
ATOM      3  C3  UNL     1     143.718 132.226  97.266  0.00  0.00    +0.048 C 
ATOM      4  O1  UNL     1     142.368 131.858  97.557  0.00  0.00    -0.371 OA
ATOM      5  C4  UNL     1     141.960 132.291  98.854  0.00  0.00    +0.124 C 
ATOM      6  C5  UNL     1     142.331 131.296  99.960  0.00  0.00    +0.244 C 
ATOM      7  O2  UNL     1     142.491 131.669 101.117  0.00  0.00    -0.273 OA
ATOM      8  N1  UNL     1     142.415 130.012  99.472  0.00  0.00    -0.261 N 
ATOM      9  C6  UNL     1     142.721 128.872 100.166  0.00  0.00    +0.188 A 
ATOM     10  N2  UNL     1     142.825 127.700  99.579  0.00  0.00    -0.126 NA
ATOM     11  N3  UNL     1     143.140 126.696 100.473  0.00  0.00    -0.144 NA
ATOM     12  C7  UNL     1     143.253 127.151 101.705  0.00  0.00    +0.108 A 
ATOM     13  C8  UNL     1     143.582 126.311 102.898  0.00  0.00    +0.023 C 
ATOM     14  C9  UNL     1     142.368 125.948 103.723  0.00  0.00    -0.041 A 
ATOM     15  C10 UNL     1     141.403 125.064 103.219  0.00  0.00    -0.055 A 
ATOM     16  C11 UNL     1     140.270 124.735 103.972  0.00  0.00    -0.020 A 
ATOM     17  C12 UNL     1     140.089 125.282 105.241  0.00  0.00    +0.120 A 
ATOM     18  O3  UNL     1     139.033 125.044 106.078  0.00  0.00    -0.495 OA
ATOM     19  C13 UNL     1     137.983 124.231 105.570  0.00  0.00    +0.079 C 
ATOM     20  C14 UNL     1     141.050 126.159 105.749  0.00  0.00    -0.020 A 
ATOM     21  C15 UNL     1     142.179 126.495 104.998  0.00  0.00    -0.055 A 
ATOM     22  S1  UNL     1     142.998 128.845 101.846  0.00  0.00    -0.035 S 
ATOM     23  H   UNL     1     142.234 129.900  98.511  0.00  0.00    +0.000 HD
ENDROOT
TORSDOF 0
ENDMDL
MODEL 4
REMARK VINA RESULT:    -4.326     14.698     17.702
REMARK INTER + INTRA:          -4.326
REMARK INTER:                  -4.326
REMARK INTRA:                   0.000
REMARK UNBOUND:                 0.000
REMARK  Name = /home/vital/Documents/PhD_2021/Malaria_codes/scripts/../data/pdbqt_ligands/ligand_117_temp.pdb
REMARK                            x       y       z     vdW  Elec       q    Type
REMARK                         _______ _______ _______ _____ _____    ______ ____
ROOT
ATOM      1  C1  UNL     1     140.323 131.579  89.505  0.00  0.00    -0.063 C 
ATOM      2  C2  UNL     1     141.642 131.127  90.114  0.00  0.00    -0.032 C 
ATOM      3  C3  UNL     1     141.833 129.616  90.030  0.00  0.00    +0.048 C 
ATOM      4  O1  UNL     1     140.823 128.970  90.808  0.00  0.00    -0.371 OA
ATOM      5  C4  UNL     1     140.872 127.549  90.681  0.00  0.00    +0.124 C 
ATOM      6  C5  UNL     1     140.085 127.030  89.471  0.00  0.00    +0.244 C 
ATOM      7  O2  UNL     1     140.375 125.964  88.940  0.00  0.00    -0.273 OA
ATOM      8  N1  UNL     1     139.062 127.886  89.134  0.00  0.00    -0.261 N 
ATOM      9  C6  UNL     1     138.158 127.748  88.116  0.00  0.00    +0.188 A 
ATOM     10  N2  UNL     1     137.251 128.663  87.853  0.00  0.00    -0.126 NA
ATOM     11  N3  UNL     1     136.450 128.312  86.785  0.00  0.00    -0.144 NA
ATOM     12  C7  UNL     1     136.779 127.137  86.288  0.00  0.00    +0.108 A 
ATOM     13  C8  UNL     1     136.098 126.478  85.130  0.00  0.00    +0.023 C 
ATOM     14  C9  UNL     1     135.108 125.414  85.549  0.00  0.00    -0.041 A 
ATOM     15  C10 UNL     1     133.919 125.767  86.202  0.00  0.00    -0.055 A 
ATOM     16  C11 UNL     1     133.004 124.786  86.605  0.00  0.00    -0.020 A 
ATOM     17  C12 UNL     1     133.267 123.439  86.357  0.00  0.00    +0.120 A 
ATOM     18  O3  UNL     1     132.462 122.386  86.695  0.00  0.00    -0.495 OA
ATOM     19  C13 UNL     1     131.292 122.688  87.444  0.00  0.00    +0.079 C 
ATOM     20  C14 UNL     1     134.449 123.085  85.704  0.00  0.00    -0.020 A 
ATOM     21  C15 UNL     1     135.366 124.060  85.305  0.00  0.00    -0.055 A 
ATOM     22  S1  UNL     1     138.108 126.393  87.085  0.00  0.00    -0.035 S 
ATOM     23  H   UNL     1     138.969 128.693  89.690  0.00  0.00    +0.000 HD
ENDROOT
TORSDOF 0
ENDMDL
MODEL 5
REMARK VINA RESULT:    -4.325      5.294      9.290
REMARK INTER + INTRA:          -4.325
REMARK INTER:                  -4.325
REMARK INTRA:                   0.000
REMARK UNBOUND:                 0.000
REMARK  Name = /home/vital/Documents/PhD_2021/Malaria_codes/scripts/../data/pdbqt_ligands/ligand_117_temp.pdb
REMARK                            x       y       z     vdW  Elec       q    Type
REMARK                         _______ _______ _______ _____ _____    ______ ____
ROOT
ATOM      1  C1  UNL     1     138.819 128.625 100.004  0.00  0.00    -0.063 C 
ATOM      2  C2  UNL     1     139.224 129.780  99.100  0.00  0.00    -0.032 C 
ATOM      3  C3  UNL     1     140.673 130.206  99.317  0.00  0.00    +0.048 C 
ATOM      4  O1  UNL     1     140.822 130.705 100.648  0.00  0.00    -0.371 OA
ATOM      5  C4  UNL     1     142.181 131.015 100.957  0.00  0.00    +0.124 C 
ATOM      6  C5  UNL     1     142.970 129.801 101.464  0.00  0.00    +0.244 C 
ATOM      7  O2  UNL     1     144.188 129.742 101.337  0.00  0.00    -0.273 OA
ATOM      8  N1  UNL     1     142.142 128.881 102.066  0.00  0.00    -0.261 N 
ATOM      9  C6  UNL     1     142.493 127.686 102.632  0.00  0.00    +0.188 A 
ATOM     10  N2  UNL     1     141.602 126.858 103.134  0.00  0.00    -0.126 NA
ATOM     11  N3  UNL     1     142.184 125.717 103.650  0.00  0.00    -0.144 NA
ATOM     12  C7  UNL     1     143.495 125.733 103.526  0.00  0.00    +0.108 A 
ATOM     13  C8  UNL     1     144.411 124.645 103.990  0.00  0.00    +0.023 C 
ATOM     14  C9  UNL     1     145.077 124.952 105.313  0.00  0.00    -0.041 A 
ATOM     15  C10 UNL     1     144.327 124.989 106.496  0.00  0.00    -0.055 A 
ATOM     16  C11 UNL     1     144.935 125.287 107.721  0.00  0.00    -0.020 A 
ATOM     17  C12 UNL     1     146.303 125.547 107.779  0.00  0.00    +0.120 A 
ATOM     18  O3  UNL     1     147.019 125.849 108.906  0.00  0.00    -0.495 OA
ATOM     19  C13 UNL     1     146.283 125.993 110.113  0.00  0.00    +0.079 C 
ATOM     20  C14 UNL     1     147.055 125.507 106.603  0.00  0.00    -0.020 A 
ATOM     21  C15 UNL     1     146.451 125.216 105.378  0.00  0.00    -0.055 A 
ATOM     22  S1  UNL     1     144.102 127.141 102.749  0.00  0.00    -0.035 S 
ATOM     23  H   UNL     1     141.185 129.110 102.092  0.00  0.00    +0.000 HD
ENDROOT
TORSDOF 0
ENDMDL
MODEL 6
REMARK VINA RESULT:    -4.220     12.947     16.995
REMARK INTER + INTRA:          -4.220
REMARK INTER:                  -4.220
REMARK INTRA:                   0.000
REMARK UNBOUND:                 0.000
REMARK  Name = /home/vital/Documents/PhD_2021/Malaria_codes/scripts/../data/pdbqt_ligands/ligand_117_temp.pdb
REMARK                            x       y       z     vdW  Elec       q    Type
REMARK                         _______ _______ _______ _____ _____    ______ ____
ROOT
ATOM      1  C1  UNL     1     143.997 130.450  94.013  0.00  0.00    -0.063 C 
ATOM      2  C2  UNL     1     143.402 129.052  94.103  0.00  0.00    -0.032 C 
ATOM      3  C3  UNL     1     142.335 128.807  93.041  0.00  0.00    +0.048 C 
ATOM      4  O1  UNL     1     141.236 129.694  93.263  0.00  0.00    -0.371 OA
ATOM      5  C4  UNL     1     140.250 129.598  92.236  0.00  0.00    +0.124 C 
ATOM      6  C5  UNL     1     140.556 130.492  91.029  0.00  0.00    +0.244 C 
ATOM      7  O2  UNL     1     140.124 130.218  89.914  0.00  0.00    -0.273 OA
ATOM      8  N1  UNL     1     141.312 131.583  91.391  0.00  0.00    -0.261 N 
ATOM      9  C6  UNL     1     141.770 132.589  90.584  0.00  0.00    +0.188 A 
ATOM     10  N2  UNL     1     142.534 133.559  91.036  0.00  0.00    -0.126 NA
ATOM     11  N3  UNL     1     142.874 134.459  90.046  0.00  0.00    -0.144 NA
ATOM     12  C7  UNL     1     142.343 134.137  88.883  0.00  0.00    +0.108 A 
ATOM     13  C8  UNL     1     142.520 134.914  87.618  0.00  0.00    +0.023 C 
ATOM     14  C9  UNL     1     141.340 135.804  87.295  0.00  0.00    -0.041 A 
ATOM     15  C10 UNL     1     141.059 136.927  88.086  0.00  0.00    -0.055 A 
ATOM     16  C11 UNL     1     139.961 137.746  87.801  0.00  0.00    -0.020 A 
ATOM     17  C12 UNL     1     139.131 137.455  86.719  0.00  0.00    +0.120 A 
ATOM     18  O3  UNL     1     138.031 138.171  86.332  0.00  0.00    -0.495 OA
ATOM     19  C13 UNL     1     137.651 139.261  87.161  0.00  0.00    +0.079 C 
ATOM     20  C14 UNL     1     139.411 136.340  85.927  0.00  0.00    -0.020 A 
ATOM     21  C15 UNL     1     140.503 135.517  86.211  0.00  0.00    -0.055 A 
ATOM     22  S1  UNL     1     141.406 132.696  88.924  0.00  0.00    -0.035 S 
ATOM     23  H   UNL     1     141.552 131.648  92.344  0.00  0.00    +0.000 HD
ENDROOT
TORSDOF 0
ENDMDL
MODEL 7
REMARK VINA RESULT:    -4.144     16.284     17.450
REMARK INTER + INTRA:          -4.144
REMARK INTER:                  -4.144
REMARK INTRA:                   0.000
REMARK UNBOUND:                 0.000
REMARK  Name = /home/vital/Documents/PhD_2021/Malaria_codes/scripts/../data/pdbqt_ligands/ligand_117_temp.pdb
REMARK                            x       y       z     vdW  Elec       q    Type
REMARK                         _______ _______ _______ _____ _____    ______ ____
ROOT
ATOM      1  C1  UNL     1     139.326 141.565 109.104  0.00  0.00    -0.063 C 
ATOM      2  C2  UNL     1     140.358 141.115 110.129  0.00  0.00    -0.032 C 
ATOM      3  C3  UNL     1     141.754 140.986 109.528  0.00  0.00    +0.048 C 
ATOM      4  O1  UNL     1     141.745 139.960 108.533  0.00  0.00    -0.371 OA
ATOM      5  C4  UNL     1     142.994 139.864 107.848  0.00  0.00    +0.124 C 
ATOM      6  C5  UNL     1     143.099 140.829 106.661  0.00  0.00    +0.244 C 
ATOM      7  O2  UNL     1     144.190 141.223 106.263  0.00  0.00    -0.273 OA
ATOM      8  N1  UNL     1     141.859 141.128 106.146  0.00  0.00    -0.261 N 
ATOM      9  C6  UNL     1     141.568 141.949 105.090  0.00  0.00    +0.188 A 
ATOM     10  N2  UNL     1     140.333 142.202 104.718  0.00  0.00    -0.126 NA
ATOM     11  N3  UNL     1     140.280 143.055 103.633  0.00  0.00    -0.144 NA
ATOM     12  C7  UNL     1     141.483 143.405 103.222  0.00  0.00    +0.108 A 
ATOM     13  C8  UNL     1     141.760 144.314 102.068  0.00  0.00    +0.023 C 
ATOM     14  C9  UNL     1     142.138 143.574 100.804  0.00  0.00    -0.041 A 
ATOM     15  C10 UNL     1     141.189 142.801 100.121  0.00  0.00    -0.055 A 
ATOM     16  C11 UNL     1     141.536 142.102  98.959  0.00  0.00    -0.020 A 
ATOM     17  C12 UNL     1     142.838 142.170  98.463  0.00  0.00    +0.120 A 
ATOM     18  O3  UNL     1     143.307 141.540  97.343  0.00  0.00    -0.495 OA
ATOM     19  C13 UNL     1     142.406 140.669  96.673  0.00  0.00    +0.079 C 
ATOM     20  C14 UNL     1     143.785 142.942  99.138  0.00  0.00    -0.020 A 
ATOM     21  C15 UNL     1     143.443 143.637 100.301  0.00  0.00    -0.055 A 
ATOM     22  S1  UNL     1     142.759 142.726 104.152  0.00  0.00    -0.035 S 
ATOM     23  H   UNL     1     141.090 140.700 106.588  0.00  0.00    +0.000 HD
ENDROOT
TORSDOF 0
ENDMDL
MODEL 8
REMARK VINA RESULT:    -4.044     15.352     17.914
REMARK INTER + INTRA:          -4.044
REMARK INTER:                  -4.044
REMARK INTRA:                   0.000
REMARK UNBOUND:                 0.000
REMARK  Name = /home/vital/Documents/PhD_2021/Malaria_codes/scripts/../data/pdbqt_ligands/ligand_117_temp.pdb
REMARK                            x       y       z     vdW  Elec       q    Type
REMARK                         _______ _______ _______ _____ _____    ______ ____
ROOT
ATOM      1  C1  UNL     1     139.674 130.689  86.964  0.00  0.00    -0.063 C 
ATOM      2  C2  UNL     1     141.045 130.466  87.586  0.00  0.00    -0.032 C 
ATOM      3  C3  UNL     1     141.184 129.075  88.197  0.00  0.00    +0.048 C 
ATOM      4  O1  UNL     1     140.259 128.941  89.278  0.00  0.00    -0.371 OA
ATOM      5  C4  UNL     1     140.256 127.621  89.823  0.00  0.00    +0.124 C 
ATOM      6  C5  UNL     1     139.317 126.668  89.073  0.00  0.00    +0.244 C 
ATOM      7  O2  UNL     1     139.513 125.458  89.075  0.00  0.00    -0.273 OA
ATOM      8  N1  UNL     1     138.283 127.350  88.474  0.00  0.00    -0.261 N 
ATOM      9  C6  UNL     1     137.260 126.831  87.728  0.00  0.00    +0.188 A 
ATOM     10  N2  UNL     1     136.352 127.592  87.157  0.00  0.00    -0.126 NA
ATOM     11  N3  UNL     1     135.420 126.853  86.456  0.00  0.00    -0.144 NA
ATOM     12  C7  UNL     1     135.657 125.559  86.533  0.00  0.00    +0.108 A 
ATOM     13  C8  UNL     1     134.826 124.498  85.886  0.00  0.00    +0.023 C 
ATOM     14  C9  UNL     1     133.865 123.827  86.842  0.00  0.00    -0.041 A 
ATOM     15  C10 UNL     1     132.772 124.532  87.364  0.00  0.00    -0.055 A 
ATOM     16  C11 UNL     1     131.888 123.921  88.261  0.00  0.00    -0.020 A 
ATOM     17  C12 UNL     1     132.084 122.596  88.645  0.00  0.00    +0.120 A 
ATOM     18  O3  UNL     1     131.298 121.882  89.509  0.00  0.00    -0.495 OA
ATOM     19  C13 UNL     1     130.235 122.585  90.137  0.00  0.00    +0.079 C 
ATOM     20  C14 UNL     1     133.169 121.889  88.124  0.00  0.00    -0.020 A 
ATOM     21  C15 UNL     1     134.057 122.496  87.233  0.00  0.00    -0.055 A 
ATOM     22  S1  UNL     1     137.052 125.163  87.457  0.00  0.00    -0.035 S 
ATOM     23  H   UNL     1     138.278 128.328  88.598  0.00  0.00    +0.000 HD
ENDROOT
TORSDOF 0
ENDMDL
MODEL 9
REMARK VINA RESULT:    -3.791     15.560     17.454
REMARK INTER + INTRA:          -3.791
REMARK INTER:                  -3.791
REMARK INTRA:                   0.000
REMARK UNBOUND:                 0.000
REMARK  Name = /home/vital/Documents/PhD_2021/Malaria_codes/scripts/../data/pdbqt_ligands/ligand_117_temp.pdb
REMARK                            x       y       z     vdW  Elec       q    Type
REMARK                         _______ _______ _______ _____ _____    ______ ____
ROOT
ATOM      1  C1  UNL     1     132.582 120.768  85.130  0.00  0.00    -0.063 C 
ATOM      2  C2  UNL     1     131.335 120.633  85.991  0.00  0.00    -0.032 C 
ATOM      3  C3  UNL     1     131.337 121.602  87.170  0.00  0.00    +0.048 C 
ATOM      4  O1  UNL     1     132.426 121.283  88.039  0.00  0.00    -0.371 OA
ATOM      5  C4  UNL     1     132.556 122.224  89.105  0.00  0.00    +0.124 C 
ATOM      6  C5  UNL     1     133.394 123.449  88.722  0.00  0.00    +0.244 C 
ATOM      7  O2  UNL     1     133.238 124.524  89.291  0.00  0.00    -0.273 OA
ATOM      8  N1  UNL     1     134.298 123.148  87.729  0.00  0.00    -0.261 N 
ATOM      9  C6  UNL     1     135.205 123.987  87.142  0.00  0.00    +0.188 A 
ATOM     10  N2  UNL     1     135.987 123.599  86.159  0.00  0.00    -0.126 NA
ATOM     11  N3  UNL     1     136.819 124.611  85.724  0.00  0.00    -0.144 NA
ATOM     12  C7  UNL     1     136.637 125.725  86.404  0.00  0.00    +0.108 A 
ATOM     13  C8  UNL     1     137.388 126.998  86.174  0.00  0.00    +0.023 C 
ATOM     14  C9  UNL     1     138.508 127.216  87.167  0.00  0.00    -0.041 A 
ATOM     15  C10 UNL     1     139.648 126.400  87.145  0.00  0.00    -0.055 A 
ATOM     16  C11 UNL     1     140.682 126.588  88.070  0.00  0.00    -0.020 A 
ATOM     17  C12 UNL     1     140.590 127.596  89.028  0.00  0.00    +0.120 A 
ATOM     18  O3  UNL     1     141.524 127.886  89.984  0.00  0.00    -0.495 OA
ATOM     19  C13 UNL     1     142.651 127.024  90.061  0.00  0.00    +0.079 C 
ATOM     20  C14 UNL     1     139.458 128.413  89.051  0.00  0.00    -0.020 A 
ATOM     21  C15 UNL     1     138.422 128.226  88.133  0.00  0.00    -0.055 A 
ATOM     22  S1  UNL     1     135.419 125.610  87.611  0.00  0.00    -0.035 S 
ATOM     23  H   UNL     1     134.291 122.219  87.403  0.00  0.00    +0.000 HD
ENDROOT
TORSDOF 0
ENDMDL
