MODEL 1
REMARK VINA RESULT:    -5.028      0.000      0.000
REMARK INTER + INTRA:          -5.028
REMARK INTER:                  -5.028
REMARK INTRA:                   0.000
REMARK UNBOUND:                 0.000
REMARK  Name = /home/vital/Documents/PhD_2021/Malaria_codes/scripts/../data/pdbqt_ligands/ligand_138_temp.pdb
REMARK                            x       y       z     vdW  Elec       q    Type
REMARK                         _______ _______ _______ _____ _____    ______ ____
ROOT
ATOM      1  C1  UNL     1     144.762 128.646 103.208  0.00  0.00    -0.021 C 
ATOM      2  C2  UNL     1     143.421 128.771 102.531  0.00  0.00    +0.059 A 
ATOM      3  N1  UNL     1     143.227 129.929 101.800  0.00  0.00    -0.355 N 
ATOM      4  C3  UNL     1     142.068 130.147 101.048  0.00  0.00    +0.050 A 
ATOM      5  C4  UNL     1     141.905 131.319 100.304  0.00  0.00    -0.038 A 
ATOM      6  C5  UNL     1     140.729 131.542  99.582  0.00  0.00    -0.060 A 
ATOM      7  C6  UNL     1     139.700 130.599  99.605  0.00  0.00    -0.061 A 
ATOM      8  C7  UNL     1     139.844 129.433 100.354  0.00  0.00    -0.049 A 
ATOM      9  C8  UNL     1     141.023 129.214 101.076  0.00  0.00    +0.049 A 
ATOM     10  C9  UNL     1     141.190 127.981 101.882  0.00  0.00    +0.231 A 
ATOM     11  O1  UNL     1     140.304 127.130 101.915  0.00  0.00    -0.283 OA
ATOM     12  C10 UNL     1     142.477 127.813 102.644  0.00  0.00    +0.186 A 
ATOM     13  O2  UNL     1     142.692 126.645 103.354  0.00  0.00    -0.486 OA
ATOM     14  C11 UNL     1     141.887 126.601 104.543  0.00  0.00    +0.099 C 
ATOM     15  C12 UNL     1     141.979 125.188 105.112  0.00  0.00    +0.028 C 
ATOM     16  S1  UNL     1     140.991 125.006 106.634  0.00  0.00    -0.155 S 
ATOM     17  C13 UNL     1     139.544 124.084 105.981  0.00  0.00    -0.000 C 
ATOM     18  C14 UNL     1     138.716 124.928 105.017  0.00  0.00    -0.054 C 
ATOM     19  C15 UNL     1     138.691 123.637 107.167  0.00  0.00    -0.054 C 
ATOM     20  H   UNL     1     143.927 130.621 101.810  0.00  0.00    +0.000 HD
ENDROOT
TORSDOF 0
ENDMDL
MODEL 2
REMARK VINA RESULT:    -4.604      5.660      8.588
REMARK INTER + INTRA:          -4.604
REMARK INTER:                  -4.604
REMARK INTRA:                   0.000
REMARK UNBOUND:                 0.000
REMARK  Name = /home/vital/Documents/PhD_2021/Malaria_codes/scripts/../data/pdbqt_ligands/ligand_138_temp.pdb
REMARK                            x       y       z     vdW  Elec       q    Type
REMARK                         _______ _______ _______ _____ _____    ______ ____
ROOT
ATOM      1  C1  UNL     1     143.072 127.790  96.439  0.00  0.00    -0.021 C 
ATOM      2  C2  UNL     1     142.403 128.580  97.535  0.00  0.00    +0.059 A 
ATOM      3  N1  UNL     1     141.172 128.103  97.947  0.00  0.00    -0.355 N 
ATOM      4  C3  UNL     1     140.471 128.679  99.012  0.00  0.00    +0.050 A 
ATOM      5  C4  UNL     1     139.235 128.167  99.419  0.00  0.00    -0.038 A 
ATOM      6  C5  UNL     1     138.528 128.770 100.463  0.00  0.00    -0.060 A 
ATOM      7  C6  UNL     1     139.044 129.897 101.104  0.00  0.00    -0.061 A 
ATOM      8  C7  UNL     1     140.269 130.426 100.698  0.00  0.00    -0.049 A 
ATOM      9  C8  UNL     1     140.973 129.820  99.652  0.00  0.00    +0.049 A 
ATOM     10  C9  UNL     1     142.274 130.373  99.205  0.00  0.00    +0.231 A 
ATOM     11  O1  UNL     1     142.757 131.359  99.756  0.00  0.00    -0.283 OA
ATOM     12  C10 UNL     1     142.974 129.681  98.067  0.00  0.00    +0.186 A 
ATOM     13  O2  UNL     1     144.220 130.132  97.669  0.00  0.00    -0.486 OA
ATOM     14  C11 UNL     1     144.122 131.376  96.958  0.00  0.00    +0.099 C 
ATOM     15  C12 UNL     1     145.535 131.930  96.798  0.00  0.00    +0.028 C 
ATOM     16  S1  UNL     1     145.541 133.520  95.905  0.00  0.00    -0.155 S 
ATOM     17  C13 UNL     1     145.809 134.683  97.300  0.00  0.00    -0.000 C 
ATOM     18  C14 UNL     1     144.618 134.717  98.252  0.00  0.00    -0.054 C 
ATOM     19  C15 UNL     1     146.068 136.071  96.718  0.00  0.00    -0.054 C 
ATOM     20  H   UNL     1     140.776 127.335  97.475  0.00  0.00    +0.000 HD
ENDROOT
TORSDOF 0
ENDMDL
MODEL 3
REMARK VINA RESULT:    -4.202      2.075      2.224
REMARK INTER + INTRA:          -4.202
REMARK INTER:                  -4.202
REMARK INTRA:                   0.000
REMARK UNBOUND:                 0.000
REMARK  Name = /home/vital/Documents/PhD_2021/Malaria_codes/scripts/../data/pdbqt_ligands/ligand_138_temp.pdb
REMARK                            x       y       z     vdW  Elec       q    Type
REMARK                         _______ _______ _______ _____ _____    ______ ____
ROOT
ATOM      1  C1  UNL     1     144.676 126.266 100.352  0.00  0.00    -0.021 C 
ATOM      2  C2  UNL     1     143.347 126.919 100.638  0.00  0.00    +0.059 A 
ATOM      3  N1  UNL     1     143.002 127.962  99.799  0.00  0.00    -0.355 N 
ATOM      4  C3  UNL     1     141.764 128.608  99.886  0.00  0.00    +0.050 A 
ATOM      5  C4  UNL     1     141.434 129.649  99.014  0.00  0.00    -0.038 A 
ATOM      6  C5  UNL     1     140.208 130.309  99.131  0.00  0.00    -0.060 A 
ATOM      7  C6  UNL     1     139.303 129.942 100.129  0.00  0.00    -0.061 A 
ATOM      8  C7  UNL     1     139.627 128.915 101.014  0.00  0.00    -0.049 A 
ATOM      9  C8  UNL     1     140.855 128.257 100.894  0.00  0.00    +0.049 A 
ATOM     10  C9  UNL     1     141.216 127.166 101.830  0.00  0.00    +0.231 A 
ATOM     11  O1  UNL     1     140.437 126.816 102.713  0.00  0.00    -0.283 OA
ATOM     12  C10 UNL     1     142.558 126.508 101.654  0.00  0.00    +0.186 A 
ATOM     13  O2  UNL     1     142.899 125.443 102.469  0.00  0.00    -0.486 OA
ATOM     14  C11 UNL     1     143.200 125.884 103.803  0.00  0.00    +0.099 C 
ATOM     15  C12 UNL     1     143.297 124.644 104.688  0.00  0.00    +0.028 C 
ATOM     16  S1  UNL     1     143.677 125.077 106.419  0.00  0.00    -0.155 S 
ATOM     17  C13 UNL     1     142.025 124.853 107.187  0.00  0.00    -0.000 C 
ATOM     18  C14 UNL     1     141.018 125.882 106.687  0.00  0.00    -0.054 C 
ATOM     19  C15 UNL     1     142.187 124.957 108.703  0.00  0.00    -0.054 C 
ATOM     20  H   UNL     1     143.649 128.259  99.118  0.00  0.00    +0.000 HD
ENDROOT
TORSDOF 0
ENDMDL
MODEL 4
REMARK VINA RESULT:    -4.064      5.094      8.124
REMARK INTER + INTRA:          -4.064
REMARK INTER:                  -4.064
REMARK INTRA:                   0.000
REMARK UNBOUND:                 0.000
REMARK  Name = /home/vital/Documents/PhD_2021/Malaria_codes/scripts/../data/pdbqt_ligands/ligand_138_temp.pdb
REMARK                            x       y       z     vdW  Elec       q    Type
REMARK                         _______ _______ _______ _____ _____    ______ ____
ROOT
ATOM      1  C1  UNL     1     144.993 127.440  99.317  0.00  0.00    -0.021 C 
ATOM      2  C2  UNL     1     143.842 128.349  99.665  0.00  0.00    +0.059 A 
ATOM      3  N1  UNL     1     142.626 127.723  99.862  0.00  0.00    -0.355 N 
ATOM      4  C3  UNL     1     141.487 128.423 100.274  0.00  0.00    +0.050 A 
ATOM      5  C4  UNL     1     140.273 127.762 100.482  0.00  0.00    -0.038 A 
ATOM      6  C5  UNL     1     139.133 128.477 100.862  0.00  0.00    -0.060 A 
ATOM      7  C6  UNL     1     139.194 129.861 101.028  0.00  0.00    -0.061 A 
ATOM      8  C7  UNL     1     140.395 130.534 100.810  0.00  0.00    -0.049 A 
ATOM      9  C8  UNL     1     141.533 129.816 100.429  0.00  0.00    +0.049 A 
ATOM     10  C9  UNL     1     142.817 130.517 100.189  0.00  0.00    +0.231 A 
ATOM     11  O1  UNL     1     142.902 131.734 100.335  0.00  0.00    -0.283 OA
ATOM     12  C10 UNL     1     144.000 129.686  99.769  0.00  0.00    +0.186 A 
ATOM     13  O2  UNL     1     145.228 130.300  99.600  0.00  0.00    -0.486 OA
ATOM     14  C11 UNL     1     145.255 131.091  98.401  0.00  0.00    +0.099 C 
ATOM     15  C12 UNL     1     146.526 131.935  98.432  0.00  0.00    +0.028 C 
ATOM     16  S1  UNL     1     146.674 132.989  96.951  0.00  0.00    -0.155 S 
ATOM     17  C13 UNL     1     146.203 134.618  97.656  0.00  0.00    -0.000 C 
ATOM     18  C14 UNL     1     144.738 134.655  98.079  0.00  0.00    -0.054 C 
ATOM     19  C15 UNL     1     146.483 135.690  96.604  0.00  0.00    -0.054 C 
ATOM     20  H   UNL     1     142.559 126.753  99.707  0.00  0.00    +0.000 HD
ENDROOT
TORSDOF 0
ENDMDL
MODEL 5
REMARK VINA RESULT:    -4.059      3.064      7.521
REMARK INTER + INTRA:          -4.059
REMARK INTER:                  -4.059
REMARK INTRA:                   0.000
REMARK UNBOUND:                 0.000
REMARK  Name = /home/vital/Documents/PhD_2021/Malaria_codes/scripts/../data/pdbqt_ligands/ligand_138_temp.pdb
REMARK                            x       y       z     vdW  Elec       q    Type
REMARK                         _______ _______ _______ _____ _____    ______ ____
ROOT
ATOM      1  C1  UNL     1     142.599 124.430 107.345  0.00  0.00    -0.021 C 
ATOM      2  C2  UNL     1     141.253 124.233 106.694  0.00  0.00    +0.059 A 
ATOM      3  N1  UNL     1     140.581 123.079 107.051  0.00  0.00    -0.355 N 
ATOM      4  C3  UNL     1     139.287 122.802 106.597  0.00  0.00    +0.050 A 
ATOM      5  C4  UNL     1     138.624 121.635 106.987  0.00  0.00    -0.038 A 
ATOM      6  C5  UNL     1     137.344 121.352 106.501  0.00  0.00    -0.060 A 
ATOM      7  C6  UNL     1     136.719 122.229 105.612  0.00  0.00    -0.061 A 
ATOM      8  C7  UNL     1     137.376 123.389 105.204  0.00  0.00    -0.049 A 
ATOM      9  C8  UNL     1     138.657 123.668 105.692  0.00  0.00    +0.049 A 
ATOM     10  C9  UNL     1     139.372 124.894 105.265  0.00  0.00    +0.231 A 
ATOM     11  O1  UNL     1     138.843 125.687 104.489  0.00  0.00    -0.283 OA
ATOM     12  C10 UNL     1     140.752 125.128 105.818  0.00  0.00    +0.186 A 
ATOM     13  O2  UNL     1     141.419 126.295 105.490  0.00  0.00    -0.486 OA
ATOM     14  C11 UNL     1     141.881 126.268 104.130  0.00  0.00    +0.099 C 
ATOM     15  C12 UNL     1     142.356 127.674 103.775  0.00  0.00    +0.028 C 
ATOM     16  S1  UNL     1     142.969 127.767 102.060  0.00  0.00    -0.155 S 
ATOM     17  C13 UNL     1     141.554 128.608 101.247  0.00  0.00    -0.000 C 
ATOM     18  C14 UNL     1     140.307 127.731 101.221  0.00  0.00    -0.054 C 
ATOM     19  C15 UNL     1     141.975 128.980  99.826  0.00  0.00    -0.054 C 
ATOM     20  H   UNL     1     141.028 122.432 107.644  0.00  0.00    +0.000 HD
ENDROOT
TORSDOF 0
ENDMDL
MODEL 6
REMARK VINA RESULT:    -4.051      2.518      4.040
REMARK INTER + INTRA:          -4.051
REMARK INTER:                  -4.051
REMARK INTRA:                   0.000
REMARK UNBOUND:                 0.000
REMARK  Name = /home/vital/Documents/PhD_2021/Malaria_codes/scripts/../data/pdbqt_ligands/ligand_138_temp.pdb
REMARK                            x       y       z     vdW  Elec       q    Type
REMARK                         _______ _______ _______ _____ _____    ______ ____
ROOT
ATOM      1  C1  UNL     1     138.863 129.272  99.941  0.00  0.00    -0.021 C 
ATOM      2  C2  UNL     1     140.256 129.825 100.103  0.00  0.00    +0.059 A 
ATOM      3  N1  UNL     1     140.631 130.779  99.175  0.00  0.00    -0.355 N 
ATOM      4  C3  UNL     1     141.860 131.444  99.247  0.00  0.00    +0.050 A 
ATOM      5  C4  UNL     1     142.207 132.416  98.305  0.00  0.00    -0.038 A 
ATOM      6  C5  UNL     1     143.451 133.051  98.368  0.00  0.00    -0.060 A 
ATOM      7  C6  UNL     1     144.364 132.713  99.368  0.00  0.00    -0.061 A 
ATOM      8  C7  UNL     1     144.035 131.735 100.306  0.00  0.00    -0.049 A 
ATOM      9  C8  UNL     1     142.790 131.101 100.239  0.00  0.00    +0.049 A 
ATOM     10  C9  UNL     1     142.426 130.056 101.225  0.00  0.00    +0.231 A 
ATOM     11  O1  UNL     1     143.207 129.743 102.121  0.00  0.00    -0.283 OA
ATOM     12  C10 UNL     1     141.077 129.405 101.089  0.00  0.00    +0.186 A 
ATOM     13  O2  UNL     1     140.681 128.472 102.032  0.00  0.00    -0.486 OA
ATOM     14  C11 UNL     1     141.386 127.232 101.866  0.00  0.00    +0.099 C 
ATOM     15  C12 UNL     1     141.095 126.367 103.089  0.00  0.00    +0.028 C 
ATOM     16  S1  UNL     1     141.941 124.755 102.995  0.00  0.00    -0.155 S 
ATOM     17  C13 UNL     1     143.321 125.035 104.173  0.00  0.00    -0.000 C 
ATOM     18  C14 UNL     1     144.306 126.080 103.661  0.00  0.00    -0.054 C 
ATOM     19  C15 UNL     1     144.029 123.701 104.402  0.00  0.00    -0.054 C 
ATOM     20  H   UNL     1     140.014 130.996  98.439  0.00  0.00    +0.000 HD
ENDROOT
TORSDOF 0
ENDMDL
MODEL 7
REMARK VINA RESULT:    -4.004      5.301      6.771
REMARK INTER + INTRA:          -4.004
REMARK INTER:                  -4.004
REMARK INTRA:                   0.000
REMARK UNBOUND:                 0.000
REMARK  Name = /home/vital/Documents/PhD_2021/Malaria_codes/scripts/../data/pdbqt_ligands/ligand_138_temp.pdb
REMARK                            x       y       z     vdW  Elec       q    Type
REMARK                         _______ _______ _______ _____ _____    ______ ____
ROOT
ATOM      1  C1  UNL     1     138.372 128.461  99.418  0.00  0.00    -0.021 C 
ATOM      2  C2  UNL     1     139.741 129.050  99.187  0.00  0.00    +0.059 A 
ATOM      3  N1  UNL     1     139.827 130.424  99.314  0.00  0.00    -0.355 N 
ATOM      4  C3  UNL     1     141.045 131.105  99.213  0.00  0.00    +0.050 A 
ATOM      5  C4  UNL     1     141.107 132.493  99.362  0.00  0.00    -0.038 A 
ATOM      6  C5  UNL     1     142.324 133.167  99.227  0.00  0.00    -0.060 A 
ATOM      7  C6  UNL     1     143.491 132.459  98.933  0.00  0.00    -0.061 A 
ATOM      8  C7  UNL     1     143.441 131.076  98.769  0.00  0.00    -0.049 A 
ATOM      9  C8  UNL     1     142.220 130.405  98.903  0.00  0.00    +0.049 A 
ATOM     10  C9  UNL     1     142.148 128.936  98.727  0.00  0.00    +0.231 A 
ATOM     11  O1  UNL     1     143.160 128.286  98.475  0.00  0.00    -0.283 OA
ATOM     12  C10 UNL     1     140.802 128.279  98.873  0.00  0.00    +0.186 A 
ATOM     13  O2  UNL     1     140.712 126.901  98.778  0.00  0.00    -0.486 OA
ATOM     14  C11 UNL     1     140.870 126.460  97.421  0.00  0.00    +0.099 C 
ATOM     15  C12 UNL     1     141.028 124.942  97.443  0.00  0.00    +0.028 C 
ATOM     16  S1  UNL     1     141.239 124.259  95.766  0.00  0.00    -0.155 S 
ATOM     17  C13 UNL     1     143.043 123.920  95.770  0.00  0.00    -0.000 C 
ATOM     18  C14 UNL     1     143.865 125.203  95.829  0.00  0.00    -0.054 C 
ATOM     19  C15 UNL     1     143.381 123.127  94.509  0.00  0.00    -0.054 C 
ATOM     20  H   UNL     1     139.005 130.940  99.479  0.00  0.00    +0.000 HD
ENDROOT
TORSDOF 0
ENDMDL
MODEL 8
REMARK VINA RESULT:    -3.935      5.293      8.586
REMARK INTER + INTRA:          -3.935
REMARK INTER:                  -3.935
REMARK INTRA:                   0.000
REMARK UNBOUND:                 0.000
REMARK  Name = /home/vital/Documents/PhD_2021/Malaria_codes/scripts/../data/pdbqt_ligands/ligand_138_temp.pdb
REMARK                            x       y       z     vdW  Elec       q    Type
REMARK                         _______ _______ _______ _____ _____    ______ ____
ROOT
ATOM      1  C1  UNL     1     145.447 129.870 100.548  0.00  0.00    -0.021 C 
ATOM      2  C2  UNL     1     144.001 129.967 100.132  0.00  0.00    +0.059 A 
ATOM      3  N1  UNL     1     143.121 129.173 100.844  0.00  0.00    -0.355 N 
ATOM      4  C3  UNL     1     141.739 129.220 100.630  0.00  0.00    +0.050 A 
ATOM      5  C4  UNL     1     140.869 128.418 101.376  0.00  0.00    -0.038 A 
ATOM      6  C5  UNL     1     139.494 128.449 101.132  0.00  0.00    -0.060 A 
ATOM      7  C6  UNL     1     138.974 129.273 100.133  0.00  0.00    -0.061 A 
ATOM      8  C7  UNL     1     139.832 130.066  99.372  0.00  0.00    -0.049 A 
ATOM      9  C8  UNL     1     141.209 130.033  99.619  0.00  0.00    +0.049 A 
ATOM     10  C9  UNL     1     142.135 130.866  98.816  0.00  0.00    +0.231 A 
ATOM     11  O1  UNL     1     141.705 131.607  97.935  0.00  0.00    -0.283 OA
ATOM     12  C10 UNL     1     143.605 130.774  99.125  0.00  0.00    +0.186 A 
ATOM     13  O2  UNL     1     144.489 131.587  98.438  0.00  0.00    -0.486 OA
ATOM     14  C11 UNL     1     144.663 131.141  97.083  0.00  0.00    +0.099 C 
ATOM     15  C12 UNL     1     145.426 132.230  96.333  0.00  0.00    +0.028 C 
ATOM     16  S1  UNL     1     145.709 131.777  94.589  0.00  0.00    -0.155 S 
ATOM     17  C13 UNL     1     144.447 132.827  93.766  0.00  0.00    -0.000 C 
ATOM     18  C14 UNL     1     143.028 132.389  94.109  0.00  0.00    -0.054 C 
ATOM     19  C15 UNL     1     144.679 132.753  92.257  0.00  0.00    -0.054 C 
ATOM     20  H   UNL     1     143.478 128.556 101.522  0.00  0.00    +0.000 HD
ENDROOT
TORSDOF 0
ENDMDL
MODEL 9
REMARK VINA RESULT:    -3.849      3.100      3.894
REMARK INTER + INTRA:          -3.849
REMARK INTER:                  -3.849
REMARK INTRA:                   0.000
REMARK UNBOUND:                 0.000
REMARK  Name = /home/vital/Documents/PhD_2021/Malaria_codes/scripts/../data/pdbqt_ligands/ligand_138_temp.pdb
REMARK                            x       y       z     vdW  Elec       q    Type
REMARK                         _______ _______ _______ _____ _____    ______ ____
ROOT
ATOM      1  C1  UNL     1     144.926 131.477 100.572  0.00  0.00    -0.021 C 
ATOM      2  C2  UNL     1     143.771 130.509 100.585  0.00  0.00    +0.059 A 
ATOM      3  N1  UNL     1     142.585 130.988 100.060  0.00  0.00    -0.355 N 
ATOM      4  C3  UNL     1     141.451 130.180  99.926  0.00  0.00    +0.050 A 
ATOM      5  C4  UNL     1     140.269 130.686  99.377  0.00  0.00    -0.038 A 
ATOM      6  C5  UNL     1     139.132 129.879  99.277  0.00  0.00    -0.060 A 
ATOM      7  C6  UNL     1     139.162 128.561  99.735  0.00  0.00    -0.061 A 
ATOM      8  C7  UNL     1     140.331 128.048 100.298  0.00  0.00    -0.049 A 
ATOM      9  C8  UNL     1     141.466 128.860 100.396  0.00  0.00    +0.049 A 
ATOM     10  C9  UNL     1     142.715 128.332 100.996  0.00  0.00    +0.231 A 
ATOM     11  O1  UNL     1     142.773 127.173 101.401  0.00  0.00    -0.283 OA
ATOM     12  C10 UNL     1     143.896 129.261 101.084  0.00  0.00    +0.186 A 
ATOM     13  O2  UNL     1     145.095 128.780 101.579  0.00  0.00    -0.486 OA
ATOM     14  C11 UNL     1     145.035 128.593 103.001  0.00  0.00    +0.099 C 
ATOM     15  C12 UNL     1     146.281 127.818 103.419  0.00  0.00    +0.028 C 
ATOM     16  S1  UNL     1     146.319 127.516 105.217  0.00  0.00    -0.155 S 
ATOM     17  C13 UNL     1     145.841 125.744 105.266  0.00  0.00    -0.000 C 
ATOM     18  C14 UNL     1     144.401 125.528 104.813  0.00  0.00    -0.054 C 
ATOM     19  C15 UNL     1     146.033 125.238 106.694  0.00  0.00    -0.054 C 
ATOM     20  H   UNL     1     142.537 131.929  99.773  0.00  0.00    +0.000 HD
ENDROOT
TORSDOF 0
ENDMDL
