MODEL 1
REMARK VINA RESULT:    -3.800      0.000      0.000
REMARK INTER + INTRA:          -3.800
REMARK INTER:                  -3.800
REMARK INTRA:                   0.000
REMARK UNBOUND:                 0.000
REMARK  Name = /home/vital/Documents/PhD_2021/Malaria_codes/scripts/../data/pdbqt_ligands/ligand_277_temp.pdb
REMARK                            x       y       z     vdW  Elec       q    Type
REMARK                         _______ _______ _______ _____ _____    ______ ____
ROOT
ATOM      1  C   UNL     1     141.652 122.945 104.792  0.00  0.00    -0.102 C 
ATOM      2  C   UNL     1     141.146 123.747 105.738  0.00  0.00    -0.087 C 
ATOM      3  C   UNL     1     141.769 125.050 106.156  0.00  0.00    -0.016 C 
ATOM      4  C   UNL     1     140.888 126.210 105.793  0.00  0.00    -0.072 C 
ATOM      5  C   UNL     1     141.163 127.185 104.911  0.00  0.00    -0.015 C 
ATOM      6  C   UNL     1     142.368 127.250 104.167  0.00  0.00    -0.073 C 
ATOM      7  C   UNL     1     143.390 127.287 103.537  0.00  0.00    -0.079 C 
ATOM      8  C   UNL     1     144.642 127.298 102.771  0.00  0.00    +0.071 C 
ATOM      9  N   UNL     1     144.718 126.103 101.936  0.00  0.00    -0.338 N 
ATOM     10  C   UNL     1     144.264 126.012 100.636  0.00  0.00    -0.003 C 
ATOM     11  C   UNL     1     144.375 126.814  99.567  0.00  0.00    -0.010 C 
ATOM     12  S   UNL     1     145.321 128.262  99.519  0.00  0.00    -0.095 S 
ATOM     13  C   UNL     1     144.545 129.054  98.183  0.00  0.00    +0.021 C 
ATOM     14  C   UNL     1     144.694 128.633  96.912  0.00  0.00    -0.047 C 
ATOM     15  C   UNL     1     144.136 129.297  95.744  0.00  0.00    -0.054 C 
ATOM     16  C   UNL     1     144.401 130.562  95.370  0.00  0.00    -0.004 C 
ATOM     17  C   UNL     1     143.820 131.299  94.194  0.00  0.00    +0.068 C 
ATOM     18  N   UNL     1     142.855 130.489  93.474  0.00  0.00    -0.269 N 
ATOM     19  C   UNL     1     142.879 130.236  92.223  0.00  0.00    +0.090 C 
ATOM     20  C   UNL     1     141.768 129.262  91.793  0.00  0.00    -0.000 C 
ATOM     21  C   UNL     1     140.505 130.019  91.419  0.00  0.00    -0.059 C 
ATOM     22  N   UNL     1     143.700 130.649  91.194  0.00  0.00    -0.333 N 
ATOM     23  C   UNL     1     144.391 131.923  91.058  0.00  0.00    +0.010 C 
ATOM     24  C   UNL     1     143.446 133.123  91.121  0.00  0.00    -0.040 C 
ATOM     25  C   UNL     1     142.600 133.258  89.863  0.00  0.00    -0.064 C 
ATOM     26  C   UNL     1     145.439 131.339  96.138  0.00  0.00    +0.052 C 
ATOM     27  C   UNL     1     146.740 131.593  95.408  0.00  0.00    +0.025 C 
ATOM     28  C   UNL     1     146.920 132.990  94.898  0.00  0.00    +0.006 C 
ATOM     29  N   UNL     1     145.926 133.775  94.667  0.00  0.00    -0.291 NA
ATOM     30  C   UNL     1     146.304 135.124  94.232  0.00  0.00    +0.057 C 
ATOM     31  C   UNL     1     146.790 135.988  95.367  0.00  0.00    -0.070 C 
ATOM     32  C   UNL     1     146.703 135.716  96.677  0.00  0.00    -0.101 C 
ATOM     33  N   UNL     1     145.351 131.773  97.358  0.00  0.00    -0.251 NA
ATOM     34  C   UNL     1     144.170 131.547  98.086  0.00  0.00    +0.072 A 
ATOM     35  C   UNL     1     143.389 132.663  98.418  0.00  0.00    -0.036 A 
ATOM     36  C   UNL     1     142.212 132.516  99.150  0.00  0.00    -0.060 A 
ATOM     37  C   UNL     1     141.806 131.251  99.568  0.00  0.00    -0.061 A 
ATOM     38  C   UNL     1     142.582 130.135  99.262  0.00  0.00    -0.051 A 
ATOM     39  C   UNL     1     143.772 130.266  98.528  0.00  0.00    +0.014 A 
ATOM     40  H   UNL     1     145.126 125.299 102.332  0.00  0.00    +0.000 HD
ATOM     41  H   UNL     1     142.117 130.100  93.996  0.00  0.00    +0.000 HD
ATOM     42  H   UNL     1     143.835 130.004  90.463  0.00  0.00    +0.000 HD
ENDROOT
TORSDOF 0
ENDMDL
MODEL 2
REMARK VINA RESULT:    -3.627      1.191      1.400
REMARK INTER + INTRA:          -3.627
REMARK INTER:                  -3.627
REMARK INTRA:                   0.000
REMARK UNBOUND:                 0.000
REMARK  Name = /home/vital/Documents/PhD_2021/Malaria_codes/scripts/../data/pdbqt_ligands/ligand_277_temp.pdb
REMARK                            x       y       z     vdW  Elec       q    Type
REMARK                         _______ _______ _______ _____ _____    ______ ____
ROOT
ATOM      1  C   UNL     1     140.551 121.606 104.661  0.00  0.00    -0.102 C 
ATOM      2  C   UNL     1     139.927 122.308 105.618  0.00  0.00    -0.087 C 
ATOM      3  C   UNL     1     140.465 123.579 106.212  0.00  0.00    -0.016 C 
ATOM      4  C   UNL     1     139.591 124.749 105.864  0.00  0.00    -0.072 C 
ATOM      5  C   UNL     1     139.923 125.806 105.104  0.00  0.00    -0.015 C 
ATOM      6  C   UNL     1     141.195 125.964 104.497  0.00  0.00    -0.073 C 
ATOM      7  C   UNL     1     142.273 126.080 103.981  0.00  0.00    -0.079 C 
ATOM      8  C   UNL     1     143.595 126.187 103.353  0.00  0.00    +0.071 C 
ATOM      9  N   UNL     1     143.791 125.075 102.427  0.00  0.00    -0.338 N 
ATOM     10  C   UNL     1     143.473 125.094 101.084  0.00  0.00    -0.003 C 
ATOM     11  C   UNL     1     143.666 125.992 100.108  0.00  0.00    -0.010 C 
ATOM     12  S   UNL     1     144.568 127.458 100.286  0.00  0.00    -0.095 S 
ATOM     13  C   UNL     1     143.907 128.353  98.953  0.00  0.00    +0.021 C 
ATOM     14  C   UNL     1     144.196 128.052  97.671  0.00  0.00    -0.047 C 
ATOM     15  C   UNL     1     143.737 128.808  96.516  0.00  0.00    -0.054 C 
ATOM     16  C   UNL     1     144.000 130.108  96.284  0.00  0.00    -0.004 C 
ATOM     17  C   UNL     1     143.519 130.936  95.124  0.00  0.00    +0.068 C 
ATOM     18  N   UNL     1     142.656 130.175  94.240  0.00  0.00    -0.269 N 
ATOM     19  C   UNL     1     142.813 130.037  92.981  0.00  0.00    +0.090 C 
ATOM     20  C   UNL     1     141.781 129.084  92.354  0.00  0.00    -0.000 C 
ATOM     21  C   UNL     1     140.539 129.845  91.921  0.00  0.00    -0.059 C 
ATOM     22  N   UNL     1     143.720 130.560  92.083  0.00  0.00    -0.333 N 
ATOM     23  C   UNL     1     144.382 131.855  92.132  0.00  0.00    +0.010 C 
ATOM     24  C   UNL     1     143.400 133.025  92.204  0.00  0.00    -0.040 C 
ATOM     25  C   UNL     1     142.681 133.256  90.882  0.00  0.00    -0.064 C 
ATOM     26  C   UNL     1     144.932 130.833  97.221  0.00  0.00    +0.052 C 
ATOM     27  C   UNL     1     146.291 131.180  96.654  0.00  0.00    +0.025 C 
ATOM     28  C   UNL     1     146.479 132.621  96.291  0.00  0.00    +0.006 C 
ATOM     29  N   UNL     1     145.490 133.402  96.030  0.00  0.00    -0.291 NA
ATOM     30  C   UNL     1     145.869 134.793  95.757  0.00  0.00    +0.057 C 
ATOM     31  C   UNL     1     146.212 135.560  97.008  0.00  0.00    -0.070 C 
ATOM     32  C   UNL     1     146.003 135.168  98.273  0.00  0.00    -0.101 C 
ATOM     33  N   UNL     1     144.708 131.151  98.459  0.00  0.00    -0.251 NA
ATOM     34  C   UNL     1     143.468 130.835  99.039  0.00  0.00    +0.072 A 
ATOM     35  C   UNL     1     142.623 131.899  99.386  0.00  0.00    -0.036 A 
ATOM     36  C   UNL     1     141.384 131.661  99.978  0.00  0.00    -0.060 A 
ATOM     37  C   UNL     1     140.976 130.355 100.238  0.00  0.00    -0.061 A 
ATOM     38  C   UNL     1     141.813 129.289  99.916  0.00  0.00    -0.051 A 
ATOM     39  C   UNL     1     143.066 129.511  99.322  0.00  0.00    +0.014 A 
ATOM     40  H   UNL     1     144.181 124.247 102.789  0.00  0.00    +0.000 HD
ATOM     41  H   UNL     1     141.881 129.724  94.647  0.00  0.00    +0.000 HD
ATOM     42  H   UNL     1     143.947 129.988  91.315  0.00  0.00    +0.000 HD
ENDROOT
TORSDOF 0
ENDMDL
MODEL 3
REMARK VINA RESULT:    -3.563      3.631     11.750
REMARK INTER + INTRA:          -3.563
REMARK INTER:                  -3.563
REMARK INTRA:                   0.000
REMARK UNBOUND:                 0.000
REMARK  Name = /home/vital/Documents/PhD_2021/Malaria_codes/scripts/../data/pdbqt_ligands/ligand_277_temp.pdb
REMARK                            x       y       z     vdW  Elec       q    Type
REMARK                         _______ _______ _______ _____ _____    ______ ____
ROOT
ATOM      1  C   UNL     1     145.214 141.074  90.349  0.00  0.00    -0.102 C 
ATOM      2  C   UNL     1     144.365 141.013  89.315  0.00  0.00    -0.087 C 
ATOM      3  C   UNL     1     144.255 139.836  88.386  0.00  0.00    -0.016 C 
ATOM      4  C   UNL     1     142.919 139.164  88.524  0.00  0.00    -0.072 C 
ATOM      5  C   UNL     1     142.686 137.920  88.974  0.00  0.00    -0.015 C 
ATOM      6  C   UNL     1     143.710 137.039  89.404  0.00  0.00    -0.073 C 
ATOM      7  C   UNL     1     144.587 136.307  89.775  0.00  0.00    -0.079 C 
ATOM      8  C   UNL     1     145.679 135.440  90.234  0.00  0.00    +0.071 C 
ATOM      9  N   UNL     1     146.348 136.055  91.377  0.00  0.00    -0.338 N 
ATOM     10  C   UNL     1     146.015 135.846  92.700  0.00  0.00    -0.003 C 
ATOM     11  C   UNL     1     145.728 134.746  93.411  0.00  0.00    -0.010 C 
ATOM     12  S   UNL     1     145.832 133.129  92.803  0.00  0.00    -0.095 S 
ATOM     13  C   UNL     1     144.782 132.339  93.939  0.00  0.00    +0.021 C 
ATOM     14  C   UNL     1     145.137 132.133  95.223  0.00  0.00    -0.047 C 
ATOM     15  C   UNL     1     144.337 131.412  96.201  0.00  0.00    -0.054 C 
ATOM     16  C   UNL     1     143.945 130.129  96.089  0.00  0.00    -0.004 C 
ATOM     17  C   UNL     1     143.090 129.356  97.056  0.00  0.00    +0.068 C 
ATOM     18  N   UNL     1     142.663 130.177  98.173  0.00  0.00    -0.269 N 
ATOM     19  C   UNL     1     142.825 129.900  99.408  0.00  0.00    +0.090 C 
ATOM     20  C   UNL     1     142.348 131.029 100.339  0.00  0.00    -0.000 C 
ATOM     21  C   UNL     1     140.881 130.853 100.690  0.00  0.00    -0.059 C 
ATOM     22  N   UNL     1     143.345 128.806 100.067  0.00  0.00    -0.333 N 
ATOM     23  C   UNL     1     143.316 127.412  99.648  0.00  0.00    +0.010 C 
ATOM     24  C   UNL     1     141.900 126.897  99.390  0.00  0.00    -0.040 C 
ATOM     25  C   UNL     1     141.114 126.700 100.678  0.00  0.00    -0.064 C 
ATOM     26  C   UNL     1     144.452 129.319  94.924  0.00  0.00    +0.052 C 
ATOM     27  C   UNL     1     145.464 128.247  95.262  0.00  0.00    +0.025 C 
ATOM     28  C   UNL     1     144.935 126.846  95.250  0.00  0.00    +0.006 C 
ATOM     29  N   UNL     1     143.686 126.578  95.407  0.00  0.00    -0.291 NA
ATOM     30  C   UNL     1     143.352 125.153  95.303  0.00  0.00    +0.057 C 
ATOM     31  C   UNL     1     143.330 124.662  93.878  0.00  0.00    -0.070 C 
ATOM     32  C   UNL     1     143.374 125.414  92.769  0.00  0.00    -0.101 C 
ATOM     33  N   UNL     1     144.145 129.468  93.671  0.00  0.00    -0.251 NA
ATOM     34  C   UNL     1     143.222 130.462  93.302  0.00  0.00    +0.072 A 
ATOM     35  C   UNL     1     141.986 130.042  92.790  0.00  0.00    -0.036 A 
ATOM     36  C   UNL     1     141.028 130.972  92.390  0.00  0.00    -0.060 A 
ATOM     37  C   UNL     1     141.296 132.335  92.489  0.00  0.00    -0.061 A 
ATOM     38  C   UNL     1     142.528 132.767  92.979  0.00  0.00    -0.051 A 
ATOM     39  C   UNL     1     143.505 131.843  93.383  0.00  0.00    +0.014 A 
ATOM     40  H   UNL     1     147.095 136.668  91.189  0.00  0.00    +0.000 HD
ATOM     41  H   UNL     1     142.208 131.024  97.960  0.00  0.00    +0.000 HD
ATOM     42  H   UNL     1     143.791 128.989 100.925  0.00  0.00    +0.000 HD
ENDROOT
TORSDOF 0
ENDMDL
MODEL 4
REMARK VINA RESULT:    -3.476      7.406     12.656
REMARK INTER + INTRA:          -3.476
REMARK INTER:                  -3.476
REMARK INTRA:                   0.000
REMARK UNBOUND:                 0.000
REMARK  Name = /home/vital/Documents/PhD_2021/Malaria_codes/scripts/../data/pdbqt_ligands/ligand_277_temp.pdb
REMARK                            x       y       z     vdW  Elec       q    Type
REMARK                         _______ _______ _______ _____ _____    ______ ____
ROOT
ATOM      1  C   UNL     1     131.217 123.837  87.294  0.00  0.00    -0.102 C 
ATOM      2  C   UNL     1     131.122 122.505  87.175  0.00  0.00    -0.087 C 
ATOM      3  C   UNL     1     132.255 121.618  86.739  0.00  0.00    -0.016 C 
ATOM      4  C   UNL     1     132.690 120.712  87.854  0.00  0.00    -0.072 C 
ATOM      5  C   UNL     1     133.880 120.716  88.478  0.00  0.00    -0.015 C 
ATOM      6  C   UNL     1     134.927 121.618  88.160  0.00  0.00    -0.073 C 
ATOM      7  C   UNL     1     135.802 122.395  87.886  0.00  0.00    -0.079 C 
ATOM      8  C   UNL     1     136.846 123.365  87.538  0.00  0.00    +0.071 C 
ATOM      9  N   UNL     1     136.365 124.719  87.796  0.00  0.00    -0.338 N 
ATOM     10  C   UNL     1     136.526 125.408  88.981  0.00  0.00    -0.003 C 
ATOM     11  C   UNL     1     137.567 125.580  89.808  0.00  0.00    -0.010 C 
ATOM     12  S   UNL     1     139.172 125.014  89.497  0.00  0.00    -0.095 S 
ATOM     13  C   UNL     1     139.781 125.003  91.123  0.00  0.00    +0.021 C 
ATOM     14  C   UNL     1     140.056 126.138  91.796  0.00  0.00    -0.047 C 
ATOM     15  C   UNL     1     140.639 126.195  93.127  0.00  0.00    -0.054 C 
ATOM     16  C   UNL     1     141.835 125.683  93.474  0.00  0.00    -0.004 C 
ATOM     17  C   UNL     1     142.460 125.688  94.843  0.00  0.00    +0.068 C 
ATOM     18  N   UNL     1     141.587 126.295  95.831  0.00  0.00    -0.269 N 
ATOM     19  C   UNL     1     141.899 127.253  96.614  0.00  0.00    +0.090 C 
ATOM     20  C   UNL     1     140.713 127.731  97.470  0.00  0.00    -0.000 C 
ATOM     21  C   UNL     1     140.640 126.949  98.770  0.00  0.00    -0.059 C 
ATOM     22  N   UNL     1     143.072 127.944  96.835  0.00  0.00    -0.333 N 
ATOM     23  C   UNL     1     144.436 127.449  96.723  0.00  0.00    +0.010 C 
ATOM     24  C   UNL     1     144.700 126.225  97.600  0.00  0.00    -0.040 C 
ATOM     25  C   UNL     1     144.771 126.579  99.078  0.00  0.00    -0.064 C 
ATOM     26  C   UNL     1     142.710 125.098  92.395  0.00  0.00    +0.052 C 
ATOM     27  C   UNL     1     143.942 125.903  92.043  0.00  0.00    +0.025 C 
ATOM     28  C   UNL     1     145.232 125.353  92.569  0.00  0.00    +0.006 C 
ATOM     29  N   UNL     1     145.284 124.571  93.591  0.00  0.00    -0.291 NA
ATOM     30  C   UNL     1     146.629 124.087  93.918  0.00  0.00    +0.057 C 
ATOM     31  C   UNL     1     147.096 122.993  92.993  0.00  0.00    -0.070 C 
ATOM     32  C   UNL     1     146.353 122.326  92.098  0.00  0.00    -0.101 C 
ATOM     33  N   UNL     1     142.499 124.011  91.717  0.00  0.00    -0.251 NA
ATOM     34  C   UNL     1     141.359 123.237  91.994  0.00  0.00    +0.072 A 
ATOM     35  C   UNL     1     141.557 121.968  92.555  0.00  0.00    -0.036 A 
ATOM     36  C   UNL     1     140.474 121.139  92.842  0.00  0.00    -0.060 A 
ATOM     37  C   UNL     1     139.177 121.566  92.565  0.00  0.00    -0.061 A 
ATOM     38  C   UNL     1     138.967 122.818  91.990  0.00  0.00    -0.051 A 
ATOM     39  C   UNL     1     140.047 123.664  91.691  0.00  0.00    +0.014 A 
ATOM     40  H   UNL     1     135.887 125.177  87.066  0.00  0.00    +0.000 HD
ATOM     41  H   UNL     1     140.674 125.935  95.904  0.00  0.00    +0.000 HD
ATOM     42  H   UNL     1     142.975 128.887  97.100  0.00  0.00    +0.000 HD
ENDROOT
TORSDOF 0
ENDMDL
MODEL 5
REMARK VINA RESULT:    -3.340      4.495     11.836
REMARK INTER + INTRA:          -3.340
REMARK INTER:                  -3.340
REMARK INTRA:                   0.000
REMARK UNBOUND:                 0.000
REMARK  Name = /home/vital/Documents/PhD_2021/Malaria_codes/scripts/../data/pdbqt_ligands/ligand_277_temp.pdb
REMARK                            x       y       z     vdW  Elec       q    Type
REMARK                         _______ _______ _______ _____ _____    ______ ____
ROOT
ATOM      1  C   UNL     1     143.926 139.814  91.057  0.00  0.00    -0.102 C 
ATOM      2  C   UNL     1     143.239 139.899  89.910  0.00  0.00    -0.087 C 
ATOM      3  C   UNL     1     143.361 138.913  88.783  0.00  0.00    -0.016 C 
ATOM      4  C   UNL     1     142.081 138.151  88.593  0.00  0.00    -0.072 C 
ATOM      5  C   UNL     1     141.894 136.833  88.774  0.00  0.00    -0.015 C 
ATOM      6  C   UNL     1     142.919 135.948  89.194  0.00  0.00    -0.073 C 
ATOM      7  C   UNL     1     143.795 135.211  89.560  0.00  0.00    -0.079 C 
ATOM      8  C   UNL     1     144.881 134.339  90.020  0.00  0.00    +0.071 C 
ATOM      9  N   UNL     1     145.329 134.766  91.342  0.00  0.00    -0.338 N 
ATOM     10  C   UNL     1     144.833 134.294  92.540  0.00  0.00    -0.003 C 
ATOM     11  C   UNL     1     144.544 133.065  92.993  0.00  0.00    -0.010 C 
ATOM     12  S   UNL     1     144.869 131.600  92.133  0.00  0.00    -0.095 S 
ATOM     13  C   UNL     1     143.742 130.551  92.936  0.00  0.00    +0.021 C 
ATOM     14  C   UNL     1     143.930 130.129  94.202  0.00  0.00    -0.047 C 
ATOM     15  C   UNL     1     143.066 129.192  94.903  0.00  0.00    -0.054 C 
ATOM     16  C   UNL     1     142.803 127.932  94.507  0.00  0.00    -0.004 C 
ATOM     17  C   UNL     1     141.891 126.943  95.180  0.00  0.00    +0.068 C 
ATOM     18  N   UNL     1     141.243 127.514  96.346  0.00  0.00    -0.269 N 
ATOM     19  C   UNL     1     141.253 127.020  97.522  0.00  0.00    +0.090 C 
ATOM     20  C   UNL     1     140.556 127.925  98.553  0.00  0.00    -0.000 C 
ATOM     21  C   UNL     1     139.075 127.601  98.638  0.00  0.00    -0.059 C 
ATOM     22  N   UNL     1     141.768 125.854  98.049  0.00  0.00    -0.333 N 
ATOM     23  C   UNL     1     141.916 124.564  97.390  0.00  0.00    +0.010 C 
ATOM     24  C   UNL     1     140.600 124.025  96.831  0.00  0.00    -0.040 C 
ATOM     25  C   UNL     1     139.661 123.545  97.929  0.00  0.00    -0.064 C 
ATOM     26  C   UNL     1     143.536 127.386  93.309  0.00  0.00    +0.052 C 
ATOM     27  C   UNL     1     144.579 126.330  93.604  0.00  0.00    +0.025 C 
ATOM     28  C   UNL     1     144.178 124.928  93.263  0.00  0.00    +0.006 C 
ATOM     29  N   UNL     1     142.946 124.563  93.177  0.00  0.00    -0.291 NA
ATOM     30  C   UNL     1     142.753 123.167  92.772  0.00  0.00    +0.057 C 
ATOM     31  C   UNL     1     142.973 122.951  91.297  0.00  0.00    -0.070 C 
ATOM     32  C   UNL     1     143.107 123.899  90.358  0.00  0.00    -0.101 C 
ATOM     33  N   UNL     1     143.396 127.749  92.070  0.00  0.00    -0.251 NA
ATOM     34  C   UNL     1     142.452 128.740  91.746  0.00  0.00    +0.072 A 
ATOM     35  C   UNL     1     141.341 128.352  90.984  0.00  0.00    -0.036 A 
ATOM     36  C   UNL     1     140.373 129.283  90.613  0.00  0.00    -0.060 A 
ATOM     37  C   UNL     1     140.507 130.616  90.991  0.00  0.00    -0.061 A 
ATOM     38  C   UNL     1     141.616 131.019  91.732  0.00  0.00    -0.051 A 
ATOM     39  C   UNL     1     142.603 130.095  92.112  0.00  0.00    +0.014 A 
ATOM     40  H   UNL     1     146.040 135.446  91.382  0.00  0.00    +0.000 HD
ATOM     41  H   UNL     1     140.752 128.358  96.218  0.00  0.00    +0.000 HD
ATOM     42  H   UNL     1     142.072 125.899  98.984  0.00  0.00    +0.000 HD
ENDROOT
TORSDOF 0
ENDMDL
MODEL 6
REMARK VINA RESULT:    -3.245      2.816     11.312
REMARK INTER + INTRA:          -3.245
REMARK INTER:                  -3.245
REMARK INTRA:                   0.000
REMARK UNBOUND:                 0.000
REMARK  Name = /home/vital/Documents/PhD_2021/Malaria_codes/scripts/../data/pdbqt_ligands/ligand_277_temp.pdb
REMARK                            x       y       z     vdW  Elec       q    Type
REMARK                         _______ _______ _______ _____ _____    ______ ____
ROOT
ATOM      1  C   UNL     1     141.403 135.863  87.872  0.00  0.00    -0.102 C 
ATOM      2  C   UNL     1     141.225 134.961  86.897  0.00  0.00    -0.087 C 
ATOM      3  C   UNL     1     142.110 133.765  86.686  0.00  0.00    -0.016 C 
ATOM      4  C   UNL     1     141.362 132.489  86.943  0.00  0.00    -0.072 C 
ATOM      5  C   UNL     1     141.601 131.598  87.919  0.00  0.00    -0.015 C 
ATOM      6  C   UNL     1     142.630 131.750  88.883  0.00  0.00    -0.073 C 
ATOM      7  C   UNL     1     143.499 131.898  89.700  0.00  0.00    -0.079 C 
ATOM      8  C   UNL     1     144.560 132.113  90.691  0.00  0.00    +0.071 C 
ATOM      9  N   UNL     1     144.284 133.328  91.451  0.00  0.00    -0.338 N 
ATOM     10  C   UNL     1     143.571 133.383  92.631  0.00  0.00    -0.003 C 
ATOM     11  C   UNL     1     143.588 132.642  93.749  0.00  0.00    -0.010 C 
ATOM     12  S   UNL     1     144.715 131.368  94.065  0.00  0.00    -0.095 S 
ATOM     13  C   UNL     1     143.819 130.500  95.273  0.00  0.00    +0.021 C 
ATOM     14  C   UNL     1     143.645 130.977  96.521  0.00  0.00    -0.047 C 
ATOM     15  C   UNL     1     142.973 130.266  97.598  0.00  0.00    -0.054 C 
ATOM     16  C   UNL     1     143.348 129.072  98.092  0.00  0.00    -0.004 C 
ATOM     17  C   UNL     1     142.664 128.286  99.178  0.00  0.00    +0.068 C 
ATOM     18  N   UNL     1     141.462 128.950  99.648  0.00  0.00    -0.269 N 
ATOM     19  C   UNL     1     141.197 129.241 100.862  0.00  0.00    +0.090 C 
ATOM     20  C   UNL     1     139.887 130.034 101.011  0.00  0.00    -0.000 C 
ATOM     21  C   UNL     1     138.706 129.094 101.179  0.00  0.00    -0.059 C 
ATOM     22  N   UNL     1     141.849 128.996 102.053  0.00  0.00    -0.333 N 
ATOM     23  C   UNL     1     142.685 127.855 102.396  0.00  0.00    +0.010 C 
ATOM     24  C   UNL     1     141.967 126.517 102.226  0.00  0.00    -0.040 C 
ATOM     25  C   UNL     1     140.918 126.284 103.303  0.00  0.00    -0.064 C 
ATOM     26  C   UNL     1     144.625 128.451  97.587  0.00  0.00    +0.052 C 
ATOM     27  C   UNL     1     145.777 128.432  98.568  0.00  0.00    +0.025 C 
ATOM     28  C   UNL     1     146.063 127.099  99.187  0.00  0.00    +0.006 C 
ATOM     29  N   UNL     1     145.175 126.170  99.269  0.00  0.00    -0.291 NA
ATOM     30  C   UNL     1     145.661 124.914  99.850  0.00  0.00    +0.057 C 
ATOM     31  C   UNL     1     146.489 124.106  98.884  0.00  0.00    -0.070 C 
ATOM     32  C   UNL     1     146.625 124.322  97.568  0.00  0.00    -0.101 C 
ATOM     33  N   UNL     1     144.849 127.973  96.401  0.00  0.00    -0.251 NA
ATOM     34  C   UNL     1     143.817 127.983  95.447  0.00  0.00    +0.072 A 
ATOM     35  C   UNL     1     143.297 126.746  95.040  0.00  0.00    -0.036 A 
ATOM     36  C   UNL     1     142.283 126.679  94.087  0.00  0.00    -0.060 A 
ATOM     37  C   UNL     1     141.779 127.848  93.523  0.00  0.00    -0.061 A 
ATOM     38  C   UNL     1     142.299 129.084  93.904  0.00  0.00    -0.051 A 
ATOM     39  C   UNL     1     143.324 129.169  94.860  0.00  0.00    +0.014 A 
ATOM     40  H   UNL     1     144.634 134.176  91.093  0.00  0.00    +0.000 HD
ATOM     41  H   UNL     1     140.793 129.199  98.971  0.00  0.00    +0.000 HD
ATOM     42  H   UNL     1     141.735 129.675 102.756  0.00  0.00    +0.000 HD
ENDROOT
TORSDOF 0
ENDMDL
MODEL 7
REMARK VINA RESULT:    -3.242     10.376     12.854
REMARK INTER + INTRA:          -3.242
REMARK INTER:                  -3.242
REMARK INTRA:                   0.000
REMARK UNBOUND:                 0.000
REMARK  Name = /home/vital/Documents/PhD_2021/Malaria_codes/scripts/../data/pdbqt_ligands/ligand_277_temp.pdb
REMARK                            x       y       z     vdW  Elec       q    Type
REMARK                         _______ _______ _______ _____ _____    ______ ____
ROOT
ATOM      1  C   UNL     1     134.719 124.399  86.452  0.00  0.00    -0.102 C 
ATOM      2  C   UNL     1     135.032 123.859  87.638  0.00  0.00    -0.087 C 
ATOM      3  C   UNL     1     136.434 123.763  88.173  0.00  0.00    -0.016 C 
ATOM      4  C   UNL     1     136.606 124.625  89.391  0.00  0.00    -0.072 C 
ATOM      5  C   UNL     1     137.399 125.702  89.510  0.00  0.00    -0.015 C 
ATOM      6  C   UNL     1     138.209 126.198  88.457  0.00  0.00    -0.073 C 
ATOM      7  C   UNL     1     138.882 126.612  87.553  0.00  0.00    -0.079 C 
ATOM      8  C   UNL     1     139.684 127.103  86.426  0.00  0.00    +0.071 C 
ATOM      9  N   UNL     1     138.804 127.494  85.329  0.00  0.00    -0.338 N 
ATOM     10  C   UNL     1     138.289 128.760  85.137  0.00  0.00    -0.003 C 
ATOM     11  C   UNL     1     138.825 129.987  85.195  0.00  0.00    -0.010 C 
ATOM     12  S   UNL     1     140.507 130.314  85.437  0.00  0.00    -0.095 S 
ATOM     13  C   UNL     1     140.392 131.948  86.013  0.00  0.00    +0.021 C 
ATOM     14  C   UNL     1     140.066 132.974  85.203  0.00  0.00    -0.047 C 
ATOM     15  C   UNL     1     140.028 134.372  85.605  0.00  0.00    -0.054 C 
ATOM     16  C   UNL     1     141.073 135.069  86.091  0.00  0.00    -0.004 C 
ATOM     17  C   UNL     1     141.070 136.501  86.551  0.00  0.00    +0.068 C 
ATOM     18  N   UNL     1     139.748 137.094  86.460  0.00  0.00    -0.269 N 
ATOM     19  C   UNL     1     139.457 138.176  85.851  0.00  0.00    +0.090 C 
ATOM     20  C   UNL     1     137.947 138.474  85.858  0.00  0.00    -0.000 C 
ATOM     21  C   UNL     1     137.566 139.287  87.083  0.00  0.00    -0.059 C 
ATOM     22  N   UNL     1     140.216 139.116  85.186  0.00  0.00    -0.333 N 
ATOM     23  C   UNL     1     141.588 139.516  85.464  0.00  0.00    +0.010 C 
ATOM     24  C   UNL     1     141.788 140.004  86.898  0.00  0.00    -0.040 C 
ATOM     25  C   UNL     1     141.165 141.372  87.135  0.00  0.00    -0.064 C 
ATOM     26  C   UNL     1     142.426 134.407  86.127  0.00  0.00    +0.052 C 
ATOM     27  C   UNL     1     143.438 134.932  85.132  0.00  0.00    +0.025 C 
ATOM     28  C   UNL     1     144.503 135.812  85.712  0.00  0.00    +0.006 C 
ATOM     29  N   UNL     1     144.343 136.452  86.818  0.00  0.00    -0.291 NA
ATOM     30  C   UNL     1     145.520 137.211  87.255  0.00  0.00    +0.057 C 
ATOM     31  C   UNL     1     146.588 136.335  87.858  0.00  0.00    -0.070 C 
ATOM     32  C   UNL     1     146.469 135.044  88.200  0.00  0.00    -0.101 C 
ATOM     33  N   UNL     1     142.798 133.421  86.884  0.00  0.00    -0.251 NA
ATOM     34  C   UNL     1     141.889 132.885  87.813  0.00  0.00    +0.072 A 
ATOM     35  C   UNL     1     142.171 133.067  89.175  0.00  0.00    -0.036 A 
ATOM     36  C   UNL     1     141.322 132.550  90.152  0.00  0.00    -0.060 A 
ATOM     37  C   UNL     1     140.184 131.839  89.781  0.00  0.00    -0.061 A 
ATOM     38  C   UNL     1     139.902 131.635  88.431  0.00  0.00    -0.051 A 
ATOM     39  C   UNL     1     140.748 132.145  87.434  0.00  0.00    +0.014 A 
ATOM     40  H   UNL     1     138.557 126.800  84.676  0.00  0.00    +0.000 HD
ATOM     41  H   UNL     1     139.012 136.619  86.908  0.00  0.00    +0.000 HD
ATOM     42  H   UNL     1     139.778 139.573  84.432  0.00  0.00    +0.000 HD
ENDROOT
TORSDOF 0
ENDMDL
MODEL 8
REMARK VINA RESULT:    -3.109      4.400      6.143
REMARK INTER + INTRA:          -3.109
REMARK INTER:                  -3.109
REMARK INTRA:                   0.000
REMARK UNBOUND:                 0.000
REMARK  Name = /home/vital/Documents/PhD_2021/Malaria_codes/scripts/../data/pdbqt_ligands/ligand_277_temp.pdb
REMARK                            x       y       z     vdW  Elec       q    Type
REMARK                         _______ _______ _______ _____ _____    ______ ____
ROOT
ATOM      1  C   UNL     1     142.770 122.779 106.365  0.00  0.00    -0.102 C 
ATOM      2  C   UNL     1     141.991 123.687 106.970  0.00  0.00    -0.087 C 
ATOM      3  C   UNL     1     141.978 125.148 106.620  0.00  0.00    -0.016 C 
ATOM      4  C   UNL     1     140.658 125.548 106.026  0.00  0.00    -0.072 C 
ATOM      5  C   UNL     1     140.436 125.980 104.774  0.00  0.00    -0.015 C 
ATOM      6  C   UNL     1     141.457 126.115 103.800  0.00  0.00    -0.073 C 
ATOM      7  C   UNL     1     142.331 126.215 102.982  0.00  0.00    -0.079 C 
ATOM      8  C   UNL     1     143.418 126.315 102.000  0.00  0.00    +0.071 C 
ATOM      9  N   UNL     1     143.992 124.993 101.768  0.00  0.00    -0.338 N 
ATOM     10  C   UNL     1     143.582 124.108 100.791  0.00  0.00    -0.003 C 
ATOM     11  C   UNL     1     143.285 124.250  99.491  0.00  0.00    -0.010 C 
ATOM     12  S   UNL     1     143.478 125.717  98.594  0.00  0.00    -0.095 S 
ATOM     13  C   UNL     1     142.383 125.387  97.287  0.00  0.00    +0.021 C 
ATOM     14  C   UNL     1     142.661 124.484  96.327  0.00  0.00    -0.047 C 
ATOM     15  C   UNL     1     141.824 124.218  95.167  0.00  0.00    -0.054 C 
ATOM     16  C   UNL     1     141.479 125.125  94.234  0.00  0.00    -0.004 C 
ATOM     17  C   UNL     1     140.589 124.904  93.041  0.00  0.00    +0.068 C 
ATOM     18  N   UNL     1     140.066 123.551  93.003  0.00  0.00    -0.269 N 
ATOM     19  C   UNL     1     140.157 122.743  92.020  0.00  0.00    +0.090 C 
ATOM     20  C   UNL     1     139.586 121.350  92.340  0.00  0.00    -0.000 C 
ATOM     21  C   UNL     1     138.106 121.286  92.006  0.00  0.00    -0.059 C 
ATOM     22  N   UNL     1     140.668 122.866  90.744  0.00  0.00    -0.333 N 
ATOM     23  C   UNL     1     140.709 124.057  89.908  0.00  0.00    +0.010 C 
ATOM     24  C   UNL     1     139.330 124.676  89.684  0.00  0.00    -0.040 C 
ATOM     25  C   UNL     1     138.470 123.842  88.745  0.00  0.00    -0.064 C 
ATOM     26  C   UNL     1     142.085 126.503  94.309  0.00  0.00    +0.052 C 
ATOM     27  C   UNL     1     143.107 126.829  93.242  0.00  0.00    +0.025 C 
ATOM     28  C   UNL     1     142.623 127.740  92.156  0.00  0.00    +0.006 C 
ATOM     29  N   UNL     1     141.375 127.869  91.867  0.00  0.00    -0.291 NA
ATOM     30  C   UNL     1     141.094 128.853  90.817  0.00  0.00    +0.057 C 
ATOM     31  C   UNL     1     141.179 130.275  91.311  0.00  0.00    -0.070 C 
ATOM     32  C   UNL     1     141.269 130.677  92.587  0.00  0.00    -0.101 C 
ATOM     33  N   UNL     1     141.854 127.414  95.205  0.00  0.00    -0.251 NA
ATOM     34  C   UNL     1     140.926 127.154  96.228  0.00  0.00    +0.072 A 
ATOM     35  C   UNL     1     139.739 127.901  96.233  0.00  0.00    -0.036 A 
ATOM     36  C   UNL     1     138.780 127.707  97.225  0.00  0.00    -0.060 A 
ATOM     37  C   UNL     1     138.999 126.769  98.231  0.00  0.00    -0.061 A 
ATOM     38  C   UNL     1     140.182 126.033  98.250  0.00  0.00    -0.051 A 
ATOM     39  C   UNL     1     141.161 126.218  97.260  0.00  0.00    +0.014 A 
ATOM     40  H   UNL     1     144.731 124.710 102.355  0.00  0.00    +0.000 HD
ATOM     41  H   UNL     1     139.599 123.228  93.807  0.00  0.00    +0.000 HD
ATOM     42  H   UNL     1     141.052 122.049  90.352  0.00  0.00    +0.000 HD
ENDROOT
TORSDOF 0
ENDMDL
MODEL 9
REMARK VINA RESULT:    -2.787      3.114      4.310
REMARK INTER + INTRA:          -2.787
REMARK INTER:                  -2.787
REMARK INTRA:                   0.000
REMARK UNBOUND:                 0.000
REMARK  Name = /home/vital/Documents/PhD_2021/Malaria_codes/scripts/../data/pdbqt_ligands/ligand_277_temp.pdb
REMARK                            x       y       z     vdW  Elec       q    Type
REMARK                         _______ _______ _______ _____ _____    ______ ____
ROOT
ATOM      1  C   UNL     1     143.434 124.034 107.484  0.00  0.00    -0.102 C 
ATOM      2  C   UNL     1     142.115 124.180 107.674  0.00  0.00    -0.087 C 
ATOM      3  C   UNL     1     141.338 125.400 107.264  0.00  0.00    -0.016 C 
ATOM      4  C   UNL     1     140.361 125.073 106.171  0.00  0.00    -0.072 C 
ATOM      5  C   UNL     1     140.377 125.539 104.911  0.00  0.00    -0.015 C 
ATOM      6  C   UNL     1     141.361 126.433 104.419  0.00  0.00    -0.073 C 
ATOM      7  C   UNL     1     142.208 127.182 104.014  0.00  0.00    -0.079 C 
ATOM      8  C   UNL     1     143.264 128.086 103.543  0.00  0.00    +0.071 C 
ATOM      9  N   UNL     1     144.560 127.420 103.636  0.00  0.00    -0.338 N 
ATOM     10  C   UNL     1     145.147 126.680 102.630  0.00  0.00    -0.003 C 
ATOM     11  C   UNL     1     145.302 126.883 101.313  0.00  0.00    -0.010 C 
ATOM     12  S   UNL     1     144.860 128.336 100.485  0.00  0.00    -0.095 S 
ATOM     13  C   UNL     1     144.736 127.707  98.871  0.00  0.00    +0.021 C 
ATOM     14  C   UNL     1     145.820 127.347  98.155  0.00  0.00    -0.047 C 
ATOM     15  C   UNL     1     145.790 126.887  96.775  0.00  0.00    -0.054 C 
ATOM     16  C   UNL     1     145.318 127.594  95.731  0.00  0.00    -0.004 C 
ATOM     17  C   UNL     1     145.235 127.146  94.297  0.00  0.00    +0.068 C 
ATOM     18  N   UNL     1     145.699 125.781  94.132  0.00  0.00    -0.269 N 
ATOM     19  C   UNL     1     146.599 125.393  93.315  0.00  0.00    +0.090 C 
ATOM     20  C   UNL     1     146.930 123.897  93.460  0.00  0.00    -0.000 C 
ATOM     21  C   UNL     1     146.031 123.059  92.568  0.00  0.00    -0.059 C 
ATOM     22  N   UNL     1     147.333 126.043  92.344  0.00  0.00    -0.333 N 
ATOM     23  C   UNL     1     146.929 127.178  91.527  0.00  0.00    +0.010 C 
ATOM     24  C   UNL     1     145.648 126.915  90.736  0.00  0.00    -0.040 C 
ATOM     25  C   UNL     1     145.871 125.949  89.581  0.00  0.00    -0.064 C 
ATOM     26  C   UNL     1     144.883 129.018  95.962  0.00  0.00    +0.052 C 
ATOM     27  C   UNL     1     145.785 130.082  95.374  0.00  0.00    +0.025 C 
ATOM     28  C   UNL     1     145.265 130.743  94.135  0.00  0.00    +0.006 C 
ATOM     29  N   UNL     1     144.398 130.182  93.365  0.00  0.00    -0.291 NA
ATOM     30  C   UNL     1     143.964 131.010  92.235  0.00  0.00    +0.057 C 
ATOM     31  C   UNL     1     142.986 132.084  92.639  0.00  0.00    -0.070 C 
ATOM     32  C   UNL     1     142.361 132.197  93.820  0.00  0.00    -0.101 C 
ATOM     33  N   UNL     1     143.852 129.425  96.637  0.00  0.00    -0.251 NA
ATOM     34  C   UNL     1     142.992 128.477  97.219  0.00  0.00    +0.072 A 
ATOM     35  C   UNL     1     141.690 128.381  96.706  0.00  0.00    -0.036 A 
ATOM     36  C   UNL     1     140.779 127.473  97.243  0.00  0.00    -0.060 A 
ATOM     37  C   UNL     1     141.155 126.655  98.305  0.00  0.00    -0.061 A 
ATOM     38  C   UNL     1     142.440 126.752  98.837  0.00  0.00    -0.051 A 
ATOM     39  C   UNL     1     143.369 127.664  98.310  0.00  0.00    +0.014 A 
ATOM     40  H   UNL     1     145.053 127.504 104.484  0.00  0.00    +0.000 HD
ATOM     41  H   UNL     1     145.283 125.093  94.700  0.00  0.00    +0.000 HD
ATOM     42  H   UNL     1     148.242 125.698  92.185  0.00  0.00    +0.000 HD
ENDROOT
TORSDOF 0
ENDMDL
