MODEL 1
REMARK VINA RESULT:    -5.849      0.000      0.000
REMARK INTER + INTRA:          -5.849
REMARK INTER:                  -5.849
REMARK INTRA:                   0.000
REMARK UNBOUND:                 0.000
REMARK  Name = /home/vital/Documents/PhD_2021/Malaria_codes/scripts/../data/pdbqt_ligands/ligand_328_temp.pdb
REMARK                            x       y       z     vdW  Elec       q    Type
REMARK                         _______ _______ _______ _____ _____    ______ ____
ROOT
ATOM      1  O1  UNL     1     142.193 132.424  96.508  0.00  0.00    -0.253 OA
ATOM      2  C1  UNL     1     143.181 132.354  97.227  0.00  0.00    +0.300 C 
ATOM      3  N1  UNL     1     143.183 132.650  98.564  0.00  0.00    -0.299 N 
ATOM      4  C2  UNL     1     141.935 132.857  99.277  0.00  0.00    +0.020 C 
ATOM      5  C3  UNL     1     141.239 131.539  99.632  0.00  0.00    +0.021 C 
ATOM      6  C4  UNL     1     142.068 130.680 100.546  0.00  0.00    +0.113 A 
ATOM      7  N2  UNL     1     143.365 130.816 100.763  0.00  0.00    -0.232 NA
ATOM      8  C5  UNL     1     143.706 129.825 101.647  0.00  0.00    +0.089 A 
ATOM      9  C6  UNL     1     144.956 129.532 102.211  0.00  0.00    -0.034 A 
ATOM     10  C7  UNL     1     145.058 128.458 103.103  0.00  0.00    -0.060 A 
ATOM     11  C8  UNL     1     143.938 127.690 103.424  0.00  0.00    -0.060 A 
ATOM     12  C9  UNL     1     142.684 127.968 102.867  0.00  0.00    -0.036 A 
ATOM     13  C10 UNL     1     142.602 129.048 101.979  0.00  0.00    +0.069 A 
ATOM     14  N3  UNL     1     141.568 129.601 101.250  0.00  0.00    -0.323 N 
ATOM     15  C11 UNL     1     140.186 129.142 101.261  0.00  0.00    +0.050 C 
ATOM     16  C12 UNL     1     139.795 128.446  99.980  0.00  0.00    -0.028 A 
ATOM     17  C13 UNL     1     138.673 128.882  99.258  0.00  0.00    -0.057 A 
ATOM     18  C14 UNL     1     138.299 128.242  98.075  0.00  0.00    -0.061 A 
ATOM     19  C15 UNL     1     139.031 127.154  97.606  0.00  0.00    -0.062 A 
ATOM     20  C16 UNL     1     140.137 126.702  98.322  0.00  0.00    -0.061 A 
ATOM     21  C17 UNL     1     140.515 127.339  99.504  0.00  0.00    -0.057 A 
ATOM     22  N4  UNL     1     144.435 132.027  96.779  0.00  0.00    -0.299 N 
ATOM     23  C18 UNL     1     144.653 131.578  95.419  0.00  0.00    +0.018 C 
ATOM     24  C19 UNL     1     144.529 132.685  94.381  0.00  0.00    +0.023 C 
ATOM     25  C20 UNL     1     145.567 133.765  94.582  0.00  0.00    +0.241 C 
ATOM     26  F1  UNL     1     145.456 134.684  93.588  0.00  0.00    -0.209 F 
ATOM     27  F2  UNL     1     146.810 133.231  94.470  0.00  0.00    -0.209 F 
ATOM     28  H   UNL     1     144.039 132.724  99.045  0.00  0.00    +0.000 HD
ATOM     29  H   UNL     1     145.202 132.099  97.393  0.00  0.00    +0.000 HD
ENDROOT
TORSDOF 0
ENDMDL
MODEL 2
REMARK VINA RESULT:    -5.654      0.471      0.471
REMARK INTER + INTRA:          -5.654
REMARK INTER:                  -5.654
REMARK INTRA:                   0.000
REMARK UNBOUND:                 0.000
REMARK  Name = /home/vital/Documents/PhD_2021/Malaria_codes/scripts/../data/pdbqt_ligands/ligand_328_temp.pdb
REMARK                            x       y       z     vdW  Elec       q    Type
REMARK                         _______ _______ _______ _____ _____    ______ ____
ROOT
ATOM      1  O1  UNL     1     142.420 132.267  96.695  0.00  0.00    -0.253 OA
ATOM      2  C1  UNL     1     143.330 132.186  97.509  0.00  0.00    +0.300 C 
ATOM      3  N1  UNL     1     143.195 132.455  98.845  0.00  0.00    -0.299 N 
ATOM      4  C2  UNL     1     141.880 132.642  99.431  0.00  0.00    +0.020 C 
ATOM      5  C3  UNL     1     141.159 131.314  99.688  0.00  0.00    +0.021 C 
ATOM      6  C4  UNL     1     141.897 130.440 100.664  0.00  0.00    +0.113 A 
ATOM      7  N2  UNL     1     143.163 130.578 101.015  0.00  0.00    -0.232 NA
ATOM      8  C5  UNL     1     143.420 129.570 101.909  0.00  0.00    +0.089 A 
ATOM      9  C6  UNL     1     144.607 129.271 102.592  0.00  0.00    -0.034 A 
ATOM     10  C7  UNL     1     144.625 128.180 103.468  0.00  0.00    -0.060 A 
ATOM     11  C8  UNL     1     143.483 127.401 103.658  0.00  0.00    -0.060 A 
ATOM     12  C9  UNL     1     142.291 127.684 102.981  0.00  0.00    -0.036 A 
ATOM     13  C10 UNL     1     142.292 128.782 102.111  0.00  0.00    +0.069 A 
ATOM     14  N3  UNL     1     141.335 129.345 101.292  0.00  0.00    -0.323 N 
ATOM     15  C11 UNL     1     139.961 128.879 101.153  0.00  0.00    +0.050 C 
ATOM     16  C12 UNL     1     139.707 128.208  99.826  0.00  0.00    -0.028 A 
ATOM     17  C13 UNL     1     138.661 128.654  99.002  0.00  0.00    -0.057 A 
ATOM     18  C14 UNL     1     138.414 128.036  97.774  0.00  0.00    -0.061 A 
ATOM     19  C15 UNL     1     139.197 126.961  97.361  0.00  0.00    -0.062 A 
ATOM     20  C16 UNL     1     140.227 126.499  98.177  0.00  0.00    -0.061 A 
ATOM     21  C17 UNL     1     140.480 127.115  99.403  0.00  0.00    -0.057 A 
ATOM     22  N4  UNL     1     144.626 131.874  97.185  0.00  0.00    -0.299 N 
ATOM     23  C18 UNL     1     144.984 131.453  95.845  0.00  0.00    +0.018 C 
ATOM     24  C19 UNL     1     144.959 132.580  94.822  0.00  0.00    +0.023 C 
ATOM     25  C20 UNL     1     145.964 133.660  95.149  0.00  0.00    +0.241 C 
ATOM     26  F1  UNL     1     145.949 134.599  94.167  0.00  0.00    -0.209 F 
ATOM     27  F2  UNL     1     147.216 133.135  95.154  0.00  0.00    -0.209 F 
ATOM     28  H   UNL     1     143.996 132.523  99.412  0.00  0.00    +0.000 HD
ATOM     29  H   UNL     1     145.326 131.937  97.875  0.00  0.00    +0.000 HD
ENDROOT
TORSDOF 0
ENDMDL
MODEL 3
REMARK VINA RESULT:    -4.417      3.633      5.868
REMARK INTER + INTRA:          -4.417
REMARK INTER:                  -4.417
REMARK INTRA:                   0.000
REMARK UNBOUND:                 0.000
REMARK  Name = /home/vital/Documents/PhD_2021/Malaria_codes/scripts/../data/pdbqt_ligands/ligand_328_temp.pdb
REMARK                            x       y       z     vdW  Elec       q    Type
REMARK                         _______ _______ _______ _____ _____    ______ ____
ROOT
ATOM      1  O1  UNL     1     143.604 130.388  93.667  0.00  0.00    -0.253 OA
ATOM      2  C1  UNL     1     142.627 129.689  93.903  0.00  0.00    +0.300 C 
ATOM      3  N1  UNL     1     142.609 128.676  94.824  0.00  0.00    -0.299 N 
ATOM      4  C2  UNL     1     143.708 128.509  95.758  0.00  0.00    +0.020 C 
ATOM      5  C3  UNL     1     143.634 129.493  96.931  0.00  0.00    +0.021 C 
ATOM      6  C4  UNL     1     142.391 129.311  97.757  0.00  0.00    +0.113 A 
ATOM      7  N2  UNL     1     141.306 128.657  97.380  0.00  0.00    -0.232 NA
ATOM      8  C5  UNL     1     140.427 128.748  98.428  0.00  0.00    +0.089 A 
ATOM      9  C6  UNL     1     139.134 128.219  98.549  0.00  0.00    -0.034 A 
ATOM     10  C7  UNL     1     138.421 128.444  99.732  0.00  0.00    -0.060 A 
ATOM     11  C8  UNL     1     138.984 129.184 100.773  0.00  0.00    -0.060 A 
ATOM     12  C9  UNL     1     140.273 129.722 100.667  0.00  0.00    -0.036 A 
ATOM     13  C10 UNL     1     140.971 129.483  99.475  0.00  0.00    +0.069 A 
ATOM     14  N3  UNL     1     142.221 129.848  99.019  0.00  0.00    -0.323 N 
ATOM     15  C11 UNL     1     143.198 130.631  99.764  0.00  0.00    +0.050 C 
ATOM     16  C12 UNL     1     143.353 132.031  99.223  0.00  0.00    -0.028 A 
ATOM     17  C13 UNL     1     144.623 132.507  98.860  0.00  0.00    -0.057 A 
ATOM     18  C14 UNL     1     144.780 133.803  98.364  0.00  0.00    -0.061 A 
ATOM     19  C15 UNL     1     143.674 134.641  98.237  0.00  0.00    -0.062 A 
ATOM     20  C16 UNL     1     142.412 134.186  98.608  0.00  0.00    -0.061 A 
ATOM     21  C17 UNL     1     142.251 132.892  99.102  0.00  0.00    -0.057 A 
ATOM     22  N4  UNL     1     141.434 129.785  93.233  0.00  0.00    -0.299 N 
ATOM     23  C18 UNL     1     141.189 130.853  92.284  0.00  0.00    +0.018 C 
ATOM     24  C19 UNL     1     141.954 130.697  90.977  0.00  0.00    +0.023 C 
ATOM     25  C20 UNL     1     141.551 129.445  90.234  0.00  0.00    +0.241 C 
ATOM     26  F1  UNL     1     142.208 129.397  89.046  0.00  0.00    -0.209 F 
ATOM     27  F2  UNL     1     140.228 129.496  89.934  0.00  0.00    -0.209 F 
ATOM     28  H   UNL     1     141.845 128.056  94.852  0.00  0.00    +0.000 HD
ATOM     29  H   UNL     1     140.730 129.117  93.401  0.00  0.00    +0.000 HD
ENDROOT
TORSDOF 0
ENDMDL
MODEL 4
REMARK VINA RESULT:    -4.318      4.832      6.808
REMARK INTER + INTRA:          -4.318
REMARK INTER:                  -4.318
REMARK INTRA:                   0.000
REMARK UNBOUND:                 0.000
REMARK  Name = /home/vital/Documents/PhD_2021/Malaria_codes/scripts/../data/pdbqt_ligands/ligand_328_temp.pdb
REMARK                            x       y       z     vdW  Elec       q    Type
REMARK                         _______ _______ _______ _____ _____    ______ ____
ROOT
ATOM      1  O1  UNL     1     142.006 128.405  91.995  0.00  0.00    -0.253 OA
ATOM      2  C1  UNL     1     140.887 128.459  92.485  0.00  0.00    +0.300 C 
ATOM      3  N1  UNL     1     140.340 127.478  93.267  0.00  0.00    -0.299 N 
ATOM      4  C2  UNL     1     141.157 126.383  93.757  0.00  0.00    +0.020 C 
ATOM      5  C3  UNL     1     142.010 126.784  94.966  0.00  0.00    +0.021 C 
ATOM      6  C4  UNL     1     141.175 127.202  96.145  0.00  0.00    +0.113 A 
ATOM      7  N2  UNL     1     139.898 127.539  96.102  0.00  0.00    -0.232 NA
ATOM      8  C5  UNL     1     139.546 127.855  97.389  0.00  0.00    +0.089 A 
ATOM      9  C6  UNL     1     138.305 128.266  97.894  0.00  0.00    -0.034 A 
ATOM     10  C7  UNL     1     138.188 128.531  99.263  0.00  0.00    -0.060 A 
ATOM     11  C8  UNL     1     139.287 128.392 100.112  0.00  0.00    -0.060 A 
ATOM     12  C9  UNL     1     140.534 127.985  99.623  0.00  0.00    -0.036 A 
ATOM     13  C10 UNL     1     140.630 127.722  98.250  0.00  0.00    +0.069 A 
ATOM     14  N3  UNL     1     141.666 127.321  97.431  0.00  0.00    -0.323 N 
ATOM     15  C11 UNL     1     143.027 127.036  97.867  0.00  0.00    +0.050 C 
ATOM     16  C12 UNL     1     144.010 128.093  97.428  0.00  0.00    -0.028 A 
ATOM     17  C13 UNL     1     145.154 127.730  96.700  0.00  0.00    -0.057 A 
ATOM     18  C14 UNL     1     146.073 128.700  96.294  0.00  0.00    -0.061 A 
ATOM     19  C15 UNL     1     145.868 130.039  96.621  0.00  0.00    -0.062 A 
ATOM     20  C16 UNL     1     144.745 130.409  97.357  0.00  0.00    -0.061 A 
ATOM     21  C17 UNL     1     143.823 129.444  97.762  0.00  0.00    -0.057 A 
ATOM     22  N4  UNL     1     140.003 129.486  92.270  0.00  0.00    -0.299 N 
ATOM     23  C18 UNL     1     140.401 130.682  91.555  0.00  0.00    +0.018 C 
ATOM     24  C19 UNL     1     140.580 130.470  90.058  0.00  0.00    +0.023 C 
ATOM     25  C20 UNL     1     139.290 130.055  89.389  0.00  0.00    +0.241 C 
ATOM     26  F1  UNL     1     139.491 129.952  88.050  0.00  0.00    -0.209 F 
ATOM     27  F2  UNL     1     138.353 131.023  89.560  0.00  0.00    -0.209 F 
ATOM     28  H   UNL     1     139.383 127.514  93.498  0.00  0.00    +0.000 HD
ATOM     29  H   UNL     1     139.081 129.409  92.607  0.00  0.00    +0.000 HD
ENDROOT
TORSDOF 0
ENDMDL
MODEL 5
REMARK VINA RESULT:    -3.972      3.727      5.822
REMARK INTER + INTRA:          -3.972
REMARK INTER:                  -3.972
REMARK INTRA:                   0.000
REMARK UNBOUND:                 0.000
REMARK  Name = /home/vital/Documents/PhD_2021/Malaria_codes/scripts/../data/pdbqt_ligands/ligand_328_temp.pdb
REMARK                            x       y       z     vdW  Elec       q    Type
REMARK                         _______ _______ _______ _____ _____    ______ ____
ROOT
ATOM      1  O1  UNL     1     142.754 131.245  95.104  0.00  0.00    -0.253 OA
ATOM      2  C1  UNL     1     142.925 130.378  94.257  0.00  0.00    +0.300 C 
ATOM      3  N1  UNL     1     143.700 129.265  94.441  0.00  0.00    -0.299 N 
ATOM      4  C2  UNL     1     144.200 128.922  95.761  0.00  0.00    +0.020 C 
ATOM      5  C3  UNL     1     143.134 128.251  96.634  0.00  0.00    +0.021 C 
ATOM      6  C4  UNL     1     142.652 126.950  96.054  0.00  0.00    +0.113 A 
ATOM      7  N2  UNL     1     142.818 126.558  94.803  0.00  0.00    -0.232 NA
ATOM      8  C5  UNL     1     142.219 125.328  94.709  0.00  0.00    +0.089 A 
ATOM      9  C6  UNL     1     142.117 124.473  93.603  0.00  0.00    -0.034 A 
ATOM     10  C7  UNL     1     141.452 123.250  93.755  0.00  0.00    -0.060 A 
ATOM     11  C8  UNL     1     140.898 122.889  94.983  0.00  0.00    -0.060 A 
ATOM     12  C9  UNL     1     140.988 123.733  96.097  0.00  0.00    -0.036 A 
ATOM     13  C10 UNL     1     141.659 124.951  95.925  0.00  0.00    +0.069 A 
ATOM     14  N3  UNL     1     141.933 126.010  96.767  0.00  0.00    -0.323 N 
ATOM     15  C11 UNL     1     141.557 126.092  98.172  0.00  0.00    +0.050 C 
ATOM     16  C12 UNL     1     140.446 127.083  98.418  0.00  0.00    -0.028 A 
ATOM     17  C13 UNL     1     140.616 128.111  99.360  0.00  0.00    -0.057 A 
ATOM     18  C14 UNL     1     139.593 129.030  99.600  0.00  0.00    -0.061 A 
ATOM     19  C15 UNL     1     138.385 128.926  98.914  0.00  0.00    -0.062 A 
ATOM     20  C16 UNL     1     138.197 127.901  97.990  0.00  0.00    -0.061 A 
ATOM     21  C17 UNL     1     139.218 126.983  97.745  0.00  0.00    -0.057 A 
ATOM     22  N4  UNL     1     142.413 130.433  92.986  0.00  0.00    -0.299 N 
ATOM     23  C18 UNL     1     141.480 131.472  92.597  0.00  0.00    +0.018 C 
ATOM     24  C19 UNL     1     142.121 132.844  92.440  0.00  0.00    +0.023 C 
ATOM     25  C20 UNL     1     143.163 132.857  91.346  0.00  0.00    +0.241 C 
ATOM     26  F1  UNL     1     143.646 134.119  91.201  0.00  0.00    -0.209 F 
ATOM     27  F2  UNL     1     142.586 132.533  90.160  0.00  0.00    -0.209 F 
ATOM     28  H   UNL     1     143.920 128.691  93.672  0.00  0.00    +0.000 HD
ATOM     29  H   UNL     1     142.684 129.755  92.325  0.00  0.00    +0.000 HD
ENDROOT
TORSDOF 0
ENDMDL
MODEL 6
REMARK VINA RESULT:    -3.896      4.113      6.310
REMARK INTER + INTRA:          -3.896
REMARK INTER:                  -3.896
REMARK INTRA:                   0.000
REMARK UNBOUND:                 0.000
REMARK  Name = /home/vital/Documents/PhD_2021/Malaria_codes/scripts/../data/pdbqt_ligands/ligand_328_temp.pdb
REMARK                            x       y       z     vdW  Elec       q    Type
REMARK                         _______ _______ _______ _____ _____    ______ ____
ROOT
ATOM      1  O1  UNL     1     142.384 131.160  94.278  0.00  0.00    -0.253 OA
ATOM      2  C1  UNL     1     142.469 130.250  93.464  0.00  0.00    +0.300 C 
ATOM      3  N1  UNL     1     143.286 129.161  93.609  0.00  0.00    -0.299 N 
ATOM      4  C2  UNL     1     143.952 128.900  94.872  0.00  0.00    +0.020 C 
ATOM      5  C3  UNL     1     143.018 128.261  95.906  0.00  0.00    +0.021 C 
ATOM      6  C4  UNL     1     142.497 126.923  95.459  0.00  0.00    +0.113 A 
ATOM      7  N2  UNL     1     142.516 126.465  94.219  0.00  0.00    -0.232 NA
ATOM      8  C5  UNL     1     141.938 125.222  94.267  0.00  0.00    +0.089 A 
ATOM      9  C6  UNL     1     141.720 124.305  93.229  0.00  0.00    -0.034 A 
ATOM     10  C7  UNL     1     141.107 123.083  93.526  0.00  0.00    -0.060 A 
ATOM     11  C8  UNL     1     140.716 122.781  94.831  0.00  0.00    -0.060 A 
ATOM     12  C9  UNL     1     140.923 123.687  95.878  0.00  0.00    -0.036 A 
ATOM     13  C10 UNL     1     141.541 124.904  95.561  0.00  0.00    +0.069 A 
ATOM     14  N3  UNL     1     141.892 126.012  96.305  0.00  0.00    -0.323 N 
ATOM     15  C11 UNL     1     141.691 126.166  97.739  0.00  0.00    +0.050 C 
ATOM     16  C12 UNL     1     140.597 127.152  98.069  0.00  0.00    -0.028 A 
ATOM     17  C13 UNL     1     140.858 128.232  98.926  0.00  0.00    -0.057 A 
ATOM     18  C14 UNL     1     139.852 129.147  99.242  0.00  0.00    -0.061 A 
ATOM     19  C15 UNL     1     138.571 128.986  98.718  0.00  0.00    -0.062 A 
ATOM     20  C16 UNL     1     138.294 127.909  97.880  0.00  0.00    -0.061 A 
ATOM     21  C17 UNL     1     139.298 126.995  97.559  0.00  0.00    -0.057 A 
ATOM     22  N4  UNL     1     141.803 130.227  92.265  0.00  0.00    -0.299 N 
ATOM     23  C18 UNL     1     140.806 131.228  91.940  0.00  0.00    +0.018 C 
ATOM     24  C19 UNL     1     141.392 132.599  91.632  0.00  0.00    +0.023 C 
ATOM     25  C20 UNL     1     142.291 132.568  90.418  0.00  0.00    +0.241 C 
ATOM     26  F1  UNL     1     142.724 133.827  90.148  0.00  0.00    -0.209 F 
ATOM     27  F2  UNL     1     141.579 132.170  89.332  0.00  0.00    -0.209 F 
ATOM     28  H   UNL     1     143.422 128.549  92.849  0.00  0.00    +0.000 HD
ATOM     29  H   UNL     1     142.006 129.518  91.612  0.00  0.00    +0.000 HD
ENDROOT
TORSDOF 0
ENDMDL
MODEL 7
REMARK VINA RESULT:    -3.586      5.678      8.232
REMARK INTER + INTRA:          -3.586
REMARK INTER:                  -3.586
REMARK INTRA:                   0.000
REMARK UNBOUND:                 0.000
REMARK  Name = /home/vital/Documents/PhD_2021/Malaria_codes/scripts/../data/pdbqt_ligands/ligand_328_temp.pdb
REMARK                            x       y       z     vdW  Elec       q    Type
REMARK                         _______ _______ _______ _____ _____    ______ ____
ROOT
ATOM      1  O1  UNL     1     141.178 124.926 103.037  0.00  0.00    -0.253 OA
ATOM      2  C1  UNL     1     142.115 125.601 103.442  0.00  0.00    +0.300 C 
ATOM      3  N1  UNL     1     143.315 125.719 102.794  0.00  0.00    -0.299 N 
ATOM      4  C2  UNL     1     143.476 125.218 101.440  0.00  0.00    +0.020 C 
ATOM      5  C3  UNL     1     142.885 126.166 100.391  0.00  0.00    +0.021 C 
ATOM      6  C4  UNL     1     143.557 127.511 100.388  0.00  0.00    +0.113 A 
ATOM      7  N2  UNL     1     144.312 127.996 101.359  0.00  0.00    -0.232 NA
ATOM      8  C5  UNL     1     144.706 129.242 100.946  0.00  0.00    +0.089 A 
ATOM      9  C6  UNL     1     145.524 130.176 101.598  0.00  0.00    -0.034 A 
ATOM     10  C7  UNL     1     145.791 131.396 100.967  0.00  0.00    -0.060 A 
ATOM     11  C8  UNL     1     145.251 131.682  99.712  0.00  0.00    -0.060 A 
ATOM     12  C9  UNL     1     144.429 130.762  99.049  0.00  0.00    -0.036 A 
ATOM     13  C10 UNL     1     144.176 129.545  99.696  0.00  0.00    +0.069 A 
ATOM     14  N3  UNL     1     143.431 128.432  99.365  0.00  0.00    -0.323 N 
ATOM     15  C11 UNL     1     142.678 128.254  98.131  0.00  0.00    +0.050 C 
ATOM     16  C12 UNL     1     141.186 128.334  98.344  0.00  0.00    -0.028 A 
ATOM     17  C13 UNL     1     140.358 127.287  97.912  0.00  0.00    -0.057 A 
ATOM     18  C14 UNL     1     138.976 127.352  98.100  0.00  0.00    -0.061 A 
ATOM     19  C15 UNL     1     138.404 128.468  98.707  0.00  0.00    -0.062 A 
ATOM     20  C16 UNL     1     139.214 129.521  99.125  0.00  0.00    -0.061 A 
ATOM     21  C17 UNL     1     140.595 129.458  98.943  0.00  0.00    -0.057 A 
ATOM     22  N4  UNL     1     142.113 126.282 104.632  0.00  0.00    -0.299 N 
ATOM     23  C18 UNL     1     140.913 126.381 105.439  0.00  0.00    +0.018 C 
ATOM     24  C19 UNL     1     140.536 125.082 106.138  0.00  0.00    +0.023 C 
ATOM     25  C20 UNL     1     141.600 124.638 107.114  0.00  0.00    +0.241 C 
ATOM     26  F1  UNL     1     141.179 123.520 107.760  0.00  0.00    -0.209 F 
ATOM     27  F2  UNL     1     141.769 125.588 108.071  0.00  0.00    -0.209 F 
ATOM     28  H   UNL     1     144.075 126.148 103.250  0.00  0.00    +0.000 HD
ATOM     29  H   UNL     1     142.942 126.712 104.944  0.00  0.00    +0.000 HD
ENDROOT
TORSDOF 0
ENDMDL
MODEL 8
REMARK VINA RESULT:    -3.506      4.832      7.715
REMARK INTER + INTRA:          -3.506
REMARK INTER:                  -3.506
REMARK INTRA:                   0.000
REMARK UNBOUND:                 0.000
REMARK  Name = /home/vital/Documents/PhD_2021/Malaria_codes/scripts/../data/pdbqt_ligands/ligand_328_temp.pdb
REMARK                            x       y       z     vdW  Elec       q    Type
REMARK                         _______ _______ _______ _____ _____    ______ ____
ROOT
ATOM      1  O1  UNL     1     143.640 126.685  93.575  0.00  0.00    -0.253 OA
ATOM      2  C1  UNL     1     143.274 126.682  94.743  0.00  0.00    +0.300 C 
ATOM      3  N1  UNL     1     143.994 127.216  95.777  0.00  0.00    -0.299 N 
ATOM      4  C2  UNL     1     145.162 128.038  95.517  0.00  0.00    +0.020 C 
ATOM      5  C3  UNL     1     144.792 129.470  95.115  0.00  0.00    +0.021 C 
ATOM      6  C4  UNL     1     144.042 130.196  96.198  0.00  0.00    +0.113 A 
ATOM      7  N2  UNL     1     143.444 129.629  97.230  0.00  0.00    -0.232 NA
ATOM      8  C5  UNL     1     142.883 130.652  97.951  0.00  0.00    +0.089 A 
ATOM      9  C6  UNL     1     142.144 130.598  99.141  0.00  0.00    -0.034 A 
ATOM     10  C7  UNL     1     141.672 131.792  99.697  0.00  0.00    -0.060 A 
ATOM     11  C8  UNL     1     141.929 133.016  99.078  0.00  0.00    -0.060 A 
ATOM     12  C9  UNL     1     142.662 133.087  97.887  0.00  0.00    -0.036 A 
ATOM     13  C10 UNL     1     143.128 131.881  97.348  0.00  0.00    +0.069 A 
ATOM     14  N3  UNL     1     143.856 131.565  96.219  0.00  0.00    -0.323 N 
ATOM     15  C11 UNL     1     144.368 132.522  95.248  0.00  0.00    +0.050 C 
ATOM     16  C12 UNL     1     143.622 132.473  93.937  0.00  0.00    -0.028 A 
ATOM     17  C13 UNL     1     144.324 132.283  92.736  0.00  0.00    -0.057 A 
ATOM     18  C14 UNL     1     143.645 132.241  91.516  0.00  0.00    -0.061 A 
ATOM     19  C15 UNL     1     142.262 132.403  91.480  0.00  0.00    -0.062 A 
ATOM     20  C16 UNL     1     141.556 132.609  92.663  0.00  0.00    -0.061 A 
ATOM     21  C17 UNL     1     142.230 132.649  93.884  0.00  0.00    -0.057 A 
ATOM     22  N4  UNL     1     142.120 126.087  95.185  0.00  0.00    -0.299 N 
ATOM     23  C18 UNL     1     141.150 125.544  94.253  0.00  0.00    +0.018 C 
ATOM     24  C19 UNL     1     141.603 124.256  93.580  0.00  0.00    +0.023 C 
ATOM     25  C20 UNL     1     141.815 123.142  94.579  0.00  0.00    +0.241 C 
ATOM     26  F1  UNL     1     142.144 122.002  93.918  0.00  0.00    -0.209 F 
ATOM     27  F2  UNL     1     140.651 122.883  95.229  0.00  0.00    -0.209 F 
ATOM     28  H   UNL     1     143.717 127.041  96.706  0.00  0.00    +0.000 HD
ATOM     29  H   UNL     1     141.946 126.027  96.152  0.00  0.00    +0.000 HD
ENDROOT
TORSDOF 0
ENDMDL
MODEL 9
REMARK VINA RESULT:    -3.062      5.676      7.840
REMARK INTER + INTRA:          -3.062
REMARK INTER:                  -3.062
REMARK INTRA:                   0.000
REMARK UNBOUND:                 0.000
REMARK  Name = /home/vital/Documents/PhD_2021/Malaria_codes/scripts/../data/pdbqt_ligands/ligand_328_temp.pdb
REMARK                            x       y       z     vdW  Elec       q    Type
REMARK                         _______ _______ _______ _____ _____    ______ ____
ROOT
ATOM      1  O1  UNL     1     142.443 125.909  92.257  0.00  0.00    -0.253 OA
ATOM      2  C1  UNL     1     141.344 125.812  92.787  0.00  0.00    +0.300 C 
ATOM      3  N1  UNL     1     141.131 125.271  94.026  0.00  0.00    -0.299 N 
ATOM      4  C2  UNL     1     142.249 124.974  94.904  0.00  0.00    +0.020 C 
ATOM      5  C3  UNL     1     142.788 126.224  95.609  0.00  0.00    +0.021 C 
ATOM      6  C4  UNL     1     141.761 126.871  96.496  0.00  0.00    +0.113 A 
ATOM      7  N2  UNL     1     140.458 126.655  96.448  0.00  0.00    -0.232 NA
ATOM      8  C5  UNL     1     139.907 127.452  97.418  0.00  0.00    +0.089 A 
ATOM      9  C6  UNL     1     138.563 127.595  97.791  0.00  0.00    -0.034 A 
ATOM     10  C7  UNL     1     138.240 128.479  98.827  0.00  0.00    -0.060 A 
ATOM     11  C8  UNL     1     139.237 129.208  99.477  0.00  0.00    -0.060 A 
ATOM     12  C9  UNL     1     140.583 129.079  99.114  0.00  0.00    -0.036 A 
ATOM     13  C10 UNL     1     140.886 128.187  98.077  0.00  0.00    +0.069 A 
ATOM     14  N3  UNL     1     142.062 127.814  97.460  0.00  0.00    -0.323 N 
ATOM     15  C11 UNL     1     143.390 128.306  97.802  0.00  0.00    +0.050 C 
ATOM     16  C12 UNL     1     143.949 129.241  96.758  0.00  0.00    -0.028 A 
ATOM     17  C13 UNL     1     145.204 128.984  96.184  0.00  0.00    -0.057 A 
ATOM     18  C14 UNL     1     145.734 129.845  95.221  0.00  0.00    -0.061 A 
ATOM     19  C15 UNL     1     145.024 130.978  94.830  0.00  0.00    -0.062 A 
ATOM     20  C16 UNL     1     143.785 131.253  95.404  0.00  0.00    -0.061 A 
ATOM     21  C17 UNL     1     143.251 130.394  96.364  0.00  0.00    -0.057 A 
ATOM     22  N4  UNL     1     140.166 126.177  92.186  0.00  0.00    -0.299 N 
ATOM     23  C18 UNL     1     140.156 126.866  90.910  0.00  0.00    +0.018 C 
ATOM     24  C19 UNL     1     140.528 125.978  89.731  0.00  0.00    +0.023 C 
ATOM     25  C20 UNL     1     139.543 124.847  89.545  0.00  0.00    +0.241 C 
ATOM     26  F1  UNL     1     139.881 124.134  88.440  0.00  0.00    -0.209 F 
ATOM     27  F2  UNL     1     138.305 125.352  89.308  0.00  0.00    -0.209 F 
ATOM     28  H   UNL     1     140.212 125.082  94.325  0.00  0.00    +0.000 HD
ATOM     29  H   UNL     1     139.312 125.968  92.628  0.00  0.00    +0.000 HD
ENDROOT
TORSDOF 0
ENDMDL
