MODEL 1
REMARK VINA RESULT:    -4.830      0.000      0.000
REMARK INTER + INTRA:          -4.830
REMARK INTER:                  -4.830
REMARK INTRA:                   0.000
REMARK UNBOUND:                 0.000
REMARK  Name = /home/vital/Documents/PhD_2021/Malaria_codes/scripts/../data/pdbqt_ligands/ligand_194_temp.pdb
REMARK                            x       y       z     vdW  Elec       q    Type
REMARK                         _______ _______ _______ _____ _____    ______ ____
ROOT
ATOM      1  C1  UNL     1     143.400 127.643  97.909  0.00  0.00    +0.079 C 
ATOM      2  O1  UNL     1     142.556 128.668  98.415  0.00  0.00    -0.494 OA
ATOM      3  C2  UNL     1     141.205 128.457  98.409  0.00  0.00    +0.132 A 
ATOM      4  C3  UNL     1     140.581 127.356  97.812  0.00  0.00    -0.019 A 
ATOM      5  C4  UNL     1     139.186 127.246  97.811  0.00  0.00    -0.058 A 
ATOM      6  C5  UNL     1     138.398 128.236  98.393  0.00  0.00    -0.061 A 
ATOM      7  C6  UNL     1     139.005 129.337  98.992  0.00  0.00    -0.046 A 
ATOM      8  C7  UNL     1     140.404 129.437  99.024  0.00  0.00    +0.079 A 
ATOM      9  C8  UNL     1     140.989 130.644  99.664  0.00  0.00    +0.256 C 
ATOM     10  O2  UNL     1     140.545 131.728  99.273  0.00  0.00    -0.269 OA
ATOM     11  N1  UNL     1     142.050 130.551 100.573  0.00  0.00    -0.242 N 
ATOM     12  C9  UNL     1     142.987 131.673 100.588  0.00  0.00    +0.048 C 
ATOM     13  C10 UNL     1     144.034 131.566  99.510  0.00  0.00    -0.012 A 
ATOM     14  C11 UNL     1     143.835 132.120  98.242  0.00  0.00    -0.054 A 
ATOM     15  C12 UNL     1     144.815 131.980  97.265  0.00  0.00    -0.043 A 
ATOM     16  C13 UNL     1     145.968 131.283  97.588  0.00  0.00    +0.028 A 
ATOM     17  N2  UNL     1     146.195 130.725  98.796  0.00  0.00    -0.263 NA
ATOM     18  C14 UNL     1     145.221 130.874  99.725  0.00  0.00    +0.032 A 
ATOM     19  C15 UNL     1     142.274 129.473 101.431  0.00  0.00    +0.169 A 
ATOM     20  N3  UNL     1     143.416 129.277 102.055  0.00  0.00    -0.224 NA
ATOM     21  C16 UNL     1     143.332 128.166 102.874  0.00  0.00    +0.081 A 
ATOM     22  C17 UNL     1     144.379 127.627 103.648  0.00  0.00    -0.032 A 
ATOM     23  C18 UNL     1     144.166 126.489 104.448  0.00  0.00    -0.045 A 
ATOM     24  C19 UNL     1     145.312 125.944 105.257  0.00  0.00    -0.039 C 
ATOM     25  C20 UNL     1     142.894 125.887 104.480  0.00  0.00    -0.046 A 
ATOM     26  C21 UNL     1     142.628 124.670 105.327  0.00  0.00    -0.039 C 
ATOM     27  C22 UNL     1     141.841 126.422 103.714  0.00  0.00    -0.043 A 
ATOM     28  C23 UNL     1     142.084 127.555 102.922  0.00  0.00    +0.041 A 
ATOM     29  S1  UNL     1     141.007 128.424 101.905  0.00  0.00    -0.052 S 
ENDROOT
TORSDOF 0
ENDMDL
MODEL 2
REMARK VINA RESULT:    -3.669      7.518      9.578
REMARK INTER + INTRA:          -3.669
REMARK INTER:                  -3.669
REMARK INTRA:                   0.000
REMARK UNBOUND:                 0.000
REMARK  Name = /home/vital/Documents/PhD_2021/Malaria_codes/scripts/../data/pdbqt_ligands/ligand_194_temp.pdb
REMARK                            x       y       z     vdW  Elec       q    Type
REMARK                         _______ _______ _______ _____ _____    ______ ____
ROOT
ATOM      1  C1  UNL     1     145.287 130.242  90.444  0.00  0.00    +0.079 C 
ATOM      2  O1  UNL     1     144.130 131.063  90.533  0.00  0.00    -0.494 OA
ATOM      3  C2  UNL     1     143.340 131.190  89.425  0.00  0.00    +0.132 A 
ATOM      4  C3  UNL     1     143.661 130.679  88.163  0.00  0.00    -0.019 A 
ATOM      5  C4  UNL     1     142.814 130.901  87.071  0.00  0.00    -0.058 A 
ATOM      6  C5  UNL     1     141.645 131.642  87.222  0.00  0.00    -0.061 A 
ATOM      7  C6  UNL     1     141.312 132.157  88.473  0.00  0.00    -0.046 A 
ATOM      8  C7  UNL     1     142.141 131.911  89.578  0.00  0.00    +0.079 A 
ATOM      9  C8  UNL     1     141.736 132.500  90.880  0.00  0.00    +0.256 C 
ATOM     10  O2  UNL     1     141.478 133.708  90.867  0.00  0.00    -0.269 OA
ATOM     11  N1  UNL     1     141.754 131.749  92.062  0.00  0.00    -0.242 N 
ATOM     12  C9  UNL     1     142.052 132.484  93.290  0.00  0.00    +0.048 C 
ATOM     13  C10 UNL     1     143.532 132.671  93.506  0.00  0.00    -0.012 A 
ATOM     14  C11 UNL     1     144.207 133.790  93.010  0.00  0.00    -0.054 A 
ATOM     15  C12 UNL     1     145.577 133.916  93.209  0.00  0.00    -0.043 A 
ATOM     16  C13 UNL     1     146.234 132.910  93.898  0.00  0.00    +0.028 A 
ATOM     17  N2  UNL     1     145.623 131.809  94.385  0.00  0.00    -0.263 NA
ATOM     18  C14 UNL     1     144.289 131.713  94.171  0.00  0.00    +0.032 A 
ATOM     19  C15 UNL     1     141.527 130.374  92.137  0.00  0.00    +0.169 A 
ATOM     20  N3  UNL     1     141.831 129.653  93.195  0.00  0.00    -0.224 NA
ATOM     21  C16 UNL     1     141.448 128.337  93.007  0.00  0.00    +0.081 A 
ATOM     22  C17 UNL     1     141.668 127.274  93.906  0.00  0.00    -0.032 A 
ATOM     23  C18 UNL     1     141.224 125.974  93.600  0.00  0.00    -0.045 A 
ATOM     24  C19 UNL     1     141.481 124.867  94.587  0.00  0.00    -0.039 C 
ATOM     25  C20 UNL     1     140.552 125.734  92.387  0.00  0.00    -0.046 A 
ATOM     26  C21 UNL     1     140.061 124.356  92.027  0.00  0.00    -0.039 C 
ATOM     27  C22 UNL     1     140.325 126.791  91.485  0.00  0.00    -0.043 A 
ATOM     28  C23 UNL     1     140.781 128.076  91.815  0.00  0.00    +0.041 A 
ATOM     29  S1  UNL     1     140.641 129.542  90.931  0.00  0.00    -0.052 S 
ENDROOT
TORSDOF 0
ENDMDL
MODEL 3
REMARK VINA RESULT:    -3.546      2.405      4.535
REMARK INTER + INTRA:          -3.546
REMARK INTER:                  -3.546
REMARK INTRA:                   0.000
REMARK UNBOUND:                 0.000
REMARK  Name = /home/vital/Documents/PhD_2021/Malaria_codes/scripts/../data/pdbqt_ligands/ligand_194_temp.pdb
REMARK                            x       y       z     vdW  Elec       q    Type
REMARK                         _______ _______ _______ _____ _____    ______ ____
ROOT
ATOM      1  C1  UNL     1     139.724 128.184  98.481  0.00  0.00    +0.079 C 
ATOM      2  O1  UNL     1     141.119 128.449  98.534  0.00  0.00    -0.494 OA
ATOM      3  C2  UNL     1     141.530 129.666  99.000  0.00  0.00    +0.132 A 
ATOM      4  C3  UNL     1     140.670 130.727  99.304  0.00  0.00    -0.019 A 
ATOM      5  C4  UNL     1     141.183 131.957  99.730  0.00  0.00    -0.058 A 
ATOM      6  C5  UNL     1     142.558 132.147  99.848  0.00  0.00    -0.061 A 
ATOM      7  C6  UNL     1     143.427 131.100  99.551  0.00  0.00    -0.046 A 
ATOM      8  C7  UNL     1     142.916 129.855  99.154  0.00  0.00    +0.079 A 
ATOM      9  C8  UNL     1     143.896 128.784  98.837  0.00  0.00    +0.256 C 
ATOM     10  O2  UNL     1     144.792 129.092  98.044  0.00  0.00    -0.269 OA
ATOM     11  N1  UNL     1     143.744 127.481  99.328  0.00  0.00    -0.242 N 
ATOM     12  C9  UNL     1     144.244 126.407  98.472  0.00  0.00    +0.048 C 
ATOM     13  C10 UNL     1     143.256 126.012  97.404  0.00  0.00    -0.012 A 
ATOM     14  C11 UNL     1     143.255 126.625  96.148  0.00  0.00    -0.054 A 
ATOM     15  C12 UNL     1     142.312 126.250  95.196  0.00  0.00    -0.043 A 
ATOM     16  C13 UNL     1     141.393 125.271  95.536  0.00  0.00    +0.028 A 
ATOM     17  N2  UNL     1     141.353 124.661  96.739  0.00  0.00    -0.263 NA
ATOM     18  C14 UNL     1     142.280 125.051  97.646  0.00  0.00    +0.032 A 
ATOM     19  C15 UNL     1     143.143 127.152 100.544  0.00  0.00    +0.169 A 
ATOM     20  N3  UNL     1     142.755 125.931 100.845  0.00  0.00    -0.224 NA
ATOM     21  C16 UNL     1     142.245 125.892 102.131  0.00  0.00    +0.081 A 
ATOM     22  C17 UNL     1     141.685 124.766 102.765  0.00  0.00    -0.032 A 
ATOM     23  C18 UNL     1     141.201 124.853 104.084  0.00  0.00    -0.045 A 
ATOM     24  C19 UNL     1     140.609 123.627 104.724  0.00  0.00    -0.039 C 
ATOM     25  C20 UNL     1     141.282 126.076 104.777  0.00  0.00    -0.046 A 
ATOM     26  C21 UNL     1     140.777 126.206 106.190  0.00  0.00    -0.039 C 
ATOM     27  C22 UNL     1     141.844 127.205 104.152  0.00  0.00    -0.043 A 
ATOM     28  C23 UNL     1     142.315 127.090 102.835  0.00  0.00    +0.041 A 
ATOM     29  S1  UNL     1     143.050 128.275 101.833  0.00  0.00    -0.052 S 
ENDROOT
TORSDOF 0
ENDMDL
MODEL 4
REMARK VINA RESULT:    -3.544      2.194      6.513
REMARK INTER + INTRA:          -3.544
REMARK INTER:                  -3.544
REMARK INTRA:                   0.000
REMARK UNBOUND:                 0.000
REMARK  Name = /home/vital/Documents/PhD_2021/Malaria_codes/scripts/../data/pdbqt_ligands/ligand_194_temp.pdb
REMARK                            x       y       z     vdW  Elec       q    Type
REMARK                         _______ _______ _______ _____ _____    ______ ____
ROOT
ATOM      1  C1  UNL     1     141.152 130.246 100.860  0.00  0.00    +0.079 C 
ATOM      2  O1  UNL     1     141.344 128.971 100.263  0.00  0.00    -0.494 OA
ATOM      3  C2  UNL     1     140.388 128.509  99.402  0.00  0.00    +0.132 A 
ATOM      4  C3  UNL     1     139.163 129.142  99.168  0.00  0.00    -0.019 A 
ATOM      5  C4  UNL     1     138.221 128.570  98.305  0.00  0.00    -0.058 A 
ATOM      6  C5  UNL     1     138.486 127.357  97.674  0.00  0.00    -0.061 A 
ATOM      7  C6  UNL     1     139.702 126.716  97.896  0.00  0.00    -0.046 A 
ATOM      8  C7  UNL     1     140.662 127.301  98.735  0.00  0.00    +0.079 A 
ATOM      9  C8  UNL     1     141.932 126.558  98.941  0.00  0.00    +0.256 C 
ATOM     10  O2  UNL     1     141.815 125.374  99.273  0.00  0.00    -0.269 OA
ATOM     11  N1  UNL     1     143.177 127.197  98.866  0.00  0.00    -0.242 N 
ATOM     12  C9  UNL     1     144.229 126.663  99.729  0.00  0.00    +0.048 C 
ATOM     13  C10 UNL     1     144.151 127.200 101.135  0.00  0.00    -0.012 A 
ATOM     14  C11 UNL     1     143.407 126.551 102.124  0.00  0.00    -0.054 A 
ATOM     15  C12 UNL     1     143.340 127.090 103.405  0.00  0.00    -0.043 A 
ATOM     16  C13 UNL     1     144.020 128.270 103.655  0.00  0.00    +0.028 A 
ATOM     17  N2  UNL     1     144.742 128.933 102.727  0.00  0.00    -0.263 NA
ATOM     18  C14 UNL     1     144.785 128.387 101.489  0.00  0.00    +0.032 A 
ATOM     19  C15 UNL     1     143.461 128.295  98.054  0.00  0.00    +0.169 A 
ATOM     20  N3  UNL     1     144.529 129.048  98.212  0.00  0.00    -0.224 NA
ATOM     21  C16 UNL     1     144.578 130.026  97.235  0.00  0.00    +0.081 A 
ATOM     22  C17 UNL     1     145.549 131.042  97.129  0.00  0.00    -0.032 A 
ATOM     23  C18 UNL     1     145.491 131.980  96.081  0.00  0.00    -0.045 A 
ATOM     24  C19 UNL     1     146.546 133.051  96.006  0.00  0.00    -0.039 C 
ATOM     25  C20 UNL     1     144.458 131.899  95.129  0.00  0.00    -0.046 A 
ATOM     26  C21 UNL     1     144.366 132.885  93.993  0.00  0.00    -0.039 C 
ATOM     27  C22 UNL     1     143.487 130.885  95.225  0.00  0.00    -0.043 A 
ATOM     28  C23 UNL     1     143.567 129.966  96.282  0.00  0.00    +0.041 A 
ATOM     29  S1  UNL     1     142.547 128.633  96.646  0.00  0.00    -0.052 S 
ENDROOT
TORSDOF 0
ENDMDL
MODEL 5
REMARK VINA RESULT:    -3.502      2.457      2.889
REMARK INTER + INTRA:          -3.502
REMARK INTER:                  -3.502
REMARK INTRA:                   0.000
REMARK UNBOUND:                 0.000
REMARK  Name = /home/vital/Documents/PhD_2021/Malaria_codes/scripts/../data/pdbqt_ligands/ligand_194_temp.pdb
REMARK                            x       y       z     vdW  Elec       q    Type
REMARK                         _______ _______ _______ _____ _____    ______ ____
ROOT
ATOM      1  C1  UNL     1     141.319 128.051  96.954  0.00  0.00    +0.079 C 
ATOM      2  O1  UNL     1     141.483 129.096  97.902  0.00  0.00    -0.494 OA
ATOM      3  C2  UNL     1     140.587 129.184  98.931  0.00  0.00    +0.132 A 
ATOM      4  C3  UNL     1     139.434 128.399  99.044  0.00  0.00    -0.019 A 
ATOM      5  C4  UNL     1     138.545 128.591 100.108  0.00  0.00    -0.058 A 
ATOM      6  C5  UNL     1     138.789 129.575 101.063  0.00  0.00    -0.061 A 
ATOM      7  C6  UNL     1     139.933 130.364 100.964  0.00  0.00    -0.046 A 
ATOM      8  C7  UNL     1     140.843 130.154  99.918  0.00  0.00    +0.079 A 
ATOM      9  C8  UNL     1     142.035 131.039  99.862  0.00  0.00    +0.256 C 
ATOM     10  O2  UNL     1     141.808 132.251  99.923  0.00  0.00    -0.269 OA
ATOM     11  N1  UNL     1     143.320 130.526  99.645  0.00  0.00    -0.242 N 
ATOM     12  C9  UNL     1     144.246 131.392  98.917  0.00  0.00    +0.048 C 
ATOM     13  C10 UNL     1     144.068 131.302  97.423  0.00  0.00    -0.012 A 
ATOM     14  C11 UNL     1     143.189 132.148  96.741  0.00  0.00    -0.054 A 
ATOM     15  C12 UNL     1     143.034 132.020  95.365  0.00  0.00    -0.043 A 
ATOM     16  C13 UNL     1     143.764 131.040  94.712  0.00  0.00    +0.028 A 
ATOM     17  N2  UNL     1     144.615 130.197  95.334  0.00  0.00    -0.263 NA
ATOM     18  C14 UNL     1     144.741 130.344  96.674  0.00  0.00    +0.032 A 
ATOM     19  C15 UNL     1     143.755 129.265 100.053  0.00  0.00    +0.169 A 
ATOM     20  N3  UNL     1     144.850 128.699  99.593  0.00  0.00    -0.224 NA
ATOM     21  C16 UNL     1     145.059 127.479 100.212  0.00  0.00    +0.081 A 
ATOM     22  C17 UNL     1     146.101 126.574  99.928  0.00  0.00    -0.032 A 
ATOM     23  C18 UNL     1     146.208 125.361 100.634  0.00  0.00    -0.045 A 
ATOM     24  C19 UNL     1     147.334 124.422 100.297  0.00  0.00    -0.039 C 
ATOM     25  C20 UNL     1     145.269 125.052 101.636  0.00  0.00    -0.046 A 
ATOM     26  C21 UNL     1     145.354 123.765 102.414  0.00  0.00    -0.039 C 
ATOM     27  C22 UNL     1     144.228 125.953 101.929  0.00  0.00    -0.043 A 
ATOM     28  C23 UNL     1     144.144 127.153 101.207  0.00  0.00    +0.041 A 
ATOM     29  S1  UNL     1     143.006 128.432 101.349  0.00  0.00    -0.052 S 
ENDROOT
TORSDOF 0
ENDMDL
MODEL 6
REMARK VINA RESULT:    -3.400      2.155      3.235
REMARK INTER + INTRA:          -3.400
REMARK INTER:                  -3.400
REMARK INTRA:                   0.000
REMARK UNBOUND:                 0.000
REMARK  Name = /home/vital/Documents/PhD_2021/Malaria_codes/scripts/../data/pdbqt_ligands/ligand_194_temp.pdb
REMARK                            x       y       z     vdW  Elec       q    Type
REMARK                         _______ _______ _______ _____ _____    ______ ____
ROOT
ATOM      1  C1  UNL     1     141.429 125.227  98.695  0.00  0.00    +0.079 C 
ATOM      2  O1  UNL     1     141.918 126.555  98.825  0.00  0.00    -0.494 OA
ATOM      3  C2  UNL     1     141.011 127.570  98.946  0.00  0.00    +0.132 A 
ATOM      4  C3  UNL     1     139.627 127.413  98.812  0.00  0.00    -0.019 A 
ATOM      5  C4  UNL     1     138.775 128.519  98.902  0.00  0.00    -0.058 A 
ATOM      6  C5  UNL     1     139.292 129.795  99.115  0.00  0.00    -0.061 A 
ATOM      7  C6  UNL     1     140.668 129.967  99.251  0.00  0.00    -0.046 A 
ATOM      8  C7  UNL     1     141.524 128.857  99.194  0.00  0.00    +0.079 A 
ATOM      9  C8  UNL     1     142.981 129.111  99.331  0.00  0.00    +0.256 C 
ATOM     10  O2  UNL     1     143.448 129.983  98.590  0.00  0.00    -0.269 OA
ATOM     11  N1  UNL     1     143.786 128.332 100.172  0.00  0.00    -0.242 N 
ATOM     12  C9  UNL     1     145.171 128.141  99.746  0.00  0.00    +0.048 C 
ATOM     13  C10 UNL     1     145.317 127.026  98.741  0.00  0.00    -0.012 A 
ATOM     14  C11 UNL     1     145.227 127.266  97.367  0.00  0.00    -0.054 A 
ATOM     15  C12 UNL     1     145.344 126.208  96.472  0.00  0.00    -0.043 A 
ATOM     16  C13 UNL     1     145.544 124.936  96.983  0.00  0.00    +0.028 A 
ATOM     17  N2  UNL     1     145.627 124.660  98.302  0.00  0.00    -0.263 NA
ATOM     18  C14 UNL     1     145.505 125.710  99.149  0.00  0.00    +0.032 A 
ATOM     19  C15 UNL     1     143.353 127.727 101.353  0.00  0.00    +0.169 A 
ATOM     20  N3  UNL     1     144.031 126.778 101.963  0.00  0.00    -0.224 NA
ATOM     21  C16 UNL     1     143.391 126.406 103.133  0.00  0.00    +0.081 A 
ATOM     22  C17 UNL     1     143.800 125.381 104.009  0.00  0.00    -0.032 A 
ATOM     23  C18 UNL     1     143.063 125.100 105.175  0.00  0.00    -0.045 A 
ATOM     24  C19 UNL     1     143.533 123.996 106.084  0.00  0.00    -0.039 C 
ATOM     25  C20 UNL     1     141.910 125.852 105.469  0.00  0.00    -0.046 A 
ATOM     26  C21 UNL     1     141.097 125.581 106.709  0.00  0.00    -0.039 C 
ATOM     27  C22 UNL     1     141.497 126.880 104.601  0.00  0.00    -0.043 A 
ATOM     28  C23 UNL     1     142.250 127.136 103.444  0.00  0.00    +0.041 A 
ATOM     29  S1  UNL     1     142.000 128.316 102.222  0.00  0.00    -0.052 S 
ENDROOT
TORSDOF 0
ENDMDL
MODEL 7
REMARK VINA RESULT:    -3.365      1.508      1.983
REMARK INTER + INTRA:          -3.365
REMARK INTER:                  -3.365
REMARK INTRA:                   0.000
REMARK UNBOUND:                 0.000
REMARK  Name = /home/vital/Documents/PhD_2021/Malaria_codes/scripts/../data/pdbqt_ligands/ligand_194_temp.pdb
REMARK                            x       y       z     vdW  Elec       q    Type
REMARK                         _______ _______ _______ _____ _____    ______ ____
ROOT
ATOM      1  C1  UNL     1     142.904 126.990  98.708  0.00  0.00    +0.079 C 
ATOM      2  O1  UNL     1     142.719 128.175  99.470  0.00  0.00    -0.494 OA
ATOM      3  C2  UNL     1     141.452 128.497  99.871  0.00  0.00    +0.132 A 
ATOM      4  C3  UNL     1     140.300 127.815  99.467  0.00  0.00    -0.019 A 
ATOM      5  C4  UNL     1     139.036 128.245  99.889  0.00  0.00    -0.058 A 
ATOM      6  C5  UNL     1     138.907 129.366 100.706  0.00  0.00    -0.061 A 
ATOM      7  C6  UNL     1     140.046 130.055 101.116  0.00  0.00    -0.046 A 
ATOM      8  C7  UNL     1     141.317 129.608 100.723  0.00  0.00    +0.079 A 
ATOM      9  C8  UNL     1     142.490 130.396 101.183  0.00  0.00    +0.256 C 
ATOM     10  O2  UNL     1     142.437 131.612 100.971  0.00  0.00    -0.269 OA
ATOM     11  N1  UNL     1     143.624 129.776 101.723  0.00  0.00    -0.242 N 
ATOM     12  C9  UNL     1     144.901 130.443 101.479  0.00  0.00    +0.048 C 
ATOM     13  C10 UNL     1     145.482 130.102 100.130  0.00  0.00    -0.012 A 
ATOM     14  C11 UNL     1     145.192 130.866  98.996  0.00  0.00    -0.054 A 
ATOM     15  C12 UNL     1     145.728 130.506  97.764  0.00  0.00    -0.043 A 
ATOM     16  C13 UNL     1     146.538 129.384  97.705  0.00  0.00    +0.028 A 
ATOM     17  N2  UNL     1     146.835 128.614  98.773  0.00  0.00    -0.263 NA
ATOM     18  C14 UNL     1     146.295 128.987  99.958  0.00  0.00    +0.032 A 
ATOM     19  C15 UNL     1     143.612 128.583 102.446  0.00  0.00    +0.169 A 
ATOM     20  N3  UNL     1     144.698 127.880 102.689  0.00  0.00    -0.224 NA
ATOM     21  C16 UNL     1     144.394 126.779 103.469  0.00  0.00    +0.081 A 
ATOM     22  C17 UNL     1     145.297 125.776 103.874  0.00  0.00    -0.032 A 
ATOM     23  C18 UNL     1     144.865 124.703 104.675  0.00  0.00    -0.045 A 
ATOM     24  C19 UNL     1     145.862 123.653 105.083  0.00  0.00    -0.039 C 
ATOM     25  C20 UNL     1     143.518 124.633 105.078  0.00  0.00    -0.046 A 
ATOM     26  C21 UNL     1     143.019 123.500 105.937  0.00  0.00    -0.039 C 
ATOM     27  C22 UNL     1     142.609 125.633 104.682  0.00  0.00    -0.043 A 
ATOM     28  C23 UNL     1     143.068 126.689 103.880  0.00  0.00    +0.041 A 
ATOM     29  S1  UNL     1     142.207 128.039 103.260  0.00  0.00    -0.052 S 
ENDROOT
TORSDOF 0
ENDMDL
MODEL 8
REMARK VINA RESULT:    -3.265      2.975      5.911
REMARK INTER + INTRA:          -3.265
REMARK INTER:                  -3.265
REMARK INTRA:                   0.000
REMARK UNBOUND:                 0.000
REMARK  Name = /home/vital/Documents/PhD_2021/Malaria_codes/scripts/../data/pdbqt_ligands/ligand_194_temp.pdb
REMARK                            x       y       z     vdW  Elec       q    Type
REMARK                         _______ _______ _______ _____ _____    ______ ____
ROOT
ATOM      1  C1  UNL     1     144.412 129.381  99.959  0.00  0.00    +0.079 C 
ATOM      2  O1  UNL     1     143.365 128.822 100.740  0.00  0.00    -0.494 OA
ATOM      3  C2  UNL     1     142.095 129.290 100.551  0.00  0.00    +0.132 A 
ATOM      4  C3  UNL     1     141.768 130.380  99.737  0.00  0.00    -0.019 A 
ATOM      5  C4  UNL     1     140.443 130.822  99.641  0.00  0.00    -0.058 A 
ATOM      6  C5  UNL     1     139.433 130.190 100.362  0.00  0.00    -0.061 A 
ATOM      7  C6  UNL     1     139.743 129.103 101.175  0.00  0.00    -0.046 A 
ATOM      8  C7  UNL     1     141.064 128.635 101.250  0.00  0.00    +0.079 A 
ATOM      9  C8  UNL     1     141.330 127.481 102.147  0.00  0.00    +0.256 C 
ATOM     10  O2  UNL     1     140.904 127.587 103.301  0.00  0.00    -0.269 OA
ATOM     11  N1  UNL     1     142.109 126.394 101.731  0.00  0.00    -0.242 N 
ATOM     12  C9  UNL     1     142.890 125.725 102.770  0.00  0.00    +0.048 C 
ATOM     13  C10 UNL     1     144.196 126.423 103.050  0.00  0.00    -0.012 A 
ATOM     14  C11 UNL     1     144.295 127.425 104.020  0.00  0.00    -0.054 A 
ATOM     15  C12 UNL     1     145.512 128.063 104.234  0.00  0.00    -0.043 A 
ATOM     16  C13 UNL     1     146.597 127.680 103.462  0.00  0.00    +0.028 A 
ATOM     17  N2  UNL     1     146.542 126.725 102.509  0.00  0.00    -0.263 NA
ATOM     18  C14 UNL     1     145.343 126.125 102.322  0.00  0.00    +0.032 A 
ATOM     19  C15 UNL     1     142.197 125.932 100.417  0.00  0.00    +0.169 A 
ATOM     20  N3  UNL     1     143.140 125.111 100.007  0.00  0.00    -0.224 NA
ATOM     21  C16 UNL     1     142.948 124.783  98.676  0.00  0.00    +0.081 A 
ATOM     22  C17 UNL     1     143.794 123.974  97.893  0.00  0.00    -0.032 A 
ATOM     23  C18 UNL     1     143.485 123.710  96.545  0.00  0.00    -0.045 A 
ATOM     24  C19 UNL     1     144.417 122.842  95.742  0.00  0.00    -0.039 C 
ATOM     25  C20 UNL     1     142.318 124.255  95.977  0.00  0.00    -0.046 A 
ATOM     26  C21 UNL     1     141.954 123.992  94.539  0.00  0.00    -0.039 C 
ATOM     27  C22 UNL     1     141.465 125.061  96.755  0.00  0.00    -0.043 A 
ATOM     28  C23 UNL     1     141.800 125.310  98.094  0.00  0.00    +0.041 A 
ATOM     29  S1  UNL     1     140.959 126.233  99.274  0.00  0.00    -0.052 S 
ENDROOT
TORSDOF 0
ENDMDL
MODEL 9
REMARK VINA RESULT:    -3.042      2.862      6.204
REMARK INTER + INTRA:          -3.042
REMARK INTER:                  -3.042
REMARK INTRA:                   0.000
REMARK UNBOUND:                 0.000
REMARK  Name = /home/vital/Documents/PhD_2021/Malaria_codes/scripts/../data/pdbqt_ligands/ligand_194_temp.pdb
REMARK                            x       y       z     vdW  Elec       q    Type
REMARK                         _______ _______ _______ _____ _____    ______ ____
ROOT
ATOM      1  C1  UNL     1     142.184 131.840  98.976  0.00  0.00    +0.079 C 
ATOM      2  O1  UNL     1     142.427 130.591  99.608  0.00  0.00    -0.494 OA
ATOM      3  C2  UNL     1     141.361 129.910 100.126  0.00  0.00    +0.132 A 
ATOM      4  C3  UNL     1     140.060 130.418 100.202  0.00  0.00    -0.019 A 
ATOM      5  C4  UNL     1     139.038 129.668 100.796  0.00  0.00    -0.058 A 
ATOM      6  C5  UNL     1     139.304 128.409 101.329  0.00  0.00    -0.061 A 
ATOM      7  C6  UNL     1     140.595 127.889 101.260  0.00  0.00    -0.046 A 
ATOM      8  C7  UNL     1     141.615 128.623 100.637  0.00  0.00    +0.079 A 
ATOM      9  C8  UNL     1     142.972 128.019 100.610  0.00  0.00    +0.256 C 
ATOM     10  O2  UNL     1     143.406 127.621 101.696  0.00  0.00    -0.269 OA
ATOM     11  N1  UNL     1     143.746 128.004  99.442  0.00  0.00    -0.242 N 
ATOM     12  C9  UNL     1     145.194 128.084  99.627  0.00  0.00    +0.048 C 
ATOM     13  C10 UNL     1     145.675 129.501  99.807  0.00  0.00    -0.012 A 
ATOM     14  C11 UNL     1     145.769 130.084 101.074  0.00  0.00    -0.054 A 
ATOM     15  C12 UNL     1     146.196 131.402 101.199  0.00  0.00    -0.043 A 
ATOM     16  C13 UNL     1     146.513 132.100 100.045  0.00  0.00    +0.028 A 
ATOM     17  N2  UNL     1     146.427 131.578  98.803  0.00  0.00    -0.263 NA
ATOM     18  C14 UNL     1     146.004 130.295  98.713  0.00  0.00    +0.032 A 
ATOM     19  C15 UNL     1     143.232 127.938  98.147  0.00  0.00    +0.169 A 
ATOM     20  N3  UNL     1     143.946 128.215  97.077  0.00  0.00    -0.224 NA
ATOM     21  C16 UNL     1     143.196 128.015  95.932  0.00  0.00    +0.081 A 
ATOM     22  C17 UNL     1     143.617 128.266  94.611  0.00  0.00    -0.032 A 
ATOM     23  C18 UNL     1     142.758 128.015  93.525  0.00  0.00    -0.045 A 
ATOM     24  C19 UNL     1     143.247 128.299  92.130  0.00  0.00    -0.039 C 
ATOM     25  C20 UNL     1     141.467 127.505  93.761  0.00  0.00    -0.046 A 
ATOM     26  C21 UNL     1     140.521 127.222  92.623  0.00  0.00    -0.039 C 
ATOM     27  C22 UNL     1     141.040 127.247  95.077  0.00  0.00    -0.043 A 
ATOM     28  C23 UNL     1     141.917 127.510  96.140  0.00  0.00    +0.041 A 
ATOM     29  S1  UNL     1     141.681 127.287  97.827  0.00  0.00    -0.052 S 
ENDROOT
TORSDOF 0
ENDMDL
