MODEL 1
REMARK VINA RESULT:    -4.070      0.000      0.000
REMARK INTER + INTRA:          -4.070
REMARK INTER:                  -4.070
REMARK INTRA:                   0.000
REMARK UNBOUND:                 0.000
REMARK  Name = /home/vital/Documents/PhD_2021/Malaria_codes/scripts/../data/pdbqt_ligands/ligand_181_temp.pdb
REMARK                            x       y       z     vdW  Elec       q    Type
REMARK                         _______ _______ _______ _____ _____    ______ ____
ROOT
ATOM      1  C1  UNL     1     139.622 126.767  97.912  0.00  0.00    -0.047 C 
ATOM      2  C2  UNL     1     138.602 127.847  98.067  0.00  0.00    -0.091 C 
ATOM      3  C3  UNL     1     138.256 128.497  99.190  0.00  0.00    -0.080 C 
ATOM      4  C4  UNL     1     138.790 128.289 100.578  0.00  0.00    +0.042 C 
ATOM      5  C5  UNL     1     139.598 129.508 101.000  0.00  0.00    +0.217 C 
ATOM      6  O1  UNL     1     139.078 130.500 101.503  0.00  0.00    -0.275 OA
ATOM      7  N1  UNL     1     140.946 129.407 100.729  0.00  0.00    -0.315 N 
ATOM      8  C6  UNL     1     141.878 130.445 101.116  0.00  0.00    +0.014 C 
ATOM      9  C7  UNL     1     143.149 130.434 100.252  0.00  0.00    -0.029 C 
ATOM     10  C8  UNL     1     144.148 131.464 100.783  0.00  0.00    -0.061 C 
ATOM     11  C9  UNL     1     142.873 130.631  98.748  0.00  0.00    -0.052 C 
ATOM     12  C10 UNL     1     142.161 131.925  98.379  0.00  0.00    -0.065 C 
ATOM     13  H   UNL     1     141.284 128.609 100.261  0.00  0.00    +0.000 HD
ENDROOT
TORSDOF 0
ENDMDL
MODEL 2
REMARK VINA RESULT:    -3.578      1.607      2.081
REMARK INTER + INTRA:          -3.578
REMARK INTER:                  -3.578
REMARK INTRA:                   0.000
REMARK UNBOUND:                 0.000
REMARK  Name = /home/vital/Documents/PhD_2021/Malaria_codes/scripts/../data/pdbqt_ligands/ligand_181_temp.pdb
REMARK                            x       y       z     vdW  Elec       q    Type
REMARK                         _______ _______ _______ _____ _____    ______ ____
ROOT
ATOM      1  C1  UNL     1     138.476 128.201  98.133  0.00  0.00    -0.047 C 
ATOM      2  C2  UNL     1     138.362 128.554  99.579  0.00  0.00    -0.091 C 
ATOM      3  C3  UNL     1     139.231 128.279 100.565  0.00  0.00    -0.080 C 
ATOM      4  C4  UNL     1     140.529 127.529 100.468  0.00  0.00    +0.042 C 
ATOM      5  C5  UNL     1     141.688 128.485 100.711  0.00  0.00    +0.217 C 
ATOM      6  O1  UNL     1     142.094 128.753 101.838  0.00  0.00    -0.275 OA
ATOM      7  N1  UNL     1     142.206 129.042  99.560  0.00  0.00    -0.315 N 
ATOM      8  C6  UNL     1     143.351 129.927  99.594  0.00  0.00    +0.014 C 
ATOM      9  C7  UNL     1     143.399 130.858  98.373  0.00  0.00    -0.029 C 
ATOM     10  C8  UNL     1     144.690 131.680  98.396  0.00  0.00    -0.061 C 
ATOM     11  C9  UNL     1     142.154 131.758  98.235  0.00  0.00    -0.052 C 
ATOM     12  C10 UNL     1     141.879 132.677  99.418  0.00  0.00    -0.065 C 
ATOM     13  H   UNL     1     141.786 128.833  98.695  0.00  0.00    +0.000 HD
ENDROOT
TORSDOF 0
ENDMDL
MODEL 3
REMARK VINA RESULT:    -3.560      2.629      3.513
REMARK INTER + INTRA:          -3.560
REMARK INTER:                  -3.560
REMARK INTRA:                   0.000
REMARK UNBOUND:                 0.000
REMARK  Name = /home/vital/Documents/PhD_2021/Malaria_codes/scripts/../data/pdbqt_ligands/ligand_181_temp.pdb
REMARK                            x       y       z     vdW  Elec       q    Type
REMARK                         _______ _______ _______ _____ _____    ______ ____
ROOT
ATOM      1  C1  UNL     1     138.281 128.752 100.954  0.00  0.00    -0.047 C 
ATOM      2  C2  UNL     1     138.927 128.813  99.609  0.00  0.00    -0.091 C 
ATOM      3  C3  UNL     1     139.810 129.721  99.160  0.00  0.00    -0.080 C 
ATOM      4  C4  UNL     1     140.356 130.915  99.889  0.00  0.00    +0.042 C 
ATOM      5  C5  UNL     1     141.836 130.703 100.175  0.00  0.00    +0.217 C 
ATOM      6  O1  UNL     1     142.711 130.981  99.359  0.00  0.00    -0.275 OA
ATOM      7  N1  UNL     1     142.093 130.140 101.408  0.00  0.00    -0.315 N 
ATOM      8  C6  UNL     1     143.445 129.923 101.876  0.00  0.00    +0.014 C 
ATOM      9  C7  UNL     1     143.520 128.811 102.934  0.00  0.00    -0.029 C 
ATOM     10  C8  UNL     1     144.945 128.710 103.482  0.00  0.00    -0.061 C 
ATOM     11  C9  UNL     1     143.005 127.447 102.431  0.00  0.00    -0.052 C 
ATOM     12  C10 UNL     1     143.731 126.882 101.218  0.00  0.00    -0.065 C 
ATOM     13  H   UNL     1     141.338 129.880 101.984  0.00  0.00    +0.000 HD
ENDROOT
TORSDOF 0
ENDMDL
MODEL 4
REMARK VINA RESULT:    -3.529      2.184      4.935
REMARK INTER + INTRA:          -3.529
REMARK INTER:                  -3.529
REMARK INTRA:                   0.000
REMARK UNBOUND:                 0.000
REMARK  Name = /home/vital/Documents/PhD_2021/Malaria_codes/scripts/../data/pdbqt_ligands/ligand_181_temp.pdb
REMARK                            x       y       z     vdW  Elec       q    Type
REMARK                         _______ _______ _______ _____ _____    ______ ____
ROOT
ATOM      1  C1  UNL     1     143.410 131.061  96.092  0.00  0.00    -0.047 C 
ATOM      2  C2  UNL     1     144.404 130.833  97.183  0.00  0.00    -0.091 C 
ATOM      3  C3  UNL     1     144.437 131.401  98.400  0.00  0.00    -0.080 C 
ATOM      4  C4  UNL     1     143.495 132.424  98.965  0.00  0.00    +0.042 C 
ATOM      5  C5  UNL     1     142.680 131.800 100.089  0.00  0.00    +0.217 C 
ATOM      6  O1  UNL     1     143.087 131.746 101.246  0.00  0.00    -0.275 OA
ATOM      7  N1  UNL     1     141.473 131.273  99.678  0.00  0.00    -0.315 N 
ATOM      8  C6  UNL     1     140.539 130.694 100.621  0.00  0.00    +0.014 C 
ATOM      9  C7  UNL     1     139.591 129.687  99.951  0.00  0.00    -0.029 C 
ATOM     10  C8  UNL     1     138.549 129.202 100.961  0.00  0.00    -0.061 C 
ATOM     11  C9  UNL     1     140.322 128.508  99.276  0.00  0.00    -0.052 C 
ATOM     12  C10 UNL     1     141.196 127.669 100.198  0.00  0.00    -0.065 C 
ATOM     13  H   UNL     1     141.241 131.291  98.722  0.00  0.00    +0.000 HD
ENDROOT
TORSDOF 0
ENDMDL
MODEL 5
REMARK VINA RESULT:    -3.489      3.078      5.281
REMARK INTER + INTRA:          -3.489
REMARK INTER:                  -3.489
REMARK INTRA:                   0.000
REMARK UNBOUND:                 0.000
REMARK  Name = /home/vital/Documents/PhD_2021/Malaria_codes/scripts/../data/pdbqt_ligands/ligand_181_temp.pdb
REMARK                            x       y       z     vdW  Elec       q    Type
REMARK                         _______ _______ _______ _____ _____    ______ ____
ROOT
ATOM      1  C1  UNL     1     142.454 127.595 103.984  0.00  0.00    -0.047 C 
ATOM      2  C2  UNL     1     143.468 128.195 103.066  0.00  0.00    -0.091 C 
ATOM      3  C3  UNL     1     143.845 127.754 101.854  0.00  0.00    -0.080 C 
ATOM      4  C4  UNL     1     143.359 126.535 101.124  0.00  0.00    +0.042 C 
ATOM      5  C5  UNL     1     142.553 126.961  99.905  0.00  0.00    +0.217 C 
ATOM      6  O1  UNL     1     143.079 127.220  98.826  0.00  0.00    -0.275 OA
ATOM      7  N1  UNL     1     141.198 127.061 100.137  0.00  0.00    -0.315 N 
ATOM      8  C6  UNL     1     140.269 127.394  99.078  0.00  0.00    +0.014 C 
ATOM      9  C7  UNL     1     138.970 128.011  99.619  0.00  0.00    -0.029 C 
ATOM     10  C8  UNL     1     137.979 128.225  98.473  0.00  0.00    -0.061 C 
ATOM     11  C9  UNL     1     139.193 129.305 100.428  0.00  0.00    -0.052 C 
ATOM     12  C10 UNL     1     139.879 130.435  99.675  0.00  0.00    -0.065 C 
ATOM     13  H   UNL     1     140.853 126.904 101.046  0.00  0.00    +0.000 HD
ENDROOT
TORSDOF 0
ENDMDL
MODEL 6
REMARK VINA RESULT:    -3.399     13.751     16.678
REMARK INTER + INTRA:          -3.399
REMARK INTER:                  -3.399
REMARK INTRA:                   0.000
REMARK UNBOUND:                 0.000
REMARK  Name = /home/vital/Documents/PhD_2021/Malaria_codes/scripts/../data/pdbqt_ligands/ligand_181_temp.pdb
REMARK                            x       y       z     vdW  Elec       q    Type
REMARK                         _______ _______ _______ _____ _____    ______ ____
ROOT
ATOM      1  C1  UNL     1     136.504 123.333  89.298  0.00  0.00    -0.047 C 
ATOM      2  C2  UNL     1     135.609 124.510  89.504  0.00  0.00    -0.091 C 
ATOM      3  C3  UNL     1     135.005 125.259  88.566  0.00  0.00    -0.080 C 
ATOM      4  C4  UNL     1     135.093 125.115  87.074  0.00  0.00    +0.042 C 
ATOM      5  C5  UNL     1     133.747 124.661  86.527  0.00  0.00    +0.217 C 
ATOM      6  O1  UNL     1     132.847 125.451  86.254  0.00  0.00    -0.275 OA
ATOM      7  N1  UNL     1     133.624 123.293  86.407  0.00  0.00    -0.315 N 
ATOM      8  C6  UNL     1     132.436 122.683  85.846  0.00  0.00    +0.014 C 
ATOM      9  C7  UNL     1     132.250 121.234  86.321  0.00  0.00    -0.029 C 
ATOM     10  C8  UNL     1     131.055 120.601  85.604  0.00  0.00    -0.061 C 
ATOM     11  C9  UNL     1     132.132 121.099  87.853  0.00  0.00    -0.052 C 
ATOM     12  C10 UNL     1     130.984 121.870  88.490  0.00  0.00    -0.065 C 
ATOM     13  H   UNL     1     134.362 122.716  86.709  0.00  0.00    +0.000 HD
ENDROOT
TORSDOF 0
ENDMDL
MODEL 7
REMARK VINA RESULT:    -3.353      1.974      2.513
REMARK INTER + INTRA:          -3.353
REMARK INTER:                  -3.353
REMARK INTRA:                   0.000
REMARK UNBOUND:                 0.000
REMARK  Name = /home/vital/Documents/PhD_2021/Malaria_codes/scripts/../data/pdbqt_ligands/ligand_181_temp.pdb
REMARK                            x       y       z     vdW  Elec       q    Type
REMARK                         _______ _______ _______ _____ _____    ______ ____
ROOT
ATOM      1  C1  UNL     1     142.486 127.117 101.444  0.00  0.00    -0.047 C 
ATOM      2  C2  UNL     1     141.557 126.897 100.296  0.00  0.00    -0.091 C 
ATOM      3  C3  UNL     1     140.432 127.572 100.007  0.00  0.00    -0.080 C 
ATOM      4  C4  UNL     1     139.812 128.704 100.774  0.00  0.00    +0.042 C 
ATOM      5  C5  UNL     1     139.914 129.986  99.960  0.00  0.00    +0.217 C 
ATOM      6  O1  UNL     1     139.081 130.295  99.112  0.00  0.00    -0.275 OA
ATOM      7  N1  UNL     1     141.038 130.737 100.236  0.00  0.00    -0.315 N 
ATOM      8  C6  UNL     1     141.269 132.017  99.602  0.00  0.00    +0.014 C 
ATOM      9  C7  UNL     1     142.759 132.391  99.580  0.00  0.00    -0.029 C 
ATOM     10  C8  UNL     1     142.933 133.803  99.014  0.00  0.00    -0.061 C 
ATOM     11  C9  UNL     1     143.641 131.367  98.835  0.00  0.00    -0.052 C 
ATOM     12  C10 UNL     1     143.275 131.130  97.377  0.00  0.00    -0.065 C 
ATOM     13  H   UNL     1     141.698 130.394 100.880  0.00  0.00    +0.000 HD
ENDROOT
TORSDOF 0
ENDMDL
MODEL 8
REMARK VINA RESULT:    -3.332      1.975      2.549
REMARK INTER + INTRA:          -3.332
REMARK INTER:                  -3.332
REMARK INTRA:                   0.000
REMARK UNBOUND:                 0.000
REMARK  Name = /home/vital/Documents/PhD_2021/Malaria_codes/scripts/../data/pdbqt_ligands/ligand_181_temp.pdb
REMARK                            x       y       z     vdW  Elec       q    Type
REMARK                         _______ _______ _______ _____ _____    ______ ____
ROOT
ATOM      1  C1  UNL     1     140.230 127.519 100.747  0.00  0.00    -0.047 C 
ATOM      2  C2  UNL     1     139.872 128.321  99.539  0.00  0.00    -0.091 C 
ATOM      3  C3  UNL     1     139.768 129.657  99.439  0.00  0.00    -0.080 C 
ATOM      4  C4  UNL     1     139.966 130.681 100.520  0.00  0.00    +0.042 C 
ATOM      5  C5  UNL     1     141.220 131.494 100.227  0.00  0.00    +0.217 C 
ATOM      6  O1  UNL     1     141.208 132.479  99.494  0.00  0.00    -0.275 OA
ATOM      7  N1  UNL     1     142.360 131.000 100.825  0.00  0.00    -0.315 N 
ATOM      8  C6  UNL     1     143.633 131.678 100.707  0.00  0.00    +0.014 C 
ATOM      9  C7  UNL     1     144.819 130.724 100.916  0.00  0.00    -0.029 C 
ATOM     10  C8  UNL     1     146.130 131.514 100.906  0.00  0.00    -0.061 C 
ATOM     11  C9  UNL     1     144.852 129.553  99.912  0.00  0.00    -0.052 C 
ATOM     12  C10 UNL     1     144.925 129.953  98.445  0.00  0.00    -0.065 C 
ATOM     13  H   UNL     1     142.307 130.165 101.344  0.00  0.00    +0.000 HD
ENDROOT
TORSDOF 0
ENDMDL
MODEL 9
REMARK VINA RESULT:    -3.203      2.284      5.205
REMARK INTER + INTRA:          -3.203
REMARK INTER:                  -3.203
REMARK INTRA:                   0.000
REMARK UNBOUND:                 0.000
REMARK  Name = /home/vital/Documents/PhD_2021/Malaria_codes/scripts/../data/pdbqt_ligands/ligand_181_temp.pdb
REMARK                            x       y       z     vdW  Elec       q    Type
REMARK                         _______ _______ _______ _____ _____    ______ ____
ROOT
ATOM      1  C1  UNL     1     145.408 128.797  98.158  0.00  0.00    -0.047 C 
ATOM      2  C2  UNL     1     145.849 129.102  99.552  0.00  0.00    -0.091 C 
ATOM      3  C3  UNL     1     145.495 130.147 100.318  0.00  0.00    -0.080 C 
ATOM      4  C4  UNL     1     144.582 131.285  99.961  0.00  0.00    +0.042 C 
ATOM      5  C5  UNL     1     143.306 131.191 100.785  0.00  0.00    +0.217 C 
ATOM      6  O1  UNL     1     143.216 131.664 101.915  0.00  0.00    -0.275 OA
ATOM      7  N1  UNL     1     142.287 130.500 100.163  0.00  0.00    -0.315 N 
ATOM      8  C6  UNL     1     140.980 130.364 100.771  0.00  0.00    +0.014 C 
ATOM      9  C7  UNL     1     140.222 129.136 100.244  0.00  0.00    -0.029 C 
ATOM     10  C8  UNL     1     138.806 129.111 100.824  0.00  0.00    -0.061 C 
ATOM     11  C9  UNL     1     140.961 127.804 100.489  0.00  0.00    -0.052 C 
ATOM     12  C10 UNL     1     141.262 127.483 101.946  0.00  0.00    -0.065 C 
ATOM     13  H   UNL     1     142.452 130.090  99.283  0.00  0.00    +0.000 HD
ENDROOT
TORSDOF 0
ENDMDL
