MODEL 1
REMARK VINA RESULT:    -3.391      0.000      0.000
REMARK INTER + INTRA:          -3.391
REMARK INTER:                  -3.391
REMARK INTRA:                   0.000
REMARK UNBOUND:                 0.000
REMARK  Name = /home/vital/Documents/PhD_2021/Malaria_codes/scripts/../data/pdbqt_ligands/ligand_86_temp.pdb
REMARK                            x       y       z     vdW  Elec       q    Type
REMARK                         _______ _______ _______ _____ _____    ______ ____
ROOT
ATOM      1  C1  UNL     1     146.543 132.652  97.321  0.00  0.00    -0.045 C 
ATOM      2  C2  UNL     1     145.448 133.367  98.039  0.00  0.00    -0.069 C 
ATOM      3  C3  UNL     1     144.147 133.221  97.759  0.00  0.00    +0.023 C 
ATOM      4  N1  UNL     1     143.182 133.917  98.425  0.00  0.00    -0.265 NA
ATOM      5  C4  UNL     1     142.332 133.242  99.146  0.00  0.00    +0.036 C 
ATOM      6  C5  UNL     1     142.301 131.747  99.407  0.00  0.00    +0.114 C 
ATOM      7  C6  UNL     1     142.932 131.495 100.785  0.00  0.00    +0.082 C 
ATOM      8  N2  UNL     1     143.384 130.090 100.873  0.00  0.00    -0.222 NA
ATOM      9  C7  UNL     1     143.873 129.816 101.902  0.00  0.00    +0.087 C 
ATOM     10  N3  UNL     1     144.361 129.526 102.924  0.00  0.00    -0.241 NA
ATOM     11  O1  UNL     1     140.905 131.417  99.377  0.00  0.00    -0.369 OA
ATOM     12  C8  UNL     1     140.654 130.017  99.256  0.00  0.00    +0.049 C 
ATOM     13  C9  UNL     1     139.158 129.828  99.022  0.00  0.00    -0.029 C 
ATOM     14  C10 UNL     1     138.722 128.364  98.972  0.00  0.00    -0.051 C 
ATOM     15  C11 UNL     1     139.300 127.599  97.782  0.00  0.00    -0.056 C 
ATOM     16  C12 UNL     1     138.745 126.184  97.709  0.00  0.00    -0.065 C 
ATOM     17  H   UNL     1     144.078 129.978 103.751  0.00  0.00    +0.000 HD
ENDROOT
TORSDOF 0
ENDMDL
MODEL 2
REMARK VINA RESULT:    -3.360      5.107      6.903
REMARK INTER + INTRA:          -3.360
REMARK INTER:                  -3.360
REMARK INTRA:                   0.000
REMARK UNBOUND:                 0.000
REMARK  Name = /home/vital/Documents/PhD_2021/Malaria_codes/scripts/../data/pdbqt_ligands/ligand_86_temp.pdb
REMARK                            x       y       z     vdW  Elec       q    Type
REMARK                         _______ _______ _______ _____ _____    ______ ____
ROOT
ATOM      1  C1  UNL     1     138.189 127.638  97.895  0.00  0.00    -0.045 C 
ATOM      2  C2  UNL     1     139.149 128.499  98.645  0.00  0.00    -0.069 C 
ATOM      3  C3  UNL     1     139.100 128.701  99.968  0.00  0.00    +0.023 C 
ATOM      4  N1  UNL     1     139.984 129.520 100.607  0.00  0.00    -0.265 NA
ATOM      5  C4  UNL     1     140.790 128.982 101.478  0.00  0.00    +0.036 C 
ATOM      6  C5  UNL     1     140.931 127.517 101.848  0.00  0.00    +0.114 C 
ATOM      7  C6  UNL     1     142.147 126.954 101.095  0.00  0.00    +0.082 C 
ATOM      8  N2  UNL     1     142.038 125.482 101.009  0.00  0.00    -0.222 NA
ATOM      9  C7  UNL     1     142.936 124.975 100.452  0.00  0.00    +0.087 C 
ATOM     10  N3  UNL     1     143.824 124.454  99.901  0.00  0.00    -0.241 NA
ATOM     11  O1  UNL     1     141.129 127.533 103.270  0.00  0.00    -0.369 OA
ATOM     12  C8  UNL     1     140.943 126.259 103.885  0.00  0.00    +0.049 C 
ATOM     13  C9  UNL     1     140.970 126.462 105.397  0.00  0.00    -0.029 C 
ATOM     14  C10 UNL     1     140.883 125.160 106.194  0.00  0.00    -0.051 C 
ATOM     15  C11 UNL     1     139.550 124.432 106.024  0.00  0.00    -0.056 C 
ATOM     16  C12 UNL     1     139.465 123.210 106.925  0.00  0.00    -0.065 C 
ATOM     17  H   UNL     1     144.723 124.855  99.926  0.00  0.00    +0.000 HD
ENDROOT
TORSDOF 0
ENDMDL
MODEL 3
REMARK VINA RESULT:    -3.324      4.370      5.987
REMARK INTER + INTRA:          -3.324
REMARK INTER:                  -3.324
REMARK INTRA:                   0.000
REMARK UNBOUND:                 0.000
REMARK  Name = /home/vital/Documents/PhD_2021/Malaria_codes/scripts/../data/pdbqt_ligands/ligand_86_temp.pdb
REMARK                            x       y       z     vdW  Elec       q    Type
REMARK                         _______ _______ _______ _____ _____    ______ ____
ROOT
ATOM      1  C1  UNL     1     146.290 124.355 102.768  0.00  0.00    -0.045 C 
ATOM      2  C2  UNL     1     146.029 125.694 103.373  0.00  0.00    -0.069 C 
ATOM      3  C3  UNL     1     145.542 126.741 102.696  0.00  0.00    +0.023 C 
ATOM      4  N1  UNL     1     145.346 127.955 103.285  0.00  0.00    -0.265 NA
ATOM      5  C4  UNL     1     144.125 128.400 103.371  0.00  0.00    +0.036 C 
ATOM      6  C5  UNL     1     142.841 127.708 102.949  0.00  0.00    +0.114 C 
ATOM      7  C6  UNL     1     142.196 127.103 104.205  0.00  0.00    +0.082 C 
ATOM      8  N2  UNL     1     141.262 126.026 103.812  0.00  0.00    -0.222 NA
ATOM      9  C7  UNL     1     140.721 125.517 104.720  0.00  0.00    +0.087 C 
ATOM     10  N3  UNL     1     140.172 125.001 105.612  0.00  0.00    -0.241 NA
ATOM     11  O1  UNL     1     142.048 128.760 102.380  0.00  0.00    -0.369 OA
ATOM     12  C8  UNL     1     140.945 128.287 101.607  0.00  0.00    +0.049 C 
ATOM     13  C9  UNL     1     140.325 129.485 100.895  0.00  0.00    -0.029 C 
ATOM     14  C10 UNL     1     139.062 129.146 100.103  0.00  0.00    -0.051 C 
ATOM     15  C11 UNL     1     139.320 128.209  98.923  0.00  0.00    -0.056 C 
ATOM     16  C12 UNL     1     138.060 127.996  98.098  0.00  0.00    -0.065 C 
ATOM     17  H   UNL     1     139.980 125.510 106.433  0.00  0.00    +0.000 HD
ENDROOT
TORSDOF 0
ENDMDL
MODEL 4
REMARK VINA RESULT:    -2.991      4.540      5.918
REMARK INTER + INTRA:          -2.991
REMARK INTER:                  -2.991
REMARK INTRA:                   0.000
REMARK UNBOUND:                 0.000
REMARK  Name = /home/vital/Documents/PhD_2021/Malaria_codes/scripts/../data/pdbqt_ligands/ligand_86_temp.pdb
REMARK                            x       y       z     vdW  Elec       q    Type
REMARK                         _______ _______ _______ _____ _____    ______ ____
ROOT
ATOM      1  C1  UNL     1     141.340 131.473  99.233  0.00  0.00    -0.045 C 
ATOM      2  C2  UNL     1     142.516 131.048 100.047  0.00  0.00    -0.069 C 
ATOM      3  C3  UNL     1     142.444 130.671 101.329  0.00  0.00    +0.023 C 
ATOM      4  N1  UNL     1     143.552 130.316 102.041  0.00  0.00    -0.265 NA
ATOM      5  C4  UNL     1     143.634 129.088 102.466  0.00  0.00    +0.036 C 
ATOM      6  C5  UNL     1     142.669 127.942 102.221  0.00  0.00    +0.114 C 
ATOM      7  C6  UNL     1     143.242 127.077 101.087  0.00  0.00    +0.082 C 
ATOM      8  N2  UNL     1     142.156 126.281 100.475  0.00  0.00    -0.222 NA
ATOM      9  C7  UNL     1     142.516 125.587  99.602  0.00  0.00    +0.087 C 
ATOM     10  N3  UNL     1     142.858 124.887  98.731  0.00  0.00    -0.241 NA
ATOM     11  O1  UNL     1     142.631 127.243 103.474  0.00  0.00    -0.369 OA
ATOM     12  C8  UNL     1     141.534 126.337 103.586  0.00  0.00    +0.049 C 
ATOM     13  C9  UNL     1     141.491 125.832 105.025  0.00  0.00    -0.029 C 
ATOM     14  C10 UNL     1     140.421 124.768 105.273  0.00  0.00    -0.051 C 
ATOM     15  C11 UNL     1     138.994 125.293 105.108  0.00  0.00    -0.056 C 
ATOM     16  C12 UNL     1     137.967 124.235 105.480  0.00  0.00    -0.065 C 
ATOM     17  H   UNL     1     143.770 124.515  98.727  0.00  0.00    +0.000 HD
ENDROOT
TORSDOF 0
ENDMDL
MODEL 5
REMARK VINA RESULT:    -2.910     11.110     12.843
REMARK INTER + INTRA:          -2.910
REMARK INTER:                  -2.910
REMARK INTRA:                   0.000
REMARK UNBOUND:                 0.000
REMARK  Name = /home/vital/Documents/PhD_2021/Malaria_codes/scripts/../data/pdbqt_ligands/ligand_86_temp.pdb
REMARK                            x       y       z     vdW  Elec       q    Type
REMARK                         _______ _______ _______ _____ _____    ______ ____
ROOT
ATOM      1  C1  UNL     1     144.262 140.574  98.578  0.00  0.00    -0.045 C 
ATOM      2  C2  UNL     1     143.179 141.582  98.766  0.00  0.00    -0.069 C 
ATOM      3  C3  UNL     1     142.129 141.413  99.580  0.00  0.00    +0.023 C 
ATOM      4  N1  UNL     1     141.148 142.353  99.698  0.00  0.00    -0.265 NA
ATOM      5  C4  UNL     1     140.996 142.932 100.854  0.00  0.00    +0.036 C 
ATOM      6  C5  UNL     1     141.824 142.748 102.113  0.00  0.00    +0.114 C 
ATOM      7  C6  UNL     1     142.818 143.916 102.200  0.00  0.00    +0.082 C 
ATOM      8  N2  UNL     1     143.947 143.542 103.079  0.00  0.00    -0.222 NA
ATOM      9  C7  UNL     1     144.748 144.389 103.202  0.00  0.00    +0.087 C 
ATOM     10  N3  UNL     1     145.555 145.222 103.338  0.00  0.00    -0.241 NA
ATOM     11  O1  UNL     1     140.857 142.773 103.174  0.00  0.00    -0.369 OA
ATOM     12  C8  UNL     1     141.361 142.276 104.414  0.00  0.00    +0.049 C 
ATOM     13  C9  UNL     1     140.187 142.159 105.381  0.00  0.00    -0.029 C 
ATOM     14  C10 UNL     1     140.591 141.732 106.793  0.00  0.00    -0.051 C 
ATOM     15  C11 UNL     1     141.162 140.315 106.857  0.00  0.00    -0.056 C 
ATOM     16  C12 UNL     1     141.439 139.893 108.292  0.00  0.00    -0.065 C 
ATOM     17  H   UNL     1     145.297 146.171 103.287  0.00  0.00    +0.000 HD
ENDROOT
TORSDOF 0
ENDMDL
MODEL 6
REMARK VINA RESULT:    -2.819      2.574      6.480
REMARK INTER + INTRA:          -2.819
REMARK INTER:                  -2.819
REMARK INTRA:                   0.000
REMARK UNBOUND:                 0.000
REMARK  Name = /home/vital/Documents/PhD_2021/Malaria_codes/scripts/../data/pdbqt_ligands/ligand_86_temp.pdb
REMARK                            x       y       z     vdW  Elec       q    Type
REMARK                         _______ _______ _______ _____ _____    ______ ____
ROOT
ATOM      1  C1  UNL     1     138.626 128.592  98.697  0.00  0.00    -0.045 C 
ATOM      2  C2  UNL     1     139.892 127.808  98.789  0.00  0.00    -0.069 C 
ATOM      3  C3  UNL     1     140.873 127.857  97.880  0.00  0.00    +0.023 C 
ATOM      4  N1  UNL     1     142.002 127.099  97.993  0.00  0.00    -0.265 NA
ATOM      5  C4  UNL     1     143.137 127.719  98.148  0.00  0.00    +0.036 C 
ATOM      6  C5  UNL     1     143.382 129.211  98.287  0.00  0.00    +0.114 C 
ATOM      7  C6  UNL     1     143.559 129.524  99.781  0.00  0.00    +0.082 C 
ATOM      8  N2  UNL     1     143.295 130.959 100.021  0.00  0.00    -0.222 NA
ATOM      9  C7  UNL     1     143.418 131.279 101.142  0.00  0.00    +0.087 C 
ATOM     10  N3  UNL     1     143.538 131.616 102.254  0.00  0.00    -0.241 NA
ATOM     11  O1  UNL     1     144.583 129.440  97.535  0.00  0.00    -0.369 OA
ATOM     12  C8  UNL     1     144.814 130.817  97.238  0.00  0.00    +0.049 C 
ATOM     13  C9  UNL     1     145.988 130.894  96.266  0.00  0.00    -0.029 C 
ATOM     14  C10 UNL     1     146.419 132.322  95.933  0.00  0.00    -0.051 C 
ATOM     15  C11 UNL     1     145.358 133.113  95.169  0.00  0.00    -0.056 C 
ATOM     16  C12 UNL     1     145.876 134.483  94.757  0.00  0.00    -0.065 C 
ATOM     17  H   UNL     1     144.178 131.153 102.843  0.00  0.00    +0.000 HD
ENDROOT
TORSDOF 0
ENDMDL
MODEL 7
REMARK VINA RESULT:    -2.769      4.210      5.324
REMARK INTER + INTRA:          -2.769
REMARK INTER:                  -2.769
REMARK INTRA:                   0.000
REMARK UNBOUND:                 0.000
REMARK  Name = /home/vital/Documents/PhD_2021/Malaria_codes/scripts/../data/pdbqt_ligands/ligand_86_temp.pdb
REMARK                            x       y       z     vdW  Elec       q    Type
REMARK                         _______ _______ _______ _____ _____    ______ ____
ROOT
ATOM      1  C1  UNL     1     141.163 131.663  91.433  0.00  0.00    -0.045 C 
ATOM      2  C2  UNL     1     142.391 132.112  92.151  0.00  0.00    -0.069 C 
ATOM      3  C3  UNL     1     142.386 132.675  93.366  0.00  0.00    +0.023 C 
ATOM      4  N1  UNL     1     143.533 133.096  93.972  0.00  0.00    -0.265 NA
ATOM      5  C4  UNL     1     143.891 132.502  95.074  0.00  0.00    +0.036 C 
ATOM      6  C5  UNL     1     143.223 131.329  95.770  0.00  0.00    +0.114 C 
ATOM      7  C6  UNL     1     144.001 130.056  95.400  0.00  0.00    +0.082 C 
ATOM      8  N2  UNL     1     143.141 128.872  95.612  0.00  0.00    -0.222 NA
ATOM      9  C7  UNL     1     143.667 127.856  95.357  0.00  0.00    +0.087 C 
ATOM     10  N3  UNL     1     144.178 126.835  95.111  0.00  0.00    -0.241 NA
ATOM     11  O1  UNL     1     143.326 131.646  97.166  0.00  0.00    -0.369 OA
ATOM     12  C8  UNL     1     142.468 130.861  97.992  0.00  0.00    +0.049 C 
ATOM     13  C9  UNL     1     142.518 131.440  99.402  0.00  0.00    -0.029 C 
ATOM     14  C10 UNL     1     141.720 130.635 100.429  0.00  0.00    -0.051 C 
ATOM     15  C11 UNL     1     140.214 130.642 100.166  0.00  0.00    -0.056 C 
ATOM     16  C12 UNL     1     139.454 129.931 101.275  0.00  0.00    -0.065 C 
ATOM     17  H   UNL     1     145.151 126.731  95.221  0.00  0.00    +0.000 HD
ENDROOT
TORSDOF 0
ENDMDL
MODEL 8
REMARK VINA RESULT:    -2.728      8.382     11.027
REMARK INTER + INTRA:          -2.728
REMARK INTER:                  -2.728
REMARK INTRA:                   0.000
REMARK UNBOUND:                 0.000
REMARK  Name = /home/vital/Documents/PhD_2021/Malaria_codes/scripts/../data/pdbqt_ligands/ligand_86_temp.pdb
REMARK                            x       y       z     vdW  Elec       q    Type
REMARK                         _______ _______ _______ _____ _____    ______ ____
ROOT
ATOM      1  C1  UNL     1     144.279 132.006  95.033  0.00  0.00    -0.045 C 
ATOM      2  C2  UNL     1     143.189 131.596  94.100  0.00  0.00    -0.069 C 
ATOM      3  C3  UNL     1     142.308 132.445  93.557  0.00  0.00    +0.023 C 
ATOM      4  N1  UNL     1     141.310 132.020  92.730  0.00  0.00    -0.265 NA
ATOM      5  C4  UNL     1     141.329 132.430  91.494  0.00  0.00    +0.036 C 
ATOM      6  C5  UNL     1     142.372 133.292  90.805  0.00  0.00    +0.114 C 
ATOM      7  C6  UNL     1     143.298 132.364  90.004  0.00  0.00    +0.082 C 
ATOM      8  N2  UNL     1     144.582 133.050  89.743  0.00  0.00    -0.222 NA
ATOM      9  C7  UNL     1     145.343 132.406  89.128  0.00  0.00    +0.087 C 
ATOM     10  N3  UNL     1     146.113 131.779  88.513  0.00  0.00    -0.241 NA
ATOM     11  O1  UNL     1     141.604 134.160  89.959  0.00  0.00    -0.369 OA
ATOM     12  C8  UNL     1     142.342 135.283  89.476  0.00  0.00    +0.049 C 
ATOM     13  C9  UNL     1     141.362 136.221  88.778  0.00  0.00    -0.029 C 
ATOM     14  C10 UNL     1     142.028 137.428  88.118  0.00  0.00    -0.051 C 
ATOM     15  C11 UNL     1     142.681 138.383  89.118  0.00  0.00    -0.056 C 
ATOM     16  C12 UNL     1     143.225 139.624  88.426  0.00  0.00    -0.065 C 
ATOM     17  H   UNL     1     145.797 131.115  87.858  0.00  0.00    +0.000 HD
ENDROOT
TORSDOF 0
ENDMDL
MODEL 9
REMARK VINA RESULT:    -2.681      9.705     12.255
REMARK INTER + INTRA:          -2.681
REMARK INTER:                  -2.681
REMARK INTRA:                   0.000
REMARK UNBOUND:                 0.000
REMARK  Name = /home/vital/Documents/PhD_2021/Malaria_codes/scripts/../data/pdbqt_ligands/ligand_86_temp.pdb
REMARK                            x       y       z     vdW  Elec       q    Type
REMARK                         _______ _______ _______ _____ _____    ______ ____
ROOT
ATOM      1  C1  UNL     1     137.718 123.971  90.053  0.00  0.00    -0.045 C 
ATOM      2  C2  UNL     1     137.468 124.977  88.980  0.00  0.00    -0.069 C 
ATOM      3  C3  UNL     1     137.267 126.281  89.206  0.00  0.00    +0.023 C 
ATOM      4  N1  UNL     1     137.014 127.159  88.193  0.00  0.00    -0.265 NA
ATOM      5  C4  UNL     1     137.887 128.101  87.973  0.00  0.00    +0.036 C 
ATOM      6  C5  UNL     1     139.218 128.330  88.667  0.00  0.00    +0.114 C 
ATOM      7  C6  UNL     1     140.324 127.759  87.765  0.00  0.00    +0.082 C 
ATOM      8  N2  UNL     1     141.534 127.494  88.573  0.00  0.00    -0.222 NA
ATOM      9  C7  UNL     1     142.429 127.062  87.953  0.00  0.00    +0.087 C 
ATOM     10  N3  UNL     1     143.333 126.633  87.349  0.00  0.00    -0.241 NA
ATOM     11  O1  UNL     1     139.303 129.756  88.799  0.00  0.00    -0.369 OA
ATOM     12  C8  UNL     1     140.302 130.183  89.724  0.00  0.00    +0.049 C 
ATOM     13  C9  UNL     1     140.139 131.686  89.927  0.00  0.00    -0.029 C 
ATOM     14  C10 UNL     1     141.211 132.308  90.822  0.00  0.00    -0.051 C 
ATOM     15  C11 UNL     1     141.156 131.813  92.267  0.00  0.00    -0.056 C 
ATOM     16  C12 UNL     1     142.161 132.545  93.143  0.00  0.00    -0.065 C 
ATOM     17  H   UNL     1     143.447 126.869  86.400  0.00  0.00    +0.000 HD
ENDROOT
TORSDOF 0
ENDMDL
