MODEL 1
REMARK VINA RESULT:    -4.510      0.000      0.000
REMARK INTER + INTRA:          -4.510
REMARK INTER:                  -4.510
REMARK INTRA:                   0.000
REMARK UNBOUND:                 0.000
REMARK  Name = /home/vital/Documents/PhD_2021/Malaria_codes/scripts/../data/pdbqt_ligands/ligand_220_temp.pdb
REMARK                            x       y       z     vdW  Elec       q    Type
REMARK                         _______ _______ _______ _____ _____    ______ ____
ROOT
ATOM      1  C   UNL     1     131.541 121.100  86.744  0.00  0.00    -0.037 C 
ATOM      2  C   UNL     1     132.501 122.018  87.426  0.00  0.00    -0.015 C 
ATOM      3  C   UNL     1     133.824 122.010  87.204  0.00  0.00    -0.076 C 
ATOM      4  C   UNL     1     134.732 122.968  87.908  0.00  0.00    -0.008 C 
ATOM      5  C   UNL     1     134.010 124.290  88.266  0.00  0.00    +0.074 C 
ATOM      6  C   UNL     1     134.795 125.071  89.343  0.00  0.00    -0.007 C 
ATOM      7  C   UNL     1     136.239 125.361  89.075  0.00  0.00    -0.062 C 
ATOM      8  C   UNL     1     136.838 125.723  87.926  0.00  0.00    +0.055 C 
ATOM      9 CL   UNL     1     138.584 125.895  88.038  0.00  0.00    -0.082 Cl
ATOM     10  C   UNL     1     136.197 126.003  86.643  0.00  0.00    +0.055 C 
ATOM     11 CL   UNL     1     137.176 126.751  85.385  0.00  0.00    -0.082 Cl
ATOM     12  C   UNL     1     134.916 125.791  86.289  0.00  0.00    -0.062 C 
ATOM     13  C   UNL     1     133.759 125.198  87.039  0.00  0.00    -0.007 C 
ATOM     14  N   UNL     1     132.683 124.010  88.868  0.00  0.00    -0.262 N 
ATOM     15  C   UNL     1     131.992 122.990  88.458  0.00  0.00    +0.119 C 
ATOM     16  N   UNL     1     130.743 122.802  88.993  0.00  0.00    -0.305 N 
ATOM     17  C   UNL     1     130.350 123.427  90.232  0.00  0.00    +0.133 C 
ATOM     18  O   UNL     1     129.065 122.915  90.651  0.00  0.00    -0.284 OA
ATOM     19  N   UNL     1     129.027 121.449  90.517  0.00  0.00    -0.213 NA
ATOM     20  H   UNL     1     132.328 124.594  89.576  0.00  0.00    +0.000 HD
ATOM     21  H   UNL     1     130.100 122.226  88.519  0.00  0.00    +0.000 HD
ATOM     22  H   UNL     1     128.115 121.103  90.817  0.00  0.00    +0.000 HD
ATOM     23  H   UNL     1     129.756 121.035  91.099  0.00  0.00    +0.000 HD
ENDROOT
TORSDOF 0
ENDMDL
MODEL 2
REMARK VINA RESULT:    -4.151     20.396     21.999
REMARK INTER + INTRA:          -4.151
REMARK INTER:                  -4.151
REMARK INTRA:                   0.000
REMARK UNBOUND:                 0.000
REMARK  Name = /home/vital/Documents/PhD_2021/Malaria_codes/scripts/../data/pdbqt_ligands/ligand_220_temp.pdb
REMARK                            x       y       z     vdW  Elec       q    Type
REMARK                         _______ _______ _______ _____ _____    ______ ____
ROOT
ATOM      1  C   UNL     1     138.772 145.069  97.337  0.00  0.00    -0.037 C 
ATOM      2  C   UNL     1     139.564 143.988  96.678  0.00  0.00    -0.015 C 
ATOM      3  C   UNL     1     139.379 143.600  95.408  0.00  0.00    -0.076 C 
ATOM      4  C   UNL     1     140.217 142.521  94.799  0.00  0.00    -0.008 C 
ATOM      5  C   UNL     1     141.628 142.457  95.435  0.00  0.00    +0.074 C 
ATOM      6  C   UNL     1     142.311 141.107  95.125  0.00  0.00    -0.007 C 
ATOM      7  C   UNL     1     142.405 140.692  93.689  0.00  0.00    -0.062 C 
ATOM      8  C   UNL     1     142.671 141.437  92.601  0.00  0.00    +0.055 C 
ATOM      9 CL   UNL     1     142.612 140.552  91.083  0.00  0.00    -0.082 Cl
ATOM     10  C   UNL     1     143.017 142.855  92.561  0.00  0.00    +0.055 C 
ATOM     11 CL   UNL     1     143.614 143.510  91.040  0.00  0.00    -0.082 Cl
ATOM     12  C   UNL     1     142.971 143.751  93.565  0.00  0.00    -0.062 C 
ATOM     13  C   UNL     1     142.545 143.623  94.998  0.00  0.00    -0.007 C 
ATOM     14  N   UNL     1     141.532 142.522  96.915  0.00  0.00    -0.262 N 
ATOM     15  C   UNL     1     140.607 143.245  97.469  0.00  0.00    +0.119 C 
ATOM     16  N   UNL     1     140.591 143.330  98.838  0.00  0.00    -0.305 N 
ATOM     17  C   UNL     1     141.278 142.366  99.663  0.00  0.00    +0.133 C 
ATOM     18  O   UNL     1     140.946 142.586 101.053  0.00  0.00    -0.284 OA
ATOM     19  N   UNL     1     139.495 142.794 101.207  0.00  0.00    -0.213 NA
ATOM     20  H   UNL     1     142.166 142.018  97.474  0.00  0.00    +0.000 HD
ATOM     21  H   UNL     1     140.100 144.067  99.268  0.00  0.00    +0.000 HD
ATOM     22  H   UNL     1     139.277 142.948 102.192  0.00  0.00    +0.000 HD
ATOM     23  H   UNL     1     138.997 141.970 100.873  0.00  0.00    +0.000 HD
ENDROOT
TORSDOF 0
ENDMDL
MODEL 3
REMARK VINA RESULT:    -4.018      4.649      6.736
REMARK INTER + INTRA:          -4.018
REMARK INTER:                  -4.018
REMARK INTRA:                   0.000
REMARK UNBOUND:                 0.000
REMARK  Name = /home/vital/Documents/PhD_2021/Malaria_codes/scripts/../data/pdbqt_ligands/ligand_220_temp.pdb
REMARK                            x       y       z     vdW  Elec       q    Type
REMARK                         _______ _______ _______ _____ _____    ______ ____
ROOT
ATOM      1  C   UNL     1     138.397 124.349  90.651  0.00  0.00    -0.037 C 
ATOM      2  C   UNL     1     137.262 124.371  89.680  0.00  0.00    -0.015 C 
ATOM      3  C   UNL     1     136.653 123.268  89.224  0.00  0.00    -0.076 C 
ATOM      4  C   UNL     1     135.509 123.358  88.263  0.00  0.00    -0.008 C 
ATOM      5  C   UNL     1     134.712 124.674  88.436  0.00  0.00    +0.074 C 
ATOM      6  C   UNL     1     133.836 124.953  87.194  0.00  0.00    -0.007 C 
ATOM      7  C   UNL     1     132.901 123.872  86.748  0.00  0.00    -0.062 C 
ATOM      8  C   UNL     1     132.144 123.040  87.486  0.00  0.00    +0.055 C 
ATOM      9 CL   UNL     1     131.239 121.859  86.550  0.00  0.00    -0.082 Cl
ATOM     10  C   UNL     1     131.988 123.038  88.938  0.00  0.00    +0.055 C 
ATOM     11 CL   UNL     1     130.705 122.044  89.622  0.00  0.00    -0.082 Cl
ATOM     12  C   UNL     1     132.689 123.735  89.851  0.00  0.00    -0.062 C 
ATOM     13  C   UNL     1     133.836 124.691  89.710  0.00  0.00    -0.007 C 
ATOM     14  N   UNL     1     135.637 125.830  88.537  0.00  0.00    -0.262 N 
ATOM     15  C   UNL     1     136.782 125.689  89.131  0.00  0.00    +0.119 C 
ATOM     16  N   UNL     1     137.581 126.796  89.260  0.00  0.00    -0.305 N 
ATOM     17  C   UNL     1     137.387 127.967  88.441  0.00  0.00    +0.133 C 
ATOM     18  O   UNL     1     138.470 128.901  88.657  0.00  0.00    -0.284 OA
ATOM     19  N   UNL     1     139.764 128.196  88.648  0.00  0.00    -0.213 NA
ATOM     20  H   UNL     1     135.383 126.701  88.154  0.00  0.00    +0.000 HD
ATOM     21  H   UNL     1     138.303 126.791  89.929  0.00  0.00    +0.000 HD
ATOM     22  H   UNL     1     140.518 128.866  88.801  0.00  0.00    +0.000 HD
ATOM     23  H   UNL     1     139.895 127.737  87.747  0.00  0.00    +0.000 HD
ENDROOT
TORSDOF 0
ENDMDL
MODEL 4
REMARK VINA RESULT:    -3.785      1.797      2.325
REMARK INTER + INTRA:          -3.785
REMARK INTER:                  -3.785
REMARK INTRA:                   0.000
REMARK UNBOUND:                 0.000
REMARK  Name = /home/vital/Documents/PhD_2021/Malaria_codes/scripts/../data/pdbqt_ligands/ligand_220_temp.pdb
REMARK                            x       y       z     vdW  Elec       q    Type
REMARK                         _______ _______ _______ _____ _____    ______ ____
ROOT
ATOM      1  C   UNL     1     131.041 124.776  87.499  0.00  0.00    -0.037 C 
ATOM      2  C   UNL     1     132.372 124.191  87.837  0.00  0.00    -0.015 C 
ATOM      3  C   UNL     1     133.437 124.248  87.024  0.00  0.00    -0.076 C 
ATOM      4  C   UNL     1     134.750 123.656  87.428  0.00  0.00    -0.008 C 
ATOM      5  C   UNL     1     134.941 123.668  88.964  0.00  0.00    +0.074 C 
ATOM      6  C   UNL     1     136.060 122.690  89.387  0.00  0.00    -0.007 C 
ATOM      7  C   UNL     1     137.397 122.840  88.729  0.00  0.00    -0.062 C 
ATOM      8  C   UNL     1     138.065 123.960  88.400  0.00  0.00    +0.055 C 
ATOM      9 CL   UNL     1     139.587 123.680  87.566  0.00  0.00    -0.082 Cl
ATOM     10  C   UNL     1     137.675 125.340  88.680  0.00  0.00    +0.055 C 
ATOM     11 CL   UNL     1     138.874 126.600  88.413  0.00  0.00    -0.082 Cl
ATOM     12  C   UNL     1     136.501 125.791  89.159  0.00  0.00    -0.062 C 
ATOM     13  C   UNL     1     135.234 125.077  89.530  0.00  0.00    -0.007 C 
ATOM     14  N   UNL     1     133.713 123.182  89.642  0.00  0.00    -0.262 N 
ATOM     15  C   UNL     1     132.549 123.451  89.136  0.00  0.00    +0.119 C 
ATOM     16  N   UNL     1     131.437 123.040  89.826  0.00  0.00    -0.305 N 
ATOM     17  C   UNL     1     131.511 122.013  90.837  0.00  0.00    +0.133 C 
ATOM     18  O   UNL     1     130.179 121.652  91.266  0.00  0.00    -0.284 OA
ATOM     19  N   UNL     1     129.293 121.483  90.102  0.00  0.00    -0.213 NA
ATOM     20  H   UNL     1     133.782 122.658  90.472  0.00  0.00    +0.000 HD
ATOM     21  H   UNL     1     130.568 123.457  89.627  0.00  0.00    +0.000 HD
ATOM     22  H   UNL     1     128.358 121.228  90.421  0.00  0.00    +0.000 HD
ATOM     23  H   UNL     1     129.659 120.746  89.500  0.00  0.00    +0.000 HD
ENDROOT
TORSDOF 0
ENDMDL
MODEL 5
REMARK VINA RESULT:    -3.661      6.033      7.459
REMARK INTER + INTRA:          -3.661
REMARK INTER:                  -3.661
REMARK INTRA:                   0.000
REMARK UNBOUND:                 0.000
REMARK  Name = /home/vital/Documents/PhD_2021/Malaria_codes/scripts/../data/pdbqt_ligands/ligand_220_temp.pdb
REMARK                            x       y       z     vdW  Elec       q    Type
REMARK                         _______ _______ _______ _____ _____    ______ ____
ROOT
ATOM      1  C   UNL     1     135.806 126.082  87.120  0.00  0.00    -0.037 C 
ATOM      2  C   UNL     1     136.762 126.080  88.268  0.00  0.00    -0.015 C 
ATOM      3  C   UNL     1     136.804 125.117  89.199  0.00  0.00    -0.076 C 
ATOM      4  C   UNL     1     137.798 125.164  90.316  0.00  0.00    -0.008 C 
ATOM      5  C   UNL     1     139.092 125.908  89.906  0.00  0.00    +0.074 C 
ATOM      6  C   UNL     1     139.905 126.326  91.152  0.00  0.00    -0.007 C 
ATOM      7  C   UNL     1     140.250 125.259  92.144  0.00  0.00    -0.062 C 
ATOM      8  C   UNL     1     140.632 123.987  91.931  0.00  0.00    +0.055 C 
ATOM      9 CL   UNL     1     140.871 123.045  93.395  0.00  0.00    -0.082 Cl
ATOM     10  C   UNL     1     140.884 123.341  90.645  0.00  0.00    +0.055 C 
ATOM     11 CL   UNL     1     141.667 121.764  90.660  0.00  0.00    -0.082 Cl
ATOM     12  C   UNL     1     140.622 123.813  89.412  0.00  0.00    -0.062 C 
ATOM     13  C   UNL     1     139.987 125.090  88.946  0.00  0.00    -0.007 C 
ATOM     14  N   UNL     1     138.762 127.175  89.205  0.00  0.00    -0.262 N 
ATOM     15  C   UNL     1     137.716 127.233  88.440  0.00  0.00    +0.119 C 
ATOM     16  N   UNL     1     137.480 128.401  87.759  0.00  0.00    -0.305 N 
ATOM     17  C   UNL     1     138.092 129.644  88.159  0.00  0.00    +0.133 C 
ATOM     18  O   UNL     1     137.533 130.734  87.391  0.00  0.00    -0.284 OA
ATOM     19  N   UNL     1     136.065 130.617  87.328  0.00  0.00    -0.213 NA
ATOM     20  H   UNL     1     139.334 127.968  89.322  0.00  0.00    +0.000 HD
ATOM     21  H   UNL     1     136.879 128.389  86.980  0.00  0.00    +0.000 HD
ATOM     22  H   UNL     1     135.685 131.392  86.784  0.00  0.00    +0.000 HD
ATOM     23  H   UNL     1     135.682 130.644  88.273  0.00  0.00    +0.000 HD
ENDROOT
TORSDOF 0
ENDMDL
MODEL 6
REMARK VINA RESULT:    -3.597     12.402     14.289
REMARK INTER + INTRA:          -3.597
REMARK INTER:                  -3.597
REMARK INTRA:                   0.000
REMARK UNBOUND:                 0.000
REMARK  Name = /home/vital/Documents/PhD_2021/Malaria_codes/scripts/../data/pdbqt_ligands/ligand_220_temp.pdb
REMARK                            x       y       z     vdW  Elec       q    Type
REMARK                         _______ _______ _______ _____ _____    ______ ____
ROOT
ATOM      1  C   UNL     1     139.195 129.582 101.077  0.00  0.00    -0.037 C 
ATOM      2  C   UNL     1     139.778 128.464 100.277  0.00  0.00    -0.015 C 
ATOM      3  C   UNL     1     139.212 127.971  99.165  0.00  0.00    -0.076 C 
ATOM      4  C   UNL     1     139.856 126.860  98.398  0.00  0.00    -0.008 C 
ATOM      5  C   UNL     1     141.397 126.870  98.549  0.00  0.00    +0.074 C 
ATOM      6  C   UNL     1     142.000 125.510  98.133  0.00  0.00    -0.007 C 
ATOM      7  C   UNL     1     141.647 124.982  96.777  0.00  0.00    -0.062 C 
ATOM      8  C   UNL     1     141.520 125.640  95.611  0.00  0.00    +0.055 C 
ATOM      9 CL   UNL     1     141.015 124.634  94.260  0.00  0.00    -0.082 Cl
ATOM     10  C   UNL     1     141.776 127.056  95.360  0.00  0.00    +0.055 C 
ATOM     11 CL   UNL     1     141.828 127.594  93.684  0.00  0.00    -0.082 Cl
ATOM     12  C   UNL     1     142.017 128.029  96.258  0.00  0.00    -0.062 C 
ATOM     13  C   UNL     1     142.077 128.011  97.757  0.00  0.00    -0.007 C 
ATOM     14  N   UNL     1     141.776 127.053  99.972  0.00  0.00    -0.262 N 
ATOM     15  C   UNL     1     141.049 127.804 100.741  0.00  0.00    +0.119 C 
ATOM     16  N   UNL     1     141.468 128.000 102.033  0.00  0.00    -0.305 N 
ATOM     17  C   UNL     1     142.422 127.117 102.660  0.00  0.00    +0.133 C 
ATOM     18  O   UNL     1     142.543 127.444 104.063  0.00  0.00    -0.284 OA
ATOM     19  N   UNL     1     141.210 127.640 104.660  0.00  0.00    -0.213 NA
ATOM     20  H   UNL     1     142.577 126.606 100.331  0.00  0.00    +0.000 HD
ATOM     21  H   UNL     1     141.110 128.761 102.544  0.00  0.00    +0.000 HD
ATOM     22  H   UNL     1     141.312 127.870 105.649  0.00  0.00    +0.000 HD
ATOM     23  H   UNL     1     140.665 126.784 104.564  0.00  0.00    +0.000 HD
ENDROOT
TORSDOF 0
ENDMDL
MODEL 7
REMARK VINA RESULT:    -3.309     13.236     15.385
REMARK INTER + INTRA:          -3.309
REMARK INTER:                  -3.309
REMARK INTRA:                   0.000
REMARK UNBOUND:                 0.000
REMARK  Name = /home/vital/Documents/PhD_2021/Malaria_codes/scripts/../data/pdbqt_ligands/ligand_220_temp.pdb
REMARK                            x       y       z     vdW  Elec       q    Type
REMARK                         _______ _______ _______ _____ _____    ______ ____
ROOT
ATOM      1  C   UNL     1     138.116 128.505  98.331  0.00  0.00    -0.037 C 
ATOM      2  C   UNL     1     139.504 128.454  98.879  0.00  0.00    -0.015 C 
ATOM      3  C   UNL     1     139.870 129.029 100.034  0.00  0.00    -0.076 C 
ATOM      4  C   UNL     1     141.275 128.927 100.537  0.00  0.00    -0.008 C 
ATOM      5  C   UNL     1     141.966 127.626 100.061  0.00  0.00    +0.074 C 
ATOM      6  C   UNL     1     143.501 127.733 100.208  0.00  0.00    -0.007 C 
ATOM      7  C   UNL     1     144.043 128.110 101.551  0.00  0.00    -0.062 C 
ATOM      8  C   UNL     1     143.636 127.726 102.775  0.00  0.00    +0.055 C 
ATOM      9 CL   UNL     1     144.516 128.471 104.101  0.00  0.00    -0.082 Cl
ATOM     10  C   UNL     1     142.586 126.763 103.097  0.00  0.00    +0.055 C 
ATOM     11 CL   UNL     1     142.462 126.215 104.766  0.00  0.00    -0.082 Cl
ATOM     12  C   UNL     1     141.693 126.196 102.265  0.00  0.00    -0.062 C 
ATOM     13  C   UNL     1     141.456 126.363 100.793  0.00  0.00    -0.007 C 
ATOM     14  N   UNL     1     141.721 127.409  98.613  0.00  0.00    -0.262 N 
ATOM     15  C   UNL     1     140.586 127.763  98.092  0.00  0.00    +0.119 C 
ATOM     16  N   UNL     1     140.374 127.487  96.765  0.00  0.00    -0.305 N 
ATOM     17  C   UNL     1     141.466 127.202  95.868  0.00  0.00    +0.133 C 
ATOM     18  O   UNL     1     140.979 127.131  94.509  0.00  0.00    -0.284 OA
ATOM     19  N   UNL     1     140.067 128.255  94.232  0.00  0.00    -0.213 NA
ATOM     20  H   UNL     1     142.417 126.999  98.050  0.00  0.00    +0.000 HD
ATOM     21  H   UNL     1     139.452 127.484  96.417  0.00  0.00    +0.000 HD
ATOM     22  H   UNL     1     139.732 128.192  93.271  0.00  0.00    +0.000 HD
ATOM     23  H   UNL     1     140.564 129.136  94.362  0.00  0.00    +0.000 HD
ENDROOT
TORSDOF 0
ENDMDL
MODEL 8
REMARK VINA RESULT:    -3.266     15.919     17.361
REMARK INTER + INTRA:          -3.266
REMARK INTER:                  -3.266
REMARK INTRA:                   0.000
REMARK UNBOUND:                 0.000
REMARK  Name = /home/vital/Documents/PhD_2021/Malaria_codes/scripts/../data/pdbqt_ligands/ligand_220_temp.pdb
REMARK                            x       y       z     vdW  Elec       q    Type
REMARK                         _______ _______ _______ _____ _____    ______ ____
ROOT
ATOM      1  C   UNL     1     145.885 130.801  96.972  0.00  0.00    -0.037 C 
ATOM      2  C   UNL     1     144.550 130.907  97.635  0.00  0.00    -0.015 C 
ATOM      3  C   UNL     1     143.650 129.913  97.655  0.00  0.00    -0.076 C 
ATOM      4  C   UNL     1     142.336 130.076  98.351  0.00  0.00    -0.008 C 
ATOM      5  C   UNL     1     142.429 131.069  99.536  0.00  0.00    +0.074 C 
ATOM      6  C   UNL     1     141.024 131.554  99.959  0.00  0.00    -0.007 C 
ATOM      7  C   UNL     1     139.997 130.511 100.276  0.00  0.00    -0.062 C 
ATOM      8  C   UNL     1     140.139 129.346 100.933  0.00  0.00    +0.055 C 
ATOM      9 CL   UNL     1     138.674 128.378 101.021  0.00  0.00    -0.082 Cl
ATOM     10  C   UNL     1     141.344 128.835 101.581  0.00  0.00    +0.055 C 
ATOM     11 CL   UNL     1     141.177 127.431 102.630  0.00  0.00    -0.082 Cl
ATOM     12  C   UNL     1     142.596 129.323 101.511  0.00  0.00    -0.062 C 
ATOM     13  C   UNL     1     143.173 130.486 100.760  0.00  0.00    -0.007 C 
ATOM     14  N   UNL     1     143.165 132.292  99.130  0.00  0.00    -0.262 N 
ATOM     15  C   UNL     1     144.147 132.202  98.287  0.00  0.00    +0.119 C 
ATOM     16  N   UNL     1     144.844 133.345  97.987  0.00  0.00    -0.305 N 
ATOM     17  C   UNL     1     144.295 134.654  98.245  0.00  0.00    +0.133 C 
ATOM     18  O   UNL     1     145.152 135.666  97.669  0.00  0.00    -0.284 OA
ATOM     19  N   UNL     1     145.549 135.286  96.302  0.00  0.00    -0.213 NA
ATOM     20  H   UNL     1     142.908 133.168  99.499  0.00  0.00    +0.000 HD
ATOM     21  H   UNL     1     145.740 133.270  97.586  0.00  0.00    +0.000 HD
ATOM     22  H   UNL     1     146.152 136.008  95.909  0.00  0.00    +0.000 HD
ATOM     23  H   UNL     1     144.716 135.185  95.722  0.00  0.00    +0.000 HD
ENDROOT
TORSDOF 0
ENDMDL
MODEL 9
REMARK VINA RESULT:    -3.173     15.125     17.086
REMARK INTER + INTRA:          -3.173
REMARK INTER:                  -3.173
REMARK INTRA:                   0.000
REMARK UNBOUND:                 0.000
REMARK  Name = /home/vital/Documents/PhD_2021/Malaria_codes/scripts/../data/pdbqt_ligands/ligand_220_temp.pdb
REMARK                            x       y       z     vdW  Elec       q    Type
REMARK                         _______ _______ _______ _____ _____    ______ ____
ROOT
ATOM      1  C   UNL     1     141.746 126.419 105.014  0.00  0.00    -0.037 C 
ATOM      2  C   UNL     1     141.972 126.685 103.562  0.00  0.00    -0.015 C 
ATOM      3  C   UNL     1     141.286 126.082 102.580  0.00  0.00    -0.076 C 
ATOM      4  C   UNL     1     141.549 126.405 101.143  0.00  0.00    -0.008 C 
ATOM      5  C   UNL     1     142.058 127.855 100.961  0.00  0.00    +0.074 C 
ATOM      6  C   UNL     1     142.725 128.034  99.578  0.00  0.00    -0.007 C 
ATOM      7  C   UNL     1     141.932 127.641  98.371  0.00  0.00    -0.062 C 
ATOM      8  C   UNL     1     140.624 127.817  98.114  0.00  0.00    +0.055 C 
ATOM      9 CL   UNL     1     140.083 127.131  96.589  0.00  0.00    -0.082 Cl
ATOM     10  C   UNL     1     139.646 128.522  98.940  0.00  0.00    +0.055 C 
ATOM     11 CL   UNL     1     138.073 128.870  98.229  0.00  0.00    -0.082 Cl
ATOM     12  C   UNL     1     139.796 128.983 100.195  0.00  0.00    -0.062 C 
ATOM     13  C   UNL     1     140.951 128.918 101.151  0.00  0.00    -0.007 C 
ATOM     14  N   UNL     1     143.118 128.161 101.954  0.00  0.00    -0.262 N 
ATOM     15  C   UNL     1     143.053 127.646 103.144  0.00  0.00    +0.119 C 
ATOM     16  N   UNL     1     144.016 128.003 104.053  0.00  0.00    -0.305 N 
ATOM     17  C   UNL     1     145.270 128.581 103.637  0.00  0.00    +0.133 C 
ATOM     18  O   UNL     1     146.160 128.688 104.772  0.00  0.00    -0.284 OA
ATOM     19  N   UNL     1     146.143 127.442 105.556  0.00  0.00    -0.213 NA
ATOM     20  H   UNL     1     143.868 128.751 101.711  0.00  0.00    +0.000 HD
ATOM     21  H   UNL     1     143.846 127.862 105.012  0.00  0.00    +0.000 HD
ATOM     22  H   UNL     1     146.775 127.532 106.352  0.00  0.00    +0.000 HD
ATOM     23  H   UNL     1     146.446 126.665 104.968  0.00  0.00    +0.000 HD
ENDROOT
TORSDOF 0
ENDMDL
