MODEL 1
REMARK VINA RESULT:    -4.815      0.000      0.000
REMARK INTER + INTRA:          -4.815
REMARK INTER:                  -4.815
REMARK INTRA:                   0.000
REMARK UNBOUND:                 0.000
REMARK  Name = /home/vital/Documents/PhD_2021/Malaria_codes/scripts/../data/pdbqt_ligands/ligand_93_temp.pdb
REMARK                            x       y       z     vdW  Elec       q    Type
REMARK                         _______ _______ _______ _____ _____    ______ ____
ROOT
ATOM      1  C   UNL     1     139.616 125.231 105.566  0.00  0.00    -0.074 C 
ATOM      2  C   UNL     1     140.542 125.793 104.773  0.00  0.00    +0.065 C 
ATOM      3  N   UNL     1     140.369 126.468 103.602  0.00  0.00    -0.213 NA
ATOM      4  C   UNL     1     141.590 126.864 103.143  0.00  0.00    +0.069 C 
ATOM      5  C   UNL     1     141.893 127.553 102.028  0.00  0.00    +0.019 C 
ATOM      6  N   UNL     1     143.122 127.955 101.576  0.00  0.00    -0.294 N 
ATOM      7  C   UNL     1     143.546 128.662 100.488  0.00  0.00    +0.193 C 
ATOM      8 CL   UNL     1     145.265 128.915 100.587  0.00  0.00    -0.045 Cl
ATOM      9  N   UNL     1     143.023 129.182  99.431  0.00  0.00    -0.221 N 
ATOM     10  C   UNL     1     141.654 129.055  99.179  0.00  0.00    +0.070 A 
ATOM     11  C   UNL     1     141.194 127.927  98.487  0.00  0.00    -0.036 A 
ATOM     12  C   UNL     1     139.843 127.780  98.176  0.00  0.00    -0.060 A 
ATOM     13  C   UNL     1     138.938 128.772  98.540  0.00  0.00    -0.061 A 
ATOM     14  C   UNL     1     139.386 129.912  99.208  0.00  0.00    -0.057 A 
ATOM     15  C   UNL     1     140.746 130.070  99.531  0.00  0.00    -0.022 A 
ATOM     16  C   UNL     1     141.190 131.324 100.246  0.00  0.00    -0.024 C 
ATOM     17  C   UNL     1     141.377 132.517  99.309  0.00  0.00    -0.026 C 
ATOM     18  C   UNL     1     142.592 132.387  98.398  0.00  0.00    +0.045 C 
ATOM     19  O   UNL     1     142.702 133.564  97.597  0.00  0.00    -0.395 OA
ATOM     20  C   UNL     1     142.590 126.406 104.086  0.00  0.00    -0.017 C 
ATOM     21  C   UNL     1     141.960 125.764 105.065  0.00  0.00    +0.065 C 
ATOM     22 CL   UNL     1     142.715 125.046 106.407  0.00  0.00    -0.082 Cl
ATOM     23  H   UNL     1     139.506 126.641 103.160  0.00  0.00    +0.000 HD
ATOM     24  H   UNL     1     140.013 125.924 102.863  0.00  0.00    +0.000 HD
ATOM     25  H   UNL     1     143.859 127.672 102.163  0.00  0.00    +0.000 HD
ATOM     26  H   UNL     1     143.593 129.673  98.797  0.00  0.00    +0.000 HD
ATOM     27  H   UNL     1     141.899 133.666  97.062  0.00  0.00    +0.000 HD
ENDROOT
TORSDOF 0
ENDMDL
MODEL 2
REMARK VINA RESULT:    -4.417      0.787      0.816
REMARK INTER + INTRA:          -4.417
REMARK INTER:                  -4.417
REMARK INTRA:                   0.000
REMARK UNBOUND:                 0.000
REMARK  Name = /home/vital/Documents/PhD_2021/Malaria_codes/scripts/../data/pdbqt_ligands/ligand_93_temp.pdb
REMARK                            x       y       z     vdW  Elec       q    Type
REMARK                         _______ _______ _______ _____ _____    ______ ____
ROOT
ATOM      1  C   UNL     1     140.901 125.624 106.260  0.00  0.00    -0.074 C 
ATOM      2  C   UNL     1     141.642 126.034 105.219  0.00  0.00    +0.065 C 
ATOM      3  N   UNL     1     141.245 126.685 104.090  0.00  0.00    -0.213 NA
ATOM      4  C   UNL     1     142.338 126.902 103.305  0.00  0.00    +0.069 C 
ATOM      5  C   UNL     1     142.413 127.509 102.106  0.00  0.00    +0.019 C 
ATOM      6  N   UNL     1     143.516 127.731 101.325  0.00  0.00    -0.294 N 
ATOM      7  C   UNL     1     143.715 128.339 100.120  0.00  0.00    +0.193 C 
ATOM      8 CL   UNL     1     145.417 128.370  99.753  0.00  0.00    -0.045 Cl
ATOM      9  N   UNL     1     142.996 128.887  99.202  0.00  0.00    -0.221 N 
ATOM     10  C   UNL     1     141.604 128.931  99.322  0.00  0.00    +0.070 A 
ATOM     11  C   UNL     1     140.848 127.850  98.849  0.00  0.00    -0.036 A 
ATOM     12  C   UNL     1     139.455 127.870  98.910  0.00  0.00    -0.060 A 
ATOM     13  C   UNL     1     138.802 128.983  99.428  0.00  0.00    -0.061 A 
ATOM     14  C   UNL     1     139.540 130.077  99.880  0.00  0.00    -0.057 A 
ATOM     15  C   UNL     1     140.946 130.067  99.828  0.00  0.00    -0.022 A 
ATOM     16  C   UNL     1     141.707 131.276 100.319  0.00  0.00    -0.024 C 
ATOM     17  C   UNL     1     141.777 132.403  99.287  0.00  0.00    -0.026 C 
ATOM     18  C   UNL     1     142.683 132.085  98.103  0.00  0.00    +0.045 C 
ATOM     19  O   UNL     1     142.713 133.209  97.224  0.00  0.00    -0.395 OA
ATOM     20  C   UNL     1     143.492 126.351 103.986  0.00  0.00    -0.017 C 
ATOM     21  C   UNL     1     143.074 125.830 105.134  0.00  0.00    +0.065 C 
ATOM     22 CL   UNL     1     144.068 125.066 106.281  0.00  0.00    -0.082 Cl
ATOM     23  H   UNL     1     140.322 126.954 103.876  0.00  0.00    +0.000 HD
ATOM     24  H   UNL     1     140.645 126.167 103.506  0.00  0.00    +0.000 HD
ATOM     25  H   UNL     1     144.344 127.374 101.719  0.00  0.00    +0.000 HD
ATOM     26  H   UNL     1     143.430 129.278  98.410  0.00  0.00    +0.000 HD
ATOM     27  H   UNL     1     141.815 133.397  96.909  0.00  0.00    +0.000 HD
ENDROOT
TORSDOF 0
ENDMDL
MODEL 3
REMARK VINA RESULT:    -4.112      5.384      8.688
REMARK INTER + INTRA:          -4.112
REMARK INTER:                  -4.112
REMARK INTRA:                   0.000
REMARK UNBOUND:                 0.000
REMARK  Name = /home/vital/Documents/PhD_2021/Malaria_codes/scripts/../data/pdbqt_ligands/ligand_93_temp.pdb
REMARK                            x       y       z     vdW  Elec       q    Type
REMARK                         _______ _______ _______ _____ _____    ______ ____
ROOT
ATOM      1  C   UNL     1     141.658 130.504  91.805  0.00  0.00    -0.074 C 
ATOM      2  C   UNL     1     142.222 131.250  92.767  0.00  0.00    +0.065 C 
ATOM      3  N   UNL     1     142.213 131.056  94.116  0.00  0.00    -0.213 NA
ATOM      4  C   UNL     1     142.915 132.064  94.706  0.00  0.00    +0.069 C 
ATOM      5  C   UNL     1     143.162 132.272  96.012  0.00  0.00    +0.019 C 
ATOM      6  N   UNL     1     143.875 133.284  96.599  0.00  0.00    -0.294 N 
ATOM      7  C   UNL     1     144.204 133.586  97.889  0.00  0.00    +0.193 C 
ATOM      8 CL   UNL     1     145.246 134.980  97.918  0.00  0.00    -0.045 Cl
ATOM      9  N   UNL     1     143.955 133.123  99.065  0.00  0.00    -0.221 N 
ATOM     10  C   UNL     1     143.116 132.017  99.231  0.00  0.00    +0.070 A 
ATOM     11  C   UNL     1     141.736 132.225  99.348  0.00  0.00    -0.036 A 
ATOM     12  C   UNL     1     140.866 131.155  99.557  0.00  0.00    -0.060 A 
ATOM     13  C   UNL     1     141.373 129.865  99.671  0.00  0.00    -0.061 A 
ATOM     14  C   UNL     1     142.748 129.646  99.581  0.00  0.00    -0.057 A 
ATOM     15  C   UNL     1     143.634 130.716  99.365  0.00  0.00    -0.022 A 
ATOM     16  C   UNL     1     145.116 130.437  99.283  0.00  0.00    -0.024 C 
ATOM     17  C   UNL     1     145.778 130.295 100.654  0.00  0.00    -0.026 C 
ATOM     18  C   UNL     1     145.883 131.611 101.415  0.00  0.00    +0.045 C 
ATOM     19  O   UNL     1     146.550 131.380 102.656  0.00  0.00    -0.395 OA
ATOM     20  C   UNL     1     143.391 132.946  93.660  0.00  0.00    -0.017 C 
ATOM     21  C   UNL     1     142.976 132.457  92.497  0.00  0.00    +0.065 C 
ATOM     22 CL   UNL     1     143.289 133.150  90.977  0.00  0.00    -0.082 Cl
ATOM     23  H   UNL     1     141.773 130.311  94.586  0.00  0.00    +0.000 HD
ATOM     24  H   UNL     1     141.325 131.121  94.535  0.00  0.00    +0.000 HD
ATOM     25  H   UNL     1     144.227 133.934  95.949  0.00  0.00    +0.000 HD
ATOM     26  H   UNL     1     144.359 133.551  99.854  0.00  0.00    +0.000 HD
ATOM     27  H   UNL     1     146.045 130.737 103.179  0.00  0.00    +0.000 HD
ENDROOT
TORSDOF 0
ENDMDL
MODEL 4
REMARK VINA RESULT:    -4.059      3.448      7.515
REMARK INTER + INTRA:          -4.059
REMARK INTER:                  -4.059
REMARK INTRA:                   0.000
REMARK UNBOUND:                 0.000
REMARK  Name = /home/vital/Documents/PhD_2021/Malaria_codes/scripts/../data/pdbqt_ligands/ligand_93_temp.pdb
REMARK                            x       y       z     vdW  Elec       q    Type
REMARK                         _______ _______ _______ _____ _____    ______ ____
ROOT
ATOM      1  C   UNL     1     143.529 132.076  93.562  0.00  0.00    -0.074 C 
ATOM      2  C   UNL     1     143.484 131.958  94.899  0.00  0.00    +0.065 C 
ATOM      3  N   UNL     1     142.702 131.141  95.659  0.00  0.00    -0.213 NA
ATOM      4  C   UNL     1     142.995 131.357  96.973  0.00  0.00    +0.069 C 
ATOM      5  C   UNL     1     142.468 130.773  98.065  0.00  0.00    +0.019 C 
ATOM      6  N   UNL     1     142.772 130.989  99.382  0.00  0.00    -0.294 N 
ATOM      7  C   UNL     1     142.325 130.455 100.557  0.00  0.00    +0.193 C 
ATOM      8 CL   UNL     1     143.235 131.117 101.885  0.00  0.00    -0.045 Cl
ATOM      9  N   UNL     1     141.430 129.609 100.935  0.00  0.00    -0.221 N 
ATOM     10  C   UNL     1     140.591 128.995 100.000  0.00  0.00    +0.070 A 
ATOM     11  C   UNL     1     139.400 129.636  99.635  0.00  0.00    -0.036 A 
ATOM     12  C   UNL     1     138.513 129.041  98.738  0.00  0.00    -0.060 A 
ATOM     13  C   UNL     1     138.802 127.786  98.211  0.00  0.00    -0.061 A 
ATOM     14  C   UNL     1     139.972 127.126  98.585  0.00  0.00    -0.057 A 
ATOM     15  C   UNL     1     140.877 127.718  99.485  0.00  0.00    -0.022 A 
ATOM     16  C   UNL     1     142.128 126.964  99.871  0.00  0.00    -0.024 C 
ATOM     17  C   UNL     1     141.887 125.916 100.957  0.00  0.00    -0.026 C 
ATOM     18  C   UNL     1     141.608 126.518 102.329  0.00  0.00    +0.045 C 
ATOM     19  O   UNL     1     141.440 125.463 103.276  0.00  0.00    -0.395 OA
ATOM     20  C   UNL     1     144.023 132.375  97.038  0.00  0.00    -0.017 C 
ATOM     21  C   UNL     1     144.317 132.735  95.793  0.00  0.00    +0.065 C 
ATOM     22 CL   UNL     1     145.471 133.905  95.360  0.00  0.00    -0.082 Cl
ATOM     23  H   UNL     1     142.037 130.501  95.316  0.00  0.00    +0.000 HD
ATOM     24  H   UNL     1     141.737 131.329  95.606  0.00  0.00    +0.000 HD
ATOM     25  H   UNL     1     143.462 131.679  99.510  0.00  0.00    +0.000 HD
ATOM     26  H   UNL     1     141.337 129.392 101.891  0.00  0.00    +0.000 HD
ATOM     27  H   UNL     1     140.697 124.901 103.006  0.00  0.00    +0.000 HD
ENDROOT
TORSDOF 0
ENDMDL
MODEL 5
REMARK VINA RESULT:    -3.880      9.489     10.733
REMARK INTER + INTRA:          -3.880
REMARK INTER:                  -3.880
REMARK INTRA:                   0.000
REMARK UNBOUND:                 0.000
REMARK  Name = /home/vital/Documents/PhD_2021/Malaria_codes/scripts/../data/pdbqt_ligands/ligand_93_temp.pdb
REMARK                            x       y       z     vdW  Elec       q    Type
REMARK                         _______ _______ _______ _____ _____    ______ ____
ROOT
ATOM      1  C   UNL     1     137.040 125.132  89.649  0.00  0.00    -0.074 C 
ATOM      2  C   UNL     1     138.213 125.515  90.176  0.00  0.00    +0.065 C 
ATOM      3  N   UNL     1     138.835 126.724  90.092  0.00  0.00    -0.213 NA
ATOM      4  C   UNL     1     140.008 126.660  90.783  0.00  0.00    +0.069 C 
ATOM      5  C   UNL     1     140.937 127.616  90.964  0.00  0.00    +0.019 C 
ATOM      6  N   UNL     1     142.111 127.548  91.666  0.00  0.00    -0.294 N 
ATOM      7  C   UNL     1     143.109 128.441  91.931  0.00  0.00    +0.193 C 
ATOM      8 CL   UNL     1     144.277 127.716  93.000  0.00  0.00    -0.045 Cl
ATOM      9  N   UNL     1     143.409 129.653  91.611  0.00  0.00    -0.221 N 
ATOM     10  C   UNL     1     142.592 130.381  90.741  0.00  0.00    +0.070 A 
ATOM     11  C   UNL     1     142.811 130.279  89.361  0.00  0.00    -0.036 A 
ATOM     12  C   UNL     1     142.047 131.020  88.459  0.00  0.00    -0.060 A 
ATOM     13  C   UNL     1     141.067 131.887  88.932  0.00  0.00    -0.061 A 
ATOM     14  C   UNL     1     140.856 132.017  90.304  0.00  0.00    -0.057 A 
ATOM     15  C   UNL     1     141.616 131.271  91.224  0.00  0.00    -0.022 A 
ATOM     16  C   UNL     1     141.360 131.449  92.702  0.00  0.00    -0.024 C 
ATOM     17  C   UNL     1     142.047 132.684  93.287  0.00  0.00    -0.026 C 
ATOM     18  C   UNL     1     143.562 132.547  93.379  0.00  0.00    +0.045 C 
ATOM     19  O   UNL     1     144.102 133.728  93.973  0.00  0.00    -0.395 OA
ATOM     20  C   UNL     1     140.128 125.325  91.332  0.00  0.00    -0.017 C 
ATOM     21  C   UNL     1     139.051 124.639  90.969  0.00  0.00    +0.065 C 
ATOM     22 CL   UNL     1     138.740 123.018  91.377  0.00  0.00    -0.082 Cl
ATOM     23  H   UNL     1     138.493 127.513  89.611  0.00  0.00    +0.000 HD
ATOM     24  H   UNL     1     139.118 126.978  89.184  0.00  0.00    +0.000 HD
ATOM     25  H   UNL     1     142.270 126.663  92.066  0.00  0.00    +0.000 HD
ATOM     26  H   UNL     1     144.220 130.069  91.982  0.00  0.00    +0.000 HD
ATOM     27  H   UNL     1     143.873 134.497  93.428  0.00  0.00    +0.000 HD
ENDROOT
TORSDOF 0
ENDMDL
MODEL 6
REMARK VINA RESULT:    -3.796      3.918      5.690
REMARK INTER + INTRA:          -3.796
REMARK INTER:                  -3.796
REMARK INTRA:                   0.000
REMARK UNBOUND:                 0.000
REMARK  Name = /home/vital/Documents/PhD_2021/Malaria_codes/scripts/../data/pdbqt_ligands/ligand_93_temp.pdb
REMARK                            x       y       z     vdW  Elec       q    Type
REMARK                         _______ _______ _______ _____ _____    ______ ____
ROOT
ATOM      1  C   UNL     1     139.694 121.868  96.950  0.00  0.00    -0.074 C 
ATOM      2  C   UNL     1     140.319 123.052  96.859  0.00  0.00    +0.065 C 
ATOM      3  N   UNL     1     140.178 124.157  97.645  0.00  0.00    -0.213 NA
ATOM      4  C   UNL     1     141.015 125.129  97.184  0.00  0.00    +0.069 C 
ATOM      5  C   UNL     1     141.203 126.376  97.654  0.00  0.00    +0.019 C 
ATOM      6  N   UNL     1     142.052 127.346  97.191  0.00  0.00    -0.294 N 
ATOM      7  C   UNL     1     142.339 128.620  97.588  0.00  0.00    +0.193 C 
ATOM      8 CL   UNL     1     143.622 129.266  96.604  0.00  0.00    -0.045 Cl
ATOM      9  N   UNL     1     141.923 129.454  98.478  0.00  0.00    -0.221 N 
ATOM     10  C   UNL     1     140.880 129.109  99.342  0.00  0.00    +0.070 A 
ATOM     11  C   UNL     1     139.559 129.345  98.938  0.00  0.00    -0.036 A 
ATOM     12  C   UNL     1     138.490 129.056  99.785  0.00  0.00    -0.060 A 
ATOM     13  C   UNL     1     138.733 128.545 101.056  0.00  0.00    -0.061 A 
ATOM     14  C   UNL     1     140.044 128.329 101.481  0.00  0.00    -0.057 A 
ATOM     15  C   UNL     1     141.131 128.611 100.634  0.00  0.00    -0.022 A 
ATOM     16  C   UNL     1     142.535 128.372 101.137  0.00  0.00    -0.024 C 
ATOM     17  C   UNL     1     143.059 129.503 102.022  0.00  0.00    -0.026 C 
ATOM     18  C   UNL     1     143.357 130.785 101.253  0.00  0.00    +0.045 C 
ATOM     19  O   UNL     1     143.878 131.760 102.157  0.00  0.00    -0.395 OA
ATOM     20  C   UNL     1     141.723 124.600  96.037  0.00  0.00    -0.017 C 
ATOM     21  C   UNL     1     141.306 123.353  95.843  0.00  0.00    +0.065 C 
ATOM     22 CL   UNL     1     141.852 122.320  94.609  0.00  0.00    -0.082 Cl
ATOM     23  H   UNL     1     139.572 124.239  98.417  0.00  0.00    +0.000 HD
ATOM     24  H   UNL     1     139.290 124.581  97.602  0.00  0.00    +0.000 HD
ATOM     25  H   UNL     1     142.566 127.063  96.401  0.00  0.00    +0.000 HD
ATOM     26  H   UNL     1     142.344 130.341  98.551  0.00  0.00    +0.000 HD
ATOM     27  H   UNL     1     143.224 131.937 102.851  0.00  0.00    +0.000 HD
ENDROOT
TORSDOF 0
ENDMDL
MODEL 7
REMARK VINA RESULT:    -3.754      9.248     10.903
REMARK INTER + INTRA:          -3.754
REMARK INTER:                  -3.754
REMARK INTRA:                   0.000
REMARK UNBOUND:                 0.000
REMARK  Name = /home/vital/Documents/PhD_2021/Malaria_codes/scripts/../data/pdbqt_ligands/ligand_93_temp.pdb
REMARK                            x       y       z     vdW  Elec       q    Type
REMARK                         _______ _______ _______ _____ _____    ______ ____
ROOT
ATOM      1  C   UNL     1     142.155 124.597  93.367  0.00  0.00    -0.074 C 
ATOM      2  C   UNL     1     141.516 125.566  92.692  0.00  0.00    +0.065 C 
ATOM      3  N   UNL     1     141.812 126.894  92.618  0.00  0.00    -0.213 NA
ATOM      4  C   UNL     1     140.892 127.501  91.816  0.00  0.00    +0.069 C 
ATOM      5  C   UNL     1     140.798 128.797  91.465  0.00  0.00    +0.019 C 
ATOM      6  N   UNL     1     139.875 129.400  90.653  0.00  0.00    -0.294 N 
ATOM      7  C   UNL     1     139.690 130.680  90.217  0.00  0.00    +0.193 C 
ATOM      8 CL   UNL     1     138.361 130.731  89.093  0.00  0.00    -0.045 Cl
ATOM      9  N   UNL     1     140.228 131.835  90.409  0.00  0.00    -0.221 N 
ATOM     10  C   UNL     1     141.295 131.983  91.300  0.00  0.00    +0.070 A 
ATOM     11  C   UNL     1     141.021 132.218  92.653  0.00  0.00    -0.036 A 
ATOM     12  C   UNL     1     142.055 132.414  93.569  0.00  0.00    -0.060 A 
ATOM     13  C   UNL     1     143.376 132.396  93.134  0.00  0.00    -0.061 A 
ATOM     14  C   UNL     1     143.662 132.187  91.785  0.00  0.00    -0.057 A 
ATOM     15  C   UNL     1     142.629 131.983  90.852  0.00  0.00    -0.022 A 
ATOM     16  C   UNL     1     142.982 131.771  89.399  0.00  0.00    -0.024 C 
ATOM     17  C   UNL     1     143.265 133.075  88.652  0.00  0.00    -0.026 C 
ATOM     18  C   UNL     1     142.018 133.919  88.414  0.00  0.00    +0.045 C 
ATOM     19  O   UNL     1     142.379 135.087  87.677  0.00  0.00    -0.395 OA
ATOM     20  C   UNL     1     139.960 126.489  91.363  0.00  0.00    -0.017 C 
ATOM     21  C   UNL     1     140.335 125.328  91.888  0.00  0.00    +0.065 C 
ATOM     22 CL   UNL     1     139.547 123.842  91.642  0.00  0.00    -0.082 Cl
ATOM     23  H   UNL     1     142.566 127.341  93.068  0.00  0.00    +0.000 HD
ATOM     24  H   UNL     1     141.731 127.382  93.469  0.00  0.00    +0.000 HD
ATOM     25  H   UNL     1     139.197 128.774  90.309  0.00  0.00    +0.000 HD
ATOM     26  H   UNL     1     139.883 132.620  89.925  0.00  0.00    +0.000 HD
ATOM     27  H   UNL     1     143.032 135.598  88.181  0.00  0.00    +0.000 HD
ENDROOT
TORSDOF 0
ENDMDL
MODEL 8
REMARK VINA RESULT:    -3.407      4.225      8.250
REMARK INTER + INTRA:          -3.407
REMARK INTER:                  -3.407
REMARK INTRA:                   0.000
REMARK UNBOUND:                 0.000
REMARK  Name = /home/vital/Documents/PhD_2021/Malaria_codes/scripts/../data/pdbqt_ligands/ligand_93_temp.pdb
REMARK                            x       y       z     vdW  Elec       q    Type
REMARK                         _______ _______ _______ _____ _____    ______ ____
ROOT
ATOM      1  C   UNL     1     141.971 132.465  92.353  0.00  0.00    -0.074 C 
ATOM      2  C   UNL     1     142.657 132.427  93.507  0.00  0.00    +0.065 C 
ATOM      3  N   UNL     1     142.298 131.871  94.698  0.00  0.00    -0.213 NA
ATOM      4  C   UNL     1     143.306 132.071  95.593  0.00  0.00    +0.069 C 
ATOM      5  C   UNL     1     143.381 131.693  96.883  0.00  0.00    +0.019 C 
ATOM      6  N   UNL     1     144.400 131.890  97.776  0.00  0.00    -0.294 N 
ATOM      7  C   UNL     1     144.595 131.544  99.082  0.00  0.00    +0.193 C 
ATOM      8 CL   UNL     1     146.193 132.020  99.583  0.00  0.00    -0.045 Cl
ATOM      9  N   UNL     1     143.926 130.969 100.021  0.00  0.00    -0.221 N 
ATOM     10  C   UNL     1     142.614 130.541  99.800  0.00  0.00    +0.070 A 
ATOM     11  C   UNL     1     141.562 131.441 100.013  0.00  0.00    -0.036 A 
ATOM     12  C   UNL     1     140.236 131.044  99.845  0.00  0.00    -0.060 A 
ATOM     13  C   UNL     1     139.947 129.733  99.481  0.00  0.00    -0.061 A 
ATOM     14  C   UNL     1     140.984 128.819  99.291  0.00  0.00    -0.057 A 
ATOM     15  C   UNL     1     142.326 129.209  99.451  0.00  0.00    -0.022 A 
ATOM     16  C   UNL     1     143.417 128.185  99.245  0.00  0.00    -0.024 C 
ATOM     17  C   UNL     1     143.636 127.285 100.461  0.00  0.00    -0.026 C 
ATOM     18  C   UNL     1     144.283 128.005 101.638  0.00  0.00    +0.045 C 
ATOM     19  O   UNL     1     144.483 127.074 102.702  0.00  0.00    -0.395 OA
ATOM     20  C   UNL     1     144.362 132.800  94.920  0.00  0.00    -0.017 C 
ATOM     21  C   UNL     1     143.972 133.013  93.668  0.00  0.00    +0.065 C 
ATOM     22 CL   UNL     1     144.880 133.833  92.488  0.00  0.00    -0.082 Cl
ATOM     23  H   UNL     1     141.452 131.403  94.881  0.00  0.00    +0.000 HD
ATOM     24  H   UNL     1     141.522 132.293  95.131  0.00  0.00    +0.000 HD
ATOM     25  H   UNL     1     145.157 132.390  97.392  0.00  0.00    +0.000 HD
ATOM     26  H   UNL     1     144.343 130.830 100.902  0.00  0.00    +0.000 HD
ATOM     27  H   UNL     1     143.627 126.704 102.972  0.00  0.00    +0.000 HD
ENDROOT
TORSDOF 0
ENDMDL
MODEL 9
REMARK VINA RESULT:    -3.380      2.702      2.778
REMARK INTER + INTRA:          -3.380
REMARK INTER:                  -3.380
REMARK INTRA:                   0.000
REMARK UNBOUND:                 0.000
REMARK  Name = /home/vital/Documents/PhD_2021/Malaria_codes/scripts/../data/pdbqt_ligands/ligand_93_temp.pdb
REMARK                            x       y       z     vdW  Elec       q    Type
REMARK                         _______ _______ _______ _____ _____    ______ ____
ROOT
ATOM      1  C   UNL     1     141.098 121.942 102.587  0.00  0.00    -0.074 C 
ATOM      2  C   UNL     1     141.754 122.897 101.909  0.00  0.00    +0.065 C 
ATOM      3  N   UNL     1     141.253 124.002 101.288  0.00  0.00    -0.213 NA
ATOM      4  C   UNL     1     142.286 124.692 100.726  0.00  0.00    +0.069 C 
ATOM      5  C   UNL     1     142.255 125.837 100.020  0.00  0.00    +0.019 C 
ATOM      6  N   UNL     1     143.298 126.530  99.465  0.00  0.00    -0.294 N 
ATOM      7  C   UNL     1     143.391 127.691  98.754  0.00  0.00    +0.193 C 
ATOM      8 CL   UNL     1     145.065 128.059  98.448  0.00  0.00    -0.045 Cl
ATOM      9  N   UNL     1     142.587 128.570  98.261  0.00  0.00    -0.221 N 
ATOM     10  C   UNL     1     141.204 128.421  98.393  0.00  0.00    +0.070 A 
ATOM     11  C   UNL     1     140.507 127.681  97.430  0.00  0.00    -0.036 A 
ATOM     12  C   UNL     1     139.120 127.542  97.499  0.00  0.00    -0.060 A 
ATOM     13  C   UNL     1     138.415 128.161  98.526  0.00  0.00    -0.061 A 
ATOM     14  C   UNL     1     139.093 128.921  99.478  0.00  0.00    -0.057 A 
ATOM     15  C   UNL     1     140.492 129.064  99.422  0.00  0.00    -0.022 A 
ATOM     16  C   UNL     1     141.186 129.905 100.467  0.00  0.00    -0.024 C 
ATOM     17  C   UNL     1     141.121 131.404 100.175  0.00  0.00    -0.026 C 
ATOM     18  C   UNL     1     141.986 131.830  98.995  0.00  0.00    +0.045 C 
ATOM     19  O   UNL     1     141.889 133.245  98.832  0.00  0.00    -0.395 OA
ATOM     20  C   UNL     1     143.510 123.972 101.013  0.00  0.00    -0.017 C 
ATOM     21  C   UNL     1     143.190 122.896 101.723  0.00  0.00    +0.065 C 
ATOM     22 CL   UNL     1     144.295 121.739 102.296  0.00  0.00    -0.082 Cl
ATOM     23  H   UNL     1     140.303 124.259 101.251  0.00  0.00    +0.000 HD
ATOM     24  H   UNL     1     140.664 123.812 100.523  0.00  0.00    +0.000 HD
ATOM     25  H   UNL     1     144.169 126.096  99.610  0.00  0.00    +0.000 HD
ATOM     26  H   UNL     1     142.951 129.352  97.787  0.00  0.00    +0.000 HD
ATOM     27  H   UNL     1     140.965 133.488  98.667  0.00  0.00    +0.000 HD
ENDROOT
TORSDOF 0
ENDMDL
