MODEL 1
REMARK VINA RESULT:    -4.217      0.000      0.000
REMARK INTER + INTRA:          -4.217
REMARK INTER:                  -4.217
REMARK INTRA:                   0.000
REMARK UNBOUND:                 0.000
REMARK  Name = /home/vital/Documents/PhD_2021/Malaria_codes/scripts/../data/pdbqt_ligands/ligand_144_temp.pdb
REMARK                            x       y       z     vdW  Elec       q    Type
REMARK                         _______ _______ _______ _____ _____    ______ ____
ROOT
ATOM      1  C1  UNL     1     144.910 131.694  97.349  0.00  0.00    -0.038 C 
ATOM      2  C2  UNL     1     144.862 130.632  98.411  0.00  0.00    -0.027 C 
ATOM      3  C3  UNL     1     144.391 129.376  98.248  0.00  0.00    -0.056 C 
ATOM      4  C4  UNL     1     143.545 128.860  97.118  0.00  0.00    +0.079 C 
ATOM      5  N1  UNL     1     142.202 128.610  97.697  0.00  0.00    -0.183 NA
ATOM      6  N2  UNL     1     141.587 129.679  97.924  0.00  0.00    -0.154 NA
ATOM      7  C5  UNL     1     140.619 129.512  98.937  0.00  0.00    +0.095 A 
ATOM      8  C6  UNL     1     139.589 128.568  98.819  0.00  0.00    -0.034 A 
ATOM      9  C7  UNL     1     138.631 128.424  99.828  0.00  0.00    -0.060 A 
ATOM     10  C8  UNL     1     138.681 129.228 100.966  0.00  0.00    -0.061 A 
ATOM     11  C9  UNL     1     139.688 130.183 101.102  0.00  0.00    -0.050 A 
ATOM     12  C10 UNL     1     140.649 130.318 100.093  0.00  0.00    +0.027 A 
ATOM     13  C11 UNL     1     141.679 131.369 100.245  0.00  0.00    +0.072 C 
ATOM     14  N3  UNL     1     141.564 132.520  99.663  0.00  0.00    -0.298 NA
ATOM     15  C12 UNL     1     142.844 131.030 101.104  0.00  0.00    +0.007 C 
ATOM     16  C13 UNL     1     144.029 131.119 100.571  0.00  0.00    -0.098 C 
ATOM     17  C14 UNL     1     145.065 131.095  99.779  0.00  0.00    +0.086 C 
ATOM     18 CL1  UNL     1     146.432 132.014 100.234  0.00  0.00    -0.074 Cl
ATOM     19  H   UNL     1     140.779 132.711  99.101  0.00  0.00    +0.000 HD
ENDROOT
TORSDOF 0
ENDMDL
MODEL 2
REMARK VINA RESULT:    -3.884      5.735      8.012
REMARK INTER + INTRA:          -3.884
REMARK INTER:                  -3.884
REMARK INTRA:                   0.000
REMARK UNBOUND:                 0.000
REMARK  Name = /home/vital/Documents/PhD_2021/Malaria_codes/scripts/../data/pdbqt_ligands/ligand_144_temp.pdb
REMARK                            x       y       z     vdW  Elec       q    Type
REMARK                         _______ _______ _______ _____ _____    ______ ____
ROOT
ATOM      1  C1  UNL     1     141.318 127.687  95.929  0.00  0.00    -0.038 C 
ATOM      2  C2  UNL     1     142.181 127.604  94.701  0.00  0.00    -0.027 C 
ATOM      3  C3  UNL     1     143.284 128.347  94.463  0.00  0.00    -0.056 C 
ATOM      4  C4  UNL     1     143.710 129.599  95.176  0.00  0.00    +0.079 C 
ATOM      5  N1  UNL     1     143.527 130.704  94.204  0.00  0.00    -0.183 NA
ATOM      6  N2  UNL     1     142.316 130.982  94.038  0.00  0.00    -0.154 NA
ATOM      7  C5  UNL     1     142.092 131.584  92.781  0.00  0.00    +0.095 A 
ATOM      8  C6  UNL     1     142.746 132.766  92.407  0.00  0.00    -0.034 A 
ATOM      9  C7  UNL     1     142.504 133.355  91.162  0.00  0.00    -0.060 A 
ATOM     10  C8  UNL     1     141.595 132.778  90.275  0.00  0.00    -0.061 A 
ATOM     11  C9  UNL     1     140.922 131.609  90.629  0.00  0.00    -0.050 A 
ATOM     12  C10 UNL     1     141.174 131.019  91.873  0.00  0.00    +0.027 A 
ATOM     13  C11 UNL     1     140.412 129.805  92.237  0.00  0.00    +0.072 C 
ATOM     14  N3  UNL     1     139.359 129.864  92.987  0.00  0.00    -0.298 NA
ATOM     15  C12 UNL     1     140.923 128.519  91.691  0.00  0.00    +0.007 C 
ATOM     16  C13 UNL     1     141.213 127.577  92.543  0.00  0.00    -0.098 C 
ATOM     17  C14 UNL     1     141.608 126.880  93.572  0.00  0.00    +0.086 C 
ATOM     18 CL1  UNL     1     141.019 125.283  93.721  0.00  0.00    -0.074 Cl
ATOM     19  H   UNL     1     139.049 130.732  93.332  0.00  0.00    +0.000 HD
ENDROOT
TORSDOF 0
ENDMDL
MODEL 3
REMARK VINA RESULT:    -3.881      3.950      4.949
REMARK INTER + INTRA:          -3.881
REMARK INTER:                  -3.881
REMARK INTRA:                   0.000
REMARK UNBOUND:                 0.000
REMARK  Name = /home/vital/Documents/PhD_2021/Malaria_codes/scripts/../data/pdbqt_ligands/ligand_144_temp.pdb
REMARK                            x       y       z     vdW  Elec       q    Type
REMARK                         _______ _______ _______ _____ _____    ______ ____
ROOT
ATOM      1  C1  UNL     1     144.138 125.299 103.523  0.00  0.00    -0.038 C 
ATOM      2  C2  UNL     1     143.598 126.592 104.067  0.00  0.00    -0.027 C 
ATOM      3  C3  UNL     1     142.302 126.841 104.360  0.00  0.00    -0.056 C 
ATOM      4  C4  UNL     1     141.102 126.047 103.931  0.00  0.00    +0.079 C 
ATOM      5  N1  UNL     1     140.384 126.893 102.946  0.00  0.00    -0.183 NA
ATOM      6  N2  UNL     1     140.986 126.939 101.846  0.00  0.00    -0.154 NA
ATOM      7  C5  UNL     1     140.665 128.112 101.131  0.00  0.00    +0.095 A 
ATOM      8  C6  UNL     1     139.342 128.421 100.785  0.00  0.00    -0.034 A 
ATOM      9  C7  UNL     1     139.042 129.582 100.066  0.00  0.00    -0.060 A 
ATOM     10  C8  UNL     1     140.062 130.448  99.670  0.00  0.00    -0.061 A 
ATOM     11  C9  UNL     1     141.387 130.157  99.991  0.00  0.00    -0.050 A 
ATOM     12  C10 UNL     1     141.681 128.997 100.719  0.00  0.00    +0.027 A 
ATOM     13  C11 UNL     1     143.100 128.693 101.005  0.00  0.00    +0.072 C 
ATOM     14  N3  UNL     1     143.776 127.863 100.278  0.00  0.00    -0.298 NA
ATOM     15  C12 UNL     1     143.702 129.397 102.169  0.00  0.00    +0.007 C 
ATOM     16  C13 UNL     1     144.223 128.662 103.111  0.00  0.00    -0.098 C 
ATOM     17  C14 UNL     1     144.496 127.737 103.989  0.00  0.00    +0.086 C 
ATOM     18 CL1  UNL     1     146.079 127.697 104.631  0.00  0.00    -0.074 Cl
ATOM     19  H   UNL     1     143.346 127.414  99.515  0.00  0.00    +0.000 HD
ENDROOT
TORSDOF 0
ENDMDL
MODEL 4
REMARK VINA RESULT:    -3.846      4.056      4.814
REMARK INTER + INTRA:          -3.846
REMARK INTER:                  -3.846
REMARK INTRA:                   0.000
REMARK UNBOUND:                 0.000
REMARK  Name = /home/vital/Documents/PhD_2021/Malaria_codes/scripts/../data/pdbqt_ligands/ligand_144_temp.pdb
REMARK                            x       y       z     vdW  Elec       q    Type
REMARK                         _______ _______ _______ _____ _____    ______ ____
ROOT
ATOM      1  C1  UNL     1     145.299 127.729 104.321  0.00  0.00    -0.038 C 
ATOM      2  C2  UNL     1     145.089 127.294 102.898  0.00  0.00    -0.027 C 
ATOM      3  C3  UNL     1     145.250 128.072 101.805  0.00  0.00    -0.056 C 
ATOM      4  C4  UNL     1     145.353 129.570 101.761  0.00  0.00    +0.079 C 
ATOM      5  N1  UNL     1     144.095 130.046 101.136  0.00  0.00    -0.183 NA
ATOM      6  N2  UNL     1     143.119 129.945 101.917  0.00  0.00    -0.154 NA
ATOM      7  C5  UNL     1     141.901 129.848 101.212  0.00  0.00    +0.095 A 
ATOM      8  C6  UNL     1     141.491 130.845 100.316  0.00  0.00    -0.034 A 
ATOM      9  C7  UNL     1     140.275 130.739  99.634  0.00  0.00    -0.060 A 
ATOM     10  C8  UNL     1     139.443 129.639  99.845  0.00  0.00    -0.061 A 
ATOM     11  C9  UNL     1     139.822 128.640 100.741  0.00  0.00    -0.050 A 
ATOM     12  C10 UNL     1     141.045 128.747 101.415  0.00  0.00    +0.027 A 
ATOM     13  C11 UNL     1     141.399 127.693 102.391  0.00  0.00    +0.072 C 
ATOM     14  N3  UNL     1     141.202 127.852 103.661  0.00  0.00    -0.298 NA
ATOM     15  C12 UNL     1     141.987 126.448 101.831  0.00  0.00    +0.007 C 
ATOM     16  C13 UNL     1     143.156 126.083 102.276  0.00  0.00    -0.098 C 
ATOM     17  C14 UNL     1     144.381 126.032 102.720  0.00  0.00    +0.086 C 
ATOM     18 CL1  UNL     1     144.890 124.589 103.479  0.00  0.00    -0.074 Cl
ATOM     19  H   UNL     1     140.811 128.690 103.997  0.00  0.00    +0.000 HD
ENDROOT
TORSDOF 0
ENDMDL
MODEL 5
REMARK VINA RESULT:    -3.745      4.029      5.290
REMARK INTER + INTRA:          -3.745
REMARK INTER:                  -3.745
REMARK INTRA:                   0.000
REMARK UNBOUND:                 0.000
REMARK  Name = /home/vital/Documents/PhD_2021/Malaria_codes/scripts/../data/pdbqt_ligands/ligand_144_temp.pdb
REMARK                            x       y       z     vdW  Elec       q    Type
REMARK                         _______ _______ _______ _____ _____    ______ ____
ROOT
ATOM      1  C1  UNL     1     143.140 126.159 103.906  0.00  0.00    -0.038 C 
ATOM      2  C2  UNL     1     143.418 126.213 102.430  0.00  0.00    -0.027 C 
ATOM      3  C3  UNL     1     144.383 126.951 101.837  0.00  0.00    -0.056 C 
ATOM      4  C4  UNL     1     145.159 128.087 102.439  0.00  0.00    +0.079 C 
ATOM      5  N1  UNL     1     144.682 129.314 101.754  0.00  0.00    -0.183 NA
ATOM      6  N2  UNL     1     143.534 129.643 102.135  0.00  0.00    -0.154 NA
ATOM      7  C5  UNL     1     142.865 130.408 101.156  0.00  0.00    +0.095 A 
ATOM      8  C6  UNL     1     143.400 131.610 100.673  0.00  0.00    -0.034 A 
ATOM      9  C7  UNL     1     142.718 132.362  99.710  0.00  0.00    -0.060 A 
ATOM     10  C8  UNL     1     141.485 131.929  99.223  0.00  0.00    -0.061 A 
ATOM     11  C9  UNL     1     140.925 130.743  99.697  0.00  0.00    -0.050 A 
ATOM     12  C10 UNL     1     141.616 129.990 100.654  0.00  0.00    +0.027 A 
ATOM     13  C11 UNL     1     140.977 128.760 101.170  0.00  0.00    +0.072 C 
ATOM     14  N3  UNL     1     140.329 128.751 102.290  0.00  0.00    -0.298 NA
ATOM     15  C12 UNL     1     141.118 127.543 100.327  0.00  0.00    +0.007 C 
ATOM     16  C13 UNL     1     141.657 126.491 100.877  0.00  0.00    -0.098 C 
ATOM     17  C14 UNL     1     142.381 125.657 101.570  0.00  0.00    +0.086 C 
ATOM     18 CL1  UNL     1     141.781 124.070 101.777  0.00  0.00    -0.074 Cl
ATOM     19  H   UNL     1     140.255 129.575 102.823  0.00  0.00    +0.000 HD
ENDROOT
TORSDOF 0
ENDMDL
MODEL 6
REMARK VINA RESULT:    -3.619      2.771      5.576
REMARK INTER + INTRA:          -3.619
REMARK INTER:                  -3.619
REMARK INTRA:                   0.000
REMARK UNBOUND:                 0.000
REMARK  Name = /home/vital/Documents/PhD_2021/Malaria_codes/scripts/../data/pdbqt_ligands/ligand_144_temp.pdb
REMARK                            x       y       z     vdW  Elec       q    Type
REMARK                         _______ _______ _______ _____ _____    ______ ____
ROOT
ATOM      1  C1  UNL     1     138.337 128.582  98.192  0.00  0.00    -0.038 C 
ATOM      2  C2  UNL     1     139.213 127.872  99.185  0.00  0.00    -0.027 C 
ATOM      3  C3  UNL     1     139.487 128.297 100.439  0.00  0.00    -0.056 C 
ATOM      4  C4  UNL     1     139.261 129.671 101.003  0.00  0.00    +0.079 C 
ATOM      5  N1  UNL     1     140.610 130.262 101.188  0.00  0.00    -0.183 NA
ATOM      6  N2  UNL     1     141.128 130.588 100.094  0.00  0.00    -0.154 NA
ATOM      7  C5  UNL     1     142.537 130.611 100.177  0.00  0.00    +0.095 A 
ATOM      8  C6  UNL     1     143.203 131.425 101.103  0.00  0.00    -0.034 A 
ATOM      9  C7  UNL     1     144.601 131.444 101.164  0.00  0.00    -0.060 A 
ATOM     10  C8  UNL     1     145.355 130.657 100.293  0.00  0.00    -0.061 A 
ATOM     11  C9  UNL     1     144.715 129.848  99.354  0.00  0.00    -0.050 A 
ATOM     12  C10 UNL     1     143.316 129.826  99.302  0.00  0.00    +0.027 A 
ATOM     13  C11 UNL     1     142.668 128.992  98.267  0.00  0.00    +0.072 C 
ATOM     14  N3  UNL     1     142.250 129.499  97.152  0.00  0.00    -0.298 NA
ATOM     15  C12 UNL     1     142.530 127.545  98.579  0.00  0.00    +0.007 C 
ATOM     16  C13 UNL     1     141.332 127.035  98.550  0.00  0.00    -0.098 C 
ATOM     17  C14 UNL     1     140.051 126.808  98.645  0.00  0.00    +0.086 C 
ATOM     18 CL1  UNL     1     139.405 125.518  97.731  0.00  0.00    -0.074 Cl
ATOM     19  H   UNL     1     142.357 130.462  96.978  0.00  0.00    +0.000 HD
ENDROOT
TORSDOF 0
ENDMDL
MODEL 7
REMARK VINA RESULT:    -3.550      3.206      4.824
REMARK INTER + INTRA:          -3.550
REMARK INTER:                  -3.550
REMARK INTRA:                   0.000
REMARK UNBOUND:                 0.000
REMARK  Name = /home/vital/Documents/PhD_2021/Malaria_codes/scripts/../data/pdbqt_ligands/ligand_144_temp.pdb
REMARK                            x       y       z     vdW  Elec       q    Type
REMARK                         _______ _______ _______ _____ _____    ______ ____
ROOT
ATOM      1  C1  UNL     1     145.484 128.174 103.366  0.00  0.00    -0.038 C 
ATOM      2  C2  UNL     1     144.545 127.826 102.245  0.00  0.00    -0.027 C 
ATOM      3  C3  UNL     1     144.892 127.662 100.949  0.00  0.00    -0.056 C 
ATOM      4  C4  UNL     1     146.173 128.085 100.289  0.00  0.00    +0.079 C 
ATOM      5  N1  UNL     1     145.817 129.213  99.394  0.00  0.00    -0.183 NA
ATOM      6  N2  UNL     1     145.579 130.262 100.039  0.00  0.00    -0.154 NA
ATOM      7  C5  UNL     1     144.733 131.131  99.317  0.00  0.00    +0.095 A 
ATOM      8  C6  UNL     1     145.085 131.609  98.047  0.00  0.00    -0.034 A 
ATOM      9  C7  UNL     1     144.240 132.479  97.350  0.00  0.00    -0.060 A 
ATOM     10  C8  UNL     1     143.035 132.894  97.917  0.00  0.00    -0.061 A 
ATOM     11  C9  UNL     1     142.668 132.443  99.184  0.00  0.00    -0.050 A 
ATOM     12  C10 UNL     1     143.514 131.565  99.874  0.00  0.00    +0.027 A 
ATOM     13  C11 UNL     1     143.118 131.139 101.234  0.00  0.00    +0.072 C 
ATOM     14  N3  UNL     1     143.599 131.713 102.291  0.00  0.00    -0.298 NA
ATOM     15  C12 UNL     1     142.139 130.023 101.316  0.00  0.00    +0.007 C 
ATOM     16  C13 UNL     1     142.488 128.966 101.992  0.00  0.00    -0.098 C 
ATOM     17  C14 UNL     1     143.125 127.969 102.542  0.00  0.00    +0.086 C 
ATOM     18 CL1  UNL     1     142.396 127.209 103.887  0.00  0.00    -0.074 Cl
ATOM     19  H   UNL     1     144.246 132.449 102.200  0.00  0.00    +0.000 HD
ENDROOT
TORSDOF 0
ENDMDL
MODEL 8
REMARK VINA RESULT:    -3.418      2.745      5.268
REMARK INTER + INTRA:          -3.418
REMARK INTER:                  -3.418
REMARK INTRA:                   0.000
REMARK UNBOUND:                 0.000
REMARK  Name = /home/vital/Documents/PhD_2021/Malaria_codes/scripts/../data/pdbqt_ligands/ligand_144_temp.pdb
REMARK                            x       y       z     vdW  Elec       q    Type
REMARK                         _______ _______ _______ _____ _____    ______ ____
ROOT
ATOM      1  C1  UNL     1     141.309 127.933 102.321  0.00  0.00    -0.038 C 
ATOM      2  C2  UNL     1     141.146 128.442 100.916  0.00  0.00    -0.027 C 
ATOM      3  C3  UNL     1     141.832 128.005  99.837  0.00  0.00    -0.056 C 
ATOM      4  C4  UNL     1     143.087 127.179  99.828  0.00  0.00    +0.079 C 
ATOM      5  N1  UNL     1     144.165 128.083  99.358  0.00  0.00    -0.183 NA
ATOM      6  N2  UNL     1     144.491 128.915 100.237  0.00  0.00    -0.154 NA
ATOM      7  C5  UNL     1     145.059 130.074  99.666  0.00  0.00    +0.095 A 
ATOM      8  C6  UNL     1     146.197 130.007  98.851  0.00  0.00    -0.034 A 
ATOM      9  C7  UNL     1     146.754 131.167  98.302  0.00  0.00    -0.060 A 
ATOM     10  C8  UNL     1     146.188 132.414  98.569  0.00  0.00    -0.061 A 
ATOM     11  C9  UNL     1     145.063 132.508  99.387  0.00  0.00    -0.050 A 
ATOM     12  C10 UNL     1     144.504 131.343  99.927  0.00  0.00    +0.027 A 
ATOM     13  C11 UNL     1     143.338 131.480 100.826  0.00  0.00    +0.072 C 
ATOM     14  N3  UNL     1     143.470 131.471 102.114  0.00  0.00    -0.298 NA
ATOM     15  C12 UNL     1     142.013 131.631 100.167  0.00  0.00    +0.007 C 
ATOM     16  C13 UNL     1     141.089 130.764 100.471  0.00  0.00    -0.098 C 
ATOM     17  C14 UNL     1     140.411 129.693 100.778  0.00  0.00    +0.086 C 
ATOM     18 CL1  UNL     1     138.847 129.906 101.433  0.00  0.00    -0.074 Cl
ATOM     19  H   UNL     1     144.362 131.369 102.516  0.00  0.00    +0.000 HD
ENDROOT
TORSDOF 0
ENDMDL
MODEL 9
REMARK VINA RESULT:    -3.187      3.825      4.596
REMARK INTER + INTRA:          -3.187
REMARK INTER:                  -3.187
REMARK INTRA:                   0.000
REMARK UNBOUND:                 0.000
REMARK  Name = /home/vital/Documents/PhD_2021/Malaria_codes/scripts/../data/pdbqt_ligands/ligand_144_temp.pdb
REMARK                            x       y       z     vdW  Elec       q    Type
REMARK                         _______ _______ _______ _____ _____    ______ ____
ROOT
ATOM      1  C1  UNL     1     144.534 125.702 101.546  0.00  0.00    -0.038 C 
ATOM      2  C2  UNL     1     143.124 125.528 102.037  0.00  0.00    -0.027 C 
ATOM      3  C3  UNL     1     142.181 124.750 101.460  0.00  0.00    -0.056 C 
ATOM      4  C4  UNL     1     142.207 124.159 100.079  0.00  0.00    +0.079 C 
ATOM      5  N1  UNL     1     141.176 124.891  99.303  0.00  0.00    -0.183 NA
ATOM      6  N2  UNL     1     141.546 126.055  99.020  0.00  0.00    -0.154 NA
ATOM      7  C5  UNL     1     140.444 126.909  98.807  0.00  0.00    +0.095 A 
ATOM      8  C6  UNL     1     139.480 126.632  97.827  0.00  0.00    -0.034 A 
ATOM      9  C7  UNL     1     138.399 127.496  97.621  0.00  0.00    -0.060 A 
ATOM     10  C8  UNL     1     138.270 128.657  98.383  0.00  0.00    -0.061 A 
ATOM     11  C9  UNL     1     139.223 128.962  99.355  0.00  0.00    -0.050 A 
ATOM     12  C10 UNL     1     140.298 128.090  99.563  0.00  0.00    +0.027 A 
ATOM     13  C11 UNL     1     141.315 128.462 100.571  0.00  0.00    +0.072 C 
ATOM     14  N3  UNL     1     142.428 129.030 100.233  0.00  0.00    -0.298 NA
ATOM     15  C12 UNL     1     140.983 128.153 101.987  0.00  0.00    +0.007 C 
ATOM     16  C13 UNL     1     141.816 127.400 102.648  0.00  0.00    -0.098 C 
ATOM     17  C14 UNL     1     142.675 126.496 103.029  0.00  0.00    +0.086 C 
ATOM     18 CL1  UNL     1     143.539 126.783 104.475  0.00  0.00    -0.074 Cl
ATOM     19  H   UNL     1     142.616 129.220  99.285  0.00  0.00    +0.000 HD
ENDROOT
TORSDOF 0
ENDMDL
