MODEL 1
REMARK VINA RESULT:    -3.790      0.000      0.000
REMARK INTER + INTRA:          -3.790
REMARK INTER:                  -3.790
REMARK INTRA:                   0.000
REMARK UNBOUND:                 0.000
REMARK  Name = /home/vital/Documents/PhD_2021/Malaria_codes/scripts/../data/pdbqt_ligands/ligand_75_temp.pdb
REMARK                            x       y       z     vdW  Elec       q    Type
REMARK                         _______ _______ _______ _____ _____    ______ ____
ROOT
ATOM      1  C   UNL     1     141.748 125.681 106.810  0.00  0.00    -0.009 C 
ATOM      2  N   UNL     1     141.779 126.227 105.641  0.00  0.00    -0.270 NA
ATOM      3  C   UNL     1     141.049 125.597 104.664  0.00  0.00    +0.041 C 
ATOM      4  C   UNL     1     141.040 126.035 103.399  0.00  0.00    +0.012 C 
ATOM      5  N   UNL     1     141.731 127.122 102.928  0.00  0.00    -0.325 N 
ATOM      6  C   UNL     1     141.827 127.592 101.647  0.00  0.00    -0.007 C 
ATOM      7  C   UNL     1     142.504 128.649 101.178  0.00  0.00    -0.048 C 
ATOM      8  C   UNL     1     143.272 129.574 101.981  0.00  0.00    -0.064 C 
ATOM      9  C   UNL     1     144.037 130.578 101.520  0.00  0.00    -0.080 C 
ATOM     10  C   UNL     1     144.344 130.943 100.094  0.00  0.00    -0.015 C 
ATOM     11  C   UNL     1     143.512 132.099  99.624  0.00  0.00    -0.062 C 
ATOM     12  C   UNL     1     143.040 132.283  98.384  0.00  0.00    +0.021 C 
ATOM     13  N   UNL     1     143.192 131.486  97.280  0.00  0.00    -0.273 N 
ATOM     14  O   UNL     1     142.350 131.708  96.188  0.00  0.00    -0.273 OA
ATOM     15  C   UNL     1     143.195 132.030  95.079  0.00  0.00    +0.091 C 
ATOM     16  C   UNL     1     142.324 132.442  93.890  0.00  0.00    +0.036 C 
ATOM     17  N   UNL     1     143.152 132.923  92.783  0.00  0.00    -0.333 N 
ATOM     18  C   UNL     1     142.595 133.412  91.626  0.00  0.00    +0.076 C 
ATOM     19  N   UNL     1     141.711 132.987  90.811  0.00  0.00    -0.269 NA
ATOM     20  C   UNL     1     141.135 131.652  90.993  0.00  0.00    +0.101 C 
ATOM     21  C   UNL     1     140.589 131.067  89.700  0.00  0.00    +0.151 A 
ATOM     22  N   UNL     1     141.390 130.242  88.999  0.00  0.00    -0.234 NA
ATOM     23  C   UNL     1     140.914 129.764  87.822  0.00  0.00    +0.054 A 
ATOM     24  C   UNL     1     141.879 128.869  87.082  0.00  0.00    +0.003 C 
ATOM     25  C   UNL     1     141.767 127.394  87.495  0.00  0.00    +0.001 C 
ATOM     26  N   UNL     1     140.682 126.657  86.827  0.00  0.00    -0.319 N 
ATOM     27  C   UNL     1     141.052 126.231  85.483  0.00  0.00    -0.016 C 
ATOM     28  C   UNL     1     139.637 130.087  87.338  0.00  0.00    +0.022 A 
ATOM     29  C   UNL     1     139.068 129.630  86.121  0.00  0.00    -0.051 A 
ATOM     30  C   UNL     1     137.791 130.030  85.729  0.00  0.00    -0.061 A 
ATOM     31  C   UNL     1     137.068 130.891  86.542  0.00  0.00    -0.060 A 
ATOM     32  C   UNL     1     137.623 131.335  87.743  0.00  0.00    -0.036 A 
ATOM     33  C   UNL     1     138.893 130.949  88.158  0.00  0.00    +0.075 A 
ATOM     34  N   UNL     1     139.348 131.427  89.320  0.00  0.00    -0.230 NA
ATOM     35  H   UNL     1     142.227 127.635 103.606  0.00  0.00    +0.000 HD
ATOM     36  H   UNL     1     143.875 130.776  97.257  0.00  0.00    +0.000 HD
ATOM     37  H   UNL     1     144.132 132.896  92.869  0.00  0.00    +0.000 HD
ATOM     38  H   UNL     1     139.863 127.262  86.767  0.00  0.00    +0.000 HD
ATOM     39  H   UNL     1     140.486 125.822  87.378  0.00  0.00    +0.000 HD
ENDROOT
TORSDOF 0
ENDMDL
MODEL 2
REMARK VINA RESULT:    -3.649      7.248     10.746
REMARK INTER + INTRA:          -3.649
REMARK INTER:                  -3.649
REMARK INTRA:                   0.000
REMARK UNBOUND:                 0.000
REMARK  Name = /home/vital/Documents/PhD_2021/Malaria_codes/scripts/../data/pdbqt_ligands/ligand_75_temp.pdb
REMARK                            x       y       z     vdW  Elec       q    Type
REMARK                         _______ _______ _______ _____ _____    ______ ____
ROOT
ATOM      1  C   UNL     1     142.077 145.600  96.750  0.00  0.00    -0.009 C 
ATOM      2  N   UNL     1     142.038 144.541  96.014  0.00  0.00    -0.270 NA
ATOM      3  C   UNL     1     141.367 143.466  96.543  0.00  0.00    +0.041 C 
ATOM      4  C   UNL     1     141.298 142.293  95.900  0.00  0.00    +0.012 C 
ATOM      5  N   UNL     1     141.866 142.018  94.683  0.00  0.00    -0.325 N 
ATOM      6  C   UNL     1     141.898 140.835  93.996  0.00  0.00    -0.007 C 
ATOM      7  C   UNL     1     142.456 140.557  92.810  0.00  0.00    -0.048 C 
ATOM      8  C   UNL     1     143.132 141.510  91.959  0.00  0.00    -0.064 C 
ATOM      9  C   UNL     1     143.783 141.231  90.817  0.00  0.00    -0.080 C 
ATOM     10  C   UNL     1     144.034 139.890  90.185  0.00  0.00    -0.015 C 
ATOM     11  C   UNL     1     143.080 139.616  89.060  0.00  0.00    -0.062 C 
ATOM     12  C   UNL     1     142.578 138.422  88.720  0.00  0.00    +0.021 C 
ATOM     13  N   UNL     1     142.800 137.200  89.299  0.00  0.00    -0.273 N 
ATOM     14  O   UNL     1     141.928 136.156  88.984  0.00  0.00    -0.273 OA
ATOM     15  C   UNL     1     142.722 135.123  88.393  0.00  0.00    +0.091 C 
ATOM     16  C   UNL     1     141.799 134.015  87.879  0.00  0.00    +0.036 C 
ATOM     17  N   UNL     1     142.559 133.011  87.134  0.00  0.00    -0.333 N 
ATOM     18  C   UNL     1     141.941 131.949  86.517  0.00  0.00    +0.076 C 
ATOM     19  N   UNL     1     141.098 131.068  86.890  0.00  0.00    -0.269 NA
ATOM     20  C   UNL     1     140.666 131.018  88.288  0.00  0.00    +0.101 C 
ATOM     21  C   UNL     1     140.170 129.641  88.700  0.00  0.00    +0.151 A 
ATOM     22  N   UNL     1     141.044 128.816  89.307  0.00  0.00    -0.234 NA
ATOM     23  C   UNL     1     140.608 127.572  89.626  0.00  0.00    +0.054 A 
ATOM     24  C   UNL     1     141.653 126.697  90.277  0.00  0.00    +0.003 C 
ATOM     25  C   UNL     1     141.700 126.854  91.804  0.00  0.00    +0.001 C 
ATOM     26  N   UNL     1     140.691 126.064  92.527  0.00  0.00    -0.319 N 
ATOM     27  C   UNL     1     141.088 124.669  92.679  0.00  0.00    -0.016 C 
ATOM     28  C   UNL     1     139.299 127.141  89.361  0.00  0.00    +0.022 A 
ATOM     29  C   UNL     1     138.767 125.861  89.663  0.00  0.00    -0.051 A 
ATOM     30  C   UNL     1     137.451 125.534  89.339  0.00  0.00    -0.061 A 
ATOM     31  C   UNL     1     136.651 126.476  88.708  0.00  0.00    -0.060 A 
ATOM     32  C   UNL     1     137.170 127.739  88.418  0.00  0.00    -0.036 A 
ATOM     33  C   UNL     1     138.478 128.090  88.733  0.00  0.00    +0.075 A 
ATOM     34  N   UNL     1     138.893 129.320  88.414  0.00  0.00    -0.230 NA
ATOM     35  H   UNL     1     142.313 142.777  94.243  0.00  0.00    +0.000 HD
ATOM     36  H   UNL     1     143.553 137.062  89.919  0.00  0.00    +0.000 HD
ATOM     37  H   UNL     1     143.538 133.098  87.072  0.00  0.00    +0.000 HD
ATOM     38  H   UNL     1     139.812 126.102  92.010  0.00  0.00    +0.000 HD
ATOM     39  H   UNL     1     140.589 126.464  93.459  0.00  0.00    +0.000 HD
ENDROOT
TORSDOF 0
ENDMDL
MODEL 3
REMARK VINA RESULT:    -3.638      2.288     14.742
REMARK INTER + INTRA:          -3.638
REMARK INTER:                  -3.638
REMARK INTRA:                   0.000
REMARK UNBOUND:                 0.000
REMARK  Name = /home/vital/Documents/PhD_2021/Malaria_codes/scripts/../data/pdbqt_ligands/ligand_75_temp.pdb
REMARK                            x       y       z     vdW  Elec       q    Type
REMARK                         _______ _______ _______ _____ _____    ______ ____
ROOT
ATOM      1  C   UNL     1     139.751 128.861  85.324  0.00  0.00    -0.009 C 
ATOM      2  N   UNL     1     140.081 128.967  86.567  0.00  0.00    -0.270 NA
ATOM      3  C   UNL     1     140.059 127.805  87.296  0.00  0.00    +0.041 C 
ATOM      4  C   UNL     1     140.330 127.790  88.608  0.00  0.00    +0.012 C 
ATOM      5  N   UNL     1     140.649 128.888  89.366  0.00  0.00    -0.325 N 
ATOM      6  C   UNL     1     140.873 128.967  90.714  0.00  0.00    -0.007 C 
ATOM      7  C   UNL     1     141.178 130.035  91.463  0.00  0.00    -0.048 C 
ATOM      8  C   UNL     1     141.384 131.376  90.964  0.00  0.00    -0.064 C 
ATOM      9  C   UNL     1     141.592 132.475  91.707  0.00  0.00    -0.080 C 
ATOM     10  C   UNL     1     141.591 132.607  93.205  0.00  0.00    -0.015 C 
ATOM     11  C   UNL     1     142.983 132.640  93.763  0.00  0.00    -0.062 C 
ATOM     12  C   UNL     1     143.378 132.131  94.937  0.00  0.00    +0.021 C 
ATOM     13  N   UNL     1     142.634 131.473  95.882  0.00  0.00    -0.273 N 
ATOM     14  O   UNL     1     143.313 130.753  96.867  0.00  0.00    -0.273 OA
ATOM     15  C   UNL     1     142.933 131.322  98.124  0.00  0.00    +0.091 C 
ATOM     16  C   UNL     1     143.767 130.681  99.236  0.00  0.00    +0.036 C 
ATOM     17  N   UNL     1     143.517 131.340 100.518  0.00  0.00    -0.333 N 
ATOM     18  C   UNL     1     144.199 130.984 101.657  0.00  0.00    +0.076 C 
ATOM     19  N   UNL     1     144.439 129.879 102.246  0.00  0.00    -0.269 NA
ATOM     20  C   UNL     1     143.847 128.639 101.737  0.00  0.00    +0.101 C 
ATOM     21  C   UNL     1     143.720 127.567 102.808  0.00  0.00    +0.151 A 
ATOM     22  N   UNL     1     142.540 127.456 103.446  0.00  0.00    -0.234 NA
ATOM     23  C   UNL     1     142.450 126.531 104.434  0.00  0.00    +0.054 A 
ATOM     24  C   UNL     1     141.106 126.485 105.121  0.00  0.00    +0.003 C 
ATOM     25  C   UNL     1     140.110 125.546 104.426  0.00  0.00    +0.001 C 
ATOM     26  N   UNL     1     140.261 124.127 104.785  0.00  0.00    -0.319 N 
ATOM     27  C   UNL     1     139.635 123.812 106.064  0.00  0.00    -0.016 C 
ATOM     28  C   UNL     1     143.524 125.699 104.787  0.00  0.00    +0.022 A 
ATOM     29  C   UNL     1     143.512 124.710 105.804  0.00  0.00    -0.051 A 
ATOM     30  C   UNL     1     144.646 123.948 106.082  0.00  0.00    -0.061 A 
ATOM     31  C   UNL     1     145.806 124.165 105.352  0.00  0.00    -0.060 A 
ATOM     32  C   UNL     1     145.818 125.132 104.345  0.00  0.00    -0.036 A 
ATOM     33  C   UNL     1     144.699 125.902 104.047  0.00  0.00    +0.075 A 
ATOM     34  N   UNL     1     144.802 126.809 103.071  0.00  0.00    -0.230 NA
ATOM     35  H   UNL     1     140.727 129.736  88.872  0.00  0.00    +0.000 HD
ATOM     36  H   UNL     1     141.651 131.507  95.866  0.00  0.00    +0.000 HD
ATOM     37  H   UNL     1     142.843 132.056 100.566  0.00  0.00    +0.000 HD
ATOM     38  H   UNL     1     141.256 123.907 104.842  0.00  0.00    +0.000 HD
ATOM     39  H   UNL     1     139.800 123.571 104.065  0.00  0.00    +0.000 HD
ENDROOT
TORSDOF 0
ENDMDL
MODEL 4
REMARK VINA RESULT:    -3.445      4.891     15.457
REMARK INTER + INTRA:          -3.445
REMARK INTER:                  -3.445
REMARK INTRA:                   0.000
REMARK UNBOUND:                 0.000
REMARK  Name = /home/vital/Documents/PhD_2021/Malaria_codes/scripts/../data/pdbqt_ligands/ligand_75_temp.pdb
REMARK                            x       y       z     vdW  Elec       q    Type
REMARK                         _______ _______ _______ _____ _____    ______ ____
ROOT
ATOM      1  C   UNL     1     141.077 120.888  86.280  0.00  0.00    -0.009 C 
ATOM      2  N   UNL     1     141.099 121.452  87.440  0.00  0.00    -0.270 NA
ATOM      3  C   UNL     1     141.163 120.604  88.518  0.00  0.00    +0.041 C 
ATOM      4  C   UNL     1     141.141 121.063  89.777  0.00  0.00    +0.012 C 
ATOM      5  N   UNL     1     141.052 122.381  90.142  0.00  0.00    -0.325 N 
ATOM      6  C   UNL     1     140.957 122.923  91.395  0.00  0.00    -0.007 C 
ATOM      7  C   UNL     1     140.864 124.209  91.759  0.00  0.00    -0.048 C 
ATOM      8  C   UNL     1     140.889 125.338  90.858  0.00  0.00    -0.064 C 
ATOM      9  C   UNL     1     140.698 126.625  91.193  0.00  0.00    -0.080 C 
ATOM     10  C   UNL     1     140.344 127.200  92.536  0.00  0.00    -0.015 C 
ATOM     11  C   UNL     1     141.544 127.774  93.231  0.00  0.00    -0.062 C 
ATOM     12  C   UNL     1     141.772 127.771  94.551  0.00  0.00    +0.021 C 
ATOM     13  N   UNL     1     140.996 127.256  95.555  0.00  0.00    -0.273 N 
ATOM     14  O   UNL     1     141.580 127.080  96.812  0.00  0.00    -0.273 OA
ATOM     15  C   UNL     1     140.826 127.879  97.729  0.00  0.00    +0.091 C 
ATOM     16  C   UNL     1     141.515 127.855  99.096  0.00  0.00    +0.036 C 
ATOM     17  N   UNL     1     140.861 128.779 100.022  0.00  0.00    -0.333 N 
ATOM     18  C   UNL     1     141.338 128.983 101.295  0.00  0.00    +0.076 C 
ATOM     19  N   UNL     1     141.670 128.216 102.258  0.00  0.00    -0.269 NA
ATOM     20  C   UNL     1     141.473 126.769 102.137  0.00  0.00    +0.101 C 
ATOM     21  C   UNL     1     141.344 126.080 103.487  0.00  0.00    +0.151 A 
ATOM     22  N   UNL     1     140.103 125.855 103.959  0.00  0.00    -0.234 NA
ATOM     23  C   UNL     1     139.996 125.285 105.184  0.00  0.00    +0.054 A 
ATOM     24  C   UNL     1     138.575 125.091 105.656  0.00  0.00    +0.003 C 
ATOM     25  C   UNL     1     137.971 123.754 105.205  0.00  0.00    +0.001 C 
ATOM     26  N   UNL     1     138.333 122.607 106.051  0.00  0.00    -0.319 N 
ATOM     27  C   UNL     1     137.524 122.539 107.263  0.00  0.00    -0.016 C 
ATOM     28  C   UNL     1     141.118 124.920 105.946  0.00  0.00    +0.022 A 
ATOM     29  C   UNL     1     141.091 124.322 107.232  0.00  0.00    -0.051 A 
ATOM     30  C   UNL     1     142.272 124.014 107.908  0.00  0.00    -0.061 A 
ATOM     31  C   UNL     1     143.491 124.302 107.312  0.00  0.00    -0.060 A 
ATOM     32  C   UNL     1     143.519 124.884 106.043  0.00  0.00    -0.036 A 
ATOM     33  C   UNL     1     142.356 125.197 105.348  0.00  0.00    +0.075 A 
ATOM     34  N   UNL     1     142.477 125.757 104.140  0.00  0.00    -0.230 NA
ATOM     35  H   UNL     1     141.057 123.028  89.399  0.00  0.00    +0.000 HD
ATOM     36  H   UNL     1     140.054 127.018  95.397  0.00  0.00    +0.000 HD
ATOM     37  H   UNL     1     140.058 129.267  99.727  0.00  0.00    +0.000 HD
ATOM     38  H   UNL     1     139.315 122.690 106.315  0.00  0.00    +0.000 HD
ATOM     39  H   UNL     1     138.165 121.756 105.514  0.00  0.00    +0.000 HD
ENDROOT
TORSDOF 0
ENDMDL
MODEL 5
REMARK VINA RESULT:    -3.291      6.062     12.932
REMARK INTER + INTRA:          -3.291
REMARK INTER:                  -3.291
REMARK INTRA:                   0.000
REMARK UNBOUND:                 0.000
REMARK  Name = /home/vital/Documents/PhD_2021/Malaria_codes/scripts/../data/pdbqt_ligands/ligand_75_temp.pdb
REMARK                            x       y       z     vdW  Elec       q    Type
REMARK                         _______ _______ _______ _____ _____    ______ ____
ROOT
ATOM      1  C   UNL     1     145.097 145.438  90.356  0.00  0.00    -0.009 C 
ATOM      2  N   UNL     1     144.779 144.190  90.437  0.00  0.00    -0.270 NA
ATOM      3  C   UNL     1     144.971 143.598  91.660  0.00  0.00    +0.041 C 
ATOM      4  C   UNL     1     144.727 142.296  91.860  0.00  0.00    +0.012 C 
ATOM      5  N   UNL     1     144.276 141.417  90.909  0.00  0.00    -0.325 N 
ATOM      6  C   UNL     1     144.067 140.069  91.014  0.00  0.00    -0.007 C 
ATOM      7  C   UNL     1     143.633 139.202  90.089  0.00  0.00    -0.048 C 
ATOM      8  C   UNL     1     143.237 139.545  88.742  0.00  0.00    -0.064 C 
ATOM      9  C   UNL     1     142.895 138.680  87.772  0.00  0.00    -0.080 C 
ATOM     10  C   UNL     1     142.905 137.177  87.811  0.00  0.00    -0.015 C 
ATOM     11  C   UNL     1     141.532 136.616  88.032  0.00  0.00    -0.062 C 
ATOM     12  C   UNL     1     141.231 135.507  88.720  0.00  0.00    +0.021 C 
ATOM     13  N   UNL     1     142.073 134.645  89.372  0.00  0.00    -0.273 N 
ATOM     14  O   UNL     1     141.516 133.747  90.284  0.00  0.00    -0.273 OA
ATOM     15  C   UNL     1     141.838 132.434  89.815  0.00  0.00    +0.091 C 
ATOM     16  C   UNL     1     141.118 131.401  90.685  0.00  0.00    +0.036 C 
ATOM     17  N   UNL     1     141.299 130.053  90.147  0.00  0.00    -0.333 N 
ATOM     18  C   UNL     1     140.692 128.960  90.719  0.00  0.00    +0.076 C 
ATOM     19  N   UNL     1     140.615 128.501  91.906  0.00  0.00    -0.269 NA
ATOM     20  C   UNL     1     141.361 129.149  92.987  0.00  0.00    +0.101 C 
ATOM     21  C   UNL     1     141.651 128.207  94.146  0.00  0.00    +0.151 A 
ATOM     22  N   UNL     1     142.847 127.589  94.166  0.00  0.00    -0.234 NA
ATOM     23  C   UNL     1     143.079 126.714  95.175  0.00  0.00    +0.054 A 
ATOM     24  C   UNL     1     144.429 126.039  95.114  0.00  0.00    +0.003 C 
ATOM     25  C   UNL     1     145.531 126.838  95.823  0.00  0.00    +0.001 C 
ATOM     26  N   UNL     1     145.580 126.644  97.281  0.00  0.00    -0.319 N 
ATOM     27  C   UNL     1     146.266 125.410  97.649  0.00  0.00    -0.016 C 
ATOM     28  C   UNL     1     142.134 126.456  96.181  0.00  0.00    +0.022 A 
ATOM     29  C   UNL     1     142.299 125.558  97.267  0.00  0.00    -0.051 A 
ATOM     30  C   UNL     1     141.284 125.367  98.204  0.00  0.00    -0.061 A 
ATOM     31  C   UNL     1     140.093 126.064  98.068  0.00  0.00    -0.060 A 
ATOM     32  C   UNL     1     139.931 126.954  97.004  0.00  0.00    -0.036 A 
ATOM     33  C   UNL     1     140.930 127.164  96.059  0.00  0.00    +0.075 A 
ATOM     34  N   UNL     1     140.688 128.031  95.071  0.00  0.00    -0.230 NA
ATOM     35  H   UNL     1     144.075 141.811  90.030  0.00  0.00    +0.000 HD
ATOM     36  H   UNL     1     143.043 134.659  89.202  0.00  0.00    +0.000 HD
ATOM     37  H   UNL     1     141.870 129.924  89.356  0.00  0.00    +0.000 HD
ATOM     38  H   UNL     1     144.626 126.610  97.640  0.00  0.00    +0.000 HD
ATOM     39  H   UNL     1     146.100 127.423  97.684  0.00  0.00    +0.000 HD
ENDROOT
TORSDOF 0
ENDMDL
MODEL 6
REMARK VINA RESULT:    -3.168      7.465     13.333
REMARK INTER + INTRA:          -3.168
REMARK INTER:                  -3.168
REMARK INTRA:                   0.000
REMARK UNBOUND:                 0.000
REMARK  Name = /home/vital/Documents/PhD_2021/Malaria_codes/scripts/../data/pdbqt_ligands/ligand_75_temp.pdb
REMARK                            x       y       z     vdW  Elec       q    Type
REMARK                         _______ _______ _______ _____ _____    ______ ____
ROOT
ATOM      1  C   UNL     1     139.693 123.396  91.177  0.00  0.00    -0.009 C 
ATOM      2  N   UNL     1     139.917 124.659  91.034  0.00  0.00    -0.270 NA
ATOM      3  C   UNL     1     140.195 125.354  92.185  0.00  0.00    +0.041 C 
ATOM      4  C   UNL     1     140.395 126.678  92.177  0.00  0.00    +0.012 C 
ATOM      5  N   UNL     1     140.348 127.483  91.068  0.00  0.00    -0.325 N 
ATOM      6  C   UNL     1     140.474 128.843  90.987  0.00  0.00    -0.007 C 
ATOM      7  C   UNL     1     140.422 129.637  89.908  0.00  0.00    -0.048 C 
ATOM      8  C   UNL     1     140.258 129.188  88.545  0.00  0.00    -0.064 C 
ATOM      9  C   UNL     1     140.105 129.972  87.464  0.00  0.00    -0.080 C 
ATOM     10  C   UNL     1     139.993 131.470  87.402  0.00  0.00    -0.015 C 
ATOM     11  C   UNL     1     141.288 132.109  86.997  0.00  0.00    -0.062 C 
ATOM     12  C   UNL     1     141.755 133.291  87.423  0.00  0.00    +0.021 C 
ATOM     13  N   UNL     1     141.187 134.172  88.305  0.00  0.00    -0.273 N 
ATOM     14  O   UNL     1     141.996 135.175  88.843  0.00  0.00    -0.273 OA
ATOM     15  C   UNL     1     141.407 136.423  88.461  0.00  0.00    +0.091 C 
ATOM     16  C   UNL     1     142.336 137.564  88.884  0.00  0.00    +0.036 C 
ATOM     17  N   UNL     1     141.844 138.846  88.380  0.00  0.00    -0.333 N 
ATOM     18  C   UNL     1     142.543 140.014  88.574  0.00  0.00    +0.076 C 
ATOM     19  N   UNL     1     143.062 140.585  89.589  0.00  0.00    -0.269 NA
ATOM     20  C   UNL     1     142.877 140.009  90.923  0.00  0.00    +0.101 C 
ATOM     21  C   UNL     1     143.012 141.042  92.031  0.00  0.00    +0.151 A 
ATOM     22  N   UNL     1     141.884 141.606  92.503  0.00  0.00    -0.234 NA
ATOM     23  C   UNL     1     142.017 142.561  93.456  0.00  0.00    +0.054 A 
ATOM     24  C   UNL     1     140.711 143.166  93.913  0.00  0.00    +0.003 C 
ATOM     25  C   UNL     1     140.062 142.389  95.067  0.00  0.00    +0.001 C 
ATOM     26  N   UNL     1     140.597 142.717  96.398  0.00  0.00    -0.319 N 
ATOM     27  C   UNL     1     140.027 143.948  96.933  0.00  0.00    -0.016 C 
ATOM     28  C   UNL     1     143.266 142.954  93.961  0.00  0.00    +0.022 A 
ATOM     29  C   UNL     1     143.489 143.941  94.955  0.00  0.00    -0.051 A 
ATOM     30  C   UNL     1     144.780 144.265  95.372  0.00  0.00    -0.061 A 
ATOM     31  C   UNL     1     145.863 143.611  94.802  0.00  0.00    -0.060 A 
ATOM     32  C   UNL     1     145.645 142.633  93.830  0.00  0.00    -0.036 A 
ATOM     33  C   UNL     1     144.367 142.291  93.399  0.00  0.00    +0.075 A 
ATOM     34  N   UNL     1     144.252 141.347  92.460  0.00  0.00    -0.230 NA
ATOM     35  H   UNL     1     140.203 127.018  90.213  0.00  0.00    +0.000 HD
ATOM     36  H   UNL     1     140.237 134.099  88.553  0.00  0.00    +0.000 HD
ATOM     37  H   UNL     1     140.992 138.874  87.889  0.00  0.00    +0.000 HD
ATOM     38  H   UNL     1     141.609 142.827  96.327  0.00  0.00    +0.000 HD
ATOM     39  H   UNL     1     140.351 141.957  97.031  0.00  0.00    +0.000 HD
ENDROOT
TORSDOF 0
ENDMDL
MODEL 7
REMARK VINA RESULT:    -2.980      4.748      6.205
REMARK INTER + INTRA:          -2.980
REMARK INTER:                  -2.980
REMARK INTRA:                   0.000
REMARK UNBOUND:                 0.000
REMARK  Name = /home/vital/Documents/PhD_2021/Malaria_codes/scripts/../data/pdbqt_ligands/ligand_75_temp.pdb
REMARK                            x       y       z     vdW  Elec       q    Type
REMARK                         _______ _______ _______ _____ _____    ______ ____
ROOT
ATOM      1  C   UNL     1     138.263 121.591 110.035  0.00  0.00    -0.009 C 
ATOM      2  N   UNL     1     138.548 122.054 108.865  0.00  0.00    -0.270 NA
ATOM      3  C   UNL     1     138.070 121.332 107.800  0.00  0.00    +0.041 C 
ATOM      4  C   UNL     1     138.341 121.679 106.535  0.00  0.00    +0.012 C 
ATOM      5  N   UNL     1     139.102 122.753 106.150  0.00  0.00    -0.325 N 
ATOM      6  C   UNL     1     139.477 123.134 104.891  0.00  0.00    -0.007 C 
ATOM      7  C   UNL     1     140.225 124.177 104.507  0.00  0.00    -0.048 C 
ATOM      8  C   UNL     1     140.775 125.182 105.389  0.00  0.00    -0.064 C 
ATOM      9  C   UNL     1     141.607 126.177 105.037  0.00  0.00    -0.080 C 
ATOM     10  C   UNL     1     142.222 126.451 103.692  0.00  0.00    -0.015 C 
ATOM     11  C   UNL     1     141.499 127.542 102.960  0.00  0.00    -0.062 C 
ATOM     12  C   UNL     1     141.318 127.621 101.635  0.00  0.00    +0.021 C 
ATOM     13  N   UNL     1     141.730 126.753 100.658  0.00  0.00    -0.273 N 
ATOM     14  O   UNL     1     141.154 126.869  99.391  0.00  0.00    -0.273 OA
ATOM     15  C   UNL     1     142.223 127.140  98.479  0.00  0.00    +0.091 C 
ATOM     16  C   UNL     1     141.638 127.437  97.096  0.00  0.00    +0.036 C 
ATOM     17  N   UNL     1     142.686 127.867  96.171  0.00  0.00    -0.333 N 
ATOM     18  C   UNL     1     142.398 128.253  94.883  0.00  0.00    +0.076 C 
ATOM     19  N   UNL     1     141.730 127.741  93.926  0.00  0.00    -0.269 NA
ATOM     20  C   UNL     1     141.150 126.404  94.076  0.00  0.00    +0.101 C 
ATOM     21  C   UNL     1     140.922 125.711  92.741  0.00  0.00    +0.151 A 
ATOM     22  N   UNL     1     141.875 124.865  92.304  0.00  0.00    -0.234 NA
ATOM     23  C   UNL     1     141.688 124.289  91.091  0.00  0.00    +0.054 A 
ATOM     24  C   UNL     1     142.811 123.378  90.657  0.00  0.00    +0.003 C 
ATOM     25  C   UNL     1     142.633 121.933  91.146  0.00  0.00    +0.001 C 
ATOM     26  N   UNL     1     141.741 121.114  90.310  0.00  0.00    -0.319 N 
ATOM     27  C   UNL     1     142.414 120.607  89.120  0.00  0.00    -0.016 C 
ATOM     28  C   UNL     1     140.548 124.534  90.308  0.00  0.00    +0.022 A 
ATOM     29  C   UNL     1     140.278 123.973  89.034  0.00  0.00    -0.051 A 
ATOM     30  C   UNL     1     139.116 124.299  88.334  0.00  0.00    -0.061 A 
ATOM     31  C   UNL     1     138.213 125.191  88.895  0.00  0.00    -0.060 A 
ATOM     32  C   UNL     1     138.473 125.738  90.154  0.00  0.00    -0.036 A 
ATOM     33  C   UNL     1     139.623 125.425  90.871  0.00  0.00    +0.075 A 
ATOM     34  N   UNL     1     139.793 125.999  92.066  0.00  0.00    -0.230 NA
ATOM     35  H   UNL     1     139.422 123.329 106.881  0.00  0.00    +0.000 HD
ATOM     36  H   UNL     1     142.412 126.068 100.844  0.00  0.00    +0.000 HD
ATOM     37  H   UNL     1     143.621 127.879  96.477  0.00  0.00    +0.000 HD
ATOM     38  H   UNL     1     140.946 121.684  90.021  0.00  0.00    +0.000 HD
ATOM     39  H   UNL     1     141.440 120.313  90.865  0.00  0.00    +0.000 HD
ENDROOT
TORSDOF 0
ENDMDL
MODEL 8
REMARK VINA RESULT:    -2.866      1.602      2.067
REMARK INTER + INTRA:          -2.866
REMARK INTER:                  -2.866
REMARK INTRA:                   0.000
REMARK UNBOUND:                 0.000
REMARK  Name = /home/vital/Documents/PhD_2021/Malaria_codes/scripts/../data/pdbqt_ligands/ligand_75_temp.pdb
REMARK                            x       y       z     vdW  Elec       q    Type
REMARK                         _______ _______ _______ _____ _____    ______ ____
ROOT
ATOM      1  C   UNL     1     140.665 123.403 107.624  0.00  0.00    -0.009 C 
ATOM      2  N   UNL     1     140.840 124.068 106.532  0.00  0.00    -0.270 NA
ATOM      3  C   UNL     1     140.197 123.580 105.422  0.00  0.00    +0.041 C 
ATOM      4  C   UNL     1     140.339 124.150 104.218  0.00  0.00    +0.012 C 
ATOM      5  N   UNL     1     141.115 125.247 103.944  0.00  0.00    -0.325 N 
ATOM      6  C   UNL     1     141.364 125.844 102.738  0.00  0.00    -0.007 C 
ATOM      7  C   UNL     1     142.125 126.912 102.461  0.00  0.00    -0.048 C 
ATOM      8  C   UNL     1     142.835 127.709 103.435  0.00  0.00    -0.064 C 
ATOM      9  C   UNL     1     143.681 128.719 103.169  0.00  0.00    -0.080 C 
ATOM     10  C   UNL     1     144.151 129.218 101.831  0.00  0.00    -0.015 C 
ATOM     11  C   UNL     1     143.416 130.456 101.408  0.00  0.00    -0.062 C 
ATOM     12  C   UNL     1     143.087 130.792 100.154  0.00  0.00    +0.021 C 
ATOM     13  N   UNL     1     143.327 130.109  98.990  0.00  0.00    -0.273 N 
ATOM     14  O   UNL     1     142.615 130.486  97.849  0.00  0.00    -0.273 OA
ATOM     15  C   UNL     1     143.585 130.883  96.875  0.00  0.00    +0.091 C 
ATOM     16  C   UNL     1     142.862 131.460  95.655  0.00  0.00    +0.036 C 
ATOM     17  N   UNL     1     143.819 132.015  94.699  0.00  0.00    -0.333 N 
ATOM     18  C   UNL     1     143.407 132.650  93.552  0.00  0.00    +0.076 C 
ATOM     19  N   UNL     1     142.601 132.355  92.609  0.00  0.00    -0.269 NA
ATOM     20  C   UNL     1     141.961 131.038  92.583  0.00  0.00    +0.101 C 
ATOM     21  C   UNL     1     141.536 130.619  91.184  0.00  0.00    +0.151 A 
ATOM     22  N   UNL     1     142.376 129.836  90.482  0.00  0.00    -0.234 NA
ATOM     23  C   UNL     1     142.013 129.508  89.217  0.00  0.00    +0.054 A 
ATOM     24  C   UNL     1     143.018 128.652  88.485  0.00  0.00    +0.003 C 
ATOM     25  C   UNL     1     142.810 127.149  88.720  0.00  0.00    +0.001 C 
ATOM     26  N   UNL     1     141.777 126.539  87.867  0.00  0.00    -0.319 N 
ATOM     27  C   UNL     1     142.273 126.240  86.529  0.00  0.00    -0.016 C 
ATOM     28  C   UNL     1     140.807 129.941  88.643  0.00  0.00    +0.022 A 
ATOM     29  C   UNL     1     140.355 129.643  87.332  0.00  0.00    -0.051 A 
ATOM     30  C   UNL     1     139.142 130.142  86.857  0.00  0.00    -0.061 A 
ATOM     31  C   UNL     1     138.368 130.945  87.682  0.00  0.00    -0.060 A 
ATOM     32  C   UNL     1     138.807 131.233  88.976  0.00  0.00    -0.036 A 
ATOM     33  C   UNL     1     140.011 130.745  89.473  0.00  0.00    +0.075 A 
ATOM     34  N   UNL     1     140.356 131.075  90.721  0.00  0.00    -0.230 NA
ATOM     35  H   UNL     1     141.553 125.661 104.722  0.00  0.00    +0.000 HD
ATOM     36  H   UNL     1     143.982 129.375  98.959  0.00  0.00    +0.000 HD
ATOM     37  H   UNL     1     144.783 131.933  94.881  0.00  0.00    +0.000 HD
ATOM     38  H   UNL     1     140.991 127.184  87.791  0.00  0.00    +0.000 HD
ATOM     39  H   UNL     1     141.494 125.660  88.300  0.00  0.00    +0.000 HD
ENDROOT
TORSDOF 0
ENDMDL
MODEL 9
REMARK VINA RESULT:    -2.647      3.090      5.380
REMARK INTER + INTRA:          -2.647
REMARK INTER:                  -2.647
REMARK INTRA:                   0.000
REMARK UNBOUND:                 0.000
REMARK  Name = /home/vital/Documents/PhD_2021/Malaria_codes/scripts/../data/pdbqt_ligands/ligand_75_temp.pdb
REMARK                            x       y       z     vdW  Elec       q    Type
REMARK                         _______ _______ _______ _____ _____    ______ ____
ROOT
ATOM      1  C   UNL     1     137.313 121.596 108.642  0.00  0.00    -0.009 C 
ATOM      2  N   UNL     1     137.880 122.281 107.706  0.00  0.00    -0.270 NA
ATOM      3  C   UNL     1     137.241 122.281 106.491  0.00  0.00    +0.041 C 
ATOM      4  C   UNL     1     137.754 122.912 105.426  0.00  0.00    +0.012 C 
ATOM      5  N   UNL     1     138.936 123.607 105.406  0.00  0.00    -0.325 N 
ATOM      6  C   UNL     1     139.557 124.218 104.351  0.00  0.00    -0.007 C 
ATOM      7  C   UNL     1     140.713 124.893 104.321  0.00  0.00    -0.048 C 
ATOM      8  C   UNL     1     141.555 125.162 105.465  0.00  0.00    -0.064 C 
ATOM      9  C   UNL     1     142.763 125.749 105.440  0.00  0.00    -0.080 C 
ATOM     10  C   UNL     1     143.562 126.198 104.248  0.00  0.00    -0.015 C 
ATOM     11  C   UNL     1     143.451 127.678 104.029  0.00  0.00    -0.062 C 
ATOM     12  C   UNL     1     143.449 128.305 102.845  0.00  0.00    +0.021 C 
ATOM     13  N   UNL     1     143.539 127.768 101.588  0.00  0.00    -0.273 N 
ATOM     14  O   UNL     1     143.192 128.575 100.503  0.00  0.00    -0.273 OA
ATOM     15  C   UNL     1     144.355 128.668  99.674  0.00  0.00    +0.091 C 
ATOM     16  C   UNL     1     144.089 129.671  98.549  0.00  0.00    +0.036 C 
ATOM     17  N   UNL     1     145.303 129.908  97.767  0.00  0.00    -0.333 N 
ATOM     18  C   UNL     1     145.333 130.822  96.741  0.00  0.00    +0.076 C 
ATOM     19  N   UNL     1     144.604 131.038  95.717  0.00  0.00    -0.269 NA
ATOM     20  C   UNL     1     143.494 130.133  95.408  0.00  0.00    +0.101 C 
ATOM     21  C   UNL     1     143.118 130.148  93.935  0.00  0.00    +0.151 A 
ATOM     22  N   UNL     1     143.652 129.198  93.143  0.00  0.00    -0.234 NA
ATOM     23  C   UNL     1     143.351 129.247  91.822  0.00  0.00    +0.054 A 
ATOM     24  C   UNL     1     144.008 128.167  90.996  0.00  0.00    +0.003 C 
ATOM     25  C   UNL     1     143.181 126.876  90.930  0.00  0.00    +0.001 C 
ATOM     26  N   UNL     1     142.107 126.893  89.924  0.00  0.00    -0.319 N 
ATOM     27  C   UNL     1     142.606 126.617  88.581  0.00  0.00    -0.016 C 
ATOM     28  C   UNL     1     142.507 130.228  91.277  0.00  0.00    +0.022 A 
ATOM     29  C   UNL     1     142.145 130.348  89.911  0.00  0.00    -0.051 A 
ATOM     30  C   UNL     1     141.309 131.376  89.475  0.00  0.00    -0.061 A 
ATOM     31  C   UNL     1     140.828 132.297  90.394  0.00  0.00    -0.060 A 
ATOM     32  C   UNL     1     141.177 132.176  91.741  0.00  0.00    -0.036 A 
ATOM     33  C   UNL     1     142.007 131.159  92.200  0.00  0.00    +0.075 A 
ATOM     34  N   UNL     1     142.293 131.122  93.505  0.00  0.00    -0.230 NA
ATOM     35  H   UNL     1     139.401 123.676 106.270  0.00  0.00    +0.000 HD
ATOM     36  H   UNL     1     143.839 126.840 101.453  0.00  0.00    +0.000 HD
ATOM     37  H   UNL     1     146.119 129.402  97.982  0.00  0.00    +0.000 HD
ATOM     38  H   UNL     1     141.666 127.813  89.929  0.00  0.00    +0.000 HD
ATOM     39  H   UNL     1     141.439 126.161  90.166  0.00  0.00    +0.000 HD
ENDROOT
TORSDOF 0
ENDMDL
