MODEL 1
REMARK VINA RESULT:    -4.732      0.000      0.000
REMARK INTER + INTRA:          -4.732
REMARK INTER:                  -4.732
REMARK INTRA:                   0.000
REMARK UNBOUND:                 0.000
REMARK  Name = /home/vital/Documents/PhD_2021/Malaria_codes/scripts/../data/pdbqt_ligands/ligand_358_temp.pdb
REMARK                            x       y       z     vdW  Elec       q    Type
REMARK                         _______ _______ _______ _____ _____    ______ ____
ROOT
ATOM      1  N1  UNL     1     129.195 121.620  90.558  0.00  0.00    -0.215 NA
ATOM      2  O1  UNL     1     129.859 122.917  90.542  0.00  0.00    -0.302 OA
ATOM      3  C1  UNL     1     130.979 122.838  89.649  0.00  0.00    +0.073 C 
ATOM      4  C2  UNL     1     131.675 124.199  89.639  0.00  0.00    -0.005 C 
ATOM      5  C3  UNL     1     132.923 124.231  88.786  0.00  0.00    -0.049 C 
ATOM      6  C4  UNL     1     134.143 124.310  89.341  0.00  0.00    -0.066 C 
ATOM      7  C5  UNL     1     135.322 124.355  88.507  0.00  0.00    +0.067 C 
ATOM      8  C6  UNL     1     136.699 124.402  89.027  0.00  0.00    -0.029 A 
ATOM      9  C7  UNL     1     137.065 125.367  89.974  0.00  0.00    -0.056 A 
ATOM     10  C8  UNL     1     138.372 125.415  90.468  0.00  0.00    -0.042 A 
ATOM     11  C9  UNL     1     139.327 124.499  90.023  0.00  0.00    +0.059 A 
ATOM     12 CL1  UNL     1     140.922 124.615  90.676  0.00  0.00    -0.082 Cl
ATOM     13  C10 UNL     1     138.971 123.531  89.078  0.00  0.00    +0.060 A 
ATOM     14 CL2  UNL     1     140.095 122.362  88.481  0.00  0.00    -0.082 Cl
ATOM     15  C11 UNL     1     137.662 123.485  88.583  0.00  0.00    -0.038 A 
ATOM     16  C12 UNL     1     135.069 124.351  87.041  0.00  0.00    +0.016 C 
ATOM     17  N2  UNL     1     133.924 124.285  86.466  0.00  0.00    -0.290 NA
ATOM     18  C13 UNL     1     132.713 124.198  87.291  0.00  0.00    +0.061 C 
ATOM     19  H   UNL     1     128.395 121.656  91.189  0.00  0.00    +0.000 HD
ATOM     20  H   UNL     1     129.849 120.907  90.880  0.00  0.00    +0.000 HD
ENDROOT
TORSDOF 0
ENDMDL
MODEL 2
REMARK VINA RESULT:    -4.675      3.290      4.901
REMARK INTER + INTRA:          -4.675
REMARK INTER:                  -4.675
REMARK INTRA:                   0.000
REMARK UNBOUND:                 0.000
REMARK  Name = /home/vital/Documents/PhD_2021/Malaria_codes/scripts/../data/pdbqt_ligands/ligand_358_temp.pdb
REMARK                            x       y       z     vdW  Elec       q    Type
REMARK                         _______ _______ _______ _____ _____    ______ ____
ROOT
ATOM      1  N1  UNL     1     128.419 129.136  88.104  0.00  0.00    -0.215 NA
ATOM      2  O1  UNL     1     128.400 127.824  87.470  0.00  0.00    -0.302 OA
ATOM      3  C1  UNL     1     129.340 126.981  88.150  0.00  0.00    +0.073 C 
ATOM      4  C2  UNL     1     129.319 125.609  87.478  0.00  0.00    -0.005 C 
ATOM      5  C3  UNL     1     130.324 124.638  88.058  0.00  0.00    -0.049 C 
ATOM      6  C4  UNL     1     131.413 124.269  87.365  0.00  0.00    -0.066 C 
ATOM      7  C5  UNL     1     132.353 123.330  87.930  0.00  0.00    +0.067 C 
ATOM      8  C6  UNL     1     133.592 122.897  87.261  0.00  0.00    -0.029 A 
ATOM      9  C7  UNL     1     133.553 122.404  85.951  0.00  0.00    -0.056 A 
ATOM     10  C8  UNL     1     134.727 121.991  85.313  0.00  0.00    -0.042 A 
ATOM     11  C9  UNL     1     135.953 122.068  85.978  0.00  0.00    +0.059 A 
ATOM     12 CL1  UNL     1     137.363 121.542  85.130  0.00  0.00    -0.082 Cl
ATOM     13  C10 UNL     1     136.002 122.560  87.286  0.00  0.00    +0.060 A 
ATOM     14 CL2  UNL     1     137.480 122.689  88.172  0.00  0.00    -0.082 Cl
ATOM     15  C11 UNL     1     134.825 122.971  87.924  0.00  0.00    -0.038 A 
ATOM     16  C12 UNL     1     131.997 122.798  89.274  0.00  0.00    +0.016 C 
ATOM     17  N2  UNL     1     130.967 123.116  89.970  0.00  0.00    -0.290 NA
ATOM     18  C13 UNL     1     130.017 124.098  89.434  0.00  0.00    +0.061 C 
ATOM     19  H   UNL     1     127.756 129.751  87.633  0.00  0.00    +0.000 HD
ATOM     20  H   UNL     1     129.356 129.532  88.037  0.00  0.00    +0.000 HD
ENDROOT
TORSDOF 0
ENDMDL
MODEL 3
REMARK VINA RESULT:    -4.569     10.400     12.531
REMARK INTER + INTRA:          -4.569
REMARK INTER:                  -4.569
REMARK INTRA:                   0.000
REMARK UNBOUND:                 0.000
REMARK  Name = /home/vital/Documents/PhD_2021/Malaria_codes/scripts/../data/pdbqt_ligands/ligand_358_temp.pdb
REMARK                            x       y       z     vdW  Elec       q    Type
REMARK                         _______ _______ _______ _____ _____    ______ ____
ROOT
ATOM      1  N1  UNL     1     143.473 131.588 102.118  0.00  0.00    -0.215 NA
ATOM      2  O1  UNL     1     143.195 131.426 100.697  0.00  0.00    -0.302 OA
ATOM      3  C1  UNL     1     142.120 130.487 100.552  0.00  0.00    +0.073 C 
ATOM      4  C2  UNL     1     141.837 130.318  99.060  0.00  0.00    -0.005 C 
ATOM      5  C3  UNL     1     140.764 129.293  98.763  0.00  0.00    -0.049 C 
ATOM      6  C4  UNL     1     141.068 128.111  98.203  0.00  0.00    -0.066 C 
ATOM      7  C5  UNL     1     140.027 127.153  97.914  0.00  0.00    +0.067 C 
ATOM      8  C6  UNL     1     140.269 125.820  97.338  0.00  0.00    -0.029 A 
ATOM      9  C7  UNL     1     141.023 125.681  96.166  0.00  0.00    -0.056 A 
ATOM     10  C8  UNL     1     141.254 124.417  95.616  0.00  0.00    -0.042 A 
ATOM     11  C9  UNL     1     140.734 123.276  96.231  0.00  0.00    +0.059 A 
ATOM     12 CL1  UNL     1     141.059 121.746  95.498  0.00  0.00    -0.082 Cl
ATOM     13  C10 UNL     1     139.981 123.404  97.402  0.00  0.00    +0.060 A 
ATOM     14 CL2  UNL     1     139.308 122.040  98.224  0.00  0.00    -0.082 Cl
ATOM     15  C11 UNL     1     139.749 124.671  97.951  0.00  0.00    -0.038 A 
ATOM     16  C12 UNL     1     138.643 127.594  98.238  0.00  0.00    +0.016 C 
ATOM     17  N2  UNL     1     138.305 128.714  98.766  0.00  0.00    -0.290 NA
ATOM     18  C13 UNL     1     139.348 129.688  99.105  0.00  0.00    +0.061 C 
ATOM     19  H   UNL     1     144.236 132.252 102.242  0.00  0.00    +0.000 HD
ATOM     20  H   UNL     1     143.738 130.688 102.517  0.00  0.00    +0.000 HD
ENDROOT
TORSDOF 0
ENDMDL
MODEL 4
REMARK VINA RESULT:    -4.369     14.072     16.135
REMARK INTER + INTRA:          -4.369
REMARK INTER:                  -4.369
REMARK INTRA:                   0.000
REMARK UNBOUND:                 0.000
REMARK  Name = /home/vital/Documents/PhD_2021/Malaria_codes/scripts/../data/pdbqt_ligands/ligand_358_temp.pdb
REMARK                            x       y       z     vdW  Elec       q    Type
REMARK                         _______ _______ _______ _____ _____    ______ ____
ROOT
ATOM      1  N1  UNL     1     139.452 127.853  96.526  0.00  0.00    -0.215 NA
ATOM      2  O1  UNL     1     139.150 128.373  97.853  0.00  0.00    -0.302 OA
ATOM      3  C1  UNL     1     140.348 128.323  98.639  0.00  0.00    +0.073 C 
ATOM      4  C2  UNL     1     140.025 128.865 100.031  0.00  0.00    -0.005 C 
ATOM      5  C3  UNL     1     141.193 128.800 100.989  0.00  0.00    -0.049 C 
ATOM      6  C4  UNL     1     141.205 127.932 102.013  0.00  0.00    -0.066 C 
ATOM      7  C5  UNL     1     142.324 127.897 102.926  0.00  0.00    +0.067 C 
ATOM      8  C6  UNL     1     142.442 126.954 104.052  0.00  0.00    -0.029 A 
ATOM      9  C7  UNL     1     141.400 126.826 104.979  0.00  0.00    -0.056 A 
ATOM     10  C8  UNL     1     141.509 125.934 106.049  0.00  0.00    -0.042 A 
ATOM     11  C9  UNL     1     142.660 125.157 106.204  0.00  0.00    +0.059 A 
ATOM     12 CL1  UNL     1     142.727 124.075 107.548  0.00  0.00    -0.082 Cl
ATOM     13  C10 UNL     1     143.705 125.278 105.283  0.00  0.00    +0.060 A 
ATOM     14 CL2  UNL     1     145.158 124.350 105.404  0.00  0.00    -0.082 Cl
ATOM     15  C11 UNL     1     143.595 126.173 104.212  0.00  0.00    -0.038 A 
ATOM     16  C12 UNL     1     143.394 128.897 102.665  0.00  0.00    +0.016 C 
ATOM     17  N2  UNL     1     143.423 129.749 101.706  0.00  0.00    -0.290 NA
ATOM     18  C13 UNL     1     142.317 129.778 100.742  0.00  0.00    +0.061 C 
ATOM     19  H   UNL     1     138.610 127.880  95.950  0.00  0.00    +0.000 HD
ATOM     20  H   UNL     1     139.777 126.890  96.604  0.00  0.00    +0.000 HD
ENDROOT
TORSDOF 0
ENDMDL
MODEL 5
REMARK VINA RESULT:    -4.247     15.539     17.152
REMARK INTER + INTRA:          -4.247
REMARK INTER:                  -4.247
REMARK INTRA:                   0.000
REMARK UNBOUND:                 0.000
REMARK  Name = /home/vital/Documents/PhD_2021/Malaria_codes/scripts/../data/pdbqt_ligands/ligand_358_temp.pdb
REMARK                            x       y       z     vdW  Elec       q    Type
REMARK                         _______ _______ _______ _____ _____    ______ ____
ROOT
ATOM      1  N1  UNL     1     141.973 132.455 100.244  0.00  0.00    -0.215 NA
ATOM      2  O1  UNL     1     142.781 131.694 101.188  0.00  0.00    -0.302 OA
ATOM      3  C1  UNL     1     142.359 130.324 101.138  0.00  0.00    +0.073 C 
ATOM      4  C2  UNL     1     143.206 129.531 102.133  0.00  0.00    -0.005 C 
ATOM      5  C3  UNL     1     142.812 128.074 102.233  0.00  0.00    -0.049 C 
ATOM      6  C4  UNL     1     142.199 127.593 103.327  0.00  0.00    -0.066 C 
ATOM      7  C5  UNL     1     141.845 126.195 103.408  0.00  0.00    +0.067 C 
ATOM      8  C6  UNL     1     141.138 125.588 104.548  0.00  0.00    -0.029 A 
ATOM      9  C7  UNL     1     141.613 125.768 105.853  0.00  0.00    -0.056 A 
ATOM     10  C8  UNL     1     140.945 125.192 106.938  0.00  0.00    -0.042 A 
ATOM     11  C9  UNL     1     139.793 124.430 106.730  0.00  0.00    +0.059 A 
ATOM     12 CL1  UNL     1     139.017 123.749 108.115  0.00  0.00    -0.082 Cl
ATOM     13  C10 UNL     1     139.310 124.245 105.431  0.00  0.00    +0.060 A 
ATOM     14 CL2  UNL     1     137.890 123.319 105.094  0.00  0.00    -0.082 Cl
ATOM     15  C11 UNL     1     139.981 124.822 104.346  0.00  0.00    -0.038 A 
ATOM     16  C12 UNL     1     142.244 125.365 102.240  0.00  0.00    +0.016 C 
ATOM     17  N2  UNL     1     142.836 125.778 101.179  0.00  0.00    -0.290 NA
ATOM     18  C13 UNL     1     143.171 127.201 101.055  0.00  0.00    +0.061 C 
ATOM     19  H   UNL     1     142.259 133.434 100.264  0.00  0.00    +0.000 HD
ATOM     20  H   UNL     1     140.990 132.383 100.502  0.00  0.00    +0.000 HD
ENDROOT
TORSDOF 0
ENDMDL
MODEL 6
REMARK VINA RESULT:    -4.140      1.824      2.124
REMARK INTER + INTRA:          -4.140
REMARK INTER:                  -4.140
REMARK INTRA:                   0.000
REMARK UNBOUND:                 0.000
REMARK  Name = /home/vital/Documents/PhD_2021/Malaria_codes/scripts/../data/pdbqt_ligands/ligand_358_temp.pdb
REMARK                            x       y       z     vdW  Elec       q    Type
REMARK                         _______ _______ _______ _____ _____    ______ ____
ROOT
ATOM      1  N1  UNL     1     129.400 123.524  90.348  0.00  0.00    -0.215 NA
ATOM      2  O1  UNL     1     130.397 124.238  89.561  0.00  0.00    -0.302 OA
ATOM      3  C1  UNL     1     131.616 123.482  89.586  0.00  0.00    +0.073 C 
ATOM      4  C2  UNL     1     132.659 124.237  88.763  0.00  0.00    -0.005 C 
ATOM      5  C3  UNL     1     134.020 123.580  88.766  0.00  0.00    -0.049 C 
ATOM      6  C4  UNL     1     135.055 124.127  89.425  0.00  0.00    -0.066 C 
ATOM      7  C5  UNL     1     136.352 123.490  89.403  0.00  0.00    +0.067 C 
ATOM      8  C6  UNL     1     137.531 123.995  90.125  0.00  0.00    -0.029 A 
ATOM      9  C7  UNL     1     137.940 125.326  89.971  0.00  0.00    -0.056 A 
ATOM     10  C8  UNL     1     139.060 125.808  90.655  0.00  0.00    -0.042 A 
ATOM     11  C9  UNL     1     139.784 124.966  91.501  0.00  0.00    +0.059 A 
ATOM     12 CL1  UNL     1     141.156 125.627  92.315  0.00  0.00    -0.082 Cl
ATOM     13  C10 UNL     1     139.384 123.636  91.663  0.00  0.00    +0.060 A 
ATOM     14 CL2  UNL     1     140.225 122.534  92.694  0.00  0.00    -0.082 Cl
ATOM     15  C11 UNL     1     138.262 123.154  90.976  0.00  0.00    -0.038 A 
ATOM     16  C12 UNL     1     136.443 122.252  88.584  0.00  0.00    +0.016 C 
ATOM     17  N2  UNL     1     135.486 121.697  87.933  0.00  0.00    -0.290 NA
ATOM     18  C13 UNL     1     134.149 122.303  87.971  0.00  0.00    +0.061 C 
ATOM     19  H   UNL     1     128.525 124.047  90.343  0.00  0.00    +0.000 HD
ATOM     20  H   UNL     1     129.731 123.426  91.308  0.00  0.00    +0.000 HD
ENDROOT
TORSDOF 0
ENDMDL
MODEL 7
REMARK VINA RESULT:    -3.915      3.173      3.977
REMARK INTER + INTRA:          -3.915
REMARK INTER:                  -3.915
REMARK INTRA:                   0.000
REMARK UNBOUND:                 0.000
REMARK  Name = /home/vital/Documents/PhD_2021/Malaria_codes/scripts/../data/pdbqt_ligands/ligand_358_temp.pdb
REMARK                            x       y       z     vdW  Elec       q    Type
REMARK                         _______ _______ _______ _____ _____    ______ ____
ROOT
ATOM      1  N1  UNL     1     130.359 121.600  91.115  0.00  0.00    -0.215 NA
ATOM      2  O1  UNL     1     130.223 122.253  89.819  0.00  0.00    -0.302 OA
ATOM      3  C1  UNL     1     131.487 122.182  89.144  0.00  0.00    +0.073 C 
ATOM      4  C2  UNL     1     131.340 122.872  87.789  0.00  0.00    -0.005 C 
ATOM      5  C3  UNL     1     132.629 122.932  87.000  0.00  0.00    -0.049 C 
ATOM      6  C4  UNL     1     133.281 124.091  86.819  0.00  0.00    -0.066 C 
ATOM      7  C5  UNL     1     134.503 124.129  86.049  0.00  0.00    +0.067 C 
ATOM      8  C6  UNL     1     135.305 125.344  85.831  0.00  0.00    -0.029 A 
ATOM      9  C7  UNL     1     134.703 126.510  85.341  0.00  0.00    -0.056 A 
ATOM     10  C8  UNL     1     135.461 127.666  85.131  0.00  0.00    -0.042 A 
ATOM     11  C9  UNL     1     136.830 127.670  85.411  0.00  0.00    +0.059 A 
ATOM     12 CL1  UNL     1     137.705 129.132  85.130  0.00  0.00    -0.082 Cl
ATOM     13  C10 UNL     1     137.439 126.511  85.902  0.00  0.00    +0.060 A 
ATOM     14 CL2  UNL     1     139.125 126.439  86.276  0.00  0.00    -0.082 Cl
ATOM     15  C11 UNL     1     136.679 125.354  86.110  0.00  0.00    -0.038 A 
ATOM     16  C12 UNL     1     134.930 122.829  85.464  0.00  0.00    +0.016 C 
ATOM     17  N2  UNL     1     134.337 121.699  85.603  0.00  0.00    -0.290 NA
ATOM     18  C13 UNL     1     133.116 121.628  86.413  0.00  0.00    +0.061 C 
ATOM     19  H   UNL     1     129.469 121.641  91.611  0.00  0.00    +0.000 HD
ATOM     20  H   UNL     1     131.075 122.077  91.662  0.00  0.00    +0.000 HD
ENDROOT
TORSDOF 0
ENDMDL
MODEL 8
REMARK VINA RESULT:    -3.840      3.254      3.507
REMARK INTER + INTRA:          -3.840
REMARK INTER:                  -3.840
REMARK INTRA:                   0.000
REMARK UNBOUND:                 0.000
REMARK  Name = /home/vital/Documents/PhD_2021/Malaria_codes/scripts/../data/pdbqt_ligands/ligand_358_temp.pdb
REMARK                            x       y       z     vdW  Elec       q    Type
REMARK                         _______ _______ _______ _____ _____    ______ ____
ROOT
ATOM      1  N1  UNL     1     130.162 121.600  91.117  0.00  0.00    -0.215 NA
ATOM      2  O1  UNL     1     130.286 122.412  89.913  0.00  0.00    -0.302 OA
ATOM      3  C1  UNL     1     131.331 121.858  89.102  0.00  0.00    +0.073 C 
ATOM      4  C2  UNL     1     131.460 122.715  87.844  0.00  0.00    -0.005 C 
ATOM      5  C3  UNL     1     132.582 122.279  86.929  0.00  0.00    -0.049 C 
ATOM      6  C4  UNL     1     133.695 123.018  86.792  0.00  0.00    -0.066 C 
ATOM      7  C5  UNL     1     134.749 122.590  85.901  0.00  0.00    +0.067 C 
ATOM      8  C6  UNL     1     136.018 123.314  85.716  0.00  0.00    -0.029 A 
ATOM      9  C7  UNL     1     136.015 124.681  85.410  0.00  0.00    -0.056 A 
ATOM     10  C8  UNL     1     137.218 125.370  85.232  0.00  0.00    -0.042 A 
ATOM     11  C9  UNL     1     138.438 124.703  85.361  0.00  0.00    +0.059 A 
ATOM     12 CL1  UNL     1     139.885 125.616  85.130  0.00  0.00    -0.082 Cl
ATOM     13  C10 UNL     1     138.451 123.338  85.668  0.00  0.00    +0.060 A 
ATOM     14 CL2  UNL     1     139.919 122.444  85.848  0.00  0.00    -0.082 Cl
ATOM     15  C11 UNL     1     137.246 122.648  85.844  0.00  0.00    -0.038 A 
ATOM     16  C12 UNL     1     134.482 121.334  85.150  0.00  0.00    +0.016 C 
ATOM     17  N2  UNL     1     133.433 120.600  85.242  0.00  0.00    -0.290 NA
ATOM     18  C13 UNL     1     132.365 120.992  86.169  0.00  0.00    +0.061 C 
ATOM     19  H   UNL     1     129.423 121.980  91.708  0.00  0.00    +0.000 HD
ATOM     20  H   UNL     1     131.045 121.612  91.627  0.00  0.00    +0.000 HD
ENDROOT
TORSDOF 0
ENDMDL
MODEL 9
REMARK VINA RESULT:    -3.798     14.870     16.673
REMARK INTER + INTRA:          -3.798
REMARK INTER:                  -3.798
REMARK INTRA:                   0.000
REMARK UNBOUND:                 0.000
REMARK  Name = /home/vital/Documents/PhD_2021/Malaria_codes/scripts/../data/pdbqt_ligands/ligand_358_temp.pdb
REMARK                            x       y       z     vdW  Elec       q    Type
REMARK                         _______ _______ _______ _____ _____    ______ ____
ROOT
ATOM      1  N1  UNL     1     146.972 135.017  94.635  0.00  0.00    -0.215 NA
ATOM      2  O1  UNL     1     146.181 135.334  95.818  0.00  0.00    -0.302 OA
ATOM      3  C1  UNL     1     146.161 134.179  96.669  0.00  0.00    +0.073 C 
ATOM      4  C2  UNL     1     145.327 134.515  97.904  0.00  0.00    -0.005 C 
ATOM      5  C3  UNL     1     145.166 133.352  98.856  0.00  0.00    -0.049 C 
ATOM      6  C4  UNL     1     143.985 132.727  98.998  0.00  0.00    -0.066 C 
ATOM      7  C5  UNL     1     143.849 131.627  99.924  0.00  0.00    +0.067 C 
ATOM      8  C6  UNL     1     142.607 130.860 100.117  0.00  0.00    -0.029 A 
ATOM      9  C7  UNL     1     141.401 131.520 100.384  0.00  0.00    -0.056 A 
ATOM     10  C8  UNL     1     140.221 130.794 100.569  0.00  0.00    -0.042 A 
ATOM     11  C9  UNL     1     140.232 129.400 100.488  0.00  0.00    +0.059 A 
ATOM     12 CL1  UNL     1     138.738 128.567 100.726  0.00  0.00    -0.082 Cl
ATOM     13  C10 UNL     1     141.431 128.732 100.220  0.00  0.00    +0.060 A 
ATOM     14 CL2  UNL     1     141.524 127.010 100.101  0.00  0.00    -0.082 Cl
ATOM     15  C11 UNL     1     142.613 129.460 100.037  0.00  0.00    -0.038 A 
ATOM     16  C12 UNL     1     145.070 131.293 100.705  0.00  0.00    +0.016 C 
ATOM     17  N2  UNL     1     146.215 131.865 100.610  0.00  0.00    -0.290 NA
ATOM     18  C13 UNL     1     146.391 132.959  99.648  0.00  0.00    +0.061 C 
ATOM     19  H   UNL     1     146.997 135.828  94.016  0.00  0.00    +0.000 HD
ATOM     20  H   UNL     1     146.550 134.229  94.145  0.00  0.00    +0.000 HD
ENDROOT
TORSDOF 0
ENDMDL
