MODEL 1
REMARK VINA RESULT:    -3.875      0.000      0.000
REMARK INTER + INTRA:          -3.875
REMARK INTER:                  -3.875
REMARK INTRA:                   0.000
REMARK UNBOUND:                 0.000
REMARK  Name = /home/vital/Documents/PhD_2021/Malaria_codes/scripts/../data/pdbqt_ligands/ligand_65_temp.pdb
REMARK                            x       y       z     vdW  Elec       q    Type
REMARK                         _______ _______ _______ _____ _____    ______ ____
ROOT
ATOM      1  C1  UNL     1     140.964 124.769 107.253  0.00  0.00    -0.062 C 
ATOM      2  C2  UNL     1     140.967 125.816 106.153  0.00  0.00    -0.021 C 
ATOM      3  C3  UNL     1     142.222 125.728 105.291  0.00  0.00    +0.093 C 
ATOM      4  O1  UNL     1     142.211 126.766 104.299  0.00  0.00    -0.462 OA
ATOM      5  C4  UNL     1     141.570 126.469 103.143  0.00  0.00    +0.332 C 
ATOM      6  O2  UNL     1     141.008 125.417 102.878  0.00  0.00    -0.246 OA
ATOM      7  C5  UNL     1     141.611 127.593 102.186  0.00  0.00    +0.023 C 
ATOM      8  C6  UNL     1     142.202 128.774 102.427  0.00  0.00    -0.048 C 
ATOM      9  C7  UNL     1     142.242 129.879 101.458  0.00  0.00    -0.025 A 
ATOM     10  C8  UNL     1     141.157 130.191 100.630  0.00  0.00    -0.054 A 
ATOM     11  C9  UNL     1     141.225 131.268  99.741  0.00  0.00    -0.058 A 
ATOM     12  C10 UNL     1     142.375 132.063  99.673  0.00  0.00    -0.048 A 
ATOM     13  C11 UNL     1     142.455 133.213  98.702  0.00  0.00    -0.031 C 
ATOM     14  C12 UNL     1     143.011 132.777  97.355  0.00  0.00    -0.061 C 
ATOM     15  C13 UNL     1     143.457 131.758 100.506  0.00  0.00    -0.058 A 
ATOM     16  C14 UNL     1     143.387 130.682 101.396  0.00  0.00    -0.054 A 
ENDROOT
TORSDOF 0
ENDMDL
MODEL 2
REMARK VINA RESULT:    -3.627      2.209      8.339
REMARK INTER + INTRA:          -3.627
REMARK INTER:                  -3.627
REMARK INTRA:                   0.000
REMARK UNBOUND:                 0.000
REMARK  Name = /home/vital/Documents/PhD_2021/Malaria_codes/scripts/../data/pdbqt_ligands/ligand_65_temp.pdb
REMARK                            x       y       z     vdW  Elec       q    Type
REMARK                         _______ _______ _______ _____ _____    ______ ____
ROOT
ATOM      1  C1  UNL     1     140.306 130.734  99.585  0.00  0.00    -0.062 C 
ATOM      2  C2  UNL     1     140.839 129.863 100.708  0.00  0.00    -0.021 C 
ATOM      3  C3  UNL     1     139.845 128.777 101.102  0.00  0.00    +0.093 C 
ATOM      4  O1  UNL     1     140.364 128.012 102.201  0.00  0.00    -0.462 OA
ATOM      5  C4  UNL     1     141.156 126.964 101.867  0.00  0.00    +0.332 C 
ATOM      6  O2  UNL     1     141.466 126.625 100.735  0.00  0.00    -0.246 OA
ATOM      7  C5  UNL     1     141.641 126.238 103.059  0.00  0.00    +0.023 C 
ATOM      8  C6  UNL     1     141.344 126.573 104.325  0.00  0.00    -0.048 C 
ATOM      9  C7  UNL     1     141.828 125.832 105.499  0.00  0.00    -0.025 A 
ATOM     10  C8  UNL     1     143.120 125.298 105.569  0.00  0.00    -0.054 A 
ATOM     11  C9  UNL     1     143.551 124.624 106.716  0.00  0.00    -0.058 A 
ATOM     12  C10 UNL     1     142.702 124.484 107.820  0.00  0.00    -0.048 A 
ATOM     13  C11 UNL     1     143.160 123.742 109.049  0.00  0.00    -0.031 C 
ATOM     14  C12 UNL     1     142.842 122.257 108.964  0.00  0.00    -0.061 C 
ATOM     15  C13 UNL     1     141.413 125.025 107.755  0.00  0.00    -0.058 A 
ATOM     16  C14 UNL     1     140.985 125.700 106.608  0.00  0.00    -0.054 A 
ENDROOT
TORSDOF 0
ENDMDL
MODEL 3
REMARK VINA RESULT:    -3.553      2.926      7.774
REMARK INTER + INTRA:          -3.553
REMARK INTER:                  -3.553
REMARK INTRA:                   0.000
REMARK UNBOUND:                 0.000
REMARK  Name = /home/vital/Documents/PhD_2021/Malaria_codes/scripts/../data/pdbqt_ligands/ligand_65_temp.pdb
REMARK                            x       y       z     vdW  Elec       q    Type
REMARK                         _______ _______ _______ _____ _____    ______ ____
ROOT
ATOM      1  C1  UNL     1     145.302 133.444  96.463  0.00  0.00    -0.062 C 
ATOM      2  C2  UNL     1     144.710 132.409  97.403  0.00  0.00    -0.021 C 
ATOM      3  C3  UNL     1     144.809 132.846  98.859  0.00  0.00    +0.093 C 
ATOM      4  O1  UNL     1     144.288 131.818  99.717  0.00  0.00    -0.462 OA
ATOM      5  C4  UNL     1     142.953 131.862  99.945  0.00  0.00    +0.332 C 
ATOM      6  O2  UNL     1     142.169 132.680  99.489  0.00  0.00    -0.246 OA
ATOM      7  C5  UNL     1     142.510 130.769 100.835  0.00  0.00    +0.023 C 
ATOM      8  C6  UNL     1     143.323 129.836 101.355  0.00  0.00    -0.048 C 
ATOM      9  C7  UNL     1     142.866 128.762 102.248  0.00  0.00    -0.025 A 
ATOM     10  C8  UNL     1     141.645 128.102 102.065  0.00  0.00    -0.054 A 
ATOM     11  C9  UNL     1     141.259 127.066 102.920  0.00  0.00    -0.058 A 
ATOM     12  C10 UNL     1     142.095 126.659 103.967  0.00  0.00    -0.048 A 
ATOM     13  C11 UNL     1     141.672 125.554 104.901  0.00  0.00    -0.031 C 
ATOM     14  C12 UNL     1     140.895 126.090 106.094  0.00  0.00    -0.061 C 
ATOM     15  C13 UNL     1     143.320 127.311 104.147  0.00  0.00    -0.058 A 
ATOM     16  C14 UNL     1     143.705 128.347 103.289  0.00  0.00    -0.054 A 
ENDROOT
TORSDOF 0
ENDMDL
MODEL 4
REMARK VINA RESULT:    -3.457      1.907      7.995
REMARK INTER + INTRA:          -3.457
REMARK INTER:                  -3.457
REMARK INTRA:                   0.000
REMARK UNBOUND:                 0.000
REMARK  Name = /home/vital/Documents/PhD_2021/Malaria_codes/scripts/../data/pdbqt_ligands/ligand_65_temp.pdb
REMARK                            x       y       z     vdW  Elec       q    Type
REMARK                         _______ _______ _______ _____ _____    ______ ____
ROOT
ATOM      1  C1  UNL     1     142.227 132.554  99.395  0.00  0.00    -0.062 C 
ATOM      2  C2  UNL     1     142.443 131.454 100.419  0.00  0.00    -0.021 C 
ATOM      3  C3  UNL     1     141.264 130.489 100.469  0.00  0.00    +0.093 C 
ATOM      4  O1  UNL     1     141.484 129.497 101.485  0.00  0.00    -0.462 OA
ATOM      5  C4  UNL     1     142.179 128.401 101.097  0.00  0.00    +0.332 C 
ATOM      6  O2  UNL     1     142.632 128.190  99.982  0.00  0.00    -0.246 OA
ATOM      7  C5  UNL     1     142.355 127.440 102.205  0.00  0.00    +0.023 C 
ATOM      8  C6  UNL     1     141.892 127.625 103.451  0.00  0.00    -0.048 C 
ATOM      9  C7  UNL     1     142.067 126.652 104.539  0.00  0.00    -0.025 A 
ATOM     10  C8  UNL     1     143.248 125.919 104.707  0.00  0.00    -0.054 A 
ATOM     11  C9  UNL     1     143.386 125.023 105.772  0.00  0.00    -0.058 A 
ATOM     12  C10 UNL     1     142.350 124.854 106.698  0.00  0.00    -0.048 A 
ATOM     13  C11 UNL     1     142.491 123.876 107.835  0.00  0.00    -0.031 C 
ATOM     14  C12 UNL     1     142.003 122.487 107.450  0.00  0.00    -0.061 C 
ATOM     15  C13 UNL     1     141.172 125.592 106.536  0.00  0.00    -0.058 A 
ATOM     16  C14 UNL     1     141.037 126.489 105.471  0.00  0.00    -0.054 A 
ENDROOT
TORSDOF 0
ENDMDL
MODEL 5
REMARK VINA RESULT:    -3.376     13.661     15.556
REMARK INTER + INTRA:          -3.376
REMARK INTER:                  -3.376
REMARK INTRA:                   0.000
REMARK UNBOUND:                 0.000
REMARK  Name = /home/vital/Documents/PhD_2021/Malaria_codes/scripts/../data/pdbqt_ligands/ligand_65_temp.pdb
REMARK                            x       y       z     vdW  Elec       q    Type
REMARK                         _______ _______ _______ _____ _____    ______ ____
ROOT
ATOM      1  C1  UNL     1     131.308 121.571  86.329  0.00  0.00    -0.062 C 
ATOM      2  C2  UNL     1     132.564 122.187  86.919  0.00  0.00    -0.021 C 
ATOM      3  C3  UNL     1     132.387 123.676  87.195  0.00  0.00    +0.093 C 
ATOM      4  O1  UNL     1     133.612 124.231  87.701  0.00  0.00    -0.462 OA
ATOM      5  C4  UNL     1     133.784 124.150  89.042  0.00  0.00    +0.332 C 
ATOM      6  O2  UNL     1     133.007 123.651  89.842  0.00  0.00    -0.246 OA
ATOM      7  C5  UNL     1     135.067 124.745  89.469  0.00  0.00    +0.023 C 
ATOM      8  C6  UNL     1     135.965 125.294  88.635  0.00  0.00    -0.048 C 
ATOM      9  C7  UNL     1     137.232 125.891  89.080  0.00  0.00    -0.025 A 
ATOM     10  C8  UNL     1     138.002 125.337  90.110  0.00  0.00    -0.054 A 
ATOM     11  C9  UNL     1     139.217 125.919  90.484  0.00  0.00    -0.058 A 
ATOM     12  C10 UNL     1     139.693 127.059  89.824  0.00  0.00    -0.048 A 
ATOM     13  C11 UNL     1     140.993 127.697  90.239  0.00  0.00    -0.031 C 
ATOM     14  C12 UNL     1     140.787 128.746  91.322  0.00  0.00    -0.061 C 
ATOM     15  C13 UNL     1     138.929 127.609  88.788  0.00  0.00    -0.058 A 
ATOM     16  C14 UNL     1     137.715 127.023  88.415  0.00  0.00    -0.054 A 
ENDROOT
TORSDOF 0
ENDMDL
MODEL 6
REMARK VINA RESULT:    -3.343      1.905      8.195
REMARK INTER + INTRA:          -3.343
REMARK INTER:                  -3.343
REMARK INTRA:                   0.000
REMARK UNBOUND:                 0.000
REMARK  Name = /home/vital/Documents/PhD_2021/Malaria_codes/scripts/../data/pdbqt_ligands/ligand_65_temp.pdb
REMARK                            x       y       z     vdW  Elec       q    Type
REMARK                         _______ _______ _______ _____ _____    ______ ____
ROOT
ATOM      1  C1  UNL     1     141.964 131.996  99.324  0.00  0.00    -0.062 C 
ATOM      2  C2  UNL     1     141.733 131.020 100.464  0.00  0.00    -0.021 C 
ATOM      3  C3  UNL     1     142.317 129.646 100.158  0.00  0.00    +0.093 C 
ATOM      4  O1  UNL     1     142.030 128.740 101.235  0.00  0.00    -0.462 OA
ATOM      5  C4  UNL     1     142.923 128.734 102.253  0.00  0.00    +0.332 C 
ATOM      6  O2  UNL     1     143.928 129.423 102.337  0.00  0.00    -0.246 OA
ATOM      7  C5  UNL     1     142.546 127.774 103.311  0.00  0.00    +0.023 C 
ATOM      8  C6  UNL     1     141.449 127.002 103.280  0.00  0.00    -0.048 C 
ATOM      9  C7  UNL     1     141.095 126.044 104.338  0.00  0.00    -0.025 A 
ATOM     10  C8  UNL     1     141.294 126.319 105.696  0.00  0.00    -0.054 A 
ATOM     11  C9  UNL     1     140.918 125.392 106.673  0.00  0.00    -0.058 A 
ATOM     12  C10 UNL     1     140.322 124.178 106.311  0.00  0.00    -0.048 A 
ATOM     13  C11 UNL     1     139.933 123.172 107.363  0.00  0.00    -0.031 C 
ATOM     14  C12 UNL     1     141.069 122.207 107.669  0.00  0.00    -0.061 C 
ATOM     15  C13 UNL     1     140.114 123.906 104.954  0.00  0.00    -0.058 A 
ATOM     16  C14 UNL     1     140.490 124.835 103.978  0.00  0.00    -0.054 A 
ENDROOT
TORSDOF 0
ENDMDL
MODEL 7
REMARK VINA RESULT:    -3.308     14.529     16.145
REMARK INTER + INTRA:          -3.308
REMARK INTER:                  -3.308
REMARK INTRA:                   0.000
REMARK UNBOUND:                 0.000
REMARK  Name = /home/vital/Documents/PhD_2021/Malaria_codes/scripts/../data/pdbqt_ligands/ligand_65_temp.pdb
REMARK                            x       y       z     vdW  Elec       q    Type
REMARK                         _______ _______ _______ _____ _____    ______ ____
ROOT
ATOM      1  C1  UNL     1     131.294 120.769  85.280  0.00  0.00    -0.062 C 
ATOM      2  C2  UNL     1     132.521 121.247  86.035  0.00  0.00    -0.021 C 
ATOM      3  C3  UNL     1     132.226 122.492  86.863  0.00  0.00    +0.093 C 
ATOM      4  O1  UNL     1     133.422 122.942  87.518  0.00  0.00    -0.462 OA
ATOM      5  C4  UNL     1     133.681 122.378  88.723  0.00  0.00    +0.332 C 
ATOM      6  O2  UNL     1     133.002 121.534  89.286  0.00  0.00    -0.246 OA
ATOM      7  C5  UNL     1     134.928 122.901  89.319  0.00  0.00    +0.023 C 
ATOM      8  C6  UNL     1     135.720 123.818  88.741  0.00  0.00    -0.048 C 
ATOM      9  C7  UNL     1     136.952 124.334  89.354  0.00  0.00    -0.025 A 
ATOM     10  C8  UNL     1     137.829 123.518  90.078  0.00  0.00    -0.054 A 
ATOM     11  C9  UNL     1     139.006 124.042  90.622  0.00  0.00    -0.058 A 
ATOM     12  C10 UNL     1     139.335 125.390  90.439  0.00  0.00    -0.048 A 
ATOM     13  C11 UNL     1     140.594 125.960  91.040  0.00  0.00    -0.031 C 
ATOM     14  C12 UNL     1     140.358 126.492  92.446  0.00  0.00    -0.061 C 
ATOM     15  C13 UNL     1     138.464 126.206  89.708  0.00  0.00    -0.058 A 
ATOM     16  C14 UNL     1     137.288 125.679  89.163  0.00  0.00    -0.054 A 
ENDROOT
TORSDOF 0
ENDMDL
MODEL 8
REMARK VINA RESULT:    -3.239      2.441      7.867
REMARK INTER + INTRA:          -3.239
REMARK INTER:                  -3.239
REMARK INTRA:                   0.000
REMARK UNBOUND:                 0.000
REMARK  Name = /home/vital/Documents/PhD_2021/Malaria_codes/scripts/../data/pdbqt_ligands/ligand_65_temp.pdb
REMARK                            x       y       z     vdW  Elec       q    Type
REMARK                         _______ _______ _______ _____ _____    ______ ____
ROOT
ATOM      1  C1  UNL     1     145.671 131.638 100.162  0.00  0.00    -0.062 C 
ATOM      2  C2  UNL     1     144.973 130.451 100.802  0.00  0.00    -0.021 C 
ATOM      3  C3  UNL     1     143.731 130.876 101.577  0.00  0.00    +0.093 C 
ATOM      4  O1  UNL     1     143.132 129.734 102.210  0.00  0.00    -0.462 OA
ATOM      5  C4  UNL     1     142.247 129.040 101.455  0.00  0.00    +0.332 C 
ATOM      6  O2  UNL     1     141.924 129.293 100.304  0.00  0.00    -0.246 OA
ATOM      7  C5  UNL     1     141.684 127.887 102.187  0.00  0.00    +0.023 C 
ATOM      8  C6  UNL     1     142.010 127.554 103.445  0.00  0.00    -0.048 C 
ATOM      9  C7  UNL     1     141.432 126.408 104.162  0.00  0.00    -0.025 A 
ATOM     10  C8  UNL     1     141.165 125.186 103.532  0.00  0.00    -0.054 A 
ATOM     11  C9  UNL     1     140.640 124.111 104.256  0.00  0.00    -0.058 A 
ATOM     12  C10 UNL     1     140.386 124.233 105.627  0.00  0.00    -0.048 A 
ATOM     13  C11 UNL     1     139.804 123.080 106.404  0.00  0.00    -0.031 C 
ATOM     14  C12 UNL     1     138.282 123.106 106.399  0.00  0.00    -0.061 C 
ATOM     15  C13 UNL     1     140.660 125.450 106.260  0.00  0.00    -0.058 A 
ATOM     16  C14 UNL     1     141.186 126.524 105.535  0.00  0.00    -0.054 A 
ENDROOT
TORSDOF 0
ENDMDL
MODEL 9
REMARK VINA RESULT:    -3.204     12.723     14.063
REMARK INTER + INTRA:          -3.204
REMARK INTER:                  -3.204
REMARK INTRA:                   0.000
REMARK UNBOUND:                 0.000
REMARK  Name = /home/vital/Documents/PhD_2021/Malaria_codes/scripts/../data/pdbqt_ligands/ligand_65_temp.pdb
REMARK                            x       y       z     vdW  Elec       q    Type
REMARK                         _______ _______ _______ _____ _____    ______ ____
ROOT
ATOM      1  C1  UNL     1     138.116 128.280  87.998  0.00  0.00    -0.062 C 
ATOM      2  C2  UNL     1     139.115 129.411  88.172  0.00  0.00    -0.021 C 
ATOM      3  C3  UNL     1     138.551 130.534  89.034  0.00  0.00    +0.093 C 
ATOM      4  O1  UNL     1     139.504 131.605  89.129  0.00  0.00    -0.462 OA
ATOM      5  C4  UNL     1     140.417 131.494  90.124  0.00  0.00    +0.332 C 
ATOM      6  O2  UNL     1     140.502 130.578  90.928  0.00  0.00    -0.246 OA
ATOM      7  C5  UNL     1     141.352 132.637  90.145  0.00  0.00    +0.023 C 
ATOM      8  C6  UNL     1     141.315 133.664  89.280  0.00  0.00    -0.048 C 
ATOM      9  C7  UNL     1     142.248 134.799  89.322  0.00  0.00    -0.025 A 
ATOM     10  C8  UNL     1     143.605 134.644  89.627  0.00  0.00    -0.054 A 
ATOM     11  C9  UNL     1     144.466 135.746  89.629  0.00  0.00    -0.058 A 
ATOM     12  C10 UNL     1     143.987 137.023  89.311  0.00  0.00    -0.048 A 
ATOM     13  C11 UNL     1     144.911 138.214  89.330  0.00  0.00    -0.031 C 
ATOM     14  C12 UNL     1     144.955 138.872  90.701  0.00  0.00    -0.061 C 
ATOM     15  C13 UNL     1     142.632 137.179  88.998  0.00  0.00    -0.058 A 
ATOM     16  C14 UNL     1     141.774 136.075  88.995  0.00  0.00    -0.054 A 
ENDROOT
TORSDOF 0
ENDMDL
