MODEL 1
REMARK VINA RESULT:    -4.990      0.000      0.000
REMARK INTER + INTRA:          -4.990
REMARK INTER:                  -4.990
REMARK INTRA:                   0.000
REMARK UNBOUND:                 0.000
REMARK  Name = /home/vital/Documents/PhD_2021/Malaria_codes/scripts/../data/pdbqt_ligands/ligand_276_temp.pdb
REMARK                            x       y       z     vdW  Elec       q    Type
REMARK                         _______ _______ _______ _____ _____    ______ ____
ROOT
ATOM      1  C   UNL     1     145.299 131.420 101.483  0.00  0.00    +0.082 C 
ATOM      2  O   UNL     1     144.297 132.029 100.667  0.00  0.00    -0.468 OA
ATOM      3  C   UNL     1     143.816 131.214  99.680  0.00  0.00    +0.313 C 
ATOM      4  O   UNL     1     144.158 130.047  99.536  0.00  0.00    -0.250 OA
ATOM      5  C   UNL     1     142.744 131.938  98.848  0.00  0.00    +0.074 C 
ATOM      6  C   UNL     1     141.438 132.001  99.683  0.00  0.00    -0.012 C 
ATOM      7  C   UNL     1     140.758 130.683  99.977  0.00  0.00    -0.044 A 
ATOM      8  C   UNL     1     141.146 129.903 101.078  0.00  0.00    -0.058 A 
ATOM      9  C   UNL     1     140.520 128.682 101.346  0.00  0.00    -0.059 A 
ATOM     10  C   UNL     1     139.493 128.230 100.522  0.00  0.00    -0.026 A 
ATOM     11  C   UNL     1     139.100 129.003  99.437  0.00  0.00    +0.124 A 
ATOM     12  F   UNL     1     138.110 128.572  98.643  0.00  0.00    -0.205 F 
ATOM     13  C   UNL     1     139.718 130.219  99.159  0.00  0.00    -0.023 A 
ATOM     14  C   UNL     1     143.198 133.382  98.523  0.00  0.00    -0.024 C 
ATOM     15  C   UNL     1     144.508 133.425  97.723  0.00  0.00    +0.000 C 
ATOM     16  N   UNL     1     144.753 132.188  96.989  0.00  0.00    -0.298 N 
ATOM     17  C   UNL     1     145.907 132.219  96.082  0.00  0.00    +0.028 C 
ATOM     18  C   UNL     1     145.827 133.162  94.892  0.00  0.00    +0.009 A 
ATOM     19  C   UNL     1     146.288 134.486  95.041  0.00  0.00    -0.036 A 
ATOM     20  C   UNL     1     146.230 135.393  93.980  0.00  0.00    +0.052 A 
ATOM     21  C   UNL     1     146.693 136.738  94.153  0.00  0.00    +0.099 C 
ATOM     22  N   UNL     1     147.064 137.829  94.295  0.00  0.00    -0.191 NA
ATOM     23  C   UNL     1     145.717 134.979  92.751  0.00  0.00    -0.041 A 
ATOM     24  C   UNL     1     145.269 133.665  92.583  0.00  0.00    -0.018 A 
ATOM     25  C   UNL     1     145.324 132.751  93.642  0.00  0.00    +0.125 A 
ATOM     26  O   UNL     1     144.927 131.444  93.551  0.00  0.00    -0.495 OA
ATOM     27  C   UNL     1     144.398 130.993  92.311  0.00  0.00    +0.079 C 
ATOM     28  C   UNL     1     143.548 131.610  96.410  0.00  0.00    +0.000 C 
ATOM     29  C   UNL     1     142.533 131.211  97.495  0.00  0.00    -0.024 C 
ATOM     30  H   UNL     1     145.047 131.527  97.709  0.00  0.00    +0.000 HD
ENDROOT
TORSDOF 0
ENDMDL
MODEL 2
REMARK VINA RESULT:    -4.476      6.618     10.454
REMARK INTER + INTRA:          -4.476
REMARK INTER:                  -4.476
REMARK INTRA:                   0.000
REMARK UNBOUND:                 0.000
REMARK  Name = /home/vital/Documents/PhD_2021/Malaria_codes/scripts/../data/pdbqt_ligands/ligand_276_temp.pdb
REMARK                            x       y       z     vdW  Elec       q    Type
REMARK                         _______ _______ _______ _____ _____    ______ ____
ROOT
ATOM      1  C   UNL     1     143.344 132.006  87.994  0.00  0.00    +0.082 C 
ATOM      2  O   UNL     1     142.289 131.904  88.951  0.00  0.00    -0.468 OA
ATOM      3  C   UNL     1     142.569 131.070  89.999  0.00  0.00    +0.313 C 
ATOM      4  O   UNL     1     143.646 130.505  90.148  0.00  0.00    -0.250 OA
ATOM      5  C   UNL     1     141.389 131.014  90.983  0.00  0.00    +0.074 C 
ATOM      6  C   UNL     1     141.371 132.332  91.801  0.00  0.00    -0.012 C 
ATOM      7  C   UNL     1     142.538 132.565  92.735  0.00  0.00    -0.044 A 
ATOM      8  C   UNL     1     143.729 133.145  92.269  0.00  0.00    -0.058 A 
ATOM      9  C   UNL     1     144.808 133.355  93.132  0.00  0.00    -0.059 A 
ATOM     10  C   UNL     1     144.707 132.995  94.473  0.00  0.00    -0.026 A 
ATOM     11  C   UNL     1     143.528 132.429  94.940  0.00  0.00    +0.124 A 
ATOM     12  F   UNL     1     143.427 132.085  96.231  0.00  0.00    -0.205 F 
ATOM     13  C   UNL     1     142.448 132.214  94.089  0.00  0.00    -0.023 A 
ATOM     14  C   UNL     1     140.052 130.887  90.214  0.00  0.00    -0.024 C 
ATOM     15  C   UNL     1     139.986 129.623  89.345  0.00  0.00    +0.000 C 
ATOM     16  N   UNL     1     140.890 128.578  89.812  0.00  0.00    -0.298 N 
ATOM     17  C   UNL     1     140.764 127.288  89.120  0.00  0.00    +0.028 C 
ATOM     18  C   UNL     1     139.456 126.534  89.294  0.00  0.00    +0.009 A 
ATOM     19  C   UNL     1     138.402 126.781  88.391  0.00  0.00    -0.036 A 
ATOM     20  C   UNL     1     137.178 126.119  88.513  0.00  0.00    +0.052 A 
ATOM     21  C   UNL     1     136.114 126.392  87.592  0.00  0.00    +0.099 C 
ATOM     22  N   UNL     1     135.252 126.617  86.848  0.00  0.00    -0.191 NA
ATOM     23  C   UNL     1     136.999 125.191  89.539  0.00  0.00    -0.041 A 
ATOM     24  C   UNL     1     138.040 124.923  90.433  0.00  0.00    -0.018 A 
ATOM     25  C   UNL     1     139.269 125.584  90.318  0.00  0.00    +0.125 A 
ATOM     26  O   UNL     1     140.342 125.362  91.139  0.00  0.00    -0.495 OA
ATOM     27  C   UNL     1     140.189 124.422  92.195  0.00  0.00    +0.079 C 
ATOM     28  C   UNL     1     140.957 128.477  91.263  0.00  0.00    +0.000 C 
ATOM     29  C   UNL     1     141.510 129.766  91.896  0.00  0.00    -0.024 C 
ATOM     30  H   UNL     1     141.813 128.901  89.524  0.00  0.00    +0.000 HD
ENDROOT
TORSDOF 0
ENDMDL
MODEL 3
REMARK VINA RESULT:    -4.039      7.711     11.728
REMARK INTER + INTRA:          -4.039
REMARK INTER:                  -4.039
REMARK INTRA:                   0.000
REMARK UNBOUND:                 0.000
REMARK  Name = /home/vital/Documents/PhD_2021/Malaria_codes/scripts/../data/pdbqt_ligands/ligand_276_temp.pdb
REMARK                            x       y       z     vdW  Elec       q    Type
REMARK                         _______ _______ _______ _____ _____    ______ ____
ROOT
ATOM      1  C   UNL     1     141.953 131.476  86.369  0.00  0.00    +0.082 C 
ATOM      2  O   UNL     1     141.003 131.441  87.435  0.00  0.00    -0.468 OA
ATOM      3  C   UNL     1     141.424 130.737  88.530  0.00  0.00    +0.313 C 
ATOM      4  O   UNL     1     142.536 130.232  88.626  0.00  0.00    -0.250 OA
ATOM      5  C   UNL     1     140.351 130.745  89.631  0.00  0.00    +0.074 C 
ATOM      6  C   UNL     1     140.352 132.144  90.304  0.00  0.00    -0.012 C 
ATOM      7  C   UNL     1     141.593 132.520  91.083  0.00  0.00    -0.044 A 
ATOM      8  C   UNL     1     142.703 133.088  90.438  0.00  0.00    -0.058 A 
ATOM      9  C   UNL     1     143.851 133.430  91.159  0.00  0.00    -0.059 A 
ATOM     10  C   UNL     1     143.900 133.216  92.533  0.00  0.00    -0.026 A 
ATOM     11  C   UNL     1     142.801 132.661  93.176  0.00  0.00    +0.124 A 
ATOM     12  F   UNL     1     142.844 132.456  94.499  0.00  0.00    -0.205 F 
ATOM     13  C   UNL     1     141.653 132.315  92.469  0.00  0.00    -0.023 A 
ATOM     14  C   UNL     1     138.952 130.487  89.022  0.00  0.00    -0.024 C 
ATOM     15  C   UNL     1     138.860 129.134  88.301  0.00  0.00    +0.000 C 
ATOM     16  N   UNL     1     139.854 128.180  88.780  0.00  0.00    -0.298 N 
ATOM     17  C   UNL     1     139.722 126.819  88.244  0.00  0.00    +0.028 C 
ATOM     18  C   UNL     1     138.474 126.041  88.630  0.00  0.00    +0.009 A 
ATOM     19  C   UNL     1     137.326 126.150  87.820  0.00  0.00    -0.036 A 
ATOM     20  C   UNL     1     136.153 125.461  88.136  0.00  0.00    +0.052 A 
ATOM     21  C   UNL     1     134.992 125.593  87.306  0.00  0.00    +0.099 C 
ATOM     22  N   UNL     1     134.050 125.703  86.636  0.00  0.00    -0.191 NA
ATOM     23  C   UNL     1     136.120 124.644  89.266  0.00  0.00    -0.041 A 
ATOM     24  C   UNL     1     137.255 124.514  90.072  0.00  0.00    -0.018 A 
ATOM     25  C   UNL     1     138.434 125.202  89.762  0.00  0.00    +0.125 A 
ATOM     26  O   UNL     1     139.592 125.110  90.486  0.00  0.00    -0.495 OA
ATOM     27  C   UNL     1     139.589 124.286  91.645  0.00  0.00    +0.079 C 
ATOM     28  C   UNL     1     140.069 128.241  90.219  0.00  0.00    +0.000 C 
ATOM     29  C   UNL     1     140.621 129.610  90.652  0.00  0.00    -0.024 C 
ATOM     30  H   UNL     1     140.729 128.503  88.366  0.00  0.00    +0.000 HD
ENDROOT
TORSDOF 0
ENDMDL
MODEL 4
REMARK VINA RESULT:    -3.914      5.633      8.730
REMARK INTER + INTRA:          -3.914
REMARK INTER:                  -3.914
REMARK INTRA:                   0.000
REMARK UNBOUND:                 0.000
REMARK  Name = /home/vital/Documents/PhD_2021/Malaria_codes/scripts/../data/pdbqt_ligands/ligand_276_temp.pdb
REMARK                            x       y       z     vdW  Elec       q    Type
REMARK                         _______ _______ _______ _____ _____    ______ ____
ROOT
ATOM      1  C   UNL     1     138.349 131.351  87.632  0.00  0.00    +0.082 C 
ATOM      2  O   UNL     1     139.485 130.573  88.011  0.00  0.00    -0.468 OA
ATOM      3  C   UNL     1     139.402 130.046  89.271  0.00  0.00    +0.313 C 
ATOM      4  O   UNL     1     138.422 130.170  89.995  0.00  0.00    -0.250 OA
ATOM      5  C   UNL     1     140.658 129.224  89.603  0.00  0.00    +0.074 C 
ATOM      6  C   UNL     1     140.576 127.876  88.838  0.00  0.00    -0.012 C 
ATOM      7  C   UNL     1     139.471 126.929  89.252  0.00  0.00    -0.044 A 
ATOM      8  C   UNL     1     138.182 127.047  88.709  0.00  0.00    -0.058 A 
ATOM      9  C   UNL     1     137.161 126.173  89.096  0.00  0.00    -0.059 A 
ATOM     10  C   UNL     1     137.419 125.168  90.024  0.00  0.00    -0.026 A 
ATOM     11  C   UNL     1     138.695 125.043  90.556  0.00  0.00    +0.124 A 
ATOM     12  F   UNL     1     138.947 124.075  91.447  0.00  0.00    -0.205 F 
ATOM     13  C   UNL     1     139.719 125.908  90.180  0.00  0.00    -0.023 A 
ATOM     14  C   UNL     1     141.932 129.977  89.148  0.00  0.00    -0.024 C 
ATOM     15  C   UNL     1     142.085 131.345  89.829  0.00  0.00    +0.000 C 
ATOM     16  N   UNL     1     141.364 131.422  91.094  0.00  0.00    -0.298 N 
ATOM     17  C   UNL     1     141.594 132.646  91.872  0.00  0.00    +0.028 C 
ATOM     18  C   UNL     1     142.998 132.870  92.411  0.00  0.00    +0.009 A 
ATOM     19  C   UNL     1     143.932 133.559  91.611  0.00  0.00    -0.036 A 
ATOM     20  C   UNL     1     145.236 133.784  92.058  0.00  0.00    +0.052 A 
ATOM     21  C   UNL     1     146.176 134.477  91.227  0.00  0.00    +0.099 C 
ATOM     22  N   UNL     1     146.937 135.035  90.551  0.00  0.00    -0.191 NA
ATOM     23  C   UNL     1     145.617 133.328  93.320  0.00  0.00    -0.041 A 
ATOM     24  C   UNL     1     144.698 132.656  94.132  0.00  0.00    -0.018 A 
ATOM     25  C   UNL     1     143.389 132.427  93.690  0.00  0.00    +0.125 A 
ATOM     26  O   UNL     1     142.426 131.797  94.432  0.00  0.00    -0.495 OA
ATOM     27  C   UNL     1     142.784 131.320  95.722  0.00  0.00    +0.079 C 
ATOM     28  C   UNL     1     141.432 130.193  91.875  0.00  0.00    +0.000 C 
ATOM     29  C   UNL     1     140.773 129.016  91.135  0.00  0.00    -0.024 C 
ATOM     30  H   UNL     1     140.385 131.508  90.818  0.00  0.00    +0.000 HD
ENDROOT
TORSDOF 0
ENDMDL
MODEL 5
REMARK VINA RESULT:    -3.778      6.849     10.047
REMARK INTER + INTRA:          -3.778
REMARK INTER:                  -3.778
REMARK INTRA:                   0.000
REMARK UNBOUND:                 0.000
REMARK  Name = /home/vital/Documents/PhD_2021/Malaria_codes/scripts/../data/pdbqt_ligands/ligand_276_temp.pdb
REMARK                            x       y       z     vdW  Elec       q    Type
REMARK                         _______ _______ _______ _____ _____    ______ ____
ROOT
ATOM      1  C   UNL     1     137.578 130.769  85.743  0.00  0.00    +0.082 C 
ATOM      2  O   UNL     1     138.704 130.077  86.285  0.00  0.00    -0.468 OA
ATOM      3  C   UNL     1     138.621 129.851  87.631  0.00  0.00    +0.313 C 
ATOM      4  O   UNL     1     137.649 130.153  88.312  0.00  0.00    -0.250 OA
ATOM      5  C   UNL     1     139.867 129.104  88.138  0.00  0.00    +0.074 C 
ATOM      6  C   UNL     1     139.758 127.620  87.698  0.00  0.00    -0.012 C 
ATOM      7  C   UNL     1     138.641 126.810  88.318  0.00  0.00    -0.044 A 
ATOM      8  C   UNL     1     137.350 126.823  87.767  0.00  0.00    -0.058 A 
ATOM      9  C   UNL     1     136.318 126.078  88.345  0.00  0.00    -0.059 A 
ATOM     10  C   UNL     1     136.566 125.304  89.475  0.00  0.00    -0.026 A 
ATOM     11  C   UNL     1     137.844 125.282  90.018  0.00  0.00    +0.124 A 
ATOM     12  F   UNL     1     138.086 124.536  91.105  0.00  0.00    -0.205 F 
ATOM     13  C   UNL     1     138.879 126.021  89.453  0.00  0.00    -0.023 A 
ATOM     14  C   UNL     1     141.149 129.713  87.521  0.00  0.00    -0.024 C 
ATOM     15  C   UNL     1     141.328 131.197  87.874  0.00  0.00    +0.000 C 
ATOM     16  N   UNL     1     140.617 131.570  89.091  0.00  0.00    -0.298 N 
ATOM     17  C   UNL     1     140.871 132.935  89.570  0.00  0.00    +0.028 C 
ATOM     18  C   UNL     1     142.282 133.251  90.041  0.00  0.00    +0.009 A 
ATOM     19  C   UNL     1     143.222 133.725  89.103  0.00  0.00    -0.036 A 
ATOM     20  C   UNL     1     144.532 134.023  89.484  0.00  0.00    +0.052 A 
ATOM     21  C   UNL     1     145.477 134.494  88.515  0.00  0.00    +0.099 C 
ATOM     22  N   UNL     1     146.243 134.871  87.728  0.00  0.00    -0.191 NA
ATOM     23  C   UNL     1     144.914 133.859  90.816  0.00  0.00    -0.041 A 
ATOM     24  C   UNL     1     143.989 133.404  91.761  0.00  0.00    -0.018 A 
ATOM     25  C   UNL     1     142.675 133.102  91.386  0.00  0.00    +0.125 A 
ATOM     26  O   UNL     1     141.706 132.673  92.254  0.00  0.00    -0.495 OA
ATOM     27  C   UNL     1     142.066 132.495  93.617  0.00  0.00    +0.079 C 
ATOM     28  C   UNL     1     140.670 130.549  90.129  0.00  0.00    +0.000 C 
ATOM     29  C   UNL     1     139.988 129.246  89.677  0.00  0.00    -0.024 C 
ATOM     30  H   UNL     1     139.638 131.609  88.805  0.00  0.00    +0.000 HD
ENDROOT
TORSDOF 0
ENDMDL
MODEL 6
REMARK VINA RESULT:    -3.614      4.408      9.080
REMARK INTER + INTRA:          -3.614
REMARK INTER:                  -3.614
REMARK INTRA:                   0.000
REMARK UNBOUND:                 0.000
REMARK  Name = /home/vital/Documents/PhD_2021/Malaria_codes/scripts/../data/pdbqt_ligands/ligand_276_temp.pdb
REMARK                            x       y       z     vdW  Elec       q    Type
REMARK                         _______ _______ _______ _____ _____    ______ ____
ROOT
ATOM      1  C   UNL     1     142.080 128.934  90.653  0.00  0.00    +0.082 C 
ATOM      2  O   UNL     1     141.781 130.294  90.970  0.00  0.00    -0.468 OA
ATOM      3  C   UNL     1     142.848 131.141  90.842  0.00  0.00    +0.313 C 
ATOM      4  O   UNL     1     143.948 130.790  90.434  0.00  0.00    -0.250 OA
ATOM      5  C   UNL     1     142.447 132.582  91.200  0.00  0.00    +0.074 C 
ATOM      6  C   UNL     1     141.615 133.163  90.027  0.00  0.00    -0.012 C 
ATOM      7  C   UNL     1     142.340 133.362  88.715  0.00  0.00    -0.044 A 
ATOM      8  C   UNL     1     142.468 132.310  87.795  0.00  0.00    -0.058 A 
ATOM      9  C   UNL     1     143.143 132.495  86.585  0.00  0.00    -0.059 A 
ATOM     10  C   UNL     1     143.693 133.736  86.277  0.00  0.00    -0.026 A 
ATOM     11  C   UNL     1     143.562 134.782  87.181  0.00  0.00    +0.124 A 
ATOM     12  F   UNL     1     144.087 135.979  86.886  0.00  0.00    -0.205 F 
ATOM     13  C   UNL     1     142.893 134.609  88.389  0.00  0.00    -0.023 A 
ATOM     14  C   UNL     1     141.581 132.598  92.482  0.00  0.00    -0.024 C 
ATOM     15  C   UNL     1     142.310 132.009  93.698  0.00  0.00    +0.000 C 
ATOM     16  N   UNL     1     143.761 132.066  93.558  0.00  0.00    -0.298 N 
ATOM     17  C   UNL     1     144.520 131.662  94.749  0.00  0.00    +0.028 C 
ATOM     18  C   UNL     1     144.387 132.540  95.984  0.00  0.00    +0.009 A 
ATOM     19  C   UNL     1     143.362 132.262  96.910  0.00  0.00    -0.036 A 
ATOM     20  C   UNL     1     143.195 133.043  98.056  0.00  0.00    +0.052 A 
ATOM     21  C   UNL     1     142.139 132.752  98.981  0.00  0.00    +0.099 C 
ATOM     22  N   UNL     1     141.282 132.518  99.728  0.00  0.00    -0.191 NA
ATOM     23  C   UNL     1     144.063 134.108  98.293  0.00  0.00    -0.041 A 
ATOM     24  C   UNL     1     145.095 134.388  97.392  0.00  0.00    -0.018 A 
ATOM     25  C   UNL     1     145.268 133.610  96.241  0.00  0.00    +0.125 A 
ATOM     26  O   UNL     1     146.265 133.805  95.323  0.00  0.00    -0.495 OA
ATOM     27  C   UNL     1     147.165 134.885  95.536  0.00  0.00    +0.079 C 
ATOM     28  C   UNL     1     144.234 133.293  92.932  0.00  0.00    +0.000 C 
ATOM     29  C   UNL     1     143.710 133.432  91.492  0.00  0.00    -0.024 C 
ATOM     30  H   UNL     1     143.976 131.325  92.890  0.00  0.00    +0.000 HD
ENDROOT
TORSDOF 0
ENDMDL
MODEL 7
REMARK VINA RESULT:    -3.568     11.216     13.583
REMARK INTER + INTRA:          -3.568
REMARK INTER:                  -3.568
REMARK INTRA:                   0.000
REMARK UNBOUND:                 0.000
REMARK  Name = /home/vital/Documents/PhD_2021/Malaria_codes/scripts/../data/pdbqt_ligands/ligand_276_temp.pdb
REMARK                            x       y       z     vdW  Elec       q    Type
REMARK                         _______ _______ _______ _____ _____    ______ ____
ROOT
ATOM      1  C   UNL     1     138.249 121.782  87.556  0.00  0.00    +0.082 C 
ATOM      2  O   UNL     1     137.471 122.664  88.365  0.00  0.00    -0.468 OA
ATOM      3  C   UNL     1     136.686 123.526  87.650  0.00  0.00    +0.313 C 
ATOM      4  O   UNL     1     136.601 123.513  86.428  0.00  0.00    -0.250 OA
ATOM      5  C   UNL     1     135.881 124.440  88.590  0.00  0.00    +0.074 C 
ATOM      6  C   UNL     1     134.723 123.610  89.204  0.00  0.00    -0.012 C 
ATOM      7  C   UNL     1     133.652 123.132  88.249  0.00  0.00    -0.044 A 
ATOM      8  C   UNL     1     133.812 121.939  87.527  0.00  0.00    -0.058 A 
ATOM      9  C   UNL     1     132.822 121.501  86.641  0.00  0.00    -0.059 A 
ATOM     10  C   UNL     1     131.659 122.246  86.473  0.00  0.00    -0.026 A 
ATOM     11  C   UNL     1     131.494 123.423  87.191  0.00  0.00    +0.124 A 
ATOM     12  F   UNL     1     130.374 124.142  87.033  0.00  0.00    -0.205 F 
ATOM     13  C   UNL     1     132.472 123.870  88.074  0.00  0.00    -0.023 A 
ATOM     14  C   UNL     1     136.782 124.963  89.735  0.00  0.00    -0.024 C 
ATOM     15  C   UNL     1     137.981 125.773  89.223  0.00  0.00    +0.000 C 
ATOM     16  N   UNL     1     137.749 126.333  87.896  0.00  0.00    -0.298 N 
ATOM     17  C   UNL     1     138.792 127.246  87.412  0.00  0.00    +0.028 C 
ATOM     18  C   UNL     1     138.973 128.553  88.169  0.00  0.00    +0.009 A 
ATOM     19  C   UNL     1     139.865 128.591  89.259  0.00  0.00    -0.036 A 
ATOM     20  C   UNL     1     140.060 129.765  89.990  0.00  0.00    +0.052 A 
ATOM     21  C   UNL     1     140.963 129.781  91.103  0.00  0.00    +0.099 C 
ATOM     22  N   UNL     1     141.692 129.793  92.007  0.00  0.00    -0.191 NA
ATOM     23  C   UNL     1     139.370 130.921  89.629  0.00  0.00    -0.041 A 
ATOM     24  C   UNL     1     138.493 130.904  88.539  0.00  0.00    -0.018 A 
ATOM     25  C   UNL     1     138.291 129.731  87.803  0.00  0.00    +0.125 A 
ATOM     26  O   UNL     1     137.468 129.639  86.713  0.00  0.00    -0.495 OA
ATOM     27  C   UNL     1     136.749 130.800  86.320  0.00  0.00    +0.079 C 
ATOM     28  C   UNL     1     136.389 126.818  87.702  0.00  0.00    +0.000 C 
ATOM     29  C   UNL     1     135.361 125.679  87.817  0.00  0.00    -0.024 C 
ATOM     30  H   UNL     1     137.839 125.533  87.270  0.00  0.00    +0.000 HD
ENDROOT
TORSDOF 0
ENDMDL
MODEL 8
REMARK VINA RESULT:    -3.461      5.911      8.195
REMARK INTER + INTRA:          -3.461
REMARK INTER:                  -3.461
REMARK INTRA:                   0.000
REMARK UNBOUND:                 0.000
REMARK  Name = /home/vital/Documents/PhD_2021/Malaria_codes/scripts/../data/pdbqt_ligands/ligand_276_temp.pdb
REMARK                            x       y       z     vdW  Elec       q    Type
REMARK                         _______ _______ _______ _____ _____    ______ ____
ROOT
ATOM      1  C   UNL     1     143.248 130.420  96.851  0.00  0.00    +0.082 C 
ATOM      2  O   UNL     1     142.073 129.641  97.080  0.00  0.00    -0.468 OA
ATOM      3  C   UNL     1     142.321 128.412  97.627  0.00  0.00    +0.313 C 
ATOM      4  O   UNL     1     143.437 128.026  97.954  0.00  0.00    -0.250 OA
ATOM      5  C   UNL     1     141.011 127.636  97.843  0.00  0.00    +0.074 C 
ATOM      6  C   UNL     1     140.284 128.238  99.075  0.00  0.00    -0.012 C 
ATOM      7  C   UNL     1     140.966 128.068 100.414  0.00  0.00    -0.044 A 
ATOM      8  C   UNL     1     141.947 128.976 100.843  0.00  0.00    -0.058 A 
ATOM      9  C   UNL     1     142.579 128.814 102.080  0.00  0.00    -0.059 A 
ATOM     10  C   UNL     1     142.234 127.747 102.904  0.00  0.00    -0.026 A 
ATOM     11  C   UNL     1     141.258 126.852 102.487  0.00  0.00    +0.124 A 
ATOM     12  F   UNL     1     140.921 125.826 103.280  0.00  0.00    -0.205 F 
ATOM     13  C   UNL     1     140.623 127.001 101.258  0.00  0.00    -0.023 A 
ATOM     14  C   UNL     1     140.092 127.774  96.606  0.00  0.00    -0.024 C 
ATOM     15  C   UNL     1     140.740 127.233  95.323  0.00  0.00    +0.000 C 
ATOM     16  N   UNL     1     141.785 126.253  95.598  0.00  0.00    -0.298 N 
ATOM     17  C   UNL     1     142.338 125.581  94.415  0.00  0.00    +0.028 C 
ATOM     18  C   UNL     1     141.400 124.680  93.628  0.00  0.00    +0.009 A 
ATOM     19  C   UNL     1     140.636 125.239  92.584  0.00  0.00    -0.036 A 
ATOM     20  C   UNL     1     139.754 124.455  91.836  0.00  0.00    +0.052 A 
ATOM     21  C   UNL     1     138.977 125.043  90.785  0.00  0.00    +0.099 C 
ATOM     22  N   UNL     1     138.346 125.521  89.937  0.00  0.00    -0.191 NA
ATOM     23  C   UNL     1     139.635 123.095  92.121  0.00  0.00    -0.041 A 
ATOM     24  C   UNL     1     140.397 122.522  93.144  0.00  0.00    -0.018 A 
ATOM     25  C   UNL     1     141.282 123.302  93.898  0.00  0.00    +0.125 A 
ATOM     26  O   UNL     1     142.078 122.813  94.900  0.00  0.00    -0.495 OA
ATOM     27  C   UNL     1     141.978 121.430  95.214  0.00  0.00    +0.079 C 
ATOM     28  C   UNL     1     141.463 125.358  96.701  0.00  0.00    +0.000 C 
ATOM     29  C   UNL     1     141.306 126.125  98.026  0.00  0.00    -0.024 C 
ATOM     30  H   UNL     1     142.570 126.813  95.930  0.00  0.00    +0.000 HD
ENDROOT
TORSDOF 0
ENDMDL
MODEL 9
REMARK VINA RESULT:    -3.290      6.105      9.383
REMARK INTER + INTRA:          -3.290
REMARK INTER:                  -3.290
REMARK INTRA:                   0.000
REMARK UNBOUND:                 0.000
REMARK  Name = /home/vital/Documents/PhD_2021/Malaria_codes/scripts/../data/pdbqt_ligands/ligand_276_temp.pdb
REMARK                            x       y       z     vdW  Elec       q    Type
REMARK                         _______ _______ _______ _____ _____    ______ ____
ROOT
ATOM      1  C   UNL     1     144.627 122.405 103.414  0.00  0.00    +0.082 C 
ATOM      2  O   UNL     1     144.169 123.522 104.178  0.00  0.00    -0.468 OA
ATOM      3  C   UNL     1     142.823 123.745 104.083  0.00  0.00    +0.313 C 
ATOM      4  O   UNL     1     142.058 123.024 103.456  0.00  0.00    -0.250 OA
ATOM      5  C   UNL     1     142.410 124.960 104.931  0.00  0.00    +0.074 C 
ATOM      6  C   UNL     1     142.419 124.539 106.425  0.00  0.00    -0.012 C 
ATOM      7  C   UNL     1     141.394 123.510 106.844  0.00  0.00    -0.044 A 
ATOM      8  C   UNL     1     141.651 122.137 106.698  0.00  0.00    -0.058 A 
ATOM      9  C   UNL     1     140.700 121.187 107.083  0.00  0.00    -0.059 A 
ATOM     10  C   UNL     1     139.484 121.597 107.624  0.00  0.00    -0.026 A 
ATOM     11  C   UNL     1     139.230 122.953 107.777  0.00  0.00    +0.124 A 
ATOM     12  F   UNL     1     138.062 123.351 108.300  0.00  0.00    -0.205 F 
ATOM     13  C   UNL     1     140.168 123.909 107.396  0.00  0.00    -0.023 A 
ATOM     14  C   UNL     1     143.414 126.121 104.735  0.00  0.00    -0.024 C 
ATOM     15  C   UNL     1     143.501 126.588 103.274  0.00  0.00    +0.000 C 
ATOM     16  N   UNL     1     142.302 126.261 102.512  0.00  0.00    -0.298 N 
ATOM     17  C   UNL     1     142.255 126.814 101.153  0.00  0.00    +0.028 C 
ATOM     18  C   UNL     1     142.184 128.328 101.025  0.00  0.00    +0.009 A 
ATOM     19  C   UNL     1     143.386 129.063 100.960  0.00  0.00    -0.036 A 
ATOM     20  C   UNL     1     143.374 130.455 100.849  0.00  0.00    +0.052 A 
ATOM     21  C   UNL     1     144.606 131.186 100.796  0.00  0.00    +0.099 C 
ATOM     22  N   UNL     1     145.604 131.777 100.758  0.00  0.00    -0.191 NA
ATOM     23  C   UNL     1     142.154 131.128 100.790  0.00  0.00    -0.041 A 
ATOM     24  C   UNL     1     140.953 130.413 100.837  0.00  0.00    -0.018 A 
ATOM     25  C   UNL     1     140.958 129.017 100.950  0.00  0.00    +0.125 A 
ATOM     26  O   UNL     1     139.828 128.245 100.980  0.00  0.00    -0.495 OA
ATOM     27  C   UNL     1     138.569 128.903 100.923  0.00  0.00    +0.079 C 
ATOM     28  C   UNL     1     141.070 126.427 103.272  0.00  0.00    +0.000 C 
ATOM     29  C   UNL     1     141.019 125.479 104.483  0.00  0.00    -0.024 C 
ATOM     30  H   UNL     1     142.380 125.257 102.346  0.00  0.00    +0.000 HD
ENDROOT
TORSDOF 0
ENDMDL
