MODEL 1
REMARK VINA RESULT:    -4.117      0.000      0.000
REMARK INTER + INTRA:          -4.117
REMARK INTER:                  -4.117
REMARK INTRA:                   0.000
REMARK UNBOUND:                 0.000
REMARK  Name = /home/vital/Documents/PhD_2021/Malaria_codes/scripts/../data/pdbqt_ligands/ligand_132_temp.pdb
REMARK                            x       y       z     vdW  Elec       q    Type
REMARK                         _______ _______ _______ _____ _____    ______ ____
ROOT
ATOM      1  C1  UNL     1     142.379 127.127  98.305  0.00  0.00    -0.001 C 
ATOM      2  C2  UNL     1     141.719 128.452  98.027  0.00  0.00    +0.165 C 
ATOM      3  O1  UNL     1     141.811 129.017  96.942  0.00  0.00    -0.292 OA
ATOM      4  C3  UNL     1     140.910 129.042  99.108  0.00  0.00    +0.073 A 
ATOM      5  C4  UNL     1     139.747 128.349  99.460  0.00  0.00    +0.136 A 
ATOM      6  F1  UNL     1     139.417 127.211  98.829  0.00  0.00    -0.205 F 
ATOM      7  C5  UNL     1     138.911 128.812 100.469  0.00  0.00    -0.026 A 
ATOM      8  C6  UNL     1     139.239 129.982 101.142  0.00  0.00    -0.057 A 
ATOM      9  C7  UNL     1     140.404 130.676 100.801  0.00  0.00    -0.040 A 
ATOM     10  C8  UNL     1     141.265 130.229  99.779  0.00  0.00    +0.043 A 
ATOM     11  N1  UNL     1     142.416 131.011  99.562  0.00  0.00    -0.330 N 
ATOM     12  C9  UNL     1     143.642 130.372 100.048  0.00  0.00    +0.001 C 
ATOM     13  C10 UNL     1     142.517 131.597  98.210  0.00  0.00    +0.038 C 
ATOM     14  C11 UNL     1     142.993 133.065  98.275  0.00  0.00    +0.068 C 
ATOM     15  C12 UNL     1     141.954 133.988  98.902  0.00  0.00    -0.037 C 
ATOM     16  O2  UNL     1     143.288 133.547  96.959  0.00  0.00    -0.391 OA
ATOM     17  H   UNL     1     142.482 133.530  96.420  0.00  0.00    +0.000 HD
ENDROOT
TORSDOF 0
ENDMDL
MODEL 2
REMARK VINA RESULT:    -4.055      3.737      5.093
REMARK INTER + INTRA:          -4.055
REMARK INTER:                  -4.055
REMARK INTRA:                   0.000
REMARK UNBOUND:                 0.000
REMARK  Name = /home/vital/Documents/PhD_2021/Malaria_codes/scripts/../data/pdbqt_ligands/ligand_132_temp.pdb
REMARK                            x       y       z     vdW  Elec       q    Type
REMARK                         _______ _______ _______ _____ _____    ______ ____
ROOT
ATOM      1  C1  UNL     1     143.281 131.864  99.554  0.00  0.00    -0.001 C 
ATOM      2  C2  UNL     1     142.935 131.283 100.900  0.00  0.00    +0.165 C 
ATOM      3  O1  UNL     1     143.487 131.644 101.934  0.00  0.00    -0.292 OA
ATOM      4  C3  UNL     1     141.862 130.272 100.941  0.00  0.00    +0.073 A 
ATOM      5  C4  UNL     1     140.577 130.721 100.619  0.00  0.00    +0.136 A 
ATOM      6  F1  UNL     1     140.368 132.006 100.292  0.00  0.00    -0.205 F 
ATOM      7  C5  UNL     1     139.490 129.855 100.622  0.00  0.00    -0.026 A 
ATOM      8  C6  UNL     1     139.686 128.518 100.947  0.00  0.00    -0.057 A 
ATOM      9  C7  UNL     1     140.969 128.061 101.262  0.00  0.00    -0.040 A 
ATOM     10  C8  UNL     1     142.085 128.922 101.270  0.00  0.00    +0.043 A 
ATOM     11  N1  UNL     1     143.321 128.319 101.578  0.00  0.00    -0.330 N 
ATOM     12  C9  UNL     1     144.196 128.177 100.412  0.00  0.00    +0.001 C 
ATOM     13  C10 UNL     1     143.982 128.852 102.787  0.00  0.00    +0.038 C 
ATOM     14  C11 UNL     1     144.574 127.714 103.646  0.00  0.00    +0.068 C 
ATOM     15  C12 UNL     1     143.496 126.841 104.280  0.00  0.00    -0.037 C 
ATOM     16  O2  UNL     1     145.388 128.255 104.691  0.00  0.00    -0.391 OA
ATOM     17  H   UNL     1     144.841 128.801 105.277  0.00  0.00    +0.000 HD
ENDROOT
TORSDOF 0
ENDMDL
MODEL 3
REMARK VINA RESULT:    -3.752     13.109     14.478
REMARK INTER + INTRA:          -3.752
REMARK INTER:                  -3.752
REMARK INTRA:                   0.000
REMARK UNBOUND:                 0.000
REMARK  Name = /home/vital/Documents/PhD_2021/Malaria_codes/scripts/../data/pdbqt_ligands/ligand_132_temp.pdb
REMARK                            x       y       z     vdW  Elec       q    Type
REMARK                         _______ _______ _______ _____ _____    ______ ____
ROOT
ATOM      1  C1  UNL     1     141.929 140.365 106.550  0.00  0.00    -0.001 C 
ATOM      2  C2  UNL     1     140.686 140.954 105.936  0.00  0.00    +0.165 C 
ATOM      3  O1  UNL     1     140.080 140.404 105.023  0.00  0.00    -0.292 OA
ATOM      4  C3  UNL     1     140.190 142.220 106.505  0.00  0.00    +0.073 A 
ATOM      5  C4  UNL     1     139.714 142.163 107.819  0.00  0.00    +0.136 A 
ATOM      6  F1  UNL     1     139.727 141.005 108.497  0.00  0.00    -0.205 F 
ATOM      7  C5  UNL     1     139.225 143.296 108.458  0.00  0.00    -0.026 A 
ATOM      8  C6  UNL     1     139.212 144.509 107.779  0.00  0.00    -0.057 A 
ATOM      9  C7  UNL     1     139.693 144.574 106.467  0.00  0.00    -0.040 A 
ATOM     10  C8  UNL     1     140.189 143.438 105.798  0.00  0.00    +0.043 A 
ATOM     11  N1  UNL     1     140.668 143.657 104.491  0.00  0.00    -0.330 N 
ATOM     12  C9  UNL     1     142.129 143.606 104.399  0.00  0.00    +0.001 C 
ATOM     13  C10 UNL     1     139.954 142.903 103.440  0.00  0.00    +0.038 C 
ATOM     14  C11 UNL     1     139.687 143.789 102.204  0.00  0.00    +0.068 C 
ATOM     15  C12 UNL     1     138.677 144.896 102.487  0.00  0.00    -0.037 C 
ATOM     16  O2  UNL     1     139.191 142.993 101.123  0.00  0.00    -0.391 OA
ATOM     17  H   UNL     1     138.345 142.593 101.377  0.00  0.00    +0.000 HD
ENDROOT
TORSDOF 0
ENDMDL
MODEL 4
REMARK VINA RESULT:    -3.661      3.578      5.452
REMARK INTER + INTRA:          -3.661
REMARK INTER:                  -3.661
REMARK INTRA:                   0.000
REMARK UNBOUND:                 0.000
REMARK  Name = /home/vital/Documents/PhD_2021/Malaria_codes/scripts/../data/pdbqt_ligands/ligand_132_temp.pdb
REMARK                            x       y       z     vdW  Elec       q    Type
REMARK                         _______ _______ _______ _____ _____    ______ ____
ROOT
ATOM      1  C1  UNL     1     140.121 130.931  99.742  0.00  0.00    -0.001 C 
ATOM      2  C2  UNL     1     139.695 129.668 100.442  0.00  0.00    +0.165 C 
ATOM      3  O1  UNL     1     139.163 129.677 101.547  0.00  0.00    -0.292 OA
ATOM      4  C3  UNL     1     139.907 128.397  99.727  0.00  0.00    +0.073 A 
ATOM      5  C4  UNL     1     139.149 128.206  98.567  0.00  0.00    +0.136 A 
ATOM      6  F1  UNL     1     138.289 129.149  98.154  0.00  0.00    -0.205 F 
ATOM      7  C5  UNL     1     139.270 127.046  97.811  0.00  0.00    -0.026 A 
ATOM      8  C6  UNL     1     140.163 126.060  98.214  0.00  0.00    -0.057 A 
ATOM      9  C7  UNL     1     140.929 126.248  99.369  0.00  0.00    -0.040 A 
ATOM     10  C8  UNL     1     140.821 127.413 100.154  0.00  0.00    +0.043 A 
ATOM     11  N1  UNL     1     141.674 127.480 101.273  0.00  0.00    -0.330 N 
ATOM     12  C9  UNL     1     142.778 128.426 101.097  0.00  0.00    +0.001 C 
ATOM     13  C10 UNL     1     140.978 127.575 102.572  0.00  0.00    +0.038 C 
ATOM     14  C11 UNL     1     141.639 126.660 103.626  0.00  0.00    +0.068 C 
ATOM     15  C12 UNL     1     141.447 125.179 103.315  0.00  0.00    -0.037 C 
ATOM     16  O2  UNL     1     141.092 126.923 104.922  0.00  0.00    -0.391 OA
ATOM     17  H   UNL     1     140.143 126.719 104.920  0.00  0.00    +0.000 HD
ENDROOT
TORSDOF 0
ENDMDL
MODEL 5
REMARK VINA RESULT:    -3.487     10.154     11.258
REMARK INTER + INTRA:          -3.487
REMARK INTER:                  -3.487
REMARK INTRA:                   0.000
REMARK UNBOUND:                 0.000
REMARK  Name = /home/vital/Documents/PhD_2021/Malaria_codes/scripts/../data/pdbqt_ligands/ligand_132_temp.pdb
REMARK                            x       y       z     vdW  Elec       q    Type
REMARK                         _______ _______ _______ _____ _____    ______ ____
ROOT
ATOM      1  C1  UNL     1     136.660 124.773  87.314  0.00  0.00    -0.001 C 
ATOM      2  C2  UNL     1     136.748 125.907  88.302  0.00  0.00    +0.165 C 
ATOM      3  O1  UNL     1     135.874 126.762  88.400  0.00  0.00    -0.292 OA
ATOM      4  C3  UNL     1     137.923 125.935  89.191  0.00  0.00    +0.073 A 
ATOM      5  C4  UNL     1     138.018 124.897  90.124  0.00  0.00    +0.136 A 
ATOM      6  F1  UNL     1     137.077 123.941  90.175  0.00  0.00    -0.205 F 
ATOM      7  C5  UNL     1     139.085 124.821  91.011  0.00  0.00    -0.026 A 
ATOM      8  C6  UNL     1     140.077 125.794  90.967  0.00  0.00    -0.057 A 
ATOM      9  C7  UNL     1     139.992 126.831  90.033  0.00  0.00    -0.040 A 
ATOM     10  C8  UNL     1     138.917 126.930  89.127  0.00  0.00    +0.043 A 
ATOM     11  N1  UNL     1     138.976 128.010  88.224  0.00  0.00    -0.330 N 
ATOM     12  C9  UNL     1     139.303 127.596  86.857  0.00  0.00    +0.001 C 
ATOM     13  C10 UNL     1     137.853 128.963  88.330  0.00  0.00    +0.038 C 
ATOM     14  C11 UNL     1     138.351 130.422  88.243  0.00  0.00    +0.068 C 
ATOM     15  C12 UNL     1     139.177 130.829  89.459  0.00  0.00    -0.037 C 
ATOM     16  O2  UNL     1     137.240 131.319  88.133  0.00  0.00    -0.391 OA
ATOM     17  H   UNL     1     136.690 131.250  88.929  0.00  0.00    +0.000 HD
ENDROOT
TORSDOF 0
ENDMDL
MODEL 6
REMARK VINA RESULT:    -3.374      1.095      1.177
REMARK INTER + INTRA:          -3.374
REMARK INTER:                  -3.374
REMARK INTRA:                   0.000
REMARK UNBOUND:                 0.000
REMARK  Name = /home/vital/Documents/PhD_2021/Malaria_codes/scripts/../data/pdbqt_ligands/ligand_132_temp.pdb
REMARK                            x       y       z     vdW  Elec       q    Type
REMARK                         _______ _______ _______ _____ _____    ______ ____
ROOT
ATOM      1  C1  UNL     1     140.952 126.266  97.879  0.00  0.00    -0.001 C 
ATOM      2  C2  UNL     1     140.699 127.738  97.694  0.00  0.00    +0.165 C 
ATOM      3  O1  UNL     1     140.813 128.293  96.606  0.00  0.00    -0.292 OA
ATOM      4  C3  UNL     1     140.264 128.501  98.878  0.00  0.00    +0.073 A 
ATOM      5  C4  UNL     1     139.003 128.180  99.391  0.00  0.00    +0.136 A 
ATOM      6  F1  UNL     1     138.258 127.224  98.816  0.00  0.00    -0.205 F 
ATOM      7  C5  UNL     1     138.493 128.833 100.507  0.00  0.00    -0.026 A 
ATOM      8  C6  UNL     1     139.252 129.819 101.126  0.00  0.00    -0.057 A 
ATOM      9  C7  UNL     1     140.516 130.140 100.622  0.00  0.00    -0.040 A 
ATOM     10  C8  UNL     1     141.052 129.495  99.489  0.00  0.00    +0.043 A 
ATOM     11  N1  UNL     1     142.348 129.898  99.111  0.00  0.00    -0.330 N 
ATOM     12  C9  UNL     1     143.373 128.898  99.420  0.00  0.00    +0.001 C 
ATOM     13  C10 UNL     1     142.440 130.482  97.757  0.00  0.00    +0.038 C 
ATOM     14  C11 UNL     1     143.348 131.731  97.751  0.00  0.00    +0.068 C 
ATOM     15  C12 UNL     1     142.736 132.900  98.517  0.00  0.00    -0.037 C 
ATOM     16  O2  UNL     1     143.596 132.155  96.406  0.00  0.00    -0.391 OA
ATOM     17  H   UNL     1     142.759 132.406  95.986  0.00  0.00    +0.000 HD
ENDROOT
TORSDOF 0
ENDMDL
MODEL 7
REMARK VINA RESULT:    -3.206      2.086      2.669
REMARK INTER + INTRA:          -3.206
REMARK INTER:                  -3.206
REMARK INTRA:                   0.000
REMARK UNBOUND:                 0.000
REMARK  Name = /home/vital/Documents/PhD_2021/Malaria_codes/scripts/../data/pdbqt_ligands/ligand_132_temp.pdb
REMARK                            x       y       z     vdW  Elec       q    Type
REMARK                         _______ _______ _______ _____ _____    ______ ____
ROOT
ATOM      1  C1  UNL     1     141.906 125.408  99.974  0.00  0.00    -0.001 C 
ATOM      2  C2  UNL     1     141.960 126.705  99.211  0.00  0.00    +0.165 C 
ATOM      3  O1  UNL     1     143.016 127.201  98.831  0.00  0.00    -0.292 OA
ATOM      4  C3  UNL     1     140.675 127.354  98.895  0.00  0.00    +0.073 A 
ATOM      5  C4  UNL     1     139.840 126.672  98.003  0.00  0.00    +0.136 A 
ATOM      6  F1  UNL     1     140.218 125.493  97.486  0.00  0.00    -0.205 F 
ATOM      7  C5  UNL     1     138.603 127.189  97.637  0.00  0.00    -0.026 A 
ATOM      8  C6  UNL     1     138.188 128.403  98.169  0.00  0.00    -0.057 A 
ATOM      9  C7  UNL     1     139.014 129.087  99.067  0.00  0.00    -0.040 A 
ATOM     10  C8  UNL     1     140.274 128.585  99.450  0.00  0.00    +0.043 A 
ATOM     11  N1  UNL     1     140.985 129.364 100.383  0.00  0.00    -0.330 N 
ATOM     12  C9  UNL     1     141.013 128.771 101.722  0.00  0.00    +0.001 C 
ATOM     13  C10 UNL     1     142.289 129.864  99.900  0.00  0.00    +0.038 C 
ATOM     14  C11 UNL     1     142.505 131.338 100.307  0.00  0.00    +0.068 C 
ATOM     15  C12 UNL     1     141.557 132.288  99.583  0.00  0.00    -0.037 C 
ATOM     16  O2  UNL     1     143.849 131.738 100.021  0.00  0.00    -0.391 OA
ATOM     17  H   UNL     1     144.007 131.678  99.066  0.00  0.00    +0.000 HD
ENDROOT
TORSDOF 0
ENDMDL
MODEL 8
REMARK VINA RESULT:    -3.177      3.643      5.828
REMARK INTER + INTRA:          -3.177
REMARK INTER:                  -3.177
REMARK INTRA:                   0.000
REMARK UNBOUND:                 0.000
REMARK  Name = /home/vital/Documents/PhD_2021/Malaria_codes/scripts/../data/pdbqt_ligands/ligand_132_temp.pdb
REMARK                            x       y       z     vdW  Elec       q    Type
REMARK                         _______ _______ _______ _____ _____    ______ ____
ROOT
ATOM      1  C1  UNL     1     141.646 129.655 101.144  0.00  0.00    -0.001 C 
ATOM      2  C2  UNL     1     140.980 128.304 101.134  0.00  0.00    +0.165 C 
ATOM      3  O1  UNL     1     141.080 127.516 102.069  0.00  0.00    -0.292 OA
ATOM      4  C3  UNL     1     140.158 127.967  99.958  0.00  0.00    +0.073 A 
ATOM      5  C4  UNL     1     138.996 128.725  99.779  0.00  0.00    +0.136 A 
ATOM      6  F1  UNL     1     138.680 129.699 100.645  0.00  0.00    -0.205 F 
ATOM      7  C5  UNL     1     138.147 128.497  98.702  0.00  0.00    -0.026 A 
ATOM      8  C6  UNL     1     138.462 127.500  97.786  0.00  0.00    -0.057 A 
ATOM      9  C7  UNL     1     139.625 126.744  97.956  0.00  0.00    -0.040 A 
ATOM     10  C8  UNL     1     140.499 126.954  99.042  0.00  0.00    +0.043 A 
ATOM     11  N1  UNL     1     141.647 126.139  99.070  0.00  0.00    -0.330 N 
ATOM     12  C9  UNL     1     142.873 126.862  98.723  0.00  0.00    +0.001 C 
ATOM     13  C10 UNL     1     141.756 125.271 100.261  0.00  0.00    +0.038 C 
ATOM     14  C11 UNL     1     142.223 123.851  99.874  0.00  0.00    +0.068 C 
ATOM     15  C12 UNL     1     141.172 123.091  99.071  0.00  0.00    -0.037 C 
ATOM     16  O2  UNL     1     142.527 123.092 101.049  0.00  0.00    -0.391 OA
ATOM     17  H   UNL     1     141.726 122.995 101.587  0.00  0.00    +0.000 HD
ENDROOT
TORSDOF 0
ENDMDL
MODEL 9
REMARK VINA RESULT:    -2.974      2.650      4.522
REMARK INTER + INTRA:          -2.974
REMARK INTER:                  -2.974
REMARK INTRA:                   0.000
REMARK UNBOUND:                 0.000
REMARK  Name = /home/vital/Documents/PhD_2021/Malaria_codes/scripts/../data/pdbqt_ligands/ligand_132_temp.pdb
REMARK                            x       y       z     vdW  Elec       q    Type
REMARK                         _______ _______ _______ _____ _____    ______ ____
ROOT
ATOM      1  C1  UNL     1     141.203 131.340 100.157  0.00  0.00    -0.001 C 
ATOM      2  C2  UNL     1     141.375 129.845 100.220  0.00  0.00    +0.165 C 
ATOM      3  O1  UNL     1     142.158 129.306 100.996  0.00  0.00    -0.292 OA
ATOM      4  C3  UNL     1     140.530 129.031  99.328  0.00  0.00    +0.073 A 
ATOM      5  C4  UNL     1     139.156 129.050  99.591  0.00  0.00    +0.136 A 
ATOM      6  F1  UNL     1     138.668 129.782 100.605  0.00  0.00    -0.205 F 
ATOM      7  C5  UNL     1     138.264 128.322  98.812  0.00  0.00    -0.026 A 
ATOM      8  C6  UNL     1     138.746 127.566  97.751  0.00  0.00    -0.057 A 
ATOM      9  C7  UNL     1     140.118 127.549  97.478  0.00  0.00    -0.040 A 
ATOM     10  C8  UNL     1     141.041 128.275  98.256  0.00  0.00    +0.043 A 
ATOM     11  N1  UNL     1     142.387 128.188  97.849  0.00  0.00    -0.330 N 
ATOM     12  C9  UNL     1     142.874 129.415  97.213  0.00  0.00    +0.001 C 
ATOM     13  C10 UNL     1     143.299 127.608  98.856  0.00  0.00    +0.038 C 
ATOM     14  C11 UNL     1     144.289 126.617  98.205  0.00  0.00    +0.068 C 
ATOM     15  C12 UNL     1     143.599 125.356  97.696  0.00  0.00    -0.037 C 
ATOM     16  O2  UNL     1     145.294 126.231  99.149  0.00  0.00    -0.391 OA
ATOM     17  H   UNL     1     144.877 125.773  99.896  0.00  0.00    +0.000 HD
ENDROOT
TORSDOF 0
ENDMDL
