MODEL 1
REMARK VINA RESULT:    -5.250      0.000      0.000
REMARK INTER + INTRA:          -5.250
REMARK INTER:                  -5.250
REMARK INTRA:                   0.000
REMARK UNBOUND:                 0.000
REMARK  Name = /home/vital/Documents/PhD_2021/Malaria_codes/scripts/../data/pdbqt_ligands/ligand_313_temp.pdb
REMARK                            x       y       z     vdW  Elec       q    Type
REMARK                         _______ _______ _______ _____ _____    ______ ____
ROOT
ATOM      1  C1  UNL     1     140.675 128.258  90.200  0.00  0.00    +0.037 C 
ATOM      2  O1  UNL     1     141.564 128.927  89.316  0.00  0.00    -0.381 OA
ATOM      3  C2  UNL     1     142.790 129.312  89.939  0.00  0.00    +0.071 C 
ATOM      4  C3  UNL     1     142.652 130.619  90.723  0.00  0.00    +0.071 C 
ATOM      5  O2  UNL     1     143.898 131.025  91.291  0.00  0.00    -0.374 OA
ATOM      6  C4  UNL     1     144.188 130.422  92.550  0.00  0.00    +0.082 C 
ATOM      7  C5  UNL     1     143.547 131.188  93.706  0.00  0.00    +0.116 C 
ATOM      8  O3  UNL     1     143.921 130.558  94.939  0.00  0.00    -0.461 OA
ATOM      9  C6  UNL     1     143.282 131.055  96.037  0.00  0.00    +0.327 C 
ATOM     10  O4  UNL     1     142.501 131.998  96.025  0.00  0.00    -0.249 OA
ATOM     11  C7  UNL     1     143.740 130.314  97.284  0.00  0.00    +0.125 C 
ATOM     12  N1  UNL     1     142.691 130.349  98.303  0.00  0.00    -0.286 N 
ATOM     13  C8  UNL     1     142.631 131.310  99.292  0.00  0.00    +0.110 A 
ATOM     14  C9  UNL     1     143.704 132.371  99.348  0.00  0.00    -0.006 C 
ATOM     15  N2  UNL     1     141.709 131.348 100.201  0.00  0.00    -0.234 NA
ATOM     16  C10 UNL     1     140.694 130.385 100.173  0.00  0.00    +0.078 A 
ATOM     17  C11 UNL     1     139.704 130.418 101.157  0.00  0.00    -0.036 A 
ATOM     18  C12 UNL     1     138.670 129.476 101.158  0.00  0.00    -0.060 A 
ATOM     19  C13 UNL     1     138.618 128.492 100.171  0.00  0.00    -0.061 A 
ATOM     20  C14 UNL     1     139.603 128.449  99.183  0.00  0.00    -0.047 A 
ATOM     21  C15 UNL     1     140.633 129.397  99.195  0.00  0.00    +0.065 A 
ATOM     22  C16 UNL     1     141.692 129.385  98.175  0.00  0.00    +0.262 A 
ATOM     23  O5  UNL     1     141.662 128.557  97.267  0.00  0.00    -0.267 OA
ENDROOT
TORSDOF 0
ENDMDL
MODEL 2
REMARK VINA RESULT:    -5.190      1.903      2.337
REMARK INTER + INTRA:          -5.190
REMARK INTER:                  -5.190
REMARK INTRA:                   0.000
REMARK UNBOUND:                 0.000
REMARK  Name = /home/vital/Documents/PhD_2021/Malaria_codes/scripts/../data/pdbqt_ligands/ligand_313_temp.pdb
REMARK                            x       y       z     vdW  Elec       q    Type
REMARK                         _______ _______ _______ _____ _____    ______ ____
ROOT
ATOM      1  C1  UNL     1     142.816 131.661  90.698  0.00  0.00    +0.037 C 
ATOM      2  O1  UNL     1     143.894 132.534  90.388  0.00  0.00    -0.381 OA
ATOM      3  C2  UNL     1     144.924 132.524  91.376  0.00  0.00    +0.071 C 
ATOM      4  C3  UNL     1     144.589 133.427  92.567  0.00  0.00    +0.071 C 
ATOM      5  O2  UNL     1     145.653 133.456  93.519  0.00  0.00    -0.374 OA
ATOM      6  C4  UNL     1     145.623 132.383  94.458  0.00  0.00    +0.082 C 
ATOM      7  C5  UNL     1     144.712 132.693  95.643  0.00  0.00    +0.116 C 
ATOM      8  O3  UNL     1     144.771 131.597  96.567  0.00  0.00    -0.461 OA
ATOM      9  C6  UNL     1     143.876 131.683  97.594  0.00  0.00    +0.327 C 
ATOM     10  O4  UNL     1     143.118 132.625  97.784  0.00  0.00    -0.249 OA
ATOM     11  C7  UNL     1     144.014 130.472  98.505  0.00  0.00    +0.125 C 
ATOM     12  N1  UNL     1     142.744 130.206  99.181  0.00  0.00    -0.286 N 
ATOM     13  C8  UNL     1     142.436 130.703 100.431  0.00  0.00    +0.110 A 
ATOM     14  C9  UNL     1     143.456 131.550 101.155  0.00  0.00    -0.006 C 
ATOM     15  N2  UNL     1     141.316 130.471 101.040  0.00  0.00    -0.234 NA
ATOM     16  C10 UNL     1     140.345 129.698 100.395  0.00  0.00    +0.078 A 
ATOM     17  C11 UNL     1     139.141 129.438 101.052  0.00  0.00    -0.036 A 
ATOM     18  C12 UNL     1     138.144 128.675 100.436  0.00  0.00    -0.060 A 
ATOM     19  C13 UNL     1     138.344 128.166  99.153  0.00  0.00    -0.061 A 
ATOM     20  C14 UNL     1     139.543 128.420  98.487  0.00  0.00    -0.047 A 
ATOM     21  C15 UNL     1     140.533 129.184  99.115  0.00  0.00    +0.065 A 
ATOM     22  C16 UNL     1     141.813 129.470  98.450  0.00  0.00    +0.262 A 
ATOM     23  O5  UNL     1     142.013 129.071  97.305  0.00  0.00    -0.267 OA
ENDROOT
TORSDOF 0
ENDMDL
MODEL 3
REMARK VINA RESULT:    -4.935      1.509      1.557
REMARK INTER + INTRA:          -4.935
REMARK INTER:                  -4.935
REMARK INTRA:                   0.000
REMARK UNBOUND:                 0.000
REMARK  Name = /home/vital/Documents/PhD_2021/Malaria_codes/scripts/../data/pdbqt_ligands/ligand_313_temp.pdb
REMARK                            x       y       z     vdW  Elec       q    Type
REMARK                         _______ _______ _______ _____ _____    ______ ____
ROOT
ATOM      1  C1  UNL     1     143.988 127.234  90.803  0.00  0.00    +0.037 C 
ATOM      2  O1  UNL     1     144.690 128.112  89.933  0.00  0.00    -0.381 OA
ATOM      3  C2  UNL     1     145.415 129.127  90.629  0.00  0.00    +0.071 C 
ATOM      4  C3  UNL     1     144.520 130.304  91.026  0.00  0.00    +0.071 C 
ATOM      5  O2  UNL     1     145.268 131.339  91.666  0.00  0.00    -0.374 OA
ATOM      6  C4  UNL     1     145.453 131.142  93.066  0.00  0.00    +0.082 C 
ATOM      7  C5  UNL     1     144.266 131.663  93.874  0.00  0.00    +0.116 C 
ATOM      8  O3  UNL     1     144.543 131.480  95.269  0.00  0.00    -0.461 OA
ATOM      9  C6  UNL     1     143.490 131.761  96.090  0.00  0.00    +0.327 C 
ATOM     10  O4  UNL     1     142.408 132.195  95.715  0.00  0.00    -0.249 OA
ATOM     11  C7  UNL     1     143.884 131.524  97.540  0.00  0.00    +0.125 C 
ATOM     12  N1  UNL     1     142.700 131.196  98.335  0.00  0.00    -0.286 N 
ATOM     13  C8  UNL     1     141.971 132.142  99.028  0.00  0.00    +0.110 A 
ATOM     14  C9  UNL     1     142.416 133.584  98.987  0.00  0.00    -0.006 C 
ATOM     15  N2  UNL     1     140.924 131.862  99.737  0.00  0.00    -0.234 NA
ATOM     16  C10 UNL     1     140.480 130.537  99.790  0.00  0.00    +0.078 A 
ATOM     17  C11 UNL     1     139.356 130.230 100.561  0.00  0.00    -0.036 A 
ATOM     18  C12 UNL     1     138.878 128.918 100.633  0.00  0.00    -0.060 A 
ATOM     19  C13 UNL     1     139.521 127.899  99.930  0.00  0.00    -0.061 A 
ATOM     20  C14 UNL     1     140.644 128.194  99.156  0.00  0.00    -0.047 A 
ATOM     21  C15 UNL     1     141.113 129.511  99.094  0.00  0.00    +0.065 A 
ATOM     22  C16 UNL     1     142.296 129.863  98.295  0.00  0.00    +0.262 A 
ATOM     23  O5  UNL     1     142.868 129.001  97.631  0.00  0.00    -0.267 OA
ENDROOT
TORSDOF 0
ENDMDL
MODEL 4
REMARK VINA RESULT:    -4.917      7.481     10.101
REMARK INTER + INTRA:          -4.917
REMARK INTER:                  -4.917
REMARK INTRA:                   0.000
REMARK UNBOUND:                 0.000
REMARK  Name = /home/vital/Documents/PhD_2021/Malaria_codes/scripts/../data/pdbqt_ligands/ligand_313_temp.pdb
REMARK                            x       y       z     vdW  Elec       q    Type
REMARK                         _______ _______ _______ _____ _____    ______ ____
ROOT
ATOM      1  C1  UNL     1     139.342 127.610  98.573  0.00  0.00    +0.037 C 
ATOM      2  O1  UNL     1     140.242 128.684  98.338  0.00  0.00    -0.381 OA
ATOM      3  C2  UNL     1     141.430 128.602  99.127  0.00  0.00    +0.071 C 
ATOM      4  C3  UNL     1     141.217 129.144 100.544  0.00  0.00    +0.071 C 
ATOM      5  O2  UNL     1     142.427 129.113 101.304  0.00  0.00    -0.374 OA
ATOM      6  C4  UNL     1     142.685 127.861 101.934  0.00  0.00    +0.082 C 
ATOM      7  C5  UNL     1     141.975 127.747 103.281  0.00  0.00    +0.116 C 
ATOM      8  O3  UNL     1     142.321 126.489 103.878  0.00  0.00    -0.461 OA
ATOM      9  C6  UNL     1     141.622 126.199 105.014  0.00  0.00    +0.327 C 
ATOM     10  O4  UNL     1     140.812 126.946 105.547  0.00  0.00    -0.249 OA
ATOM     11  C7  UNL     1     142.055 124.846 105.559  0.00  0.00    +0.125 C 
ATOM     12  N1  UNL     1     140.966 124.242 106.326  0.00  0.00    -0.286 N 
ATOM     13  C8  UNL     1     140.836 124.384 107.692  0.00  0.00    +0.110 A 
ATOM     14  C9  UNL     1     141.870 125.185 108.447  0.00  0.00    -0.006 C 
ATOM     15  N2  UNL     1     139.877 123.851 108.381  0.00  0.00    -0.234 NA
ATOM     16  C10 UNL     1     138.897 123.110 107.713  0.00  0.00    +0.078 A 
ATOM     17  C11 UNL     1     137.868 122.526 108.454  0.00  0.00    -0.036 A 
ATOM     18  C12 UNL     1     136.866 121.784 107.820  0.00  0.00    -0.060 A 
ATOM     19  C13 UNL     1     136.886 121.622 106.435  0.00  0.00    -0.061 A 
ATOM     20  C14 UNL     1     137.909 122.201 105.684  0.00  0.00    -0.047 A 
ATOM     21  C15 UNL     1     138.906 122.940 106.331  0.00  0.00    +0.065 A 
ATOM     22  C16 UNL     1     140.006 123.562 105.578  0.00  0.00    +0.262 A 
ATOM     23  O5  UNL     1     140.038 123.474 104.353  0.00  0.00    -0.267 OA
ENDROOT
TORSDOF 0
ENDMDL
MODEL 5
REMARK VINA RESULT:    -4.621      5.434      9.574
REMARK INTER + INTRA:          -4.621
REMARK INTER:                  -4.621
REMARK INTRA:                   0.000
REMARK UNBOUND:                 0.000
REMARK  Name = /home/vital/Documents/PhD_2021/Malaria_codes/scripts/../data/pdbqt_ligands/ligand_313_temp.pdb
REMARK                            x       y       z     vdW  Elec       q    Type
REMARK                         _______ _______ _______ _____ _____    ______ ____
ROOT
ATOM      1  C1  UNL     1     147.113 125.184 105.246  0.00  0.00    +0.037 C 
ATOM      2  O1  UNL     1     146.564 124.068 105.935  0.00  0.00    -0.381 OA
ATOM      3  C2  UNL     1     145.428 123.507 105.276  0.00  0.00    +0.071 C 
ATOM      4  C3  UNL     1     144.143 124.280 105.588  0.00  0.00    +0.071 C 
ATOM      5  O2  UNL     1     143.004 123.674 104.974  0.00  0.00    -0.374 OA
ATOM      6  C4  UNL     1     142.792 124.073 103.621  0.00  0.00    +0.082 C 
ATOM      7  C5  UNL     1     141.999 125.375 103.533  0.00  0.00    +0.116 C 
ATOM      8  O3  UNL     1     141.780 125.688 102.151  0.00  0.00    -0.461 OA
ATOM      9  C6  UNL     1     141.219 126.913 101.936  0.00  0.00    +0.327 C 
ATOM     10  O4  UNL     1     140.859 127.681 102.819  0.00  0.00    -0.249 OA
ATOM     11  C7  UNL     1     141.040 127.148 100.444  0.00  0.00    +0.125 C 
ATOM     12  N1  UNL     1     141.061 128.582 100.155  0.00  0.00    -0.286 N 
ATOM     13  C8  UNL     1     139.919 129.354 100.083  0.00  0.00    +0.110 A 
ATOM     14  C9  UNL     1     138.576 128.696 100.292  0.00  0.00    -0.006 C 
ATOM     15  N2  UNL     1     139.926 130.624  99.826  0.00  0.00    -0.234 NA
ATOM     16  C10 UNL     1     141.154 131.267  99.635  0.00  0.00    +0.078 A 
ATOM     17  C11 UNL     1     141.165 132.633  99.348  0.00  0.00    -0.036 A 
ATOM     18  C12 UNL     1     142.373 133.312  99.160  0.00  0.00    -0.060 A 
ATOM     19  C13 UNL     1     143.584 132.626  99.258  0.00  0.00    -0.061 A 
ATOM     20  C14 UNL     1     143.585 131.261  99.545  0.00  0.00    -0.047 A 
ATOM     21  C15 UNL     1     142.369 130.594  99.730  0.00  0.00    +0.065 A 
ATOM     22  C16 UNL     1     142.326 129.154 100.029  0.00  0.00    +0.262 A 
ATOM     23  O5  UNL     1     143.372 128.523 100.161  0.00  0.00    -0.267 OA
ENDROOT
TORSDOF 0
ENDMDL
MODEL 6
REMARK VINA RESULT:    -4.513     12.506     14.855
REMARK INTER + INTRA:          -4.513
REMARK INTER:                  -4.513
REMARK INTRA:                   0.000
REMARK UNBOUND:                 0.000
REMARK  Name = /home/vital/Documents/PhD_2021/Malaria_codes/scripts/../data/pdbqt_ligands/ligand_313_temp.pdb
REMARK                            x       y       z     vdW  Elec       q    Type
REMARK                         _______ _______ _______ _____ _____    ______ ____
ROOT
ATOM      1  C1  UNL     1     143.755 140.504  98.600  0.00  0.00    +0.037 C 
ATOM      2  O1  UNL     1     143.287 141.372  97.575  0.00  0.00    -0.381 OA
ATOM      3  C2  UNL     1     142.935 142.669  98.058  0.00  0.00    +0.071 C 
ATOM      4  C3  UNL     1     141.530 142.695  98.664  0.00  0.00    +0.071 C 
ATOM      5  O2  UNL     1     141.165 144.010  99.087  0.00  0.00    -0.374 OA
ATOM      6  C4  UNL     1     141.623 144.348 100.395  0.00  0.00    +0.082 C 
ATOM      7  C5  UNL     1     140.659 143.861 101.475  0.00  0.00    +0.116 C 
ATOM      8  O3  UNL     1     141.154 144.279 102.755  0.00  0.00    -0.461 OA
ATOM      9  C6  UNL     1     140.463 143.768 103.816  0.00  0.00    +0.327 C 
ATOM     10  O4  UNL     1     139.465 143.065 103.727  0.00  0.00    -0.249 OA
ATOM     11  C7  UNL     1     141.074 144.261 105.119  0.00  0.00    +0.125 C 
ATOM     12  N1  UNL     1     140.814 143.300 106.191  0.00  0.00    -0.286 N 
ATOM     13  C8  UNL     1     139.731 143.393 107.042  0.00  0.00    +0.110 A 
ATOM     14  C9  UNL     1     138.770 144.548 106.881  0.00  0.00    -0.006 C 
ATOM     15  N2  UNL     1     139.493 142.550 107.995  0.00  0.00    -0.234 NA
ATOM     16  C10 UNL     1     140.358 141.464 108.167  0.00  0.00    +0.078 A 
ATOM     17  C11 UNL     1     140.110 140.558 109.200  0.00  0.00    -0.036 A 
ATOM     18  C12 UNL     1     140.948 139.456 109.398  0.00  0.00    -0.060 A 
ATOM     19  C13 UNL     1     142.044 139.251 108.559  0.00  0.00    -0.061 A 
ATOM     20  C14 UNL     1     142.301 140.149 107.524  0.00  0.00    -0.047 A 
ATOM     21  C15 UNL     1     141.455 141.248 107.338  0.00  0.00    +0.065 A 
ATOM     22  C16 UNL     1     141.694 142.222 106.262  0.00  0.00    +0.262 A 
ATOM     23  O5  UNL     1     142.627 142.056 105.479  0.00  0.00    -0.267 OA
ENDROOT
TORSDOF 0
ENDMDL
MODEL 7
REMARK VINA RESULT:    -4.454      1.855      1.942
REMARK INTER + INTRA:          -4.454
REMARK INTER:                  -4.454
REMARK INTRA:                   0.000
REMARK UNBOUND:                 0.000
REMARK  Name = /home/vital/Documents/PhD_2021/Malaria_codes/scripts/../data/pdbqt_ligands/ligand_313_temp.pdb
REMARK                            x       y       z     vdW  Elec       q    Type
REMARK                         _______ _______ _______ _____ _____    ______ ____
ROOT
ATOM      1  C1  UNL     1     139.783 130.589  89.893  0.00  0.00    +0.037 C 
ATOM      2  O1  UNL     1     140.941 130.880  89.122  0.00  0.00    -0.381 OA
ATOM      3  C2  UNL     1     142.116 130.231  89.611  0.00  0.00    +0.071 C 
ATOM      4  C3  UNL     1     142.751 130.995  90.777  0.00  0.00    +0.071 C 
ATOM      5  O2  UNL     1     143.958 130.370  91.217  0.00  0.00    -0.374 OA
ATOM      6  C4  UNL     1     143.759 129.314  92.153  0.00  0.00    +0.082 C 
ATOM      7  C5  UNL     1     143.648 129.839  93.583  0.00  0.00    +0.116 C 
ATOM      8  O3  UNL     1     143.501 128.723  94.472  0.00  0.00    -0.461 OA
ATOM      9  C6  UNL     1     143.232 129.069  95.765  0.00  0.00    +0.327 C 
ATOM     10  O4  UNL     1     143.178 130.218  96.184  0.00  0.00    -0.249 OA
ATOM     11  C7  UNL     1     143.085 127.817  96.618  0.00  0.00    +0.125 C 
ATOM     12  N1  UNL     1     142.216 128.090  97.762  0.00  0.00    -0.286 N 
ATOM     13  C8  UNL     1     142.694 128.480  98.997  0.00  0.00    +0.110 A 
ATOM     14  C9  UNL     1     144.185 128.619  99.194  0.00  0.00    -0.006 C 
ATOM     15  N2  UNL     1     141.934 128.721 100.018  0.00  0.00    -0.234 NA
ATOM     16  C10 UNL     1     140.547 128.609  99.867  0.00  0.00    +0.078 A 
ATOM     17  C11 UNL     1     139.725 128.859 100.968  0.00  0.00    -0.036 A 
ATOM     18  C12 UNL     1     138.334 128.766 100.854  0.00  0.00    -0.060 A 
ATOM     19  C13 UNL     1     137.754 128.421  99.634  0.00  0.00    -0.061 A 
ATOM     20  C14 UNL     1     138.565 128.170  98.527  0.00  0.00    -0.047 A 
ATOM     21  C15 UNL     1     139.956 128.267  98.655  0.00  0.00    +0.065 A 
ATOM     22  C16 UNL     1     140.847 128.005  97.515  0.00  0.00    +0.262 A 
ATOM     23  O5  UNL     1     140.372 127.736  96.413  0.00  0.00    -0.267 OA
ENDROOT
TORSDOF 0
ENDMDL
MODEL 8
REMARK VINA RESULT:    -4.238      3.294      8.785
REMARK INTER + INTRA:          -4.238
REMARK INTER:                  -4.238
REMARK INTRA:                   0.000
REMARK UNBOUND:                 0.000
REMARK  Name = /home/vital/Documents/PhD_2021/Malaria_codes/scripts/../data/pdbqt_ligands/ligand_313_temp.pdb
REMARK                            x       y       z     vdW  Elec       q    Type
REMARK                         _______ _______ _______ _____ _____    ______ ____
ROOT
ATOM      1  C1  UNL     1     141.355 131.659 100.159  0.00  0.00    +0.037 C 
ATOM      2  O1  UNL     1     141.267 130.586 101.087  0.00  0.00    -0.381 OA
ATOM      3  C2  UNL     1     141.756 129.351 100.562  0.00  0.00    +0.071 C 
ATOM      4  C3  UNL     1     140.710 128.638  99.701  0.00  0.00    +0.071 C 
ATOM      5  O2  UNL     1     141.188 127.375  99.233  0.00  0.00    -0.374 OA
ATOM      6  C4  UNL     1     141.965 127.454  98.039  0.00  0.00    +0.082 C 
ATOM      7  C5  UNL     1     141.086 127.451  96.790  0.00  0.00    +0.116 C 
ATOM      8  O3  UNL     1     141.932 127.480  95.632  0.00  0.00    -0.461 OA
ATOM      9  C6  UNL     1     141.263 127.641  94.454  0.00  0.00    +0.327 C 
ATOM     10  O4  UNL     1     140.045 127.695  94.344  0.00  0.00    -0.249 OA
ATOM     11  C7  UNL     1     142.249 127.670  93.296  0.00  0.00    +0.125 C 
ATOM     12  N1  UNL     1     141.694 128.439  92.183  0.00  0.00    -0.286 N 
ATOM     13  C8  UNL     1     140.991 127.864  91.144  0.00  0.00    +0.110 A 
ATOM     14  C9  UNL     1     140.794 126.366  91.134  0.00  0.00    -0.006 C 
ATOM     15  N2  UNL     1     140.498 128.535  90.152  0.00  0.00    -0.234 NA
ATOM     16  C10 UNL     1     140.656 129.925  90.134  0.00  0.00    +0.078 A 
ATOM     17  C11 UNL     1     140.134 130.651  89.061  0.00  0.00    -0.036 A 
ATOM     18  C12 UNL     1     140.265 132.043  89.012  0.00  0.00    -0.060 A 
ATOM     19  C13 UNL     1     140.920 132.721  90.040  0.00  0.00    -0.061 A 
ATOM     20  C14 UNL     1     141.445 132.006  91.117  0.00  0.00    -0.047 A 
ATOM     21  C15 UNL     1     141.308 130.613  91.153  0.00  0.00    +0.065 A 
ATOM     22  C16 UNL     1     141.851 129.822  92.267  0.00  0.00    +0.262 A 
ATOM     23  O5  UNL     1     142.402 130.385  93.210  0.00  0.00    -0.267 OA
ENDROOT
TORSDOF 0
ENDMDL
MODEL 9
REMARK VINA RESULT:    -4.149      8.111     12.283
REMARK INTER + INTRA:          -4.149
REMARK INTER:                  -4.149
REMARK INTRA:                   0.000
REMARK UNBOUND:                 0.000
REMARK  Name = /home/vital/Documents/PhD_2021/Malaria_codes/scripts/../data/pdbqt_ligands/ligand_313_temp.pdb
REMARK                            x       y       z     vdW  Elec       q    Type
REMARK                         _______ _______ _______ _____ _____    ______ ____
ROOT
ATOM      1  C1  UNL     1     131.477 121.719  90.247  0.00  0.00    +0.037 C 
ATOM      2  O1  UNL     1     130.602 121.602  89.133  0.00  0.00    -0.381 OA
ATOM      3  C2  UNL     1     131.283 121.663  87.879  0.00  0.00    +0.071 C 
ATOM      4  C3  UNL     1     131.570 123.104  87.449  0.00  0.00    +0.071 C 
ATOM      5  O2  UNL     1     132.195 123.155  86.165  0.00  0.00    -0.374 OA
ATOM      6  C4  UNL     1     133.611 122.994  86.202  0.00  0.00    +0.082 C 
ATOM      7  C5  UNL     1     134.325 124.317  86.470  0.00  0.00    +0.116 C 
ATOM      8  O3  UNL     1     135.741 124.090  86.442  0.00  0.00    -0.461 OA
ATOM      9  C6  UNL     1     136.487 125.165  86.825  0.00  0.00    +0.327 C 
ATOM     10  O4  UNL     1     136.033 126.265  87.114  0.00  0.00    -0.249 OA
ATOM     11  C7  UNL     1     137.968 124.816  86.770  0.00  0.00    +0.125 C 
ATOM     12  N1  UNL     1     138.713 125.638  87.723  0.00  0.00    -0.286 N 
ATOM     13  C8  UNL     1     139.316 126.832  87.380  0.00  0.00    +0.110 A 
ATOM     14  C9  UNL     1     139.224 127.315  85.952  0.00  0.00    -0.006 C 
ATOM     15  N2  UNL     1     139.981 127.566  88.215  0.00  0.00    -0.234 NA
ATOM     16  C10 UNL     1     140.078 127.152  89.548  0.00  0.00    +0.078 A 
ATOM     17  C11 UNL     1     140.802 127.936  90.448  0.00  0.00    -0.036 A 
ATOM     18  C12 UNL     1     140.916 127.559  91.790  0.00  0.00    -0.060 A 
ATOM     19  C13 UNL     1     140.302 126.391  92.243  0.00  0.00    -0.061 A 
ATOM     20  C14 UNL     1     139.577 125.600  91.353  0.00  0.00    -0.047 A 
ATOM     21  C15 UNL     1     139.472 125.989  90.012  0.00  0.00    +0.065 A 
ATOM     22  C16 UNL     1     138.720 125.181  89.039  0.00  0.00    +0.262 A 
ATOM     23  O5  UNL     1     138.134 124.165  89.407  0.00  0.00    -0.267 OA
ENDROOT
TORSDOF 0
ENDMDL
