MODEL 1
REMARK VINA RESULT:    -9.822      0.000      0.000
REMARK INTER + INTRA:          -9.822
REMARK INTER:                  -9.822
REMARK INTRA:                   0.000
REMARK UNBOUND:                 0.000
REMARK  Name = /home/vital/Documents/PhD_2021/Malaria_codes/scripts/../data/pdbqt_ligands/ligand_87_temp.pdb
REMARK                            x       y       z     vdW  Elec       q    Type
REMARK                         _______ _______ _______ _____ _____    ______ ____
ROOT
ATOM      1  C1  UNL     1     151.608 154.579 153.535  0.00  0.00    +0.079 C 
ATOM      2  O1  UNL     1     150.657 154.797 154.569  0.00  0.00    -0.495 OA
ATOM      3  C2  UNL     1     150.958 155.759 155.494  0.00  0.00    +0.120 A 
ATOM      4  C3  UNL     1     152.109 156.546 155.515  0.00  0.00    -0.019 A 
ATOM      5  C4  UNL     1     152.292 157.500 156.525  0.00  0.00    -0.049 A 
ATOM      6  C5  UNL     1     151.321 157.683 157.518  0.00  0.00    +0.001 A 
ATOM      7  C6  UNL     1     151.493 158.661 158.582  0.00  0.00    +0.083 A 
ATOM      8  N1  UNL     1     151.269 158.297 159.902  0.00  0.00    -0.224 NA
ATOM      9  C7  UNL     1     151.488 159.321 160.690  0.00  0.00    +0.165 A 
ATOM     10  N2  UNL     1     151.356 159.195 162.048  0.00  0.00    -0.261 N 
ATOM     11  C8  UNL     1     151.485 160.188 162.990  0.00  0.00    +0.250 C 
ATOM     12  O2  UNL     1     151.690 161.379 162.794  0.00  0.00    -0.270 OA
ATOM     13  C9  UNL     1     151.309 159.734 164.400  0.00  0.00    +0.038 A 
ATOM     14  C10 UNL     1     150.723 160.619 165.316  0.00  0.00    -0.050 A 
ATOM     15  C11 UNL     1     150.539 160.235 166.644  0.00  0.00    -0.060 A 
ATOM     16  C12 UNL     1     150.949 158.970 167.066  0.00  0.00    -0.046 A 
ATOM     17  C13 UNL     1     151.552 158.091 166.162  0.00  0.00    +0.026 A 
ATOM     18  C14 UNL     1     151.986 156.801 166.602  0.00  0.00    -0.064 C 
ATOM     19  C15 UNL     1     152.354 155.717 166.964  0.00  0.00    -0.069 C 
ATOM     20  C16 UNL     1     152.804 154.396 167.403  0.00  0.00    +0.105 C 
ATOM     21  O3  UNL     1     152.299 153.398 166.528  0.00  0.00    -0.383 OA
ATOM     22  C17 UNL     1     151.737 158.471 164.830  0.00  0.00    -0.034 A 
ATOM     23  S1  UNL     1     151.953 160.763 159.922  0.00  0.00    -0.057 S 
ATOM     24  C18 UNL     1     151.840 159.990 158.392  0.00  0.00    +0.016 A 
ATOM     25  C19 UNL     1     152.098 160.766 157.147  0.00  0.00    -0.031 C 
ATOM     26  C20 UNL     1     150.177 156.880 157.500  0.00  0.00    -0.049 A 
ATOM     27  C21 UNL     1     149.997 155.930 156.492  0.00  0.00    -0.019 A 
ATOM     28  H   UNL     1     151.146 158.293 162.386  0.00  0.00    +0.000 HD
ATOM     29  H   UNL     1     151.329 153.422 166.536  0.00  0.00    +0.000 HD
ENDROOT
TORSDOF 0
ENDMDL
MODEL 2
REMARK VINA RESULT:    -9.660      0.912      0.945
REMARK INTER + INTRA:          -9.660
REMARK INTER:                  -9.660
REMARK INTRA:                   0.000
REMARK UNBOUND:                 0.000
REMARK  Name = /home/vital/Documents/PhD_2021/Malaria_codes/scripts/../data/pdbqt_ligands/ligand_87_temp.pdb
REMARK                            x       y       z     vdW  Elec       q    Type
REMARK                         _______ _______ _______ _____ _____    ______ ____
ROOT
ATOM      1  C1  UNL     1     152.346 155.237 153.924  0.00  0.00    +0.079 C 
ATOM      2  O1  UNL     1     151.351 155.327 154.935  0.00  0.00    -0.495 OA
ATOM      3  C2  UNL     1     151.473 156.349 155.836  0.00  0.00    +0.120 A 
ATOM      4  C3  UNL     1     152.483 157.310 155.854  0.00  0.00    -0.019 A 
ATOM      5  C4  UNL     1     152.488 158.307 156.838  0.00  0.00    -0.049 A 
ATOM      6  C5  UNL     1     151.479 158.358 157.808  0.00  0.00    +0.001 A 
ATOM      7  C6  UNL     1     151.469 159.379 158.845  0.00  0.00    +0.083 A 
ATOM      8  N1  UNL     1     151.277 159.019 160.171  0.00  0.00    -0.224 NA
ATOM      9  C7  UNL     1     151.312 160.086 160.933  0.00  0.00    +0.165 A 
ATOM     10  N2  UNL     1     151.172 159.975 162.292  0.00  0.00    -0.261 N 
ATOM     11  C8  UNL     1     151.120 161.001 163.205  0.00  0.00    +0.250 C 
ATOM     12  O2  UNL     1     151.136 162.204 162.978  0.00  0.00    -0.270 OA
ATOM     13  C9  UNL     1     150.988 160.562 164.625  0.00  0.00    +0.038 A 
ATOM     14  C10 UNL     1     150.248 161.366 165.504  0.00  0.00    -0.050 A 
ATOM     15  C11 UNL     1     150.098 160.992 166.840  0.00  0.00    -0.060 A 
ATOM     16  C12 UNL     1     150.696 159.821 167.306  0.00  0.00    -0.046 A 
ATOM     17  C13 UNL     1     151.451 159.026 166.439  0.00  0.00    +0.026 A 
ATOM     18  C14 UNL     1     152.076 157.835 166.925  0.00  0.00    -0.064 C 
ATOM     19  C15 UNL     1     152.604 156.834 167.325  0.00  0.00    -0.069 C 
ATOM     20  C16 UNL     1     153.251 155.614 167.810  0.00  0.00    +0.105 C 
ATOM     21  O3  UNL     1     152.931 154.526 166.956  0.00  0.00    -0.383 OA
ATOM     22  C17 UNL     1     151.603 159.396 165.100  0.00  0.00    -0.034 A 
ATOM     23  S1  UNL     1     151.557 161.562 160.131  0.00  0.00    -0.057 S 
ATOM     24  C18 UNL     1     151.603 160.741 158.622  0.00  0.00    +0.016 A 
ATOM     25  C19 UNL     1     151.761 161.515 157.360  0.00  0.00    -0.031 C 
ATOM     26  C20 UNL     1     150.479 157.382 157.794  0.00  0.00    -0.049 A 
ATOM     27  C21 UNL     1     150.475 156.389 156.812  0.00  0.00    -0.019 A 
ATOM     28  H   UNL     1     151.102 159.061 162.652  0.00  0.00    +0.000 HD
ATOM     29  H   UNL     1     151.970 154.394 166.947  0.00  0.00    +0.000 HD
ENDROOT
TORSDOF 0
ENDMDL
MODEL 3
REMARK VINA RESULT:    -9.136      6.608      8.283
REMARK INTER + INTRA:          -9.136
REMARK INTER:                  -9.136
REMARK INTRA:                   0.000
REMARK UNBOUND:                 0.000
REMARK  Name = /home/vital/Documents/PhD_2021/Malaria_codes/scripts/../data/pdbqt_ligands/ligand_87_temp.pdb
REMARK                            x       y       z     vdW  Elec       q    Type
REMARK                         _______ _______ _______ _____ _____    ______ ____
ROOT
ATOM      1  C1  UNL     1     146.016 150.430 163.432  0.00  0.00    +0.079 C 
ATOM      2  O1  UNL     1     146.781 151.513 162.919  0.00  0.00    -0.495 OA
ATOM      3  C2  UNL     1     147.662 152.110 163.778  0.00  0.00    +0.120 A 
ATOM      4  C3  UNL     1     147.880 151.753 165.109  0.00  0.00    -0.019 A 
ATOM      5  C4  UNL     1     148.818 152.452 165.880  0.00  0.00    -0.049 A 
ATOM      6  C5  UNL     1     149.553 153.508 165.327  0.00  0.00    +0.001 A 
ATOM      7  C6  UNL     1     150.527 154.253 166.111  0.00  0.00    +0.083 A 
ATOM      8  N1  UNL     1     150.512 155.641 166.097  0.00  0.00    -0.224 NA
ATOM      9  C7  UNL     1     151.462 156.104 166.873  0.00  0.00    +0.165 A 
ATOM     10  N2  UNL     1     151.626 157.455 167.040  0.00  0.00    -0.261 N 
ATOM     11  C8  UNL     1     152.610 158.087 167.762  0.00  0.00    +0.250 C 
ATOM     12  O2  UNL     1     153.554 157.570 168.348  0.00  0.00    -0.270 OA
ATOM     13  C9  UNL     1     152.510 159.575 167.780  0.00  0.00    +0.038 A 
ATOM     14  C10 UNL     1     153.696 160.321 167.816  0.00  0.00    -0.050 A 
ATOM     15  C11 UNL     1     153.649 161.715 167.832  0.00  0.00    -0.060 A 
ATOM     16  C12 UNL     1     152.416 162.370 167.823  0.00  0.00    -0.046 A 
ATOM     17  C13 UNL     1     151.230 161.630 167.806  0.00  0.00    +0.026 A 
ATOM     18  C14 UNL     1     149.969 162.304 167.814  0.00  0.00    -0.064 C 
ATOM     19  C15 UNL     1     148.906 162.863 167.820  0.00  0.00    -0.069 C 
ATOM     20  C16 UNL     1     147.609 163.541 167.830  0.00  0.00    +0.105 C 
ATOM     21  O3  UNL     1     146.791 163.032 166.787  0.00  0.00    -0.383 OA
ATOM     22  C17 UNL     1     151.273 160.233 167.789  0.00  0.00    -0.034 A 
ATOM     23  S1  UNL     1     152.424 154.939 167.645  0.00  0.00    -0.057 S 
ATOM     24  C18 UNL     1     151.533 153.686 166.877  0.00  0.00    +0.016 A 
ATOM     25  C19 UNL     1     151.913 152.263 167.096  0.00  0.00    -0.031 C 
ATOM     26  C20 UNL     1     149.318 153.870 163.997  0.00  0.00    -0.049 A 
ATOM     27  C21 UNL     1     148.383 153.172 163.230  0.00  0.00    -0.019 A 
ATOM     28  H   UNL     1     150.966 158.035 166.595  0.00  0.00    +0.000 HD
ATOM     29  H   UNL     1     147.224 163.186 165.933  0.00  0.00    +0.000 HD
ENDROOT
TORSDOF 0
ENDMDL
MODEL 4
REMARK VINA RESULT:    -8.960      3.550      9.070
REMARK INTER + INTRA:          -8.960
REMARK INTER:                  -8.960
REMARK INTRA:                   0.000
REMARK UNBOUND:                 0.000
REMARK  Name = /home/vital/Documents/PhD_2021/Malaria_codes/scripts/../data/pdbqt_ligands/ligand_87_temp.pdb
REMARK                            x       y       z     vdW  Elec       q    Type
REMARK                         _______ _______ _______ _____ _____    ______ ____
ROOT
ATOM      1  C1  UNL     1     151.619 162.549 170.899  0.00  0.00    +0.079 C 
ATOM      2  O1  UNL     1     152.353 161.633 170.096  0.00  0.00    -0.495 OA
ATOM      3  C2  UNL     1     152.021 161.569 168.771  0.00  0.00    +0.120 A 
ATOM      4  C3  UNL     1     151.031 162.317 168.135  0.00  0.00    -0.019 A 
ATOM      5  C4  UNL     1     150.794 162.151 166.764  0.00  0.00    -0.049 A 
ATOM      6  C5  UNL     1     151.550 161.242 166.014  0.00  0.00    +0.001 A 
ATOM      7  C6  UNL     1     151.315 161.046 164.590  0.00  0.00    +0.083 A 
ATOM      8  N1  UNL     1     151.196 159.763 164.078  0.00  0.00    -0.224 NA
ATOM      9  C7  UNL     1     150.982 159.817 162.785  0.00  0.00    +0.165 A 
ATOM     10  N2  UNL     1     150.803 158.668 162.061  0.00  0.00    -0.261 N 
ATOM     11  C8  UNL     1     150.638 158.563 160.700  0.00  0.00    +0.250 C 
ATOM     12  O2  UNL     1     150.671 159.466 159.872  0.00  0.00    -0.270 OA
ATOM     13  C9  UNL     1     150.438 157.171 160.203  0.00  0.00    +0.038 A 
ATOM     14  C10 UNL     1     150.951 156.834 158.943  0.00  0.00    -0.050 A 
ATOM     15  C11 UNL     1     150.788 155.543 158.441  0.00  0.00    -0.060 A 
ATOM     16  C12 UNL     1     150.102 154.586 159.190  0.00  0.00    -0.046 A 
ATOM     17  C13 UNL     1     149.572 154.922 160.438  0.00  0.00    +0.026 A 
ATOM     18  C14 UNL     1     148.855 153.943 161.196  0.00  0.00    -0.064 C 
ATOM     19  C15 UNL     1     148.251 153.127 161.838  0.00  0.00    -0.069 C 
ATOM     20  C16 UNL     1     147.514 152.136 162.622  0.00  0.00    +0.105 C 
ATOM     21  O3  UNL     1     148.027 152.088 163.945  0.00  0.00    -0.383 OA
ATOM     22  C17 UNL     1     149.734 156.214 160.946  0.00  0.00    -0.034 A 
ATOM     23  S1  UNL     1     150.924 161.373 162.108  0.00  0.00    -0.057 S 
ATOM     24  C18 UNL     1     151.232 162.063 163.651  0.00  0.00    +0.016 A 
ATOM     25  C19 UNL     1     151.369 163.539 163.791  0.00  0.00    -0.031 C 
ATOM     26  C20 UNL     1     152.529 160.483 166.660  0.00  0.00    -0.049 A 
ATOM     27  C21 UNL     1     152.765 160.650 168.027  0.00  0.00    -0.019 A 
ATOM     28  H   UNL     1     150.791 157.826 162.571  0.00  0.00    +0.000 HD
ATOM     29  H   UNL     1     148.965 151.840 163.919  0.00  0.00    +0.000 HD
ENDROOT
TORSDOF 0
ENDMDL
MODEL 5
REMARK VINA RESULT:    -8.825      2.957     10.273
REMARK INTER + INTRA:          -8.825
REMARK INTER:                  -8.825
REMARK INTRA:                   0.000
REMARK UNBOUND:                 0.000
REMARK  Name = /home/vital/Documents/PhD_2021/Malaria_codes/scripts/../data/pdbqt_ligands/ligand_87_temp.pdb
REMARK                            x       y       z     vdW  Elec       q    Type
REMARK                         _______ _______ _______ _____ _____    ______ ____
ROOT
ATOM      1  C1  UNL     1     151.466 162.973 170.791  0.00  0.00    +0.079 C 
ATOM      2  O1  UNL     1     150.503 162.599 169.814  0.00  0.00    -0.495 OA
ATOM      3  C2  UNL     1     150.870 161.627 168.924  0.00  0.00    +0.120 A 
ATOM      4  C3  UNL     1     152.100 160.971 168.886  0.00  0.00    -0.019 A 
ATOM      5  C4  UNL     1     152.346 159.990 167.916  0.00  0.00    -0.049 A 
ATOM      6  C5  UNL     1     151.361 159.650 166.980  0.00  0.00    +0.001 A 
ATOM      7  C6  UNL     1     151.597 158.641 165.958  0.00  0.00    +0.083 A 
ATOM      8  N1  UNL     1     151.279 158.908 164.634  0.00  0.00    -0.224 NA
ATOM      9  C7  UNL     1     151.577 157.872 163.886  0.00  0.00    +0.165 A 
ATOM     10  N2  UNL     1     151.377 157.912 162.531  0.00  0.00    -0.261 N 
ATOM     11  C8  UNL     1     151.576 156.890 161.634  0.00  0.00    +0.250 C 
ATOM     12  O2  UNL     1     151.920 155.740 161.877  0.00  0.00    -0.270 OA
ATOM     13  C9  UNL     1     151.293 157.246 160.213  0.00  0.00    +0.038 A 
ATOM     14  C10 UNL     1     150.772 156.255 159.370  0.00  0.00    -0.050 A 
ATOM     15  C11 UNL     1     150.491 156.546 158.034  0.00  0.00    -0.060 A 
ATOM     16  C12 UNL     1     150.741 157.824 157.533  0.00  0.00    -0.046 A 
ATOM     17  C13 UNL     1     151.279 158.810 158.364  0.00  0.00    +0.026 A 
ATOM     18  C14 UNL     1     151.549 160.114 157.842  0.00  0.00    -0.064 C 
ATOM     19  C15 UNL     1     151.778 161.211 157.412  0.00  0.00    -0.069 C 
ATOM     20  C16 UNL     1     152.061 162.548 156.889  0.00  0.00    +0.105 C 
ATOM     21  O3  UNL     1     151.485 163.530 157.738  0.00  0.00    -0.383 OA
ATOM     22  C17 UNL     1     151.560 158.524 159.703  0.00  0.00    -0.034 A 
ATOM     23  S1  UNL     1     152.231 156.533 164.700  0.00  0.00    -0.057 S 
ATOM     24  C18 UNL     1     152.097 157.370 166.195  0.00  0.00    +0.016 A 
ATOM     25  C19 UNL     1     152.490 156.694 167.462  0.00  0.00    -0.031 C 
ATOM     26  C20 UNL     1     150.137 160.323 167.012  0.00  0.00    -0.049 A 
ATOM     27  C21 UNL     1     149.894 161.300 167.981  0.00  0.00    -0.019 A 
ATOM     28  H   UNL     1     151.054 158.766 162.161  0.00  0.00    +0.000 HD
ATOM     29  H   UNL     1     150.524 163.400 157.777  0.00  0.00    +0.000 HD
ENDROOT
TORSDOF 0
ENDMDL
MODEL 6
REMARK VINA RESULT:    -8.766      5.172      6.963
REMARK INTER + INTRA:          -8.766
REMARK INTER:                  -8.766
REMARK INTRA:                   0.000
REMARK UNBOUND:                 0.000
REMARK  Name = /home/vital/Documents/PhD_2021/Malaria_codes/scripts/../data/pdbqt_ligands/ligand_87_temp.pdb
REMARK                            x       y       z     vdW  Elec       q    Type
REMARK                         _______ _______ _______ _____ _____    ______ ____
ROOT
ATOM      1  C1  UNL     1     151.566 160.454 156.900  0.00  0.00    +0.079 C 
ATOM      2  O1  UNL     1     150.443 160.199 157.733  0.00  0.00    -0.495 OA
ATOM      3  C2  UNL     1     150.668 159.476 158.872  0.00  0.00    +0.120 A 
ATOM      4  C3  UNL     1     151.896 158.966 159.291  0.00  0.00    -0.019 A 
ATOM      5  C4  UNL     1     151.987 158.238 160.485  0.00  0.00    -0.049 A 
ATOM      6  C5  UNL     1     150.851 158.021 161.276  0.00  0.00    +0.001 A 
ATOM      7  C6  UNL     1     150.920 157.261 162.516  0.00  0.00    +0.083 A 
ATOM      8  N1  UNL     1     149.997 156.255 162.763  0.00  0.00    -0.224 NA
ATOM      9  C7  UNL     1     150.245 155.700 163.925  0.00  0.00    +0.165 A 
ATOM     10  N2  UNL     1     149.477 154.657 164.375  0.00  0.00    -0.261 N 
ATOM     11  C8  UNL     1     149.572 154.022 165.591  0.00  0.00    +0.250 C 
ATOM     12  O2  UNL     1     150.322 154.297 166.519  0.00  0.00    -0.270 OA
ATOM     13  C9  UNL     1     148.610 152.899 165.782  0.00  0.00    +0.038 A 
ATOM     14  C10 UNL     1     148.107 152.665 167.070  0.00  0.00    -0.050 A 
ATOM     15  C11 UNL     1     147.204 151.626 167.294  0.00  0.00    -0.060 A 
ATOM     16  C12 UNL     1     146.807 150.808 166.234  0.00  0.00    -0.046 A 
ATOM     17  C13 UNL     1     147.320 151.025 164.952  0.00  0.00    +0.026 A 
ATOM     18  C14 UNL     1     146.924 150.174 163.873  0.00  0.00    -0.064 C 
ATOM     19  C15 UNL     1     146.597 149.465 162.961  0.00  0.00    -0.069 C 
ATOM     20  C16 UNL     1     146.201 148.600 161.849  0.00  0.00    +0.105 C 
ATOM     21  O3  UNL     1     145.778 149.392 160.749  0.00  0.00    -0.383 OA
ATOM     22  C17 UNL     1     148.225 152.065 164.723  0.00  0.00    -0.034 A 
ATOM     23  S1  UNL     1     151.561 156.337 164.787  0.00  0.00    -0.057 S 
ATOM     24  C18 UNL     1     151.836 157.479 163.533  0.00  0.00    +0.016 A 
ATOM     25  C19 UNL     1     152.924 158.486 163.671  0.00  0.00    -0.031 C 
ATOM     26  C20 UNL     1     149.620 158.521 160.842  0.00  0.00    -0.049 A 
ATOM     27  C21 UNL     1     149.533 159.247 159.652  0.00  0.00    -0.019 A 
ATOM     28  H   UNL     1     148.782 154.327 163.760  0.00  0.00    +0.000 HD
ATOM     29  H   UNL     1     145.019 149.935 161.015  0.00  0.00    +0.000 HD
ENDROOT
TORSDOF 0
ENDMDL
MODEL 7
REMARK VINA RESULT:    -8.625      6.728      9.890
REMARK INTER + INTRA:          -8.625
REMARK INTER:                  -8.625
REMARK INTRA:                   0.000
REMARK UNBOUND:                 0.000
REMARK  Name = /home/vital/Documents/PhD_2021/Malaria_codes/scripts/../data/pdbqt_ligands/ligand_87_temp.pdb
REMARK                            x       y       z     vdW  Elec       q    Type
REMARK                         _______ _______ _______ _____ _____    ______ ____
ROOT
ATOM      1  C1  UNL     1     143.912 146.069 163.643  0.00  0.00    +0.079 C 
ATOM      2  O1  UNL     1     145.262 146.377 163.319  0.00  0.00    -0.495 OA
ATOM      3  C2  UNL     1     145.726 147.605 163.704  0.00  0.00    +0.120 A 
ATOM      4  C3  UNL     1     144.998 148.581 164.384  0.00  0.00    -0.019 A 
ATOM      5  C4  UNL     1     145.599 149.801 164.720  0.00  0.00    -0.049 A 
ATOM      6  C5  UNL     1     146.936 150.054 164.386  0.00  0.00    +0.001 A 
ATOM      7  C6  UNL     1     147.578 151.318 164.717  0.00  0.00    +0.083 A 
ATOM      8  N1  UNL     1     148.302 152.001 163.750  0.00  0.00    -0.224 NA
ATOM      9  C7  UNL     1     148.785 153.110 164.256  0.00  0.00    +0.165 A 
ATOM     10  N2  UNL     1     149.516 153.969 163.477  0.00  0.00    -0.261 N 
ATOM     11  C8  UNL     1     150.139 155.126 163.880  0.00  0.00    +0.250 C 
ATOM     12  O2  UNL     1     150.205 155.582 165.015  0.00  0.00    -0.270 OA
ATOM     13  C9  UNL     1     150.840 155.866 162.791  0.00  0.00    +0.038 A 
ATOM     14  C10 UNL     1     152.015 156.562 163.109  0.00  0.00    -0.050 A 
ATOM     15  C11 UNL     1     152.703 157.267 162.121  0.00  0.00    -0.060 A 
ATOM     16  C12 UNL     1     152.216 157.288 160.814  0.00  0.00    -0.046 A 
ATOM     17  C13 UNL     1     151.035 156.612 160.495  0.00  0.00    +0.026 A 
ATOM     18  C14 UNL     1     150.529 156.650 159.158  0.00  0.00    -0.064 C 
ATOM     19  C15 UNL     1     150.098 156.677 158.038  0.00  0.00    -0.069 C 
ATOM     20  C16 UNL     1     149.569 156.710 156.674  0.00  0.00    +0.105 C 
ATOM     21  O3  UNL     1     149.289 155.389 156.233  0.00  0.00    -0.383 OA
ATOM     22  C17 UNL     1     150.342 155.904 161.482  0.00  0.00    -0.034 A 
ATOM     23  S1  UNL     1     148.428 153.398 165.890  0.00  0.00    -0.057 S 
ATOM     24  C18 UNL     1     147.567 151.912 165.969  0.00  0.00    +0.016 A 
ATOM     25  C19 UNL     1     146.967 151.469 167.257  0.00  0.00    -0.031 C 
ATOM     26  C20 UNL     1     147.655 149.078 163.690  0.00  0.00    -0.049 A 
ATOM     27  C21 UNL     1     147.054 147.862 163.357  0.00  0.00    -0.019 A 
ATOM     28  H   UNL     1     149.603 153.732 162.525  0.00  0.00    +0.000 HD
ATOM     29  H   UNL     1     150.105 154.865 156.245  0.00  0.00    +0.000 HD
ENDROOT
TORSDOF 0
ENDMDL
MODEL 8
REMARK VINA RESULT:    -8.465      8.036     10.548
REMARK INTER + INTRA:          -8.465
REMARK INTER:                  -8.465
REMARK INTRA:                   0.000
REMARK UNBOUND:                 0.000
REMARK  Name = /home/vital/Documents/PhD_2021/Malaria_codes/scripts/../data/pdbqt_ligands/ligand_87_temp.pdb
REMARK                            x       y       z     vdW  Elec       q    Type
REMARK                         _______ _______ _______ _____ _____    ______ ____
ROOT
ATOM      1  C1  UNL     1     144.561 143.365 165.504  0.00  0.00    +0.079 C 
ATOM      2  O1  UNL     1     144.531 144.556 166.280  0.00  0.00    -0.495 OA
ATOM      3  C2  UNL     1     144.986 145.697 165.680  0.00  0.00    +0.120 A 
ATOM      4  C3  UNL     1     145.475 145.801 164.378  0.00  0.00    -0.019 A 
ATOM      5  C4  UNL     1     145.911 147.039 163.886  0.00  0.00    -0.049 A 
ATOM      6  C5  UNL     1     145.853 148.186 164.687  0.00  0.00    +0.001 A 
ATOM      7  C6  UNL     1     146.308 149.480 164.200  0.00  0.00    +0.083 A 
ATOM      8  N1  UNL     1     147.157 150.254 164.978  0.00  0.00    -0.224 NA
ATOM      9  C7  UNL     1     147.445 151.368 164.350  0.00  0.00    +0.165 A 
ATOM     10  N2  UNL     1     148.295 152.284 164.913  0.00  0.00    -0.261 N 
ATOM     11  C8  UNL     1     148.636 153.517 164.409  0.00  0.00    +0.250 C 
ATOM     12  O2  UNL     1     148.209 154.052 163.393  0.00  0.00    -0.270 OA
ATOM     13  C9  UNL     1     149.609 154.281 165.242  0.00  0.00    +0.038 A 
ATOM     14  C10 UNL     1     149.500 155.678 165.281  0.00  0.00    -0.050 A 
ATOM     15  C11 UNL     1     150.388 156.432 166.048  0.00  0.00    -0.060 A 
ATOM     16  C12 UNL     1     151.397 155.794 166.771  0.00  0.00    -0.046 A 
ATOM     17  C13 UNL     1     151.523 154.403 166.721  0.00  0.00    +0.026 A 
ATOM     18  C14 UNL     1     152.568 153.754 167.450  0.00  0.00    -0.064 C 
ATOM     19  C15 UNL     1     153.444 153.202 168.060  0.00  0.00    -0.069 C 
ATOM     20  C16 UNL     1     154.510 152.527 168.799  0.00  0.00    +0.105 C 
ATOM     21  O3  UNL     1     153.966 151.469 169.574  0.00  0.00    -0.383 OA
ATOM     22  C17 UNL     1     150.634 153.644 165.955  0.00  0.00    -0.034 A 
ATOM     23  S1  UNL     1     146.725 151.568 162.825  0.00  0.00    -0.057 S 
ATOM     24  C18 UNL     1     145.929 150.055 162.997  0.00  0.00    +0.016 A 
ATOM     25  C19 UNL     1     145.001 149.579 161.934  0.00  0.00    -0.031 C 
ATOM     26  C20 UNL     1     145.377 148.072 165.996  0.00  0.00    -0.049 A 
ATOM     27  C21 UNL     1     144.942 146.837 166.485  0.00  0.00    -0.019 A 
ATOM     28  H   UNL     1     148.706 152.031 165.771  0.00  0.00    +0.000 HD
ATOM     29  H   UNL     1     153.320 151.829 170.204  0.00  0.00    +0.000 HD
ENDROOT
TORSDOF 0
ENDMDL
MODEL 9
REMARK VINA RESULT:    -7.930      8.539     11.526
REMARK INTER + INTRA:          -7.930
REMARK INTER:                  -7.930
REMARK INTRA:                   0.000
REMARK UNBOUND:                 0.000
REMARK  Name = /home/vital/Documents/PhD_2021/Malaria_codes/scripts/../data/pdbqt_ligands/ligand_87_temp.pdb
REMARK                            x       y       z     vdW  Elec       q    Type
REMARK                         _______ _______ _______ _____ _____    ______ ____
ROOT
ATOM      1  C1  UNL     1     151.963 158.091 167.600  0.00  0.00    +0.079 C 
ATOM      2  O1  UNL     1     151.807 156.705 167.873  0.00  0.00    -0.495 OA
ATOM      3  C2  UNL     1     151.083 155.974 166.972  0.00  0.00    +0.120 A 
ATOM      4  C3  UNL     1     150.485 156.462 165.811  0.00  0.00    -0.019 A 
ATOM      5  C4  UNL     1     149.768 155.599 164.971  0.00  0.00    -0.049 A 
ATOM      6  C5  UNL     1     149.650 154.238 165.280  0.00  0.00    +0.001 A 
ATOM      7  C6  UNL     1     148.903 153.325 164.427  0.00  0.00    +0.083 A 
ATOM      8  N1  UNL     1     147.975 152.458 164.986  0.00  0.00    -0.224 NA
ATOM      9  C7  UNL     1     147.417 151.736 164.044  0.00  0.00    +0.165 A 
ATOM     10  N2  UNL     1     146.443 150.822 164.353  0.00  0.00    -0.261 N 
ATOM     11  C8  UNL     1     145.819 149.953 163.491  0.00  0.00    +0.250 C 
ATOM     12  O2  UNL     1     146.047 149.791 162.299  0.00  0.00    -0.270 OA
ATOM     13  C9  UNL     1     144.776 149.093 164.122  0.00  0.00    +0.038 A 
ATOM     14  C10 UNL     1     144.598 147.792 163.631  0.00  0.00    -0.050 A 
ATOM     15  C11 UNL     1     143.635 146.954 164.193  0.00  0.00    -0.060 A 
ATOM     16  C12 UNL     1     142.837 147.415 165.241  0.00  0.00    -0.046 A 
ATOM     17  C13 UNL     1     142.996 148.718 165.722  0.00  0.00    +0.026 A 
ATOM     18  C14 UNL     1     142.165 149.193 166.784  0.00  0.00    -0.064 C 
ATOM     19  C15 UNL     1     141.471 149.599 167.676  0.00  0.00    -0.069 C 
ATOM     20  C16 UNL     1     140.626 150.097 168.761  0.00  0.00    +0.105 C 
ATOM     21  O3  UNL     1     141.434 150.670 169.779  0.00  0.00    -0.383 OA
ATOM     22  C17 UNL     1     143.961 149.561 165.163  0.00  0.00    -0.034 A 
ATOM     23  S1  UNL     1     147.962 152.028 162.463  0.00  0.00    -0.057 S 
ATOM     24  C18 UNL     1     149.063 153.207 163.055  0.00  0.00    +0.016 A 
ATOM     25  C19 UNL     1     149.984 153.902 162.114  0.00  0.00    -0.031 C 
ATOM     26  C20 UNL     1     150.238 153.758 166.453  0.00  0.00    -0.049 A 
ATOM     27  C21 UNL     1     150.953 154.620 167.289  0.00  0.00    -0.019 A 
ATOM     28  H   UNL     1     146.160 150.786 165.296  0.00  0.00    +0.000 HD
ATOM     29  H   UNL     1     142.038 149.996 170.130  0.00  0.00    +0.000 HD
ENDROOT
TORSDOF 0
ENDMDL
