MODEL 1
REMARK VINA RESULT:    -9.033      0.000      0.000
REMARK INTER + INTRA:          -9.033
REMARK INTER:                  -9.033
REMARK INTRA:                   0.000
REMARK UNBOUND:                 0.000
REMARK  Name = /home/vital/Documents/PhD_2021/Malaria_codes/scripts/../data/pdbqt_ligands/ligand_452_temp.pdb
REMARK                            x       y       z     vdW  Elec       q    Type
REMARK                         _______ _______ _______ _____ _____    ______ ____
ROOT
ATOM      1  C1  UNL     1     150.467 155.498 164.358  0.00  0.00    +0.079 C 
ATOM      2  O1  UNL     1     150.442 156.528 163.381  0.00  0.00    -0.491 OA
ATOM      3  C2  UNL     1     150.738 156.186 162.085  0.00  0.00    +0.164 A 
ATOM      4  C3  UNL     1     151.060 154.897 161.664  0.00  0.00    +0.021 A 
ATOM      5  C4  UNL     1     151.343 154.664 160.321  0.00  0.00    +0.148 A 
ATOM      6  F1  UNL     1     151.651 153.412 159.942  0.00  0.00    -0.203 F 
ATOM      7  C5  UNL     1     151.319 155.681 159.356  0.00  0.00    +0.073 A 
ATOM      8  N1  UNL     1     151.620 155.348 158.028  0.00  0.00    -0.281 N 
ATOM      9  C6  UNL     1     151.694 156.059 156.837  0.00  0.00    +0.220 A 
ATOM     10  N2  UNL     1     151.451 157.376 156.784  0.00  0.00    -0.222 NA
ATOM     11  C7  UNL     1     151.552 157.968 155.580  0.00  0.00    +0.040 A 
ATOM     12  C8  UNL     1     151.887 157.301 154.416  0.00  0.00    +0.019 A 
ATOM     13  C9  UNL     1     151.991 157.923 153.155  0.00  0.00    -0.051 A 
ATOM     14  C10 UNL     1     152.335 157.168 152.038  0.00  0.00    -0.061 A 
ATOM     15  C11 UNL     1     152.571 155.805 152.180  0.00  0.00    -0.060 A 
ATOM     16  C12 UNL     1     152.462 155.205 153.440  0.00  0.00    -0.036 A 
ATOM     17  C13 UNL     1     152.121 155.935 154.572  0.00  0.00    +0.076 A 
ATOM     18  N3  UNL     1     152.026 155.323 155.762  0.00  0.00    -0.214 NA
ATOM     19  C14 UNL     1     150.995 156.970 159.791  0.00  0.00    +0.008 A 
ATOM     20  C15 UNL     1     150.705 157.233 161.140  0.00  0.00    +0.163 A 
ATOM     21  O2  UNL     1     150.379 158.473 161.634  0.00  0.00    -0.491 OA
ATOM     22  C16 UNL     1     150.334 159.558 160.717  0.00  0.00    +0.079 C 
ATOM     23  H   UNL     1     151.824 154.392 157.913  0.00  0.00    +0.000 HD
ENDROOT
TORSDOF 0
ENDMDL
MODEL 2
REMARK VINA RESULT:    -8.886      2.255      3.596
REMARK INTER + INTRA:          -8.886
REMARK INTER:                  -8.886
REMARK INTRA:                   0.000
REMARK UNBOUND:                 0.000
REMARK  Name = /home/vital/Documents/PhD_2021/Malaria_codes/scripts/../data/pdbqt_ligands/ligand_452_temp.pdb
REMARK                            x       y       z     vdW  Elec       q    Type
REMARK                         _______ _______ _______ _____ _____    ______ ____
ROOT
ATOM      1  C1  UNL     1     150.477 161.064 163.694  0.00  0.00    +0.079 C 
ATOM      2  O1  UNL     1     150.463 159.781 163.084  0.00  0.00    -0.491 OA
ATOM      3  C2  UNL     1     150.769 159.707 161.748  0.00  0.00    +0.164 A 
ATOM      4  C3  UNL     1     151.092 160.804 160.951  0.00  0.00    +0.021 A 
ATOM      5  C4  UNL     1     151.385 160.612 159.604  0.00  0.00    +0.148 A 
ATOM      6  F1  UNL     1     151.693 161.686 158.858  0.00  0.00    -0.203 F 
ATOM      7  C5  UNL     1     151.372 159.346 159.001  0.00  0.00    +0.073 A 
ATOM      8  N1  UNL     1     151.681 159.253 157.637  0.00  0.00    -0.281 N 
ATOM      9  C6  UNL     1     151.769 158.208 156.725  0.00  0.00    +0.220 A 
ATOM     10  N2  UNL     1     151.528 156.939 157.080  0.00  0.00    -0.222 NA
ATOM     11  C7  UNL     1     151.640 156.004 156.119  0.00  0.00    +0.040 A 
ATOM     12  C8  UNL     1     151.982 156.279 154.808  0.00  0.00    +0.019 A 
ATOM     13  C9  UNL     1     152.099 155.299 153.803  0.00  0.00    -0.051 A 
ATOM     14  C10 UNL     1     152.449 155.672 152.509  0.00  0.00    -0.061 A 
ATOM     15  C11 UNL     1     152.681 157.014 152.224  0.00  0.00    -0.060 A 
ATOM     16  C12 UNL     1     152.561 157.974 153.236  0.00  0.00    -0.036 A 
ATOM     17  C13 UNL     1     152.212 157.628 154.536  0.00  0.00    +0.076 A 
ATOM     18  N3  UNL     1     152.108 158.577 155.477  0.00  0.00    -0.214 NA
ATOM     19  C14 UNL     1     151.047 158.253 159.811  0.00  0.00    +0.008 A 
ATOM     20  C15 UNL     1     150.746 158.419 161.173  0.00  0.00    +0.163 A 
ATOM     21  O2  UNL     1     150.419 157.391 162.024  0.00  0.00    -0.491 OA
ATOM     22  C16 UNL     1     150.384 156.076 161.487  0.00  0.00    +0.079 C 
ATOM     23  H   UNL     1     151.883 160.128 157.233  0.00  0.00    +0.000 HD
ENDROOT
TORSDOF 0
ENDMDL
MODEL 3
REMARK VINA RESULT:    -8.714      1.378      1.607
REMARK INTER + INTRA:          -8.714
REMARK INTER:                  -8.714
REMARK INTRA:                   0.000
REMARK UNBOUND:                 0.000
REMARK  Name = /home/vital/Documents/PhD_2021/Malaria_codes/scripts/../data/pdbqt_ligands/ligand_452_temp.pdb
REMARK                            x       y       z     vdW  Elec       q    Type
REMARK                         _______ _______ _______ _____ _____    ______ ____
ROOT
ATOM      1  C1  UNL     1     151.469 158.048 163.957  0.00  0.00    +0.079 C 
ATOM      2  O1  UNL     1     151.542 158.836 162.777  0.00  0.00    -0.491 OA
ATOM      3  C2  UNL     1     151.588 158.179 161.574  0.00  0.00    +0.164 A 
ATOM      4  C3  UNL     1     151.567 156.792 161.430  0.00  0.00    +0.021 A 
ATOM      5  C4  UNL     1     151.619 156.232 160.157  0.00  0.00    +0.148 A 
ATOM      6  F1  UNL     1     151.597 154.893 160.048  0.00  0.00    -0.203 F 
ATOM      7  C5  UNL     1     151.691 157.009 158.992  0.00  0.00    +0.073 A 
ATOM      8  N1  UNL     1     151.739 156.353 157.754  0.00  0.00    -0.281 N 
ATOM      9  C6  UNL     1     151.812 156.770 156.431  0.00  0.00    +0.220 A 
ATOM     10  N2  UNL     1     151.854 158.068 156.101  0.00  0.00    -0.222 NA
ATOM     11  C7  UNL     1     151.924 158.364 154.790  0.00  0.00    +0.040 A 
ATOM     12  C8  UNL     1     151.955 157.415 153.785  0.00  0.00    +0.019 A 
ATOM     13  C9  UNL     1     152.028 157.726 152.412  0.00  0.00    -0.051 A 
ATOM     14  C10 UNL     1     152.054 156.702 151.470  0.00  0.00    -0.061 A 
ATOM     15  C11 UNL     1     152.007 155.379 151.898  0.00  0.00    -0.060 A 
ATOM     16  C12 UNL     1     151.934 155.089 153.266  0.00  0.00    -0.036 A 
ATOM     17  C13 UNL     1     151.907 156.093 154.227  0.00  0.00    +0.076 A 
ATOM     18  N3  UNL     1     151.836 155.775 155.528  0.00  0.00    -0.214 NA
ATOM     19  C14 UNL     1     151.711 158.399 159.148  0.00  0.00    +0.008 A 
ATOM     20  C15 UNL     1     151.660 158.990 160.422  0.00  0.00    +0.163 A 
ATOM     21  O2  UNL     1     151.676 160.345 160.647  0.00  0.00    -0.491 OA
ATOM     22  C16 UNL     1     151.749 161.201 159.514  0.00  0.00    +0.079 C 
ATOM     23  H   UNL     1     151.716 155.373 157.843  0.00  0.00    +0.000 HD
ENDROOT
TORSDOF 0
ENDMDL
MODEL 4
REMARK VINA RESULT:    -7.884      4.881      9.285
REMARK INTER + INTRA:          -7.884
REMARK INTER:                  -7.884
REMARK INTRA:                   0.000
REMARK UNBOUND:                 0.000
REMARK  Name = /home/vital/Documents/PhD_2021/Malaria_codes/scripts/../data/pdbqt_ligands/ligand_452_temp.pdb
REMARK                            x       y       z     vdW  Elec       q    Type
REMARK                         _______ _______ _______ _____ _____    ______ ____
ROOT
ATOM      1  C1  UNL     1     151.492 158.501 155.068  0.00  0.00    +0.079 C 
ATOM      2  O1  UNL     1     151.489 157.965 156.383  0.00  0.00    -0.491 OA
ATOM      3  C2  UNL     1     151.490 158.850 157.432  0.00  0.00    +0.164 A 
ATOM      4  C3  UNL     1     151.492 160.237 157.294  0.00  0.00    +0.021 A 
ATOM      5  C4  UNL     1     151.492 161.041 158.430  0.00  0.00    +0.148 A 
ATOM      6  F1  UNL     1     151.494 162.374 158.269  0.00  0.00    -0.203 F 
ATOM      7  C5  UNL     1     151.489 160.513 159.730  0.00  0.00    +0.073 A 
ATOM      8  N1  UNL     1     151.490 161.403 160.812  0.00  0.00    -0.281 N 
ATOM      9  C6  UNL     1     151.487 161.259 162.194  0.00  0.00    +0.220 A 
ATOM     10  N2  UNL     1     151.485 160.053 162.778  0.00  0.00    -0.222 NA
ATOM     11  C7  UNL     1     151.483 160.026 164.124  0.00  0.00    +0.040 A 
ATOM     12  C8  UNL     1     151.484 161.156 164.919  0.00  0.00    +0.019 A 
ATOM     13  C9  UNL     1     151.482 161.126 166.329  0.00  0.00    -0.051 A 
ATOM     14  C10 UNL     1     151.484 162.319 167.047  0.00  0.00    -0.061 A 
ATOM     15  C11 UNL     1     151.486 163.529 166.361  0.00  0.00    -0.060 A 
ATOM     16  C12 UNL     1     151.488 163.539 164.961  0.00  0.00    -0.036 A 
ATOM     17  C13 UNL     1     151.487 162.364 164.220  0.00  0.00    +0.076 A 
ATOM     18  N3  UNL     1     151.488 162.415 162.880  0.00  0.00    -0.214 NA
ATOM     19  C14 UNL     1     151.487 159.120 159.855  0.00  0.00    +0.008 A 
ATOM     20  C15 UNL     1     151.487 158.285 158.725  0.00  0.00    +0.163 A 
ATOM     21  O2  UNL     1     151.484 156.912 158.776  0.00  0.00    -0.491 OA
ATOM     22  C16 UNL     1     151.482 156.301 160.059  0.00  0.00    +0.079 C 
ATOM     23  H   UNL     1     151.492 162.346 160.528  0.00  0.00    +0.000 HD
ENDROOT
TORSDOF 0
ENDMDL
MODEL 5
REMARK VINA RESULT:    -7.806      3.590      8.357
REMARK INTER + INTRA:          -7.806
REMARK INTER:                  -7.806
REMARK INTRA:                   0.000
REMARK UNBOUND:                 0.000
REMARK  Name = /home/vital/Documents/PhD_2021/Malaria_codes/scripts/../data/pdbqt_ligands/ligand_452_temp.pdb
REMARK                            x       y       z     vdW  Elec       q    Type
REMARK                         _______ _______ _______ _____ _____    ______ ____
ROOT
ATOM      1  C1  UNL     1     150.841 155.872 155.716  0.00  0.00    +0.079 C 
ATOM      2  O1  UNL     1     151.029 157.021 156.529  0.00  0.00    -0.491 OA
ATOM      3  C2  UNL     1     151.191 156.827 157.878  0.00  0.00    +0.164 A 
ATOM      4  C3  UNL     1     151.184 155.581 158.503  0.00  0.00    +0.021 A 
ATOM      5  C4  UNL     1     151.359 155.502 159.882  0.00  0.00    +0.148 A 
ATOM      6  F1  UNL     1     151.347 154.289 160.458  0.00  0.00    -0.203 F 
ATOM      7  C5  UNL     1     151.545 156.636 160.686  0.00  0.00    +0.073 A 
ATOM      8  N1  UNL     1     151.711 156.455 162.066  0.00  0.00    -0.281 N 
ATOM      9  C6  UNL     1     151.913 157.307 163.144  0.00  0.00    +0.220 A 
ATOM     10  N2  UNL     1     151.987 158.636 162.989  0.00  0.00    -0.222 NA
ATOM     11  C7  UNL     1     152.184 159.371 164.100  0.00  0.00    +0.040 A 
ATOM     12  C8  UNL     1     152.312 158.835 165.368  0.00  0.00    +0.019 A 
ATOM     13  C9  UNL     1     152.519 159.606 166.530  0.00  0.00    -0.051 A 
ATOM     14  C10 UNL     1     152.635 158.977 167.766  0.00  0.00    -0.061 A 
ATOM     15  C11 UNL     1     152.546 157.591 167.838  0.00  0.00    -0.060 A 
ATOM     16  C12 UNL     1     152.341 156.842 166.674  0.00  0.00    -0.036 A 
ATOM     17  C13 UNL     1     152.221 157.445 165.427  0.00  0.00    +0.076 A 
ATOM     18  N3  UNL     1     152.025 156.692 164.334  0.00  0.00    -0.214 NA
ATOM     19  C14 UNL     1     151.550 157.880 160.048  0.00  0.00    +0.008 A 
ATOM     20  C15 UNL     1     151.376 157.988 158.658  0.00  0.00    +0.163 A 
ATOM     21  O2  UNL     1     151.371 159.177 157.969  0.00  0.00    -0.491 OA
ATOM     22  C16 UNL     1     151.553 160.373 158.715  0.00  0.00    +0.079 C 
ATOM     23  H   UNL     1     151.678 155.508 162.331  0.00  0.00    +0.000 HD
ENDROOT
TORSDOF 0
ENDMDL
MODEL 6
REMARK VINA RESULT:    -7.700      4.600      6.919
REMARK INTER + INTRA:          -7.700
REMARK INTER:                  -7.700
REMARK INTRA:                   0.000
REMARK UNBOUND:                 0.000
REMARK  Name = /home/vital/Documents/PhD_2021/Malaria_codes/scripts/../data/pdbqt_ligands/ligand_452_temp.pdb
REMARK                            x       y       z     vdW  Elec       q    Type
REMARK                         _______ _______ _______ _____ _____    ______ ____
ROOT
ATOM      1  C1  UNL     1     152.981 160.808 169.533  0.00  0.00    +0.079 C 
ATOM      2  O1  UNL     1     152.766 159.507 169.007  0.00  0.00    -0.491 OA
ATOM      3  C2  UNL     1     152.600 159.388 167.649  0.00  0.00    +0.164 A 
ATOM      4  C3  UNL     1     152.631 160.457 166.754  0.00  0.00    +0.021 A 
ATOM      5  C4  UNL     1     152.451 160.220 165.395  0.00  0.00    +0.148 A 
ATOM      6  F1  UNL     1     152.485 161.267 164.554  0.00  0.00    -0.203 F 
ATOM      7  C5  UNL     1     152.238 158.935 164.873  0.00  0.00    +0.073 A 
ATOM      8  N1  UNL     1     152.067 158.797 163.489  0.00  0.00    -0.281 N 
ATOM      9  C6  UNL     1     151.843 157.723 162.636  0.00  0.00    +0.220 A 
ATOM     10  N2  UNL     1     151.741 156.468 163.093  0.00  0.00    -0.222 NA
ATOM     11  C7  UNL     1     151.523 155.502 162.182  0.00  0.00    +0.040 A 
ATOM     12  C8  UNL     1     151.400 155.733 160.824  0.00  0.00    +0.019 A 
ATOM     13  C9  UNL     1     151.172 154.720 159.871  0.00  0.00    -0.051 A 
ATOM     14  C10 UNL     1     151.062 155.050 158.523  0.00  0.00    -0.061 A 
ATOM     15  C11 UNL     1     151.180 156.379 158.133  0.00  0.00    -0.060 A 
ATOM     16  C12 UNL     1     151.407 157.372 159.094  0.00  0.00    -0.036 A 
ATOM     17  C13 UNL     1     151.520 157.071 160.446  0.00  0.00    +0.076 A 
ATOM     18  N3  UNL     1     151.739 158.050 161.336  0.00  0.00    -0.214 NA
ATOM     19  C14 UNL     1     152.209 157.871 165.781  0.00  0.00    +0.008 A 
ATOM     20  C15 UNL     1     152.388 158.083 167.158  0.00  0.00    +0.163 A 
ATOM     21  O2  UNL     1     152.372 157.085 168.103  0.00  0.00    -0.491 OA
ATOM     22  C16 UNL     1     152.160 155.754 167.652  0.00  0.00    +0.079 C 
ATOM     23  H   UNL     1     152.118 159.657 163.013  0.00  0.00    +0.000 HD
ENDROOT
TORSDOF 0
ENDMDL
MODEL 7
REMARK VINA RESULT:    -7.596      2.657      3.537
REMARK INTER + INTRA:          -7.596
REMARK INTER:                  -7.596
REMARK INTRA:                   0.000
REMARK UNBOUND:                 0.000
REMARK  Name = /home/vital/Documents/PhD_2021/Malaria_codes/scripts/../data/pdbqt_ligands/ligand_452_temp.pdb
REMARK                            x       y       z     vdW  Elec       q    Type
REMARK                         _______ _______ _______ _____ _____    ______ ____
ROOT
ATOM      1  C1  UNL     1     151.558 158.689 167.362  0.00  0.00    +0.079 C 
ATOM      2  O1  UNL     1     151.593 159.464 166.173  0.00  0.00    -0.491 OA
ATOM      3  C2  UNL     1     151.566 158.796 164.975  0.00  0.00    +0.164 A 
ATOM      4  C3  UNL     1     151.504 157.409 164.847  0.00  0.00    +0.021 A 
ATOM      5  C4  UNL     1     151.481 156.836 163.579  0.00  0.00    +0.148 A 
ATOM      6  F1  UNL     1     151.421 155.497 163.484  0.00  0.00    -0.203 F 
ATOM      7  C5  UNL     1     151.516 157.601 162.404  0.00  0.00    +0.073 A 
ATOM      8  N1  UNL     1     151.488 156.933 161.172  0.00  0.00    -0.281 N 
ATOM      9  C6  UNL     1     151.508 157.336 159.842  0.00  0.00    +0.220 A 
ATOM     10  N2  UNL     1     151.566 158.629 159.498  0.00  0.00    -0.222 NA
ATOM     11  C7  UNL     1     151.581 158.911 158.182  0.00  0.00    +0.040 A 
ATOM     12  C8  UNL     1     151.540 157.954 157.186  0.00  0.00    +0.019 A 
ATOM     13  C9  UNL     1     151.554 158.250 155.808  0.00  0.00    -0.051 A 
ATOM     14  C10 UNL     1     151.510 157.217 154.877  0.00  0.00    -0.061 A 
ATOM     15  C11 UNL     1     151.451 155.900 155.320  0.00  0.00    -0.060 A 
ATOM     16  C12 UNL     1     151.437 155.624 156.692  0.00  0.00    -0.036 A 
ATOM     17  C13 UNL     1     151.480 156.637 157.643  0.00  0.00    +0.076 A 
ATOM     18  N3  UNL     1     151.464 156.332 158.949  0.00  0.00    -0.214 NA
ATOM     19  C14 UNL     1     151.578 158.991 162.545  0.00  0.00    +0.008 A 
ATOM     20  C15 UNL     1     151.603 159.595 163.813  0.00  0.00    +0.163 A 
ATOM     21  O2  UNL     1     151.663 160.951 164.023  0.00  0.00    -0.491 OA
ATOM     22  C16 UNL     1     151.702 161.794 162.880  0.00  0.00    +0.079 C 
ATOM     23  H   UNL     1     151.445 155.954 161.272  0.00  0.00    +0.000 HD
ENDROOT
TORSDOF 0
ENDMDL
MODEL 8
REMARK VINA RESULT:    -7.532      3.984      5.458
REMARK INTER + INTRA:          -7.532
REMARK INTER:                  -7.532
REMARK INTRA:                   0.000
REMARK UNBOUND:                 0.000
REMARK  Name = /home/vital/Documents/PhD_2021/Malaria_codes/scripts/../data/pdbqt_ligands/ligand_452_temp.pdb
REMARK                            x       y       z     vdW  Elec       q    Type
REMARK                         _______ _______ _______ _____ _____    ______ ____
ROOT
ATOM      1  C1  UNL     1     152.472 160.292 168.670  0.00  0.00    +0.079 C 
ATOM      2  O1  UNL     1     152.064 160.896 167.452  0.00  0.00    -0.491 OA
ATOM      3  C2  UNL     1     151.918 160.083 166.355  0.00  0.00    +0.164 A 
ATOM      4  C3  UNL     1     152.142 158.707 166.358  0.00  0.00    +0.021 A 
ATOM      5  C4  UNL     1     151.962 157.980 165.185  0.00  0.00    +0.148 A 
ATOM      6  F1  UNL     1     152.184 156.655 165.215  0.00  0.00    -0.203 F 
ATOM      7  C5  UNL     1     151.560 158.575 163.980  0.00  0.00    +0.073 A 
ATOM      8  N1  UNL     1     151.406 157.759 162.851  0.00  0.00    -0.281 N 
ATOM      9  C6  UNL     1     151.035 157.980 161.531  0.00  0.00    +0.220 A 
ATOM     10  N2  UNL     1     150.723 159.203 161.080  0.00  0.00    -0.222 NA
ATOM     11  C7  UNL     1     150.377 159.307 159.784  0.00  0.00    +0.040 A 
ATOM     12  C8  UNL     1     150.329 158.238 158.909  0.00  0.00    +0.019 A 
ATOM     13  C9  UNL     1     149.966 158.348 157.551  0.00  0.00    -0.051 A 
ATOM     14  C10 UNL     1     149.946 157.213 156.745  0.00  0.00    -0.061 A 
ATOM     15  C11 UNL     1     150.285 155.981 157.293  0.00  0.00    -0.060 A 
ATOM     16  C12 UNL     1     150.642 155.890 158.644  0.00  0.00    -0.036 A 
ATOM     17  C13 UNL     1     150.671 157.007 159.470  0.00  0.00    +0.076 A 
ATOM     18  N3  UNL     1     151.017 156.879 160.759  0.00  0.00    -0.214 NA
ATOM     19  C14 UNL     1     151.339 159.956 163.990  0.00  0.00    +0.008 A 
ATOM     20  C15 UNL     1     151.512 160.714 165.160  0.00  0.00    +0.163 A 
ATOM     21  O2  UNL     1     151.313 162.071 165.240  0.00  0.00    -0.491 OA
ATOM     22  C16 UNL     1     150.904 162.748 164.059  0.00  0.00    +0.079 C 
ATOM     23  H   UNL     1     151.607 156.814 163.036  0.00  0.00    +0.000 HD
ENDROOT
TORSDOF 0
ENDMDL
MODEL 9
REMARK VINA RESULT:    -7.470      4.111      8.373
REMARK INTER + INTRA:          -7.470
REMARK INTER:                  -7.470
REMARK INTRA:                   0.000
REMARK UNBOUND:                 0.000
REMARK  Name = /home/vital/Documents/PhD_2021/Malaria_codes/scripts/../data/pdbqt_ligands/ligand_452_temp.pdb
REMARK                            x       y       z     vdW  Elec       q    Type
REMARK                         _______ _______ _______ _____ _____    ______ ____
ROOT
ATOM      1  C1  UNL     1     151.463 155.676 155.788  0.00  0.00    +0.079 C 
ATOM      2  O1  UNL     1     151.530 157.008 156.275  0.00  0.00    -0.491 OA
ATOM      3  C2  UNL     1     151.493 157.193 157.634  0.00  0.00    +0.164 A 
ATOM      4  C3  UNL     1     151.395 156.163 158.568  0.00  0.00    +0.021 A 
ATOM      5  C4  UNL     1     151.365 156.467 159.926  0.00  0.00    +0.148 A 
ATOM      6  F1  UNL     1     151.269 155.455 160.804  0.00  0.00    -0.203 F 
ATOM      7  C5  UNL     1     151.432 157.783 160.408  0.00  0.00    +0.073 A 
ATOM      8  N1  UNL     1     151.395 157.989 161.793  0.00  0.00    -0.281 N 
ATOM      9  C6  UNL     1     151.437 159.108 162.615  0.00  0.00    +0.220 A 
ATOM     10  N2  UNL     1     151.534 160.347 162.115  0.00  0.00    -0.222 NA
ATOM     11  C7  UNL     1     151.567 161.362 162.998  0.00  0.00    +0.040 A 
ATOM     12  C8  UNL     1     151.507 161.195 164.370  0.00  0.00    +0.019 A 
ATOM     13  C9  UNL     1     151.542 162.259 165.294  0.00  0.00    -0.051 A 
ATOM     14  C10 UNL     1     151.476 161.993 166.658  0.00  0.00    -0.061 A 
ATOM     15  C11 UNL     1     151.376 160.676 167.094  0.00  0.00    -0.060 A 
ATOM     16  C12 UNL     1     151.344 159.632 166.161  0.00  0.00    -0.036 A 
ATOM     17  C13 UNL     1     151.407 159.870 164.793  0.00  0.00    +0.076 A 
ATOM     18  N3  UNL     1     151.374 158.843 163.931  0.00  0.00    -0.214 NA
ATOM     19  C14 UNL     1     151.531 158.808 159.461  0.00  0.00    +0.008 A 
ATOM     20  C15 UNL     1     151.562 158.529 158.084  0.00  0.00    +0.163 A 
ATOM     21  O2  UNL     1     151.658 159.485 157.103  0.00  0.00    -0.491 OA
ATOM     22  C16 UNL     1     151.730 160.845 157.512  0.00  0.00    +0.079 C 
ATOM     23  H   UNL     1     151.323 157.148 162.300  0.00  0.00    +0.000 HD
ENDROOT
TORSDOF 0
ENDMDL
