MODEL 1
REMARK VINA RESULT:    -9.186      0.000      0.000
REMARK INTER + INTRA:          -9.186
REMARK INTER:                  -9.186
REMARK INTRA:                   0.000
REMARK UNBOUND:                 0.000
REMARK  Name = /home/vital/Documents/PhD_2021/Malaria_codes/scripts/../data/pdbqt_ligands/ligand_380_temp.pdb
REMARK                            x       y       z     vdW  Elec       q    Type
REMARK                         _______ _______ _______ _____ _____    ______ ____
ROOT
ATOM      1  C1  UNL     1     147.503 151.669 166.617  0.00  0.00    +0.036 C 
ATOM      2  O1  UNL     1     147.731 151.633 165.214  0.00  0.00    -0.383 OA
ATOM      3  C2  UNL     1     148.909 152.332 164.817  0.00  0.00    +0.052 C 
ATOM      4  C3  UNL     1     148.660 153.832 164.742  0.00  0.00    +0.010 C 
ATOM      5  C4  UNL     1     149.788 154.513 163.983  0.00  0.00    +0.034 C 
ATOM      6  N1  UNL     1     150.861 155.008 164.524  0.00  0.00    -0.272 NA
ATOM      7  C5  UNL     1     150.976 155.028 165.983  0.00  0.00    +0.102 C 
ATOM      8  N2  UNL     1     152.173 155.721 166.464  0.00  0.00    -0.322 N 
ATOM      9  C6  UNL     1     151.959 157.020 166.981  0.00  0.00    +0.072 A 
ATOM     10  C7  UNL     1     152.819 157.514 167.967  0.00  0.00    -0.037 A 
ATOM     11  C8  UNL     1     152.825 158.884 168.297  0.00  0.00    -0.055 A 
ATOM     12  C9  UNL     1     151.876 159.757 167.740  0.00  0.00    -0.022 A 
ATOM     13  C10 UNL     1     150.853 159.205 166.962  0.00  0.00    +0.088 A 
ATOM     14 CL1  UNL     1     149.456 160.098 166.459  0.00  0.00    -0.079 Cl
ATOM     15  C11 UNL     1     151.097 157.958 166.393  0.00  0.00    +0.160 A 
ATOM     16  O2  UNL     1     150.841 157.857 165.030  0.00  0.00    -0.484 OA
ATOM     17  C12 UNL     1     152.035 158.314 164.328  0.00  0.00    +0.118 C 
ATOM     18  C13 UNL     1     151.755 159.589 163.548  0.00  0.00    +0.028 C 
ATOM     19  C14 UNL     1     152.109 160.838 163.933  0.00  0.00    +0.049 C 
ATOM     20 CL2  UNL     1     151.766 162.242 162.979  0.00  0.00    -0.083 Cl
ATOM     21  C15 UNL     1     152.740 161.082 165.235  0.00  0.00    -0.047 C 
ATOM     22  C16 UNL     1     152.110 161.749 166.227  0.00  0.00    -0.078 C 
ATOM     23  C17 UNL     1     152.142 161.263 167.683  0.00  0.00    -0.008 C 
ATOM     24  C18 UNL     1     150.983 159.289 162.306  0.00  0.00    +0.058 C 
ATOM     25  N3  UNL     1     150.999 158.075 161.863  0.00  0.00    -0.156 NA
ATOM     26  N4  UNL     1     150.061 157.775 160.890  0.00  0.00    -0.142 NA
ATOM     27  C19 UNL     1     149.775 156.510 160.974  0.00  0.00    +0.104 C 
ATOM     28  N5  UNL     1     150.340 155.617 161.849  0.00  0.00    -0.328 N 
ATOM     29  C20 UNL     1     149.644 154.501 162.444  0.00  0.00    +0.048 C 
ATOM     30  H   UNL     1     153.067 155.310 166.431  0.00  0.00    +0.000 HD
ATOM     31  H   UNL     1     151.286 155.746 162.088  0.00  0.00    +0.000 HD
ENDROOT
TORSDOF 0
ENDMDL
MODEL 2
REMARK VINA RESULT:    -9.107      1.312      1.479
REMARK INTER + INTRA:          -9.107
REMARK INTER:                  -9.107
REMARK INTRA:                   0.000
REMARK UNBOUND:                 0.000
REMARK  Name = /home/vital/Documents/PhD_2021/Malaria_codes/scripts/../data/pdbqt_ligands/ligand_380_temp.pdb
REMARK                            x       y       z     vdW  Elec       q    Type
REMARK                         _______ _______ _______ _____ _____    ______ ____
ROOT
ATOM      1  C1  UNL     1     148.490 152.334 166.877  0.00  0.00    +0.036 C 
ATOM      2  O1  UNL     1     148.857 152.368 165.503  0.00  0.00    -0.383 OA
ATOM      3  C2  UNL     1     149.936 153.259 165.230  0.00  0.00    +0.052 C 
ATOM      4  C3  UNL     1     149.450 154.700 165.139  0.00  0.00    +0.010 C 
ATOM      5  C4  UNL     1     150.519 155.573 164.501  0.00  0.00    +0.034 C 
ATOM      6  N1  UNL     1     151.437 156.225 165.149  0.00  0.00    -0.272 NA
ATOM      7  C5  UNL     1     151.404 156.231 166.613  0.00  0.00    +0.102 C 
ATOM      8  N2  UNL     1     152.417 157.100 167.216  0.00  0.00    -0.322 N 
ATOM      9  C6  UNL     1     151.942 158.335 167.716  0.00  0.00    +0.072 A 
ATOM     10  C7  UNL     1     152.607 158.941 168.786  0.00  0.00    -0.037 A 
ATOM     11  C8  UNL     1     152.355 160.285 169.123  0.00  0.00    -0.055 A 
ATOM     12  C9  UNL     1     151.334 161.003 168.479  0.00  0.00    -0.022 A 
ATOM     13  C10 UNL     1     150.497 160.308 167.599  0.00  0.00    +0.088 A 
ATOM     14 CL1  UNL     1     149.027 160.971 166.965  0.00  0.00    -0.079 Cl
ATOM     15  C11 UNL     1     150.998 159.131 167.051  0.00  0.00    +0.160 A 
ATOM     16  O2  UNL     1     150.897 159.020 165.668  0.00  0.00    -0.484 OA
ATOM     17  C12 UNL     1     152.062 159.682 165.092  0.00  0.00    +0.118 C 
ATOM     18  C13 UNL     1     151.652 160.911 164.295  0.00  0.00    +0.028 C 
ATOM     19  C14 UNL     1     151.755 162.192 164.721  0.00  0.00    +0.049 C 
ATOM     20 CL2  UNL     1     151.279 163.542 163.746  0.00  0.00    -0.083 Cl
ATOM     21  C15 UNL     1     152.207 162.507 166.081  0.00  0.00    -0.047 C 
ATOM     22  C16 UNL     1     151.381 163.040 167.009  0.00  0.00    -0.078 C 
ATOM     23  C17 UNL     1     151.351 162.533 168.458  0.00  0.00    -0.008 C 
ATOM     24  C18 UNL     1     151.065 160.516 162.980  0.00  0.00    +0.058 C 
ATOM     25  N3  UNL     1     151.325 159.332 162.535  0.00  0.00    -0.156 NA
ATOM     26  N4  UNL     1     150.549 158.904 161.471  0.00  0.00    -0.142 NA
ATOM     27  C19 UNL     1     150.470 157.607 161.517  0.00  0.00    +0.104 C 
ATOM     28  N5  UNL     1     151.086 156.800 162.440  0.00  0.00    -0.328 N 
ATOM     29  C20 UNL     1     150.530 155.572 162.955  0.00  0.00    +0.048 C 
ATOM     30  H   UNL     1     153.366 156.842 167.269  0.00  0.00    +0.000 HD
ATOM     31  H   UNL     1     151.970 157.077 162.773  0.00  0.00    +0.000 HD
ENDROOT
TORSDOF 0
ENDMDL
MODEL 3
REMARK VINA RESULT:    -9.059      3.211      6.224
REMARK INTER + INTRA:          -9.059
REMARK INTER:                  -9.059
REMARK INTRA:                   0.000
REMARK UNBOUND:                 0.000
REMARK  Name = /home/vital/Documents/PhD_2021/Malaria_codes/scripts/../data/pdbqt_ligands/ligand_380_temp.pdb
REMARK                            x       y       z     vdW  Elec       q    Type
REMARK                         _______ _______ _______ _____ _____    ______ ____
ROOT
ATOM      1  C1  UNL     1     152.165 162.175 156.916  0.00  0.00    +0.036 C 
ATOM      2  O1  UNL     1     151.656 160.847 156.903  0.00  0.00    -0.383 OA
ATOM      3  C2  UNL     1     150.879 160.530 158.056  0.00  0.00    +0.052 C 
ATOM      4  C3  UNL     1     151.771 160.179 159.241  0.00  0.00    +0.010 C 
ATOM      5  C4  UNL     1     150.953 159.505 160.330  0.00  0.00    +0.034 C 
ATOM      6  N1  UNL     1     150.371 160.118 161.318  0.00  0.00    -0.272 NA
ATOM      7  C5  UNL     1     150.590 161.556 161.486  0.00  0.00    +0.102 C 
ATOM      8  N2  UNL     1     149.980 162.100 162.702  0.00  0.00    -0.322 N 
ATOM      9  C6  UNL     1     150.873 162.364 163.766  0.00  0.00    +0.072 A 
ATOM     10  C7  UNL     1     150.569 163.379 164.678  0.00  0.00    -0.037 A 
ATOM     11  C8  UNL     1     151.266 163.485 165.898  0.00  0.00    -0.055 A 
ATOM     12  C9  UNL     1     152.368 162.656 166.164  0.00  0.00    -0.022 A 
ATOM     13  C10 UNL     1     152.831 161.828 165.137  0.00  0.00    +0.088 A 
ATOM     14 CL1  UNL     1     154.341 160.980 165.207  0.00  0.00    -0.079 Cl
ATOM     15  C11 UNL     1     151.925 161.509 164.128  0.00  0.00    +0.160 A 
ATOM     16  O2  UNL     1     151.811 160.156 163.827  0.00  0.00    -0.484 OA
ATOM     17  C12 UNL     1     150.845 159.583 164.757  0.00  0.00    +0.118 C 
ATOM     18  C13 UNL     1     151.510 158.576 165.683  0.00  0.00    +0.028 C 
ATOM     19  C14 UNL     1     151.863 158.808 166.970  0.00  0.00    +0.049 C 
ATOM     20 CL2  UNL     1     152.606 157.601 167.966  0.00  0.00    -0.083 Cl
ATOM     21  C15 UNL     1     151.707 160.136 167.574  0.00  0.00    -0.047 C 
ATOM     22  C16 UNL     1     152.768 160.900 167.916  0.00  0.00    -0.078 C 
ATOM     23  C17 UNL     1     152.823 162.402 167.604  0.00  0.00    -0.008 C 
ATOM     24  C18 UNL     1     151.774 157.294 164.966  0.00  0.00    +0.058 C 
ATOM     25  N3  UNL     1     151.106 157.058 163.885  0.00  0.00    -0.156 NA
ATOM     26  N4  UNL     1     151.571 156.012 163.105  0.00  0.00    -0.142 NA
ATOM     27  C19 UNL     1     151.250 156.251 161.868  0.00  0.00    +0.104 C 
ATOM     28  N5  UNL     1     150.536 157.333 161.420  0.00  0.00    -0.328 N 
ATOM     29  C20 UNL     1     150.747 157.984 160.148  0.00  0.00    +0.048 C 
ATOM     30  H   UNL     1     149.013 162.270 162.774  0.00  0.00    +0.000 HD
ATOM     31  H   UNL     1     149.831 157.691 162.006  0.00  0.00    +0.000 HD
ENDROOT
TORSDOF 0
ENDMDL
MODEL 4
REMARK VINA RESULT:    -8.956      3.111      6.950
REMARK INTER + INTRA:          -8.956
REMARK INTER:                  -8.956
REMARK INTRA:                   0.000
REMARK UNBOUND:                 0.000
REMARK  Name = /home/vital/Documents/PhD_2021/Malaria_codes/scripts/../data/pdbqt_ligands/ligand_380_temp.pdb
REMARK                            x       y       z     vdW  Elec       q    Type
REMARK                         _______ _______ _______ _____ _____    ______ ____
ROOT
ATOM      1  C1  UNL     1     149.241 163.541 167.968  0.00  0.00    +0.036 C 
ATOM      2  O1  UNL     1     149.554 162.285 168.559  0.00  0.00    -0.383 OA
ATOM      3  C2  UNL     1     150.488 161.522 167.798  0.00  0.00    +0.052 C 
ATOM      4  C3  UNL     1     149.802 160.810 166.639  0.00  0.00    +0.010 C 
ATOM      5  C4  UNL     1     150.716 159.737 166.069  0.00  0.00    +0.034 C 
ATOM      6  N1  UNL     1     151.555 159.909 165.091  0.00  0.00    -0.272 NA
ATOM      7  C5  UNL     1     151.570 161.193 164.388  0.00  0.00    +0.102 C 
ATOM      8  N2  UNL     1     152.470 161.215 163.233  0.00  0.00    -0.322 N 
ATOM      9  C6  UNL     1     151.843 161.118 161.969  0.00  0.00    +0.072 A 
ATOM     10  C7  UNL     1     152.452 161.707 160.857  0.00  0.00    -0.037 A 
ATOM     11  C8  UNL     1     152.024 161.393 159.552  0.00  0.00    -0.055 A 
ATOM     12  C9  UNL     1     150.892 160.588 159.345  0.00  0.00    -0.022 A 
ATOM     13  C10 UNL     1     150.132 160.225 160.462  0.00  0.00    +0.088 A 
ATOM     14 CL1  UNL     1     148.564 159.497 160.347  0.00  0.00    -0.079 Cl
ATOM     15  C11 UNL     1     150.775 160.250 161.697  0.00  0.00    +0.160 A 
ATOM     16  O2  UNL     1     150.645 159.100 162.467  0.00  0.00    -0.484 OA
ATOM     17  C12 UNL     1     151.685 158.171 162.041  0.00  0.00    +0.118 C 
ATOM     18  C13 UNL     1     151.081 156.932 161.398  0.00  0.00    +0.028 C 
ATOM     19  C14 UNL     1     151.018 156.692 160.067  0.00  0.00    +0.049 C 
ATOM     20 CL2  UNL     1     150.325 155.247 159.410  0.00  0.00    -0.083 Cl
ATOM     21  C15 UNL     1     151.466 157.693 159.091  0.00  0.00    -0.047 C 
ATOM     22  C16 UNL     1     150.604 158.335 158.271  0.00  0.00    -0.078 C 
ATOM     23  C17 UNL     1     150.693 159.847 158.020  0.00  0.00    -0.008 C 
ATOM     24  C18 UNL     1     150.513 156.022 162.435  0.00  0.00    +0.058 C 
ATOM     25  N3  UNL     1     150.921 156.164 163.652  0.00  0.00    -0.156 NA
ATOM     26  N4  UNL     1     150.178 155.508 164.619  0.00  0.00    -0.142 NA
ATOM     27  C19 UNL     1     150.283 156.167 165.734  0.00  0.00    +0.104 C 
ATOM     28  N5  UNL     1     151.037 157.297 165.929  0.00  0.00    -0.328 N 
ATOM     29  C20 UNL     1     150.676 158.381 166.811  0.00  0.00    +0.048 C 
ATOM     30  H   UNL     1     153.447 161.292 163.330  0.00  0.00    +0.000 HD
ATOM     31  H   UNL     1     151.884 157.373 165.433  0.00  0.00    +0.000 HD
ENDROOT
TORSDOF 0
ENDMDL
MODEL 5
REMARK VINA RESULT:    -8.256      2.273      3.011
REMARK INTER + INTRA:          -8.256
REMARK INTER:                  -8.256
REMARK INTRA:                   0.000
REMARK UNBOUND:                 0.000
REMARK  Name = /home/vital/Documents/PhD_2021/Malaria_codes/scripts/../data/pdbqt_ligands/ligand_380_temp.pdb
REMARK                            x       y       z     vdW  Elec       q    Type
REMARK                         _______ _______ _______ _____ _____    ______ ____
ROOT
ATOM      1  C1  UNL     1     148.483 153.021 161.280  0.00  0.00    +0.036 C 
ATOM      2  O1  UNL     1     148.819 153.925 160.234  0.00  0.00    -0.383 OA
ATOM      3  C2  UNL     1     149.934 154.757 160.544  0.00  0.00    +0.052 C 
ATOM      4  C3  UNL     1     149.519 155.928 161.426  0.00  0.00    +0.010 C 
ATOM      5  C4  UNL     1     150.614 156.982 161.447  0.00  0.00    +0.034 C 
ATOM      6  N1  UNL     1     151.578 157.042 162.316  0.00  0.00    -0.272 NA
ATOM      7  C5  UNL     1     151.580 156.104 163.439  0.00  0.00    +0.102 C 
ATOM      8  N2  UNL     1     152.649 156.357 164.409  0.00  0.00    -0.322 N 
ATOM      9  C6  UNL     1     152.247 156.988 165.608  0.00  0.00    +0.072 A 
ATOM     10  C7  UNL     1     152.966 156.747 166.783  0.00  0.00    -0.037 A 
ATOM     11  C8  UNL     1     152.788 157.562 167.917  0.00  0.00    -0.055 A 
ATOM     12  C9  UNL     1     151.789 158.549 167.937  0.00  0.00    -0.022 A 
ATOM     13  C10 UNL     1     150.898 158.605 166.861  0.00  0.00    +0.088 A 
ATOM     14 CL1  UNL     1     149.449 159.554 166.875  0.00  0.00    -0.079 Cl
ATOM     15  C11 UNL     1     151.327 158.047 165.659  0.00  0.00    +0.160 A 
ATOM     16  O2  UNL     1     151.188 158.855 164.536  0.00  0.00    -0.484 OA
ATOM     17  C12 UNL     1     152.371 159.707 164.464  0.00  0.00    +0.118 C 
ATOM     18  C13 UNL     1     152.003 161.169 164.666  0.00  0.00    +0.028 C 
ATOM     19  C14 UNL     1     152.180 161.871 165.810  0.00  0.00    +0.049 C 
ATOM     20 CL2  UNL     1     151.748 163.542 165.956  0.00  0.00    -0.083 Cl
ATOM     21  C15 UNL     1     152.679 161.225 167.029  0.00  0.00    -0.047 C 
ATOM     22  C16 UNL     1     151.902 161.052 168.122  0.00  0.00    -0.078 C 
ATOM     23  C17 UNL     1     151.881 159.732 168.905  0.00  0.00    -0.008 C 
ATOM     24  C18 UNL     1     151.367 161.728 163.436  0.00  0.00    +0.058 C 
ATOM     25  N3  UNL     1     151.558 161.104 162.321  0.00  0.00    -0.156 NA
ATOM     26  N4  UNL     1     150.736 161.480 161.271  0.00  0.00    -0.142 NA
ATOM     27  C19 UNL     1     150.595 160.461 160.477  0.00  0.00    +0.104 C 
ATOM     28  N5  UNL     1     151.192 159.235 160.632  0.00  0.00    -0.328 N 
ATOM     29  C20 UNL     1     150.588 157.977 160.264  0.00  0.00    +0.048 C 
ATOM     30  H   UNL     1     153.584 156.104 164.236  0.00  0.00    +0.000 HD
ATOM     31  H   UNL     1     152.096 159.213 161.021  0.00  0.00    +0.000 HD
ENDROOT
TORSDOF 0
ENDMDL
MODEL 6
REMARK VINA RESULT:    -7.936      2.484      3.460
REMARK INTER + INTRA:          -7.936
REMARK INTER:                  -7.936
REMARK INTRA:                   0.000
REMARK UNBOUND:                 0.000
REMARK  Name = /home/vital/Documents/PhD_2021/Malaria_codes/scripts/../data/pdbqt_ligands/ligand_380_temp.pdb
REMARK                            x       y       z     vdW  Elec       q    Type
REMARK                         _______ _______ _______ _____ _____    ______ ____
ROOT
ATOM      1  C1  UNL     1     148.476 152.843 165.864  0.00  0.00    +0.036 C 
ATOM      2  O1  UNL     1     148.760 152.254 164.600  0.00  0.00    -0.383 OA
ATOM      3  C2  UNL     1     149.870 152.854 163.936  0.00  0.00    +0.052 C 
ATOM      4  C3  UNL     1     149.464 154.149 163.245  0.00  0.00    +0.010 C 
ATOM      5  C4  UNL     1     150.540 154.577 162.260  0.00  0.00    +0.034 C 
ATOM      6  N1  UNL     1     151.531 155.371 162.533  0.00  0.00    -0.272 NA
ATOM      7  C5  UNL     1     151.587 156.008 163.850  0.00  0.00    +0.102 C 
ATOM      8  N2  UNL     1     152.683 156.970 163.986  0.00  0.00    -0.322 N 
ATOM      9  C6  UNL     1     152.311 158.333 163.916  0.00  0.00    +0.072 A 
ATOM     10  C7  UNL     1     153.073 159.286 164.598  0.00  0.00    -0.037 A 
ATOM     11  C8  UNL     1     152.919 160.660 164.327  0.00  0.00    -0.055 A 
ATOM     12  C9  UNL     1     151.903 161.108 163.466  0.00  0.00    -0.022 A 
ATOM     13  C10 UNL     1     150.976 160.170 163.000  0.00  0.00    +0.088 A 
ATOM     14 CL1  UNL     1     149.511 160.608 162.185  0.00  0.00    -0.079 Cl
ATOM     15  C11 UNL     1     151.375 158.836 163.001  0.00  0.00    +0.160 A 
ATOM     16  O2  UNL     1     151.184 158.150 161.806  0.00  0.00    -0.484 OA
ATOM     17  C12 UNL     1     152.348 158.407 160.965  0.00  0.00    +0.118 C 
ATOM     18  C13 UNL     1     151.961 159.202 159.727  0.00  0.00    +0.028 C 
ATOM     19  C14 UNL     1     152.164 160.529 159.553  0.00  0.00    +0.049 C 
ATOM     20 CL2  UNL     1     151.707 161.361 158.104  0.00  0.00    -0.083 Cl
ATOM     21  C15 UNL     1     152.714 161.362 160.628  0.00  0.00    -0.047 C 
ATOM     22  C16 UNL     1     151.978 162.304 161.258  0.00  0.00    -0.078 C 
ATOM     23  C17 UNL     1     152.007 162.474 162.783  0.00  0.00    -0.008 C 
ATOM     24  C18 UNL     1     151.275 158.327 158.732  0.00  0.00    +0.058 C 
ATOM     25  N3  UNL     1     151.439 157.050 158.835  0.00  0.00    -0.156 NA
ATOM     26  N4  UNL     1     150.576 156.268 158.086  0.00  0.00    -0.142 NA
ATOM     27  C19 UNL     1     150.426 155.127 158.692  0.00  0.00    +0.104 C 
ATOM     28  N5  UNL     1     151.050 154.750 159.854  0.00  0.00    -0.328 N 
ATOM     29  C20 UNL     1     150.456 153.910 160.868  0.00  0.00    +0.048 C 
ATOM     30  H   UNL     1     153.617 156.687 164.118  0.00  0.00    +0.000 HD
ATOM     31  H   UNL     1     151.967 155.074 160.008  0.00  0.00    +0.000 HD
ENDROOT
TORSDOF 0
ENDMDL
MODEL 7
REMARK VINA RESULT:    -6.991     10.629     15.451
REMARK INTER + INTRA:          -6.991
REMARK INTER:                  -6.991
REMARK INTRA:                   0.000
REMARK UNBOUND:                 0.000
REMARK  Name = /home/vital/Documents/PhD_2021/Malaria_codes/scripts/../data/pdbqt_ligands/ligand_380_temp.pdb
REMARK                            x       y       z     vdW  Elec       q    Type
REMARK                         _______ _______ _______ _____ _____    ______ ____
ROOT
ATOM      1  C1  UNL     1     146.657 150.605 161.036  0.00  0.00    +0.036 C 
ATOM      2  O1  UNL     1     146.413 151.165 162.320  0.00  0.00    -0.383 OA
ATOM      3  C2  UNL     1     146.513 150.214 163.378  0.00  0.00    +0.052 C 
ATOM      4  C3  UNL     1     145.240 149.385 163.494  0.00  0.00    +0.010 C 
ATOM      5  C4  UNL     1     145.216 148.645 164.822  0.00  0.00    +0.034 C 
ATOM      6  N1  UNL     1     145.673 147.445 165.018  0.00  0.00    -0.272 NA
ATOM      7  C5  UNL     1     146.156 146.674 163.871  0.00  0.00    +0.102 C 
ATOM      8  N2  UNL     1     146.528 145.298 164.209  0.00  0.00    -0.322 N 
ATOM      9  C6  UNL     1     145.597 144.304 163.827  0.00  0.00    +0.072 A 
ATOM     10  C7  UNL     1     146.054 143.014 163.537  0.00  0.00    -0.037 A 
ATOM     11  C8  UNL     1     145.153 141.936 163.439  0.00  0.00    -0.055 A 
ATOM     12  C9  UNL     1     143.767 142.156 163.497  0.00  0.00    -0.022 A 
ATOM     13  C10 UNL     1     143.312 143.478 163.518  0.00  0.00    +0.088 A 
ATOM     14 CL1  UNL     1     141.651 143.915 163.289  0.00  0.00    -0.079 Cl
ATOM     15  C11 UNL     1     144.208 144.446 163.965  0.00  0.00    +0.160 A 
ATOM     16  O2  UNL     1     143.726 145.306 164.945  0.00  0.00    -0.484 OA
ATOM     17  C12 UNL     1     143.923 144.652 166.234  0.00  0.00    +0.118 C 
ATOM     18  C13 UNL     1     142.590 144.327 166.890  0.00  0.00    +0.028 C 
ATOM     19  C14 UNL     1     142.008 143.105 166.920  0.00  0.00    +0.049 C 
ATOM     20 CL2  UNL     1     140.490 142.812 167.702  0.00  0.00    -0.083 Cl
ATOM     21  C15 UNL     1     142.599 141.964 166.212  0.00  0.00    -0.047 C 
ATOM     22  C16 UNL     1     142.012 141.405 165.130  0.00  0.00    -0.078 C 
ATOM     23  C17 UNL     1     142.812 141.021 163.878  0.00  0.00    -0.008 C 
ATOM     24  C18 UNL     1     141.970 145.558 167.465  0.00  0.00    +0.058 C 
ATOM     25  N3  UNL     1     142.738 146.572 167.688  0.00  0.00    -0.156 NA
ATOM     26  N4  UNL     1     142.095 147.771 167.948  0.00  0.00    -0.142 NA
ATOM     27  C19 UNL     1     142.869 148.742 167.565  0.00  0.00    +0.104 C 
ATOM     28  N5  UNL     1     144.126 148.603 167.032  0.00  0.00    -0.328 N 
ATOM     29  C20 UNL     1     144.686 149.466 166.020  0.00  0.00    +0.048 C 
ATOM     30  H   UNL     1     147.369 145.079 164.670  0.00  0.00    +0.000 HD
ATOM     31  H   UNL     1     144.684 147.864 167.364  0.00  0.00    +0.000 HD
ENDROOT
TORSDOF 0
ENDMDL
