MODEL 1
REMARK VINA RESULT:    -6.263      0.000      0.000
REMARK INTER + INTRA:          -6.263
REMARK INTER:                  -6.263
REMARK INTRA:                   0.000
REMARK UNBOUND:                 0.000
REMARK  Name = /home/vital/Documents/PhD_2021/Malaria_codes/scripts/../data/pdbqt_ligands/ligand_328_temp.pdb
REMARK                            x       y       z     vdW  Elec       q    Type
REMARK                         _______ _______ _______ _____ _____    ______ ____
ROOT
ATOM      1  O1  UNL     1     142.268 132.396  96.404  0.00  0.00    -0.253 OA
ATOM      2  C1  UNL     1     143.274 132.322  97.097  0.00  0.00    +0.300 C 
ATOM      3  N1  UNL     1     143.320 132.647  98.426  0.00  0.00    -0.299 N 
ATOM      4  C2  UNL     1     142.096 132.893  99.168  0.00  0.00    +0.020 C 
ATOM      5  C3  UNL     1     141.386 131.597  99.572  0.00  0.00    +0.021 C 
ATOM      6  C4  UNL     1     142.224 130.741 100.481  0.00  0.00    +0.113 A 
ATOM      7  N2  UNL     1     143.529 130.857 100.659  0.00  0.00    -0.232 NA
ATOM      8  C5  UNL     1     143.877 129.879 101.555  0.00  0.00    +0.089 A 
ATOM      9  C6  UNL     1     145.136 129.574 102.090  0.00  0.00    -0.034 A 
ATOM     10  C7  UNL     1     145.243 128.518 103.003  0.00  0.00    -0.060 A 
ATOM     11  C8  UNL     1     144.119 127.779 103.372  0.00  0.00    -0.060 A 
ATOM     12  C9  UNL     1     142.855 128.069 102.844  0.00  0.00    -0.036 A 
ATOM     13  C10 UNL     1     142.768 129.131 101.934  0.00  0.00    +0.069 A 
ATOM     14  N3  UNL     1     141.724 129.688 101.223  0.00  0.00    -0.323 N 
ATOM     15  C11 UNL     1     140.334 129.256 101.283  0.00  0.00    +0.050 C 
ATOM     16  C12 UNL     1     139.895 128.541 100.029  0.00  0.00    -0.028 A 
ATOM     17  C13 UNL     1     138.761 128.982  99.329  0.00  0.00    -0.057 A 
ATOM     18  C14 UNL     1     138.342 128.324  98.171  0.00  0.00    -0.061 A 
ATOM     19  C15 UNL     1     139.040 127.212  97.706  0.00  0.00    -0.062 A 
ATOM     20  C16 UNL     1     140.157 126.754  98.401  0.00  0.00    -0.061 A 
ATOM     21  C17 UNL     1     140.581 127.410  99.557  0.00  0.00    -0.057 A 
ATOM     22  N4  UNL     1     144.509 131.961  96.621  0.00  0.00    -0.299 N 
ATOM     23  C18 UNL     1     144.680 131.478  95.265  0.00  0.00    +0.018 C 
ATOM     24  C19 UNL     1     144.547 132.565  94.207  0.00  0.00    +0.023 C 
ATOM     25  C20 UNL     1     145.610 133.629  94.355  0.00  0.00    +0.241 C 
ATOM     26  F1  UNL     1     145.489 134.528  93.345  0.00  0.00    -0.209 F 
ATOM     27  F2  UNL     1     146.840 133.069  94.221  0.00  0.00    -0.209 F 
ATOM     28  H   UNL     1     144.190 132.714  98.882  0.00  0.00    +0.000 HD
ATOM     29  H   UNL     1     145.294 132.031  97.212  0.00  0.00    +0.000 HD
ENDROOT
TORSDOF 0
ENDMDL
MODEL 2
REMARK VINA RESULT:    -5.686      1.213      1.240
REMARK INTER + INTRA:          -5.686
REMARK INTER:                  -5.686
REMARK INTRA:                   0.000
REMARK UNBOUND:                 0.000
REMARK  Name = /home/vital/Documents/PhD_2021/Malaria_codes/scripts/../data/pdbqt_ligands/ligand_328_temp.pdb
REMARK                            x       y       z     vdW  Elec       q    Type
REMARK                         _______ _______ _______ _____ _____    ______ ____
ROOT
ATOM      1  O1  UNL     1     142.319 132.246  97.046  0.00  0.00    -0.253 OA
ATOM      2  C1  UNL     1     143.408 131.868  97.457  0.00  0.00    +0.300 C 
ATOM      3  N1  UNL     1     143.761 131.826  98.779  0.00  0.00    -0.299 N 
ATOM      4  C2  UNL     1     142.763 132.021  99.816  0.00  0.00    +0.020 C 
ATOM      5  C3  UNL     1     141.922 130.763 100.063  0.00  0.00    +0.021 C 
ATOM      6  C4  UNL     1     142.752 129.602 100.537  0.00  0.00    +0.113 A 
ATOM      7  N2  UNL     1     144.066 129.504 100.436  0.00  0.00    -0.232 NA
ATOM      8  C5  UNL     1     144.397 128.290 100.981  0.00  0.00    +0.089 A 
ATOM      9  C6  UNL     1     145.660 127.701 101.133  0.00  0.00    -0.034 A 
ATOM     10  C7  UNL     1     145.748 126.438 101.730  0.00  0.00    -0.060 A 
ATOM     11  C8  UNL     1     144.600 125.774 102.165  0.00  0.00    -0.060 A 
ATOM     12  C9  UNL     1     143.331 126.348 102.018  0.00  0.00    -0.036 A 
ATOM     13  C10 UNL     1     143.264 127.613 101.421  0.00  0.00    +0.069 A 
ATOM     14  N3  UNL     1     142.222 128.462 101.111  0.00  0.00    -0.323 N 
ATOM     15  C11 UNL     1     140.814 128.207 101.384  0.00  0.00    +0.050 C 
ATOM     16  C12 UNL     1     140.026 127.905 100.133  0.00  0.00    -0.028 A 
ATOM     17  C13 UNL     1     138.877 128.652  99.828  0.00  0.00    -0.057 A 
ATOM     18  C14 UNL     1     138.137 128.378  98.676  0.00  0.00    -0.061 A 
ATOM     19  C15 UNL     1     138.527 127.347  97.824  0.00  0.00    -0.062 A 
ATOM     20  C16 UNL     1     139.655 126.588  98.123  0.00  0.00    -0.061 A 
ATOM     21  C17 UNL     1     140.398 126.861  99.272  0.00  0.00    -0.057 A 
ATOM     22  N4  UNL     1     144.448 131.493  96.644  0.00  0.00    -0.299 N 
ATOM     23  C18 UNL     1     144.272 131.364  95.211  0.00  0.00    +0.018 C 
ATOM     24  C19 UNL     1     144.137 132.697  94.488  0.00  0.00    +0.023 C 
ATOM     25  C20 UNL     1     145.381 133.544  94.631  0.00  0.00    +0.241 C 
ATOM     26  F1  UNL     1     145.233 134.684  93.908  0.00  0.00    -0.209 F 
ATOM     27  F2  UNL     1     146.444 132.890  94.097  0.00  0.00    -0.209 F 
ATOM     28  H   UNL     1     144.699 131.663  99.029  0.00  0.00    +0.000 HD
ATOM     29  H   UNL     1     145.330 131.308  97.041  0.00  0.00    +0.000 HD
ENDROOT
TORSDOF 0
ENDMDL
MODEL 3
REMARK VINA RESULT:    -5.522      3.751      5.823
REMARK INTER + INTRA:          -5.522
REMARK INTER:                  -5.522
REMARK INTRA:                   0.000
REMARK UNBOUND:                 0.000
REMARK  Name = /home/vital/Documents/PhD_2021/Malaria_codes/scripts/../data/pdbqt_ligands/ligand_328_temp.pdb
REMARK                            x       y       z     vdW  Elec       q    Type
REMARK                         _______ _______ _______ _____ _____    ______ ____
ROOT
ATOM      1  O1  UNL     1     144.010 129.151  94.305  0.00  0.00    -0.253 OA
ATOM      2  C1  UNL     1     142.967 128.550  94.518  0.00  0.00    +0.300 C 
ATOM      3  N1  UNL     1     142.779 127.677  95.556  0.00  0.00    -0.299 N 
ATOM      4  C2  UNL     1     143.758 127.578  96.624  0.00  0.00    +0.020 C 
ATOM      5  C3  UNL     1     143.634 128.719  97.640  0.00  0.00    +0.021 C 
ATOM      6  C4  UNL     1     142.301 128.725  98.336  0.00  0.00    +0.113 A 
ATOM      7  N2  UNL     1     141.217 128.089  97.928  0.00  0.00    -0.232 NA
ATOM      8  C5  UNL     1     140.241 128.375  98.848  0.00  0.00    +0.089 A 
ATOM      9  C6  UNL     1     138.908 127.944  98.890  0.00  0.00    -0.034 A 
ATOM     10  C7  UNL     1     138.093 128.373  99.944  0.00  0.00    -0.060 A 
ATOM     11  C8  UNL     1     138.596 129.216 100.936  0.00  0.00    -0.060 A 
ATOM     12  C9  UNL     1     139.924 129.659 100.906  0.00  0.00    -0.036 A 
ATOM     13  C10 UNL     1     140.725 129.216  99.844  0.00  0.00    +0.069 A 
ATOM     14  N3  UNL     1     142.039 129.442  99.489  0.00  0.00    -0.323 N 
ATOM     15  C11 UNL     1     142.986 130.263 100.230  0.00  0.00    +0.050 C 
ATOM     16  C12 UNL     1     143.299 131.563  99.530  0.00  0.00    -0.028 A 
ATOM     17  C13 UNL     1     144.631 131.910  99.255  0.00  0.00    -0.057 A 
ATOM     18  C14 UNL     1     144.932 133.113  98.613  0.00  0.00    -0.061 A 
ATOM     19  C15 UNL     1     143.910 133.988  98.251  0.00  0.00    -0.062 A 
ATOM     20  C16 UNL     1     142.586 133.663  98.534  0.00  0.00    -0.061 A 
ATOM     21  C17 UNL     1     142.281 132.461  99.172  0.00  0.00    -0.057 A 
ATOM     22  N4  UNL     1     141.860 128.620  93.711  0.00  0.00    -0.299 N 
ATOM     23  C18 UNL     1     141.794 129.558  92.607  0.00  0.00    +0.018 C 
ATOM     24  C19 UNL     1     142.679 129.178  91.427  0.00  0.00    +0.023 C 
ATOM     25  C20 UNL     1     142.266 127.860  90.815  0.00  0.00    +0.241 C 
ATOM     26  F1  UNL     1     143.039 127.609  89.726  0.00  0.00    -0.209 F 
ATOM     27  F2  UNL     1     140.989 127.945  90.362  0.00  0.00    -0.209 F 
ATOM     28  H   UNL     1     141.973 127.112  95.579  0.00  0.00    +0.000 HD
ATOM     29  H   UNL     1     141.096 128.023  93.883  0.00  0.00    +0.000 HD
ENDROOT
TORSDOF 0
ENDMDL
MODEL 4
REMARK VINA RESULT:    -5.334      3.437      5.773
REMARK INTER + INTRA:          -5.334
REMARK INTER:                  -5.334
REMARK INTRA:                   0.000
REMARK UNBOUND:                 0.000
REMARK  Name = /home/vital/Documents/PhD_2021/Malaria_codes/scripts/../data/pdbqt_ligands/ligand_328_temp.pdb
REMARK                            x       y       z     vdW  Elec       q    Type
REMARK                         _______ _______ _______ _____ _____    ______ ____
ROOT
ATOM      1  O1  UNL     1     143.435 131.724  93.104  0.00  0.00    -0.253 OA
ATOM      2  C1  UNL     1     142.750 130.710  93.095  0.00  0.00    +0.300 C 
ATOM      3  N1  UNL     1     143.120 129.525  93.670  0.00  0.00    -0.299 N 
ATOM      4  C2  UNL     1     144.280 129.457  94.541  0.00  0.00    +0.020 C 
ATOM      5  C3  UNL     1     143.984 129.979  95.952  0.00  0.00    +0.021 C 
ATOM      6  C4  UNL     1     142.926 129.173  96.652  0.00  0.00    +0.113 A 
ATOM      7  N2  UNL     1     142.080 128.342  96.069  0.00  0.00    -0.232 NA
ATOM      8  C5  UNL     1     141.295 127.835  97.072  0.00  0.00    +0.089 A 
ATOM      9  C6  UNL     1     140.249 126.905  96.996  0.00  0.00    -0.034 A 
ATOM     10  C7  UNL     1     139.589 126.534  98.173  0.00  0.00    -0.060 A 
ATOM     11  C8  UNL     1     139.964 127.080  99.402  0.00  0.00    -0.060 A 
ATOM     12  C9  UNL     1     141.005 128.011  99.495  0.00  0.00    -0.036 A 
ATOM     13  C10 UNL     1     141.654 128.369  98.306  0.00  0.00    +0.069 A 
ATOM     14  N3  UNL     1     142.687 129.235  98.012  0.00  0.00    -0.323 N 
ATOM     15  C11 UNL     1     143.418 130.039  98.982  0.00  0.00    +0.050 C 
ATOM     16  C12 UNL     1     143.083 131.507  98.888  0.00  0.00    -0.028 A 
ATOM     17  C13 UNL     1     144.107 132.453  98.718  0.00  0.00    -0.057 A 
ATOM     18  C14 UNL     1     143.809 133.814  98.636  0.00  0.00    -0.061 A 
ATOM     19  C15 UNL     1     142.489 134.248  98.735  0.00  0.00    -0.062 A 
ATOM     20  C16 UNL     1     141.466 133.322  98.921  0.00  0.00    -0.061 A 
ATOM     21  C17 UNL     1     141.759 131.961  99.001  0.00  0.00    -0.057 A 
ATOM     22  N4  UNL     1     141.542 130.605  92.453  0.00  0.00    -0.299 N 
ATOM     23  C18 UNL     1     140.904 131.763  91.860  0.00  0.00    +0.018 C 
ATOM     24  C19 UNL     1     141.581 132.251  90.586  0.00  0.00    +0.023 C 
ATOM     25  C20 UNL     1     141.542 131.209  89.493  0.00  0.00    +0.241 C 
ATOM     26  F1  UNL     1     142.093 131.723  88.362  0.00  0.00    -0.209 F 
ATOM     27  F2  UNL     1     140.252 130.914  89.187  0.00  0.00    -0.209 F 
ATOM     28  H   UNL     1     142.596 128.711  93.492  0.00  0.00    +0.000 HD
ATOM     29  H   UNL     1     141.100 129.727  92.395  0.00  0.00    +0.000 HD
ENDROOT
TORSDOF 0
ENDMDL
MODEL 5
REMARK VINA RESULT:    -5.067      4.345      6.368
REMARK INTER + INTRA:          -5.067
REMARK INTER:                  -5.067
REMARK INTRA:                   0.000
REMARK UNBOUND:                 0.000
REMARK  Name = /home/vital/Documents/PhD_2021/Malaria_codes/scripts/../data/pdbqt_ligands/ligand_328_temp.pdb
REMARK                            x       y       z     vdW  Elec       q    Type
REMARK                         _______ _______ _______ _____ _____    ______ ____
ROOT
ATOM      1  O1  UNL     1     142.969 128.438  93.108  0.00  0.00    -0.253 OA
ATOM      2  C1  UNL     1     141.806 128.185  93.392  0.00  0.00    +0.300 C 
ATOM      3  N1  UNL     1     141.425 127.232  94.297  0.00  0.00    -0.299 N 
ATOM      4  C2  UNL     1     142.405 126.601  95.162  0.00  0.00    +0.020 C 
ATOM      5  C3  UNL     1     142.794 127.487  96.351  0.00  0.00    +0.021 C 
ATOM      6  C4  UNL     1     141.626 127.791  97.247  0.00  0.00    +0.113 A 
ATOM      7  N2  UNL     1     140.352 127.645  96.926  0.00  0.00    -0.232 NA
ATOM      8  C5  UNL     1     139.637 128.044  98.026  0.00  0.00    +0.089 A 
ATOM      9  C6  UNL     1     138.248 128.077  98.217  0.00  0.00    -0.034 A 
ATOM     10  C7  UNL     1     137.747 128.527  99.444  0.00  0.00    -0.060 A 
ATOM     11  C8  UNL     1     138.611 128.937 100.460  0.00  0.00    -0.060 A 
ATOM     12  C9  UNL     1     140.000 128.913 100.284  0.00  0.00    -0.036 A 
ATOM     13  C10 UNL     1     140.483 128.457  99.050  0.00  0.00    +0.069 A 
ATOM     14  N3  UNL     1     141.750 128.303  98.525  0.00  0.00    -0.323 N 
ATOM     15  C11 UNL     1     142.995 128.597  99.221  0.00  0.00    +0.050 C 
ATOM     16  C12 UNL     1     143.678 129.834  98.692  0.00  0.00    -0.028 A 
ATOM     17  C13 UNL     1     145.012 129.771  98.261  0.00  0.00    -0.057 A 
ATOM     18  C14 UNL     1     145.656 130.911  97.775  0.00  0.00    -0.061 A 
ATOM     19  C15 UNL     1     144.980 132.128  97.726  0.00  0.00    -0.062 A 
ATOM     20  C16 UNL     1     143.661 132.208  98.166  0.00  0.00    -0.061 A 
ATOM     21  C17 UNL     1     143.014 131.071  98.650  0.00  0.00    -0.057 A 
ATOM     22  N4  UNL     1     140.723 128.779  92.796  0.00  0.00    -0.299 N 
ATOM     23  C18 UNL     1     140.885 129.889  91.879  0.00  0.00    +0.018 C 
ATOM     24  C19 UNL     1     141.457 129.487  90.526  0.00  0.00    +0.023 C 
ATOM     25  C20 UNL     1     140.546 128.533  89.790  0.00  0.00    +0.241 C 
ATOM     26  F1  UNL     1     141.068 128.268  88.565  0.00  0.00    -0.209 F 
ATOM     27  F2  UNL     1     139.343 129.125  89.571  0.00  0.00    -0.209 F 
ATOM     28  H   UNL     1     140.477 126.972  94.362  0.00  0.00    +0.000 HD
ATOM     29  H   UNL     1     139.818 128.446  92.996  0.00  0.00    +0.000 HD
ENDROOT
TORSDOF 0
ENDMDL
MODEL 6
REMARK VINA RESULT:    -5.060      4.300      6.441
REMARK INTER + INTRA:          -5.060
REMARK INTER:                  -5.060
REMARK INTRA:                   0.000
REMARK UNBOUND:                 0.000
REMARK  Name = /home/vital/Documents/PhD_2021/Malaria_codes/scripts/../data/pdbqt_ligands/ligand_328_temp.pdb
REMARK                            x       y       z     vdW  Elec       q    Type
REMARK                         _______ _______ _______ _____ _____    ______ ____
ROOT
ATOM      1  O1  UNL     1     142.332 130.432  94.145  0.00  0.00    -0.253 OA
ATOM      2  C1  UNL     1     142.336 129.444  93.422  0.00  0.00    +0.300 C 
ATOM      3  N1  UNL     1     143.063 128.311  93.670  0.00  0.00    -0.299 N 
ATOM      4  C2  UNL     1     143.718 128.120  94.952  0.00  0.00    +0.020 C 
ATOM      5  C3  UNL     1     142.744 127.660  96.044  0.00  0.00    +0.021 C 
ATOM      6  C4  UNL     1     142.113 126.332  95.729  0.00  0.00    +0.113 A 
ATOM      7  N2  UNL     1     142.084 125.758  94.539  0.00  0.00    -0.232 NA
ATOM      8  C5  UNL     1     141.408 124.576  94.706  0.00  0.00    +0.089 A 
ATOM      9  C6  UNL     1     141.107 123.585  93.761  0.00  0.00    -0.034 A 
ATOM     10  C7  UNL     1     140.400 122.451  94.176  0.00  0.00    -0.060 A 
ATOM     11  C8  UNL     1     139.998 122.308  95.504  0.00  0.00    -0.060 A 
ATOM     12  C9  UNL     1     140.287 123.290  96.459  0.00  0.00    -0.036 A 
ATOM     13  C10 UNL     1     140.999 124.417  96.025  0.00  0.00    +0.069 A 
ATOM     14  N3  UNL     1     141.445 125.559  96.659  0.00  0.00    -0.323 N 
ATOM     15  C11 UNL     1     141.269 125.866  98.072  0.00  0.00    +0.050 C 
ATOM     16  C12 UNL     1     140.261 126.964  98.307  0.00  0.00    -0.028 A 
ATOM     17  C13 UNL     1     140.617 128.097  99.055  0.00  0.00    -0.057 A 
ATOM     18  C14 UNL     1     139.691 129.116  99.284  0.00  0.00    -0.061 A 
ATOM     19  C15 UNL     1     138.396 129.010  98.779  0.00  0.00    -0.062 A 
ATOM     20  C16 UNL     1     138.026 127.884  98.049  0.00  0.00    -0.061 A 
ATOM     21  C17 UNL     1     138.949 126.865  97.816  0.00  0.00    -0.057 A 
ATOM     22  N4  UNL     1     141.660 129.361  92.232  0.00  0.00    -0.299 N 
ATOM     23  C18 UNL     1     140.744 130.403  91.814  0.00  0.00    +0.018 C 
ATOM     24  C19 UNL     1     141.436 131.687  91.375  0.00  0.00    +0.023 C 
ATOM     25  C20 UNL     1     142.318 131.467  90.168  0.00  0.00    +0.241 C 
ATOM     26  F1  UNL     1     142.849 132.654  89.778  0.00  0.00    -0.209 F 
ATOM     27  F2  UNL     1     141.566 131.025  89.126  0.00  0.00    -0.209 F 
ATOM     28  H   UNL     1     143.143 127.621  92.973  0.00  0.00    +0.000 HD
ATOM     29  H   UNL     1     141.799 128.578  91.651  0.00  0.00    +0.000 HD
ENDROOT
TORSDOF 0
ENDMDL
MODEL 7
REMARK VINA RESULT:    -5.053      1.956      2.384
REMARK INTER + INTRA:          -5.053
REMARK INTER:                  -5.053
REMARK INTRA:                   0.000
REMARK UNBOUND:                 0.000
REMARK  Name = /home/vital/Documents/PhD_2021/Malaria_codes/scripts/../data/pdbqt_ligands/ligand_328_temp.pdb
REMARK                            x       y       z     vdW  Elec       q    Type
REMARK                         _______ _______ _______ _____ _____    ______ ____
ROOT
ATOM      1  O1  UNL     1     142.867 132.227  97.147  0.00  0.00    -0.253 OA
ATOM      2  C1  UNL     1     143.352 132.196  98.270  0.00  0.00    +0.300 C 
ATOM      3  N1  UNL     1     142.618 132.125  99.424  0.00  0.00    -0.299 N 
ATOM      4  C2  UNL     1     141.193 131.851  99.377  0.00  0.00    +0.020 C 
ATOM      5  C3  UNL     1     140.889 130.364  99.165  0.00  0.00    +0.021 C 
ATOM      6  C4  UNL     1     141.412 129.505 100.283  0.00  0.00    +0.113 A 
ATOM      7  N2  UNL     1     142.319 129.869 101.172  0.00  0.00    -0.232 NA
ATOM      8  C5  UNL     1     142.502 128.785 101.992  0.00  0.00    +0.089 A 
ATOM      9  C6  UNL     1     143.347 128.644 103.102  0.00  0.00    -0.034 A 
ATOM     10  C7  UNL     1     143.358 127.426 103.791  0.00  0.00    -0.060 A 
ATOM     11  C8  UNL     1     142.545 126.369 103.381  0.00  0.00    -0.060 A 
ATOM     12  C9  UNL     1     141.698 126.492 102.273  0.00  0.00    -0.036 A 
ATOM     13  C10 UNL     1     141.700 127.720 101.598  0.00  0.00    +0.069 A 
ATOM     14  N3  UNL     1     141.024 128.196 100.493  0.00  0.00    -0.323 N 
ATOM     15  C11 UNL     1     140.043 127.450  99.715  0.00  0.00    +0.050 C 
ATOM     16  C12 UNL     1     140.565 127.044  98.359  0.00  0.00    -0.028 A 
ATOM     17  C13 UNL     1     139.853 127.389  97.200  0.00  0.00    -0.057 A 
ATOM     18  C14 UNL     1     140.324 127.014  95.940  0.00  0.00    -0.061 A 
ATOM     19  C15 UNL     1     141.502 126.280  95.824  0.00  0.00    -0.062 A 
ATOM     20  C16 UNL     1     142.210 125.918  96.967  0.00  0.00    -0.061 A 
ATOM     21  C17 UNL     1     141.744 126.293  98.227  0.00  0.00    -0.057 A 
ATOM     22  N4  UNL     1     144.695 132.290  98.531  0.00  0.00    -0.299 N 
ATOM     23  C18 UNL     1     145.671 132.273  97.459  0.00  0.00    +0.018 C 
ATOM     24  C19 UNL     1     145.701 133.556  96.638  0.00  0.00    +0.023 C 
ATOM     25  C20 UNL     1     146.094 134.751  97.475  0.00  0.00    +0.241 C 
ATOM     26  F1  UNL     1     146.176 135.849  96.679  0.00  0.00    -0.209 F 
ATOM     27  F2  UNL     1     147.337 134.560  97.989  0.00  0.00    -0.209 F 
ATOM     28  H   UNL     1     143.061 132.261 100.293  0.00  0.00    +0.000 HD
ATOM     29  H   UNL     1     145.003 132.370  99.463  0.00  0.00    +0.000 HD
ENDROOT
TORSDOF 0
ENDMDL
MODEL 8
REMARK VINA RESULT:    -5.046      5.691      8.250
REMARK INTER + INTRA:          -5.046
REMARK INTER:                  -5.046
REMARK INTRA:                   0.000
REMARK UNBOUND:                 0.000
REMARK  Name = /home/vital/Documents/PhD_2021/Malaria_codes/scripts/../data/pdbqt_ligands/ligand_328_temp.pdb
REMARK                            x       y       z     vdW  Elec       q    Type
REMARK                         _______ _______ _______ _____ _____    ______ ____
ROOT
ATOM      1  O1  UNL     1     141.328 125.000 103.118  0.00  0.00    -0.253 OA
ATOM      2  C1  UNL     1     142.278 125.672 103.496  0.00  0.00    +0.300 C 
ATOM      3  N1  UNL     1     143.456 125.796 102.809  0.00  0.00    -0.299 N 
ATOM      4  C2  UNL     1     143.572 125.305 101.447  0.00  0.00    +0.020 C 
ATOM      5  C3  UNL     1     142.945 126.261 100.425  0.00  0.00    +0.021 C 
ATOM      6  C4  UNL     1     143.617 127.607 100.411  0.00  0.00    +0.113 A 
ATOM      7  N2  UNL     1     144.404 128.084 101.359  0.00  0.00    -0.232 NA
ATOM      8  C5  UNL     1     144.784 129.333 100.942  0.00  0.00    +0.089 A 
ATOM      9  C6  UNL     1     145.624 130.262 101.573  0.00  0.00    -0.034 A 
ATOM     10  C7  UNL     1     145.869 131.487 100.943  0.00  0.00    -0.060 A 
ATOM     11  C8  UNL     1     145.287 131.783  99.710  0.00  0.00    -0.060 A 
ATOM     12  C9  UNL     1     144.443 130.868  99.068  0.00  0.00    -0.036 A 
ATOM     13  C10 UNL     1     144.212 129.646  99.714  0.00  0.00    +0.069 A 
ATOM     14  N3  UNL     1     143.456 128.535  99.400  0.00  0.00    -0.323 N 
ATOM     15  C11 UNL     1     142.662 128.367  98.190  0.00  0.00    +0.050 C 
ATOM     16  C12 UNL     1     141.179 128.444  98.454  0.00  0.00    -0.028 A 
ATOM     17  C13 UNL     1     140.336 127.400  98.042  0.00  0.00    -0.057 A 
ATOM     18  C14 UNL     1     138.961 127.464  98.277  0.00  0.00    -0.061 A 
ATOM     19  C15 UNL     1     138.410 128.575  98.912  0.00  0.00    -0.062 A 
ATOM     20  C16 UNL     1     139.234 129.625  99.310  0.00  0.00    -0.061 A 
ATOM     21  C17 UNL     1     140.608 129.564  99.081  0.00  0.00    -0.057 A 
ATOM     22  N4  UNL     1     142.317 126.344 104.691  0.00  0.00    -0.299 N 
ATOM     23  C18 UNL     1     141.145 126.437 105.539  0.00  0.00    +0.018 C 
ATOM     24  C19 UNL     1     140.792 125.132 106.240  0.00  0.00    +0.023 C 
ATOM     25  C20 UNL     1     141.888 124.681 107.177  0.00  0.00    +0.241 C 
ATOM     26  F1  UNL     1     141.489 123.557 107.827  0.00  0.00    -0.209 F 
ATOM     27  F2  UNL     1     142.089 125.623 108.134  0.00  0.00    -0.209 F 
ATOM     28  H   UNL     1     144.231 126.221 103.242  0.00  0.00    +0.000 HD
ATOM     29  H   UNL     1     143.156 126.772 104.978  0.00  0.00    +0.000 HD
ENDROOT
TORSDOF 0
ENDMDL
