MODEL 1
REMARK VINA RESULT:    -5.504      0.000      0.000
REMARK INTER + INTRA:          -5.504
REMARK INTER:                  -5.504
REMARK INTRA:                   0.000
REMARK UNBOUND:                 0.000
REMARK  Name = /home/vital/Documents/PhD_2021/Malaria_codes/scripts/../data/pdbqt_ligands/ligand_471_temp.pdb
REMARK                            x       y       z     vdW  Elec       q    Type
REMARK                         _______ _______ _______ _____ _____    ______ ____
ROOT
ATOM      1  N   UNL     1     144.106 130.629 102.147  0.00  0.00    -0.281 N 
ATOM      2  N   UNL     1     142.824 130.505 101.725  0.00  0.00    -0.174 N 
ATOM      3  C   UNL     1     142.533 129.419 101.066  0.00  0.00    +0.145 C 
ATOM      4  N   UNL     1     143.386 128.337 100.841  0.00  0.00    -0.325 N 
ATOM      5  C   UNL     1     143.934 127.599 101.984  0.00  0.00    +0.034 C 
ATOM      6  C   UNL     1     145.398 127.235 101.734  0.00  0.00    +0.060 C 
ATOM      7  O   UNL     1     145.872 126.370 102.761  0.00  0.00    -0.393 OA
ATOM      8  C   UNL     1     141.161 129.334 100.462  0.00  0.00    +0.042 A 
ATOM      9  C   UNL     1     140.420 128.168 100.720  0.00  0.00    -0.049 A 
ATOM     10  C   UNL     1     139.142 128.011 100.182  0.00  0.00    -0.061 A 
ATOM     11  C   UNL     1     138.598 129.018  99.391  0.00  0.00    -0.060 A 
ATOM     12  C   UNL     1     139.332 130.179  99.136  0.00  0.00    -0.036 A 
ATOM     13  C   UNL     1     140.625 130.355  99.649  0.00  0.00    +0.074 A 
ATOM     14  N   UNL     1     141.260 131.572  99.330  0.00  0.00    -0.255 NA
ATOM     15  C   UNL     1     142.435 131.516  98.795  0.00  0.00    +0.033 C 
ATOM     16  C   UNL     1     143.225 132.714  98.490  0.00  0.00    -0.006 C 
ATOM     17  C   UNL     1     142.852 133.979  98.744  0.00  0.00    -0.054 C 
ATOM     18  C   UNL     1     143.892 134.874  98.293  0.00  0.00    -0.045 C 
ATOM     19  C   UNL     1     144.895 134.147  97.784  0.00  0.00    +0.041 C 
ATOM     20 CL   UNL     1     146.311 134.756  97.072  0.00  0.00    -0.086 Cl
ATOM     21  C   UNL     1     144.582 132.679  97.854  0.00  0.00    +0.096 C 
ATOM     22 CL   UNL     1     145.744 131.807  98.875  0.00  0.00    -0.111 Cl
ATOM     23  H   UNL     1     144.384 131.428 102.650  0.00  0.00    +0.000 HD
ATOM     24  H   UNL     1     144.760 129.919 101.950  0.00  0.00    +0.000 HD
ATOM     25  H   UNL     1     142.150 131.198 101.906  0.00  0.00    +0.000 HD
ATOM     26  H   UNL     1     143.618 128.072  99.922  0.00  0.00    +0.000 HD
ATOM     27  H   UNL     1     145.804 126.818 103.618  0.00  0.00    +0.000 HD
ENDROOT
TORSDOF 0
ENDMDL
MODEL 2
REMARK VINA RESULT:    -4.936      3.991      4.946
REMARK INTER + INTRA:          -4.936
REMARK INTER:                  -4.936
REMARK INTRA:                   0.000
REMARK UNBOUND:                 0.000
REMARK  Name = /home/vital/Documents/PhD_2021/Malaria_codes/scripts/../data/pdbqt_ligands/ligand_471_temp.pdb
REMARK                            x       y       z     vdW  Elec       q    Type
REMARK                         _______ _______ _______ _____ _____    ______ ____
ROOT
ATOM      1  N   UNL     1     143.671 131.070  98.012  0.00  0.00    -0.281 N 
ATOM      2  N   UNL     1     142.388 130.735  98.288  0.00  0.00    -0.174 N 
ATOM      3  C   UNL     1     142.169 130.182  99.448  0.00  0.00    +0.145 C 
ATOM      4  N   UNL     1     143.109 129.995 100.462  0.00  0.00    -0.325 N 
ATOM      5  C   UNL     1     143.783 131.159 101.048  0.00  0.00    +0.034 C 
ATOM      6  C   UNL     1     145.261 130.854 101.297  0.00  0.00    +0.060 C 
ATOM      7  O   UNL     1     145.867 131.917 102.024  0.00  0.00    -0.393 OA
ATOM      8  C   UNL     1     140.783 129.668  99.709  0.00  0.00    +0.042 A 
ATOM      9  C   UNL     1     140.171 130.062 100.912  0.00  0.00    -0.049 A 
ATOM     10  C   UNL     1     138.889 129.613 101.229  0.00  0.00    -0.061 A 
ATOM     11  C   UNL     1     138.211 128.777 100.348  0.00  0.00    -0.060 A 
ATOM     12  C   UNL     1     138.816 128.389  99.150  0.00  0.00    -0.036 A 
ATOM     13  C   UNL     1     140.110 128.810  98.813  0.00  0.00    +0.074 A 
ATOM     14  N   UNL     1     140.610 128.358  97.575  0.00  0.00    -0.255 NA
ATOM     15  C   UNL     1     141.756 127.762  97.568  0.00  0.00    +0.033 C 
ATOM     16  C   UNL     1     142.411 127.317  96.333  0.00  0.00    -0.006 C 
ATOM     17  C   UNL     1     141.931 127.491  95.090  0.00  0.00    -0.054 C 
ATOM     18  C   UNL     1     142.856 126.910  94.145  0.00  0.00    -0.045 C 
ATOM     19  C   UNL     1     143.898 126.403  94.818  0.00  0.00    +0.041 C 
ATOM     20 CL   UNL     1     145.210 125.563  94.145  0.00  0.00    -0.086 Cl
ATOM     21  C   UNL     1     143.731 126.607  96.298  0.00  0.00    +0.096 C 
ATOM     22 CL   UNL     1     145.021 127.625  96.970  0.00  0.00    -0.111 Cl
ATOM     23  H   UNL     1     143.896 131.491  97.151  0.00  0.00    +0.000 HD
ATOM     24  H   UNL     1     144.379 130.893  98.673  0.00  0.00    +0.000 HD
ATOM     25  H   UNL     1     141.660 130.900  97.646  0.00  0.00    +0.000 HD
ATOM     26  H   UNL     1     143.319 129.088 100.782  0.00  0.00    +0.000 HD
ATOM     27  H   UNL     1     145.799 132.738 101.513  0.00  0.00    +0.000 HD
ENDROOT
TORSDOF 0
ENDMDL
MODEL 3
REMARK VINA RESULT:    -4.860      1.450      1.606
REMARK INTER + INTRA:          -4.860
REMARK INTER:                  -4.860
REMARK INTRA:                   0.000
REMARK UNBOUND:                 0.000
REMARK  Name = /home/vital/Documents/PhD_2021/Malaria_codes/scripts/../data/pdbqt_ligands/ligand_471_temp.pdb
REMARK                            x       y       z     vdW  Elec       q    Type
REMARK                         _______ _______ _______ _____ _____    ______ ____
ROOT
ATOM      1  N   UNL     1     143.341 129.393 101.545  0.00  0.00    -0.281 N 
ATOM      2  N   UNL     1     142.123 129.167 100.997  0.00  0.00    -0.174 N 
ATOM      3  C   UNL     1     142.072 128.280 100.042  0.00  0.00    +0.145 C 
ATOM      4  N   UNL     1     143.127 127.479  99.604  0.00  0.00    -0.325 N 
ATOM      5  C   UNL     1     143.773 126.556 100.543  0.00  0.00    +0.034 C 
ATOM      6  C   UNL     1     145.287 126.547 100.330  0.00  0.00    +0.060 C 
ATOM      7  O   UNL     1     145.889 125.525 101.118  0.00  0.00    -0.393 OA
ATOM      8  C   UNL     1     140.763 128.127  99.323  0.00  0.00    +0.042 A 
ATOM      9  C   UNL     1     140.257 126.822  99.187  0.00  0.00    -0.049 A 
ATOM     10  C   UNL     1     139.053 126.599  98.518  0.00  0.00    -0.061 A 
ATOM     11  C   UNL     1     138.348 127.675  97.989  0.00  0.00    -0.060 A 
ATOM     12  C   UNL     1     138.846 128.973  98.127  0.00  0.00    -0.036 A 
ATOM     13  C   UNL     1     140.062 129.224  98.779  0.00  0.00    +0.074 A 
ATOM     14  N   UNL     1     140.457 130.575  98.861  0.00  0.00    -0.255 NA
ATOM     15  C   UNL     1     141.636 130.886  98.434  0.00  0.00    +0.033 C 
ATOM     16  C   UNL     1     142.184 132.243  98.539  0.00  0.00    -0.006 C 
ATOM     17  C   UNL     1     141.562 133.294  99.097  0.00  0.00    -0.054 C 
ATOM     18  C   UNL     1     142.419 134.452  99.000  0.00  0.00    -0.045 C 
ATOM     19  C   UNL     1     143.562 134.093  98.400  0.00  0.00    +0.041 C 
ATOM     20 CL   UNL     1     144.852 135.124  98.006  0.00  0.00    -0.086 Cl
ATOM     21  C   UNL     1     143.541 132.635  98.037  0.00  0.00    +0.096 C 
ATOM     22 CL   UNL     1     144.819 131.731  98.876  0.00  0.00    -0.111 Cl
ATOM     23  H   UNL     1     143.440 130.051 102.270  0.00  0.00    +0.000 HD
ATOM     24  H   UNL     1     144.127 128.898 101.219  0.00  0.00    +0.000 HD
ATOM     25  H   UNL     1     141.319 129.646 101.303  0.00  0.00    +0.000 HD
ATOM     26  H   UNL     1     143.436 127.534  98.671  0.00  0.00    +0.000 HD
ATOM     27  H   UNL     1     145.707 125.690 102.055  0.00  0.00    +0.000 HD
ENDROOT
TORSDOF 0
ENDMDL
MODEL 4
REMARK VINA RESULT:    -4.776      3.208      3.814
REMARK INTER + INTRA:          -4.776
REMARK INTER:                  -4.776
REMARK INTRA:                   0.000
REMARK UNBOUND:                 0.000
REMARK  Name = /home/vital/Documents/PhD_2021/Malaria_codes/scripts/../data/pdbqt_ligands/ligand_471_temp.pdb
REMARK                            x       y       z     vdW  Elec       q    Type
REMARK                         _______ _______ _______ _____ _____    ______ ____
ROOT
ATOM      1  N   UNL     1     143.666 127.591  97.486  0.00  0.00    -0.281 N 
ATOM      2  N   UNL     1     142.896 128.083  98.487  0.00  0.00    -0.174 N 
ATOM      3  C   UNL     1     141.610 128.095  98.276  0.00  0.00    +0.145 C 
ATOM      4  N   UNL     1     140.951 127.564  97.167  0.00  0.00    -0.325 N 
ATOM      5  C   UNL     1     141.072 126.132  96.872  0.00  0.00    +0.034 C 
ATOM      6  C   UNL     1     141.212 125.906  95.365  0.00  0.00    +0.060 C 
ATOM      7  O   UNL     1     141.151 124.514  95.069  0.00  0.00    -0.393 OA
ATOM      8  C   UNL     1     140.755 128.774  99.308  0.00  0.00    +0.042 A 
ATOM      9  C   UNL     1     139.649 128.056  99.795  0.00  0.00    -0.049 A 
ATOM     10  C   UNL     1     138.802 128.626 100.745  0.00  0.00    -0.061 A 
ATOM     11  C   UNL     1     139.058 129.909 101.217  0.00  0.00    -0.060 A 
ATOM     12  C   UNL     1     140.159 130.623 100.738  0.00  0.00    -0.036 A 
ATOM     13  C   UNL     1     141.017 130.081  99.770  0.00  0.00    +0.074 A 
ATOM     14  N   UNL     1     142.097 130.894  99.371  0.00  0.00    -0.255 NA
ATOM     15  C   UNL     1     142.251 131.116  98.108  0.00  0.00    +0.033 C 
ATOM     16  C   UNL     1     143.380 131.882  97.569  0.00  0.00    -0.006 C 
ATOM     17  C   UNL     1     144.381 132.410  98.294  0.00  0.00    -0.054 C 
ATOM     18  C   UNL     1     145.292 133.093  97.407  0.00  0.00    -0.045 C 
ATOM     19  C   UNL     1     144.849 132.962  96.149  0.00  0.00    +0.041 C 
ATOM     20 CL   UNL     1     145.551 133.648  94.764  0.00  0.00    -0.086 Cl
ATOM     21  C   UNL     1     143.573 132.169  96.110  0.00  0.00    +0.096 C 
ATOM     22 CL   UNL     1     143.761 130.667  95.182  0.00  0.00    -0.111 Cl
ATOM     23  H   UNL     1     144.645 127.557  97.589  0.00  0.00    +0.000 HD
ATOM     24  H   UNL     1     143.246 127.268  96.656  0.00  0.00    +0.000 HD
ATOM     25  H   UNL     1     143.287 128.414  99.327  0.00  0.00    +0.000 HD
ATOM     26  H   UNL     1     140.409 128.146  96.587  0.00  0.00    +0.000 HD
ATOM     27  H   UNL     1     141.874 124.055  95.523  0.00  0.00    +0.000 HD
ENDROOT
TORSDOF 0
ENDMDL
MODEL 5
REMARK VINA RESULT:    -4.730      2.616      2.936
REMARK INTER + INTRA:          -4.730
REMARK INTER:                  -4.730
REMARK INTRA:                   0.000
REMARK UNBOUND:                 0.000
REMARK  Name = /home/vital/Documents/PhD_2021/Malaria_codes/scripts/../data/pdbqt_ligands/ligand_471_temp.pdb
REMARK                            x       y       z     vdW  Elec       q    Type
REMARK                         _______ _______ _______ _____ _____    ______ ____
ROOT
ATOM      1  N   UNL     1     141.121 130.346 101.155  0.00  0.00    -0.281 N 
ATOM      2  N   UNL     1     140.845 129.618 100.046  0.00  0.00    -0.174 N 
ATOM      3  C   UNL     1     141.276 128.388 100.039  0.00  0.00    +0.145 C 
ATOM      4  N   UNL     1     141.903 127.728 101.096  0.00  0.00    -0.325 N 
ATOM      5  C   UNL     1     141.192 127.561 102.368  0.00  0.00    +0.034 C 
ATOM      6  C   UNL     1     142.143 127.778 103.546  0.00  0.00    +0.060 C 
ATOM      7  O   UNL     1     141.496 127.443 104.770  0.00  0.00    -0.393 OA
ATOM      8  C   UNL     1     141.113 127.615  98.762  0.00  0.00    +0.042 A 
ATOM      9  C   UNL     1     140.524 126.342  98.856  0.00  0.00    -0.049 A 
ATOM     10  C   UNL     1     140.351 125.560  97.714  0.00  0.00    -0.061 A 
ATOM     11  C   UNL     1     140.759 126.046  96.475  0.00  0.00    -0.060 A 
ATOM     12  C   UNL     1     141.340 127.313  96.380  0.00  0.00    -0.036 A 
ATOM     13  C   UNL     1     141.542 128.113  97.513  0.00  0.00    +0.074 A 
ATOM     14  N   UNL     1     142.130 129.374  97.288  0.00  0.00    -0.255 NA
ATOM     15  C   UNL     1     143.182 129.680  97.974  0.00  0.00    +0.033 C 
ATOM     16  C   UNL     1     143.835 130.990  97.882  0.00  0.00    -0.006 C 
ATOM     17  C   UNL     1     143.421 132.015  97.118  0.00  0.00    -0.054 C 
ATOM     18  C   UNL     1     144.327 133.126  97.293  0.00  0.00    -0.045 C 
ATOM     19  C   UNL     1     145.273 132.775  98.174  0.00  0.00    +0.041 C 
ATOM     20 CL   UNL     1     146.595 133.726  98.654  0.00  0.00    -0.086 Cl
ATOM     21  C   UNL     1     145.065 131.366  98.652  0.00  0.00    +0.096 C 
ATOM     22 CL   UNL     1     144.767 131.303 100.402  0.00  0.00    -0.111 Cl
ATOM     23  H   UNL     1     140.820 131.282 101.217  0.00  0.00    +0.000 HD
ATOM     24  H   UNL     1     141.622 129.940 101.899  0.00  0.00    +0.000 HD
ATOM     25  H   UNL     1     140.346 129.998  99.288  0.00  0.00    +0.000 HD
ATOM     26  H   UNL     1     142.817 127.377 100.989  0.00  0.00    +0.000 HD
ATOM     27  H   UNL     1     140.717 128.008 104.888  0.00  0.00    +0.000 HD
ENDROOT
TORSDOF 0
ENDMDL
MODEL 6
REMARK VINA RESULT:    -4.608     14.489     16.230
REMARK INTER + INTRA:          -4.608
REMARK INTER:                  -4.608
REMARK INTRA:                   0.000
REMARK UNBOUND:                 0.000
REMARK  Name = /home/vital/Documents/PhD_2021/Malaria_codes/scripts/../data/pdbqt_ligands/ligand_471_temp.pdb
REMARK                            x       y       z     vdW  Elec       q    Type
REMARK                         _______ _______ _______ _____ _____    ______ ____
ROOT
ATOM      1  N   UNL     1     133.154 124.446  90.516  0.00  0.00    -0.281 N 
ATOM      2  N   UNL     1     132.785 124.017  89.284  0.00  0.00    -0.174 N 
ATOM      3  C   UNL     1     132.852 122.733  89.073  0.00  0.00    +0.145 C 
ATOM      4  N   UNL     1     133.174 121.758  90.018  0.00  0.00    -0.325 N 
ATOM      5  C   UNL     1     132.335 121.603  91.212  0.00  0.00    +0.034 C 
ATOM      6  C   UNL     1     133.201 121.341  92.445  0.00  0.00    +0.060 C 
ATOM      7  O   UNL     1     132.381 121.018  93.563  0.00  0.00    -0.393 OA
ATOM      8  C   UNL     1     132.592 122.257  87.673  0.00  0.00    +0.042 A 
ATOM      9  C   UNL     1     131.664 121.213  87.515  0.00  0.00    -0.049 A 
ATOM     10  C   UNL     1     131.381 120.709  86.245  0.00  0.00    -0.061 A 
ATOM     11  C   UNL     1     132.016 121.247  85.131  0.00  0.00    -0.060 A 
ATOM     12  C   UNL     1     132.935 122.288  85.285  0.00  0.00    -0.036 A 
ATOM     13  C   UNL     1     133.252 122.802  86.551  0.00  0.00    +0.074 A 
ATOM     14  N   UNL     1     134.187 123.856  86.578  0.00  0.00    -0.255 NA
ATOM     15  C   UNL     1     135.218 123.728  87.347  0.00  0.00    +0.033 C 
ATOM     16  C   UNL     1     136.217 124.788  87.516  0.00  0.00    -0.006 C 
ATOM     17  C   UNL     1     136.177 125.998  86.933  0.00  0.00    -0.054 C 
ATOM     18  C   UNL     1     137.338 126.754  87.339  0.00  0.00    -0.045 C 
ATOM     19  C   UNL     1     138.067 126.006  88.178  0.00  0.00    +0.041 C 
ATOM     20 CL   UNL     1     139.555 126.440  88.870  0.00  0.00    -0.086 Cl
ATOM     21  C   UNL     1     137.430 124.660  88.387  0.00  0.00    +0.096 C 
ATOM     22 CL   UNL     1     136.974 124.407  90.085  0.00  0.00    -0.111 Cl
ATOM     23  H   UNL     1     133.123 125.406  90.733  0.00  0.00    +0.000 HD
ATOM     24  H   UNL     1     133.454 123.797  91.193  0.00  0.00    +0.000 HD
ATOM     25  H   UNL     1     132.481 124.643  88.587  0.00  0.00    +0.000 HD
ATOM     26  H   UNL     1     133.958 121.178  89.884  0.00  0.00    +0.000 HD
ATOM     27  H   UNL     1     131.784 121.758  93.751  0.00  0.00    +0.000 HD
ENDROOT
TORSDOF 0
ENDMDL
MODEL 7
REMARK VINA RESULT:    -4.575      2.847      4.516
REMARK INTER + INTRA:          -4.575
REMARK INTER:                  -4.575
REMARK INTRA:                   0.000
REMARK UNBOUND:                 0.000
REMARK  Name = /home/vital/Documents/PhD_2021/Malaria_codes/scripts/../data/pdbqt_ligands/ligand_471_temp.pdb
REMARK                            x       y       z     vdW  Elec       q    Type
REMARK                         _______ _______ _______ _____ _____    ______ ____
ROOT
ATOM      1  N   UNL     1     142.010 128.311  97.962  0.00  0.00    -0.281 N 
ATOM      2  N   UNL     1     142.523 127.978  99.171  0.00  0.00    -0.174 N 
ATOM      3  C   UNL     1     141.740 128.146 100.199  0.00  0.00    +0.145 C 
ATOM      4  N   UNL     1     140.402 128.542 100.160  0.00  0.00    -0.325 N 
ATOM      5  C   UNL     1     139.424 127.717  99.443  0.00  0.00    +0.034 C 
ATOM      6  C   UNL     1     138.438 128.600  98.677  0.00  0.00    +0.060 C 
ATOM      7  O   UNL     1     137.390 127.807  98.130  0.00  0.00    -0.393 OA
ATOM      8  C   UNL     1     142.340 127.926 101.558  0.00  0.00    +0.042 A 
ATOM      9  C   UNL     1     141.638 127.084 102.438  0.00  0.00    -0.049 A 
ATOM     10  C   UNL     1     142.127 126.842 103.722  0.00  0.00    -0.061 A 
ATOM     11  C   UNL     1     143.318 127.434 104.130  0.00  0.00    -0.060 A 
ATOM     12  C   UNL     1     144.019 128.268 103.256  0.00  0.00    -0.036 A 
ATOM     13  C   UNL     1     143.542 128.542 101.966  0.00  0.00    +0.074 A 
ATOM     14  N   UNL     1     144.341 129.392 101.175  0.00  0.00    -0.255 NA
ATOM     15  C   UNL     1     143.779 130.428 100.645  0.00  0.00    +0.033 C 
ATOM     16  C   UNL     1     144.489 131.341  99.743  0.00  0.00    -0.006 C 
ATOM     17  C   UNL     1     145.765 131.206  99.343  0.00  0.00    -0.054 C 
ATOM     18  C   UNL     1     146.100 132.304  98.467  0.00  0.00    -0.045 C 
ATOM     19  C   UNL     1     145.023 133.088  98.328  0.00  0.00    +0.041 C 
ATOM     20 CL   UNL     1     144.947 134.537  97.446  0.00  0.00    -0.086 Cl
ATOM     21  C   UNL     1     143.867 132.559  99.130  0.00  0.00    +0.096 C 
ATOM     22 CL   UNL     1     142.493 132.122  98.092  0.00  0.00    -0.111 Cl
ATOM     23  H   UNL     1     142.556 128.204  97.149  0.00  0.00    +0.000 HD
ATOM     24  H   UNL     1     141.092 128.660  97.896  0.00  0.00    +0.000 HD
ATOM     25  H   UNL     1     143.437 127.627  99.267  0.00  0.00    +0.000 HD
ATOM     26  H   UNL     1     140.117 129.370 100.611  0.00  0.00    +0.000 HD
ATOM     27  H   UNL     1     137.764 127.153  97.519  0.00  0.00    +0.000 HD
ENDROOT
TORSDOF 0
ENDMDL
MODEL 8
REMARK VINA RESULT:    -4.448      4.709      5.771
REMARK INTER + INTRA:          -4.448
REMARK INTER:                  -4.448
REMARK INTRA:                   0.000
REMARK UNBOUND:                 0.000
REMARK  Name = /home/vital/Documents/PhD_2021/Malaria_codes/scripts/../data/pdbqt_ligands/ligand_471_temp.pdb
REMARK                            x       y       z     vdW  Elec       q    Type
REMARK                         _______ _______ _______ _____ _____    ______ ____
ROOT
ATOM      1  N   UNL     1     142.725 124.129 100.080  0.00  0.00    -0.281 N 
ATOM      2  N   UNL     1     141.611 124.900 100.055  0.00  0.00    -0.174 N 
ATOM      3  C   UNL     1     141.398 125.576  98.961  0.00  0.00    +0.145 C 
ATOM      4  N   UNL     1     142.152 125.506  97.788  0.00  0.00    -0.325 N 
ATOM      5  C   UNL     1     142.265 124.228  97.077  0.00  0.00    +0.034 C 
ATOM      6  C   UNL     1     143.689 124.030  96.555  0.00  0.00    +0.060 C 
ATOM      7  O   UNL     1     143.750 122.879  95.718  0.00  0.00    -0.393 OA
ATOM      8  C   UNL     1     140.255 126.549  98.971  0.00  0.00    +0.042 A 
ATOM      9  C   UNL     1     139.343 126.475  97.903  0.00  0.00    -0.049 A 
ATOM     10  C   UNL     1     138.262 127.355  97.838  0.00  0.00    -0.061 A 
ATOM     11  C   UNL     1     138.084 128.305  98.838  0.00  0.00    -0.060 A 
ATOM     12  C   UNL     1     138.985 128.377  99.902  0.00  0.00    -0.036 A 
ATOM     13  C   UNL     1     140.090 127.517  99.984  0.00  0.00    +0.074 A 
ATOM     14  N   UNL     1     140.924 127.681 101.109  0.00  0.00    -0.255 NA
ATOM     15  C   UNL     1     142.188 127.850 100.903  0.00  0.00    +0.033 C 
ATOM     16  C   UNL     1     143.163 127.955 101.994  0.00  0.00    -0.006 C 
ATOM     17  C   UNL     1     142.878 127.865 103.304  0.00  0.00    -0.054 C 
ATOM     18  C   UNL     1     144.098 128.026 104.061  0.00  0.00    -0.045 C 
ATOM     19  C   UNL     1     145.115 128.196 103.207  0.00  0.00    +0.041 C 
ATOM     20 CL   UNL     1     146.734 128.489 103.625  0.00  0.00    -0.086 Cl
ATOM     21  C   UNL     1     144.632 128.169 101.784  0.00  0.00    +0.096 C 
ATOM     22 CL   UNL     1     145.349 126.824 100.872  0.00  0.00    -0.111 Cl
ATOM     23  H   UNL     1     142.937 123.595 100.880  0.00  0.00    +0.000 HD
ATOM     24  H   UNL     1     143.323 124.102  99.298  0.00  0.00    +0.000 HD
ATOM     25  H   UNL     1     140.995 124.946 100.821  0.00  0.00    +0.000 HD
ATOM     26  H   UNL     1     142.604 126.308  97.442  0.00  0.00    +0.000 HD
ATOM     27  H   UNL     1     143.492 122.095  96.227  0.00  0.00    +0.000 HD
ENDROOT
TORSDOF 0
ENDMDL
MODEL 9
REMARK VINA RESULT:    -4.396      3.278      6.128
REMARK INTER + INTRA:          -4.396
REMARK INTER:                  -4.396
REMARK INTRA:                   0.000
REMARK UNBOUND:                 0.000
REMARK  Name = /home/vital/Documents/PhD_2021/Malaria_codes/scripts/../data/pdbqt_ligands/ligand_471_temp.pdb
REMARK                            x       y       z     vdW  Elec       q    Type
REMARK                         _______ _______ _______ _____ _____    ______ ____
ROOT
ATOM      1  N   UNL     1     145.140 128.471  99.459  0.00  0.00    -0.281 N 
ATOM      2  N   UNL     1     143.791 128.378  99.550  0.00  0.00    -0.174 N 
ATOM      3  C   UNL     1     143.142 129.497  99.714  0.00  0.00    +0.145 C 
ATOM      4  N   UNL     1     143.695 130.779  99.707  0.00  0.00    -0.325 N 
ATOM      5  C   UNL     1     144.392 131.260  98.510  0.00  0.00    +0.034 C 
ATOM      6  C   UNL     1     145.643 132.048  98.899  0.00  0.00    +0.060 C 
ATOM      7  O   UNL     1     146.217 132.660  97.748  0.00  0.00    -0.393 OA
ATOM      8  C   UNL     1     141.666 129.399  99.967  0.00  0.00    +0.042 A 
ATOM      9  C   UNL     1     140.827 130.202  99.174  0.00  0.00    -0.049 A 
ATOM     10  C   UNL     1     139.445 130.175  99.360  0.00  0.00    -0.061 A 
ATOM     11  C   UNL     1     138.894 129.344 100.331  0.00  0.00    -0.060 A 
ATOM     12  C   UNL     1     139.726 128.542 101.116  0.00  0.00    -0.036 A 
ATOM     13  C   UNL     1     141.120 128.563 100.963  0.00  0.00    +0.074 A 
ATOM     14  N   UNL     1     141.851 127.704 101.808  0.00  0.00    -0.255 NA
ATOM     15  C   UNL     1     142.807 128.218 102.510  0.00  0.00    +0.033 C 
ATOM     16  C   UNL     1     143.685 127.413 103.366  0.00  0.00    -0.006 C 
ATOM     17  C   UNL     1     143.627 126.078 103.504  0.00  0.00    -0.054 C 
ATOM     18  C   UNL     1     144.647 125.658 104.436  0.00  0.00    -0.045 C 
ATOM     19  C   UNL     1     145.328 126.738 104.844  0.00  0.00    +0.041 C 
ATOM     20 CL   UNL     1     146.581 126.757 105.988  0.00  0.00    -0.086 Cl
ATOM     21  C   UNL     1     144.789 127.986 104.203  0.00  0.00    +0.096 C 
ATOM     22 CL   UNL     1     146.010 128.785 103.190  0.00  0.00    -0.111 Cl
ATOM     23  H   UNL     1     145.682 127.659  99.334  0.00  0.00    +0.000 HD
ATOM     24  H   UNL     1     145.578 129.351  99.518  0.00  0.00    +0.000 HD
ATOM     25  H   UNL     1     143.326 127.512  99.494  0.00  0.00    +0.000 HD
ATOM     26  H   UNL     1     143.617 131.355 100.501  0.00  0.00    +0.000 HD
ATOM     27  H   UNL     1     146.465 131.976  97.108  0.00  0.00    +0.000 HD
ENDROOT
TORSDOF 0
ENDMDL
