MODEL 1
REMARK VINA RESULT:    -5.952      0.000      0.000
REMARK INTER + INTRA:          -5.952
REMARK INTER:                  -5.952
REMARK INTRA:                   0.000
REMARK UNBOUND:                 0.000
REMARK  Name = /home/vital/Documents/PhD_2021/Malaria_codes/scripts/../data/pdbqt_ligands/ligand_302_temp.pdb
REMARK                            x       y       z     vdW  Elec       q    Type
REMARK                         _______ _______ _______ _____ _____    ______ ____
ROOT
ATOM      1  C1  UNL     1     141.145 127.838  89.323  0.00  0.00    -0.063 C 
ATOM      2  C2  UNL     1     141.082 129.310  89.728  0.00  0.00    -0.047 C 
ATOM      3  C3  UNL     1     142.210 130.099  89.064  0.00  0.00    -0.063 C 
ATOM      4  C4  UNL     1     141.057 129.497  91.257  0.00  0.00    -0.051 C 
ATOM      5  C5  UNL     1     142.314 129.021  91.998  0.00  0.00    -0.051 C 
ATOM      6  C6  UNL     1     142.171 129.229  93.509  0.00  0.00    -0.035 C 
ATOM      7  C7  UNL     1     143.442 128.884  94.302  0.00  0.00    +0.021 C 
ATOM      8  C8  UNL     1     143.814 127.404  94.208  0.00  0.00    -0.047 C 
ATOM      9  N1  UNL     1     143.251 129.254  95.697  0.00  0.00    -0.309 N 
ATOM     10  C9  UNL     1     144.295 129.590  96.532  0.00  0.00    +0.250 C 
ATOM     11  O1  UNL     1     145.450 129.719  96.133  0.00  0.00    -0.270 OA
ATOM     12  C10 UNL     1     143.922 129.765  97.931  0.00  0.00    +0.103 A 
ATOM     13  C11 UNL     1     144.766 130.205  98.945  0.00  0.00    +0.112 A 
ATOM     14  N2  UNL     1     146.060 130.586  98.873  0.00  0.00    -0.344 N 
ATOM     15  N3  UNL     1     144.058 130.217 100.129  0.00  0.00    -0.312 N 
ATOM     16  C12 UNL     1     144.556 130.607 101.437  0.00  0.00    +0.030 C 
ATOM     17  C13 UNL     1     145.377 129.517 102.131  0.00  0.00    -0.010 C 
ATOM     18  C14 UNL     1     144.571 128.304 102.530  0.00  0.00    -0.046 A 
ATOM     19  C15 UNL     1     144.587 127.150 101.736  0.00  0.00    -0.059 A 
ATOM     20  C16 UNL     1     143.826 126.037 102.093  0.00  0.00    -0.062 A 
ATOM     21  C17 UNL     1     143.042 126.066 103.245  0.00  0.00    -0.062 A 
ATOM     22  C18 UNL     1     143.016 127.210 104.039  0.00  0.00    -0.062 A 
ATOM     23  C19 UNL     1     143.777 128.325 103.684  0.00  0.00    -0.059 A 
ATOM     24  C20 UNL     1     142.766 129.822  99.890  0.00  0.00    +0.162 A 
ATOM     25  N4  UNL     1     141.770 129.727 100.793  0.00  0.00    -0.226 NA
ATOM     26  C21 UNL     1     140.628 129.263 100.262  0.00  0.00    +0.092 A 
ATOM     27  C22 UNL     1     139.535 129.094 101.102  0.00  0.00    -0.034 A 
ATOM     28  C23 UNL     1     138.313 128.620 100.625  0.00  0.00    -0.060 A 
ATOM     29  C24 UNL     1     138.178 128.309  99.280  0.00  0.00    -0.060 A 
ATOM     30  C25 UNL     1     139.267 128.474  98.423  0.00  0.00    -0.034 A 
ATOM     31  C26 UNL     1     140.492 128.942  98.883  0.00  0.00    +0.090 A 
ATOM     32  N5  UNL     1     141.497 129.069  97.998  0.00  0.00    -0.241 NA
ATOM     33  C27 UNL     1     142.662 129.520  98.540  0.00  0.00    +0.122 A 
ATOM     34  H   UNL     1     142.336 129.264  96.059  0.00  0.00    +0.000 HD
ATOM     35  H   UNL     1     146.532 130.564  98.010  0.00  0.00    +0.000 HD
ATOM     36  H   UNL     1     146.531 130.886  99.684  0.00  0.00    +0.000 HD
ENDROOT
TORSDOF 0
ENDMDL
MODEL 2
REMARK VINA RESULT:    -5.694      4.468      5.798
REMARK INTER + INTRA:          -5.694
REMARK INTER:                  -5.694
REMARK INTRA:                   0.000
REMARK UNBOUND:                 0.000
REMARK  Name = /home/vital/Documents/PhD_2021/Malaria_codes/scripts/../data/pdbqt_ligands/ligand_302_temp.pdb
REMARK                            x       y       z     vdW  Elec       q    Type
REMARK                         _______ _______ _______ _____ _____    ______ ____
ROOT
ATOM      1  C1  UNL     1     146.496 136.620  95.932  0.00  0.00    -0.063 C 
ATOM      2  C2  UNL     1     146.078 137.012  97.349  0.00  0.00    -0.047 C 
ATOM      3  C3  UNL     1     147.281 137.521  98.142  0.00  0.00    -0.063 C 
ATOM      4  C4  UNL     1     145.335 135.876  98.076  0.00  0.00    -0.051 C 
ATOM      5  C5  UNL     1     146.160 134.608  98.332  0.00  0.00    -0.051 C 
ATOM      6  C6  UNL     1     145.317 133.538  99.035  0.00  0.00    -0.035 C 
ATOM      7  C7  UNL     1     146.117 132.285  99.430  0.00  0.00    +0.021 C 
ATOM      8  C8  UNL     1     146.665 131.528  98.220  0.00  0.00    -0.047 C 
ATOM      9  N1  UNL     1     145.265 131.403 100.214  0.00  0.00    -0.309 N 
ATOM     10  C9  UNL     1     145.763 130.518 101.147  0.00  0.00    +0.250 C 
ATOM     11  O1  UNL     1     146.947 130.492 101.473  0.00  0.00    -0.270 OA
ATOM     12  C10 UNL     1     144.773 129.605 101.707  0.00  0.00    +0.103 A 
ATOM     13  C11 UNL     1     145.000 128.697 102.736  0.00  0.00    +0.112 A 
ATOM     14  N2  UNL     1     146.127 128.477 103.447  0.00  0.00    -0.344 N 
ATOM     15  N3  UNL     1     143.834 127.998 102.968  0.00  0.00    -0.312 N 
ATOM     16  C12 UNL     1     143.627 126.951 103.954  0.00  0.00    +0.030 C 
ATOM     17  C13 UNL     1     144.163 125.585 103.520  0.00  0.00    -0.010 C 
ATOM     18  C14 UNL     1     143.417 124.974 102.359  0.00  0.00    -0.046 A 
ATOM     19  C15 UNL     1     143.933 125.063 101.059  0.00  0.00    -0.059 A 
ATOM     20  C16 UNL     1     143.233 124.518  99.982  0.00  0.00    -0.062 A 
ATOM     21  C17 UNL     1     142.011 123.881 100.193  0.00  0.00    -0.062 A 
ATOM     22  C18 UNL     1     141.487 123.791 101.481  0.00  0.00    -0.062 A 
ATOM     23  C19 UNL     1     142.186 124.336 102.560  0.00  0.00    -0.059 A 
ATOM     24  C20 UNL     1     142.852 128.462 102.129  0.00  0.00    +0.162 A 
ATOM     25  N4  UNL     1     141.573 128.041 102.071  0.00  0.00    -0.226 NA
ATOM     26  C21 UNL     1     140.865 128.655 101.110  0.00  0.00    +0.092 A 
ATOM     27  C22 UNL     1     139.538 128.284 100.935  0.00  0.00    -0.034 A 
ATOM     28  C23 UNL     1     138.737 128.877  99.959  0.00  0.00    -0.060 A 
ATOM     29  C24 UNL     1     139.270 129.863  99.142  0.00  0.00    -0.060 A 
ATOM     30  C25 UNL     1     140.603 130.246  99.306  0.00  0.00    -0.034 A 
ATOM     31  C26 UNL     1     141.415 129.663 100.271  0.00  0.00    +0.090 A 
ATOM     32  N5  UNL     1     142.689 130.081 100.365  0.00  0.00    -0.241 NA
ATOM     33  C27 UNL     1     143.414 129.444 101.327  0.00  0.00    +0.122 A 
ATOM     34  H   UNL     1     144.292 131.440 100.072  0.00  0.00    +0.000 HD
ATOM     35  H   UNL     1     146.941 128.996 103.252  0.00  0.00    +0.000 HD
ATOM     36  H   UNL     1     146.135 127.797 104.160  0.00  0.00    +0.000 HD
ENDROOT
TORSDOF 0
ENDMDL
MODEL 3
REMARK VINA RESULT:    -5.411      3.104      5.592
REMARK INTER + INTRA:          -5.411
REMARK INTER:                  -5.411
REMARK INTRA:                   0.000
REMARK UNBOUND:                 0.000
REMARK  Name = /home/vital/Documents/PhD_2021/Malaria_codes/scripts/../data/pdbqt_ligands/ligand_302_temp.pdb
REMARK                            x       y       z     vdW  Elec       q    Type
REMARK                         _______ _______ _______ _____ _____    ______ ____
ROOT
ATOM      1  C1  UNL     1     144.319 136.440  89.488  0.00  0.00    -0.063 C 
ATOM      2  C2  UNL     1     145.425 135.387  89.540  0.00  0.00    -0.047 C 
ATOM      3  C3  UNL     1     145.492 134.613  88.224  0.00  0.00    -0.063 C 
ATOM      4  C4  UNL     1     145.293 134.458  90.761  0.00  0.00    -0.051 C 
ATOM      5  C5  UNL     1     144.030 133.588  90.791  0.00  0.00    -0.051 C 
ATOM      6  C6  UNL     1     143.988 132.725  92.057  0.00  0.00    -0.035 C 
ATOM      7  C7  UNL     1     142.808 131.740  92.093  0.00  0.00    +0.021 C 
ATOM      8  C8  UNL     1     141.452 132.444  92.132  0.00  0.00    -0.047 C 
ATOM      9  N1  UNL     1     142.944 130.875  93.256  0.00  0.00    -0.309 N 
ATOM     10  C9  UNL     1     142.422 129.600  93.305  0.00  0.00    +0.250 C 
ATOM     11  O1  UNL     1     141.908 129.054  92.331  0.00  0.00    -0.270 OA
ATOM     12  C10 UNL     1     142.514 128.955  94.610  0.00  0.00    +0.103 A 
ATOM     13  C11 UNL     1     142.158 127.639  94.890  0.00  0.00    +0.112 A 
ATOM     14  N2  UNL     1     141.695 126.684  94.055  0.00  0.00    -0.344 N 
ATOM     15  N3  UNL     1     142.364 127.407  96.234  0.00  0.00    -0.312 N 
ATOM     16  C12 UNL     1     142.120 126.167  96.951  0.00  0.00    +0.030 C 
ATOM     17  C13 UNL     1     140.648 125.944  97.308  0.00  0.00    -0.010 C 
ATOM     18  C14 UNL     1     140.109 126.922  98.324  0.00  0.00    -0.046 A 
ATOM     19  C15 UNL     1     139.353 128.027  97.913  0.00  0.00    -0.059 A 
ATOM     20  C16 UNL     1     138.873 128.943  98.850  0.00  0.00    -0.062 A 
ATOM     21  C17 UNL     1     139.144 128.763 100.205  0.00  0.00    -0.062 A 
ATOM     22  C18 UNL     1     139.899 127.670 100.624  0.00  0.00    -0.062 A 
ATOM     23  C19 UNL     1     140.380 126.752  99.688  0.00  0.00    -0.059 A 
ATOM     24  C20 UNL     1     142.875 128.539  96.817  0.00  0.00    +0.162 A 
ATOM     25  N4  UNL     1     143.223 128.695  98.110  0.00  0.00    -0.226 NA
ATOM     26  C21 UNL     1     143.647 129.938  98.390  0.00  0.00    +0.092 A 
ATOM     27  C22 UNL     1     144.007 130.229  99.698  0.00  0.00    -0.034 A 
ATOM     28  C23 UNL     1     144.460 131.496 100.067  0.00  0.00    -0.060 A 
ATOM     29  C24 UNL     1     144.556 132.494  99.108  0.00  0.00    -0.060 A 
ATOM     30  C25 UNL     1     144.197 132.217  97.788  0.00  0.00    -0.034 A 
ATOM     31  C26 UNL     1     143.741 130.961  97.406  0.00  0.00    +0.090 A 
ATOM     32  N5  UNL     1     143.409 130.771  96.117  0.00  0.00    -0.241 NA
ATOM     33  C27 UNL     1     142.960 129.516  95.836  0.00  0.00    +0.122 A 
ATOM     34  H   UNL     1     143.430 131.215  94.042  0.00  0.00    +0.000 HD
ATOM     35  H   UNL     1     141.561 126.887  93.101  0.00  0.00    +0.000 HD
ATOM     36  H   UNL     1     141.492 125.784  94.400  0.00  0.00    +0.000 HD
ENDROOT
TORSDOF 0
ENDMDL
MODEL 4
REMARK VINA RESULT:    -5.341      3.143      5.795
REMARK INTER + INTRA:          -5.341
REMARK INTER:                  -5.341
REMARK INTRA:                   0.000
REMARK UNBOUND:                 0.000
REMARK  Name = /home/vital/Documents/PhD_2021/Malaria_codes/scripts/../data/pdbqt_ligands/ligand_302_temp.pdb
REMARK                            x       y       z     vdW  Elec       q    Type
REMARK                         _______ _______ _______ _____ _____    ______ ____
ROOT
ATOM      1  C1  UNL     1     142.499 133.056  86.348  0.00  0.00    -0.063 C 
ATOM      2  C2  UNL     1     143.682 132.119  86.593  0.00  0.00    -0.047 C 
ATOM      3  C3  UNL     1     143.680 130.975  85.579  0.00  0.00    -0.063 C 
ATOM      4  C4  UNL     1     143.739 131.614  88.047  0.00  0.00    -0.051 C 
ATOM      5  C5  UNL     1     142.554 130.745  88.487  0.00  0.00    -0.051 C 
ATOM      6  C6  UNL     1     142.700 130.322  89.953  0.00  0.00    -0.035 C 
ATOM      7  C7  UNL     1     141.607 129.349  90.425  0.00  0.00    +0.021 C 
ATOM      8  C8  UNL     1     140.211 129.971  90.402  0.00  0.00    -0.047 C 
ATOM      9  N1  UNL     1     141.920 128.898  91.774  0.00  0.00    -0.309 N 
ATOM     10  C9  UNL     1     141.502 127.681  92.271  0.00  0.00    +0.250 C 
ATOM     11  O1  UNL     1     140.941 126.837  91.578  0.00  0.00    -0.270 OA
ATOM     12  C10 UNL     1     141.769 127.483  93.691  0.00  0.00    +0.103 A 
ATOM     13  C11 UNL     1     141.542 126.307  94.401  0.00  0.00    +0.112 A 
ATOM     14  N2  UNL     1     141.074 125.120  93.958  0.00  0.00    -0.344 N 
ATOM     15  N3  UNL     1     141.893 126.517  95.718  0.00  0.00    -0.312 N 
ATOM     16  C12 UNL     1     141.815 125.555  96.804  0.00  0.00    +0.030 C 
ATOM     17  C13 UNL     1     140.405 125.393  97.379  0.00  0.00    -0.010 C 
ATOM     18  C14 UNL     1     139.894 126.616  98.101  0.00  0.00    -0.046 A 
ATOM     19  C15 UNL     1     139.020 127.504  97.461  0.00  0.00    -0.059 A 
ATOM     20  C16 UNL     1     138.564 128.646  98.120  0.00  0.00    -0.062 A 
ATOM     21  C17 UNL     1     138.978 128.912  99.424  0.00  0.00    -0.062 A 
ATOM     22  C18 UNL     1     139.851 128.037 100.069  0.00  0.00    -0.062 A 
ATOM     23  C19 UNL     1     140.307 126.894  99.410  0.00  0.00    -0.059 A 
ATOM     24  C20 UNL     1     142.371 127.795  95.863  0.00  0.00    +0.162 A 
ATOM     25  N4  UNL     1     142.829 128.363  96.996  0.00  0.00    -0.226 NA
ATOM     26  C21 UNL     1     143.183 129.647  96.830  0.00  0.00    +0.092 A 
ATOM     27  C22 UNL     1     143.645 130.348  97.936  0.00  0.00    -0.034 A 
ATOM     28  C23 UNL     1     144.033 131.685  97.843  0.00  0.00    -0.060 A 
ATOM     29  C24 UNL     1     143.960 132.335  96.620  0.00  0.00    -0.060 A 
ATOM     30  C25 UNL     1     143.498 131.643  95.499  0.00  0.00    -0.034 A 
ATOM     31  C26 UNL     1     143.104 130.313  95.576  0.00  0.00    +0.090 A 
ATOM     32  N5  UNL     1     142.664 129.715  94.455  0.00  0.00    -0.241 NA
ATOM     33  C27 UNL     1     142.287 128.418  94.627  0.00  0.00    +0.122 A 
ATOM     34  H   UNL     1     142.452 129.487  92.356  0.00  0.00    +0.000 HD
ATOM     35  H   UNL     1     140.834 125.008  93.010  0.00  0.00    +0.000 HD
ATOM     36  H   UNL     1     140.974 124.366  94.583  0.00  0.00    +0.000 HD
ENDROOT
TORSDOF 0
ENDMDL
MODEL 5
REMARK VINA RESULT:    -5.261      2.610      4.806
REMARK INTER + INTRA:          -5.261
REMARK INTER:                  -5.261
REMARK INTRA:                   0.000
REMARK UNBOUND:                 0.000
REMARK  Name = /home/vital/Documents/PhD_2021/Malaria_codes/scripts/../data/pdbqt_ligands/ligand_302_temp.pdb
REMARK                            x       y       z     vdW  Elec       q    Type
REMARK                         _______ _______ _______ _____ _____    ______ ____
ROOT
ATOM      1  C1  UNL     1     144.465 132.267  87.531  0.00  0.00    -0.063 C 
ATOM      2  C2  UNL     1     145.715 131.719  88.220  0.00  0.00    -0.047 C 
ATOM      3  C3  UNL     1     146.249 130.498  87.472  0.00  0.00    -0.063 C 
ATOM      4  C4  UNL     1     145.483 131.437  89.716  0.00  0.00    -0.051 C 
ATOM      5  C5  UNL     1     144.450 130.345  90.026  0.00  0.00    -0.051 C 
ATOM      6  C6  UNL     1     144.281 130.166  91.539  0.00  0.00    -0.035 C 
ATOM      7  C7  UNL     1     143.349 129.004  91.920  0.00  0.00    +0.021 C 
ATOM      8  C8  UNL     1     141.910 129.223  91.453  0.00  0.00    -0.047 C 
ATOM      9  N1  UNL     1     143.372 128.828  93.365  0.00  0.00    -0.309 N 
ATOM     10  C9  UNL     1     143.120 127.617  93.975  0.00  0.00    +0.250 C 
ATOM     11  O1  UNL     1     142.975 126.573  93.345  0.00  0.00    -0.270 OA
ATOM     12  C10 UNL     1     143.024 127.678  95.429  0.00  0.00    +0.103 A 
ATOM     13  C11 UNL     1     142.883 126.585  96.278  0.00  0.00    +0.112 A 
ATOM     14  N2  UNL     1     142.835 125.269  95.975  0.00  0.00    -0.344 N 
ATOM     15  N3  UNL     1     142.803 127.046  97.575  0.00  0.00    -0.312 N 
ATOM     16  C12 UNL     1     142.648 126.243  98.777  0.00  0.00    +0.030 C 
ATOM     17  C13 UNL     1     141.209 125.785  99.027  0.00  0.00    -0.010 C 
ATOM     18  C14 UNL     1     140.258 126.908  99.362  0.00  0.00    -0.046 A 
ATOM     19  C15 UNL     1     139.416 127.441  98.377  0.00  0.00    -0.059 A 
ATOM     20  C16 UNL     1     138.552 128.494  98.680  0.00  0.00    -0.062 A 
ATOM     21  C17 UNL     1     138.521 129.024  99.969  0.00  0.00    -0.062 A 
ATOM     22  C18 UNL     1     139.357 128.503 100.955  0.00  0.00    -0.062 A 
ATOM     23  C19 UNL     1     140.223 127.450 100.653  0.00  0.00    -0.059 A 
ATOM     24  C20 UNL     1     142.922 128.413  97.580  0.00  0.00    +0.162 A 
ATOM     25  N4  UNL     1     142.911 129.221  98.659  0.00  0.00    -0.226 NA
ATOM     26  C21 UNL     1     142.998 130.521  98.337  0.00  0.00    +0.092 A 
ATOM     27  C22 UNL     1     142.969 131.455  99.364  0.00  0.00    -0.034 A 
ATOM     28  C23 UNL     1     143.056 132.824  99.110  0.00  0.00    -0.060 A 
ATOM     29  C24 UNL     1     143.177 133.270  97.802  0.00  0.00    -0.060 A 
ATOM     30  C25 UNL     1     143.208 132.344  96.758  0.00  0.00    -0.034 A 
ATOM     31  C26 UNL     1     143.118 130.978  96.995  0.00  0.00    +0.090 A 
ATOM     32  N5  UNL     1     143.150 130.147  95.938  0.00  0.00    -0.241 NA
ATOM     33  C27 UNL     1     143.042 128.828  96.263  0.00  0.00    +0.122 A 
ATOM     34  H   UNL     1     143.577 129.606  93.931  0.00  0.00    +0.000 HD
ATOM     35  H   UNL     1     142.895 124.979  95.036  0.00  0.00    +0.000 HD
ATOM     36  H   UNL     1     142.739 124.601  96.692  0.00  0.00    +0.000 HD
ENDROOT
TORSDOF 0
ENDMDL
MODEL 6
REMARK VINA RESULT:    -5.231      4.416      9.227
REMARK INTER + INTRA:          -5.231
REMARK INTER:                  -5.231
REMARK INTRA:                   0.000
REMARK UNBOUND:                 0.000
REMARK  Name = /home/vital/Documents/PhD_2021/Malaria_codes/scripts/../data/pdbqt_ligands/ligand_302_temp.pdb
REMARK                            x       y       z     vdW  Elec       q    Type
REMARK                         _______ _______ _______ _____ _____    ______ ____
ROOT
ATOM      1  C1  UNL     1     138.215 123.330 108.890  0.00  0.00    -0.063 C 
ATOM      2  C2  UNL     1     138.125 122.437 107.653  0.00  0.00    -0.047 C 
ATOM      3  C3  UNL     1     138.867 121.121 107.886  0.00  0.00    -0.063 C 
ATOM      4  C4  UNL     1     138.594 123.157 106.375  0.00  0.00    -0.051 C 
ATOM      5  C5  UNL     1     140.072 123.569 106.357  0.00  0.00    -0.051 C 
ATOM      6  C6  UNL     1     140.422 124.297 105.055  0.00  0.00    -0.035 C 
ATOM      7  C7  UNL     1     141.916 124.633 104.919  0.00  0.00    +0.021 C 
ATOM      8  C8  UNL     1     142.401 125.616 105.985  0.00  0.00    -0.047 C 
ATOM      9  N1  UNL     1     142.163 125.185 103.595  0.00  0.00    -0.309 N 
ATOM     10  C9  UNL     1     143.382 125.085 102.958  0.00  0.00    +0.250 C 
ATOM     11  O1  UNL     1     144.313 124.421 103.405  0.00  0.00    -0.270 OA
ATOM     12  C10 UNL     1     143.482 125.844 101.717  0.00  0.00    +0.103 A 
ATOM     13  C11 UNL     1     144.562 125.822 100.839  0.00  0.00    +0.112 A 
ATOM     14  N2  UNL     1     145.705 125.105 100.910  0.00  0.00    -0.344 N 
ATOM     15  N3  UNL     1     144.297 126.686  99.798  0.00  0.00    -0.312 N 
ATOM     16  C12 UNL     1     145.157 126.970  98.662  0.00  0.00    +0.030 C 
ATOM     17  C13 UNL     1     146.281 127.960  98.976  0.00  0.00    -0.010 C 
ATOM     18  C14 UNL     1     145.800 129.360  99.272  0.00  0.00    -0.046 A 
ATOM     19  C15 UNL     1     145.680 129.803 100.595  0.00  0.00    -0.059 A 
ATOM     20  C16 UNL     1     145.214 131.090 100.870  0.00  0.00    -0.062 A 
ATOM     21  C17 UNL     1     144.864 131.944  99.826  0.00  0.00    -0.062 A 
ATOM     22  C18 UNL     1     144.976 131.511  98.506  0.00  0.00    -0.062 A 
ATOM     23  C19 UNL     1     145.442 130.225  98.230  0.00  0.00    -0.059 A 
ATOM     24  C20 UNL     1     143.053 127.238  99.971  0.00  0.00    +0.162 A 
ATOM     25  N4  UNL     1     142.436 128.113  99.152  0.00  0.00    -0.226 NA
ATOM     26  C21 UNL     1     141.242 128.511  99.618  0.00  0.00    +0.092 A 
ATOM     27  C22 UNL     1     140.522 129.435  98.874  0.00  0.00    -0.034 A 
ATOM     28  C23 UNL     1     139.272 129.896  99.291  0.00  0.00    -0.060 A 
ATOM     29  C24 UNL     1     138.730 129.422 100.477  0.00  0.00    -0.060 A 
ATOM     30  C25 UNL     1     139.442 128.493 101.237  0.00  0.00    -0.034 A 
ATOM     31  C26 UNL     1     140.689 128.027 100.836  0.00  0.00    +0.090 A 
ATOM     32  N5  UNL     1     141.317 127.136 101.624  0.00  0.00    -0.241 NA
ATOM     33  C27 UNL     1     142.537 126.747 101.161  0.00  0.00    +0.122 A 
ATOM     34  H   UNL     1     141.428 125.651 103.135  0.00  0.00    +0.000 HD
ATOM     35  H   UNL     1     145.859 124.499 101.670  0.00  0.00    +0.000 HD
ATOM     36  H   UNL     1     146.384 125.189 100.202  0.00  0.00    +0.000 HD
ENDROOT
TORSDOF 0
ENDMDL
MODEL 7
REMARK VINA RESULT:    -5.200      2.151      2.534
REMARK INTER + INTRA:          -5.200
REMARK INTER:                  -5.200
REMARK INTRA:                   0.000
REMARK UNBOUND:                 0.000
REMARK  Name = /home/vital/Documents/PhD_2021/Malaria_codes/scripts/../data/pdbqt_ligands/ligand_302_temp.pdb
REMARK                            x       y       z     vdW  Elec       q    Type
REMARK                         _______ _______ _______ _____ _____    ______ ____
ROOT
ATOM      1  C1  UNL     1     141.567 130.936  88.420  0.00  0.00    -0.063 C 
ATOM      2  C2  UNL     1     140.704 131.884  89.254  0.00  0.00    -0.047 C 
ATOM      3  C3  UNL     1     141.046 133.340  88.936  0.00  0.00    -0.063 C 
ATOM      4  C4  UNL     1     140.784 131.578  90.761  0.00  0.00    -0.051 C 
ATOM      5  C5  UNL     1     142.166 131.770  91.398  0.00  0.00    -0.051 C 
ATOM      6  C6  UNL     1     142.137 131.414  92.888  0.00  0.00    -0.035 C 
ATOM      7  C7  UNL     1     143.461 131.699  93.616  0.00  0.00    +0.021 C 
ATOM      8  C8  UNL     1     144.617 130.843  93.097  0.00  0.00    -0.047 C 
ATOM      9  N1  UNL     1     143.282 131.466  95.042  0.00  0.00    -0.309 N 
ATOM     10  C9  UNL     1     144.030 132.110  96.005  0.00  0.00    +0.250 C 
ATOM     11  O1  UNL     1     144.818 133.015  95.739  0.00  0.00    -0.270 OA
ATOM     12  C10 UNL     1     143.821 131.622  97.363  0.00  0.00    +0.103 A 
ATOM     13  C11 UNL     1     144.373 132.174  98.515  0.00  0.00    +0.112 A 
ATOM     14  N2  UNL     1     145.168 133.258  98.646  0.00  0.00    -0.344 N 
ATOM     15  N3  UNL     1     143.965 131.423  99.598  0.00  0.00    -0.312 N 
ATOM     16  C12 UNL     1     144.311 131.646 100.991  0.00  0.00    +0.030 C 
ATOM     17  C13 UNL     1     145.702 131.130 101.368  0.00  0.00    -0.010 C 
ATOM     18  C14 UNL     1     145.831 129.627 101.324  0.00  0.00    -0.046 A 
ATOM     19  C15 UNL     1     146.415 128.998 100.217  0.00  0.00    -0.059 A 
ATOM     20  C16 UNL     1     146.515 127.607 100.165  0.00  0.00    -0.062 A 
ATOM     21  C17 UNL     1     146.031 126.832 101.218  0.00  0.00    -0.062 A 
ATOM     22  C18 UNL     1     145.444 127.447 102.322  0.00  0.00    -0.062 A 
ATOM     23  C19 UNL     1     145.344 128.839 102.375  0.00  0.00    -0.059 A 
ATOM     24  C20 UNL     1     143.136 130.418  99.167  0.00  0.00    +0.162 A 
ATOM     25  N4  UNL     1     142.524 129.492  99.932  0.00  0.00    -0.226 NA
ATOM     26  C21 UNL     1     141.815 128.608  99.213  0.00  0.00    +0.092 A 
ATOM     27  C22 UNL     1     141.161 127.587  99.890  0.00  0.00    -0.034 A 
ATOM     28  C23 UNL     1     140.402 126.631  99.213  0.00  0.00    -0.060 A 
ATOM     29  C24 UNL     1     140.294 126.697  97.832  0.00  0.00    -0.060 A 
ATOM     30  C25 UNL     1     140.946 127.717  97.138  0.00  0.00    -0.034 A 
ATOM     31  C26 UNL     1     141.708 128.674  97.797  0.00  0.00    +0.090 A 
ATOM     32  N5  UNL     1     142.311 129.624  97.059  0.00  0.00    -0.241 NA
ATOM     33  C27 UNL     1     143.047 130.510  97.787  0.00  0.00    +0.122 A 
ATOM     34  H   UNL     1     142.598 130.821  95.331  0.00  0.00    +0.000 HD
ATOM     35  H   UNL     1     145.438 133.769  97.849  0.00  0.00    +0.000 HD
ATOM     36  H   UNL     1     145.478 133.537  99.538  0.00  0.00    +0.000 HD
ENDROOT
TORSDOF 0
ENDMDL
MODEL 8
REMARK VINA RESULT:    -5.145      3.001      3.371
REMARK INTER + INTRA:          -5.145
REMARK INTER:                  -5.145
REMARK INTRA:                   0.000
REMARK UNBOUND:                 0.000
REMARK  Name = /home/vital/Documents/PhD_2021/Malaria_codes/scripts/../data/pdbqt_ligands/ligand_302_temp.pdb
REMARK                            x       y       z     vdW  Elec       q    Type
REMARK                         _______ _______ _______ _____ _____    ______ ____
ROOT
ATOM      1  C1  UNL     1     138.986 123.546  90.657  0.00  0.00    -0.063 C 
ATOM      2  C2  UNL     1     139.783 124.847  90.559  0.00  0.00    -0.047 C 
ATOM      3  C3  UNL     1     141.075 124.628  89.773  0.00  0.00    -0.063 C 
ATOM      4  C4  UNL     1     140.036 125.485  91.938  0.00  0.00    -0.051 C 
ATOM      5  C5  UNL     1     140.903 124.658  92.895  0.00  0.00    -0.051 C 
ATOM      6  C6  UNL     1     141.068 125.373  94.241  0.00  0.00    -0.035 C 
ATOM      7  C7  UNL     1     142.025 124.655  95.206  0.00  0.00    +0.021 C 
ATOM      8  C8  UNL     1     141.516 123.276  95.628  0.00  0.00    -0.047 C 
ATOM      9  N1  UNL     1     142.224 125.484  96.386  0.00  0.00    -0.309 N 
ATOM     10  C9  UNL     1     143.369 125.431  97.153  0.00  0.00    +0.250 C 
ATOM     11  O1  UNL     1     144.354 124.771  96.833  0.00  0.00    -0.270 OA
ATOM     12  C10 UNL     1     143.311 126.212  98.384  0.00  0.00    +0.103 A 
ATOM     13  C11 UNL     1     144.367 126.407  99.269  0.00  0.00    +0.112 A 
ATOM     14  N2  UNL     1     145.641 125.966  99.188  0.00  0.00    -0.344 N 
ATOM     15  N3  UNL     1     143.919 127.176 100.322  0.00  0.00    -0.312 N 
ATOM     16  C12 UNL     1     144.692 127.615 101.471  0.00  0.00    +0.030 C 
ATOM     17  C13 UNL     1     144.857 126.538 102.547  0.00  0.00    -0.010 C 
ATOM     18  C14 UNL     1     143.571 126.169 103.246  0.00  0.00    -0.046 A 
ATOM     19  C15 UNL     1     142.866 125.018 102.872  0.00  0.00    -0.059 A 
ATOM     20  C16 UNL     1     141.667 124.687 103.503  0.00  0.00    -0.062 A 
ATOM     21  C17 UNL     1     141.160 125.504 104.513  0.00  0.00    -0.062 A 
ATOM     22  C18 UNL     1     141.852 126.653 104.891  0.00  0.00    -0.062 A 
ATOM     23  C19 UNL     1     143.053 126.985 104.260  0.00  0.00    -0.059 A 
ATOM     24  C20 UNL     1     142.603 127.508 100.115  0.00  0.00    +0.162 A 
ATOM     25  N4  UNL     1     141.825 128.265 100.913  0.00  0.00    -0.226 NA
ATOM     26  C21 UNL     1     140.564 128.369 100.466  0.00  0.00    +0.092 A 
ATOM     27  C22 UNL     1     139.659 129.103 101.220  0.00  0.00    -0.034 A 
ATOM     28  C23 UNL     1     138.331 129.259 100.821  0.00  0.00    -0.060 A 
ATOM     29  C24 UNL     1     137.899 128.671  99.641  0.00  0.00    -0.060 A 
ATOM     30  C25 UNL     1     138.797 127.929  98.872  0.00  0.00    -0.034 A 
ATOM     31  C26 UNL     1     140.121 127.762  99.258  0.00  0.00    +0.090 A 
ATOM     32  N5  UNL     1     140.925 127.030  98.468  0.00  0.00    -0.241 NA
ATOM     33  C27 UNL     1     142.200 126.907  98.931  0.00  0.00    +0.122 A 
ATOM     34  H   UNL     1     141.511 126.110  96.648  0.00  0.00    +0.000 HD
ATOM     35  H   UNL     1     145.924 125.418  98.420  0.00  0.00    +0.000 HD
ATOM     36  H   UNL     1     146.287 126.193  99.895  0.00  0.00    +0.000 HD
ENDROOT
TORSDOF 0
ENDMDL
MODEL 9
REMARK VINA RESULT:    -5.138      1.377      1.528
REMARK INTER + INTRA:          -5.138
REMARK INTER:                  -5.138
REMARK INTRA:                   0.000
REMARK UNBOUND:                 0.000
REMARK  Name = /home/vital/Documents/PhD_2021/Malaria_codes/scripts/../data/pdbqt_ligands/ligand_302_temp.pdb
REMARK                            x       y       z     vdW  Elec       q    Type
REMARK                         _______ _______ _______ _____ _____    ______ ____
ROOT
ATOM      1  C1  UNL     1     139.878 125.251  89.897  0.00  0.00    -0.063 C 
ATOM      2  C2  UNL     1     140.125 126.759  89.953  0.00  0.00    -0.047 C 
ATOM      3  C3  UNL     1     141.296 127.145  89.051  0.00  0.00    -0.063 C 
ATOM      4  C4  UNL     1     140.302 127.271  91.395  0.00  0.00    -0.051 C 
ATOM      5  C5  UNL     1     141.526 126.724  92.141  0.00  0.00    -0.051 C 
ATOM      6  C6  UNL     1     141.590 127.277  93.569  0.00  0.00    -0.035 C 
ATOM      7  C7  UNL     1     142.859 126.864  94.333  0.00  0.00    +0.021 C 
ATOM      8  C8  UNL     1     142.946 125.355  94.562  0.00  0.00    -0.047 C 
ATOM      9  N1  UNL     1     142.891 127.556  95.614  0.00  0.00    -0.309 N 
ATOM     10  C9  UNL     1     144.064 127.848  96.277  0.00  0.00    +0.250 C 
ATOM     11  O1  UNL     1     145.172 127.655  95.784  0.00  0.00    -0.270 OA
ATOM     12  C10 UNL     1     143.884 128.391  97.619  0.00  0.00    +0.103 A 
ATOM     13  C11 UNL     1     144.900 128.862  98.445  0.00  0.00    +0.112 A 
ATOM     14  N2  UNL     1     146.225 128.952  98.200  0.00  0.00    -0.344 N 
ATOM     15  N3  UNL     1     144.340 129.268  99.638  0.00  0.00    -0.312 N 
ATOM     16  C12 UNL     1     145.041 129.823 100.783  0.00  0.00    +0.030 C 
ATOM     17  C13 UNL     1     145.724 128.767 101.656  0.00  0.00    -0.010 C 
ATOM     18  C14 UNL     1     144.762 127.854 102.378  0.00  0.00    -0.046 A 
ATOM     19  C15 UNL     1     144.484 126.577 101.875  0.00  0.00    -0.059 A 
ATOM     20  C16 UNL     1     143.579 125.741 102.530  0.00  0.00    -0.062 A 
ATOM     21  C17 UNL     1     142.944 126.174 103.693  0.00  0.00    -0.062 A 
ATOM     22  C18 UNL     1     143.211 127.444 104.200  0.00  0.00    -0.062 A 
ATOM     23  C19 UNL     1     144.116 128.281 103.545  0.00  0.00    -0.059 A 
ATOM     24  C20 UNL     1     142.980 129.098  99.583  0.00  0.00    +0.162 A 
ATOM     25  N4  UNL     1     142.088 129.399 100.548  0.00  0.00    -0.226 NA
ATOM     26  C21 UNL     1     140.830 129.071 100.216  0.00  0.00    +0.092 A 
ATOM     27  C22 UNL     1     139.824 129.308 101.143  0.00  0.00    -0.034 A 
ATOM     28  C23 UNL     1     138.491 128.996 100.872  0.00  0.00    -0.060 A 
ATOM     29  C24 UNL     1     138.156 128.436  99.647  0.00  0.00    -0.060 A 
ATOM     30  C25 UNL     1     139.156 128.192  98.705  0.00  0.00    -0.034 A 
ATOM     31  C26 UNL     1     140.488 128.494  98.962  0.00  0.00    +0.090 A 
ATOM     32  N5  UNL     1     141.396 128.224  98.007  0.00  0.00    -0.241 NA
ATOM     33  C27 UNL     1     142.676 128.540  98.351  0.00  0.00    +0.122 A 
ATOM     34  H   UNL     1     142.038 127.826  96.024  0.00  0.00    +0.000 HD
ATOM     35  H   UNL     1     146.588 128.651  97.336  0.00  0.00    +0.000 HD
ATOM     36  H   UNL     1     146.829 129.319  98.887  0.00  0.00    +0.000 HD
ENDROOT
TORSDOF 0
ENDMDL
