MODEL 1
REMARK VINA RESULT:    -4.757      0.000      0.000
REMARK INTER + INTRA:          -4.757
REMARK INTER:                  -4.757
REMARK INTRA:                   0.000
REMARK UNBOUND:                 0.000
REMARK  Name = /home/vital/Documents/PhD_2021/Malaria_codes/scripts/../data/pdbqt_ligands/ligand_0_temp.pdb
REMARK                            x       y       z     vdW  Elec       q    Type
REMARK                         _______ _______ _______ _____ _____    ______ ____
ROOT
ATOM      1  C1  UNL     1     139.376 127.580  96.828  0.00  0.00    -0.040 C 
ATOM      2  C2  UNL     1     139.317 127.756  98.316  0.00  0.00    -0.050 A 
ATOM      3  C3  UNL     1     138.252 128.445  98.909  0.00  0.00    -0.059 A 
ATOM      4  C4  UNL     1     138.219 128.647 100.289  0.00  0.00    -0.061 A 
ATOM      5  C5  UNL     1     139.252 128.163 101.094  0.00  0.00    -0.051 A 
ATOM      6  C6  UNL     1     140.322 127.468 100.517  0.00  0.00    +0.022 A 
ATOM      7  C7  UNL     1     141.457 126.942 101.321  0.00  0.00    +0.186 C 
ATOM      8  O1  UNL     1     142.569 126.823 100.815  0.00  0.00    -0.287 OA
ATOM      9  C8  UNL     1     141.188 126.531 102.727  0.00  0.00    -0.014 C 
ATOM     10  C9  UNL     1     142.215 126.217 103.531  0.00  0.00    -0.051 C 
ATOM     11  C10 UNL     1     142.059 125.768 104.921  0.00  0.00    -0.021 A 
ATOM     12  C11 UNL     1     141.116 126.337 105.789  0.00  0.00    -0.054 A 
ATOM     13  C12 UNL     1     141.014 125.899 107.112  0.00  0.00    -0.058 A 
ATOM     14  C13 UNL     1     141.859 124.897 107.582  0.00  0.00    -0.020 A 
ATOM     15  C14 UNL     1     142.805 124.343 106.729  0.00  0.00    +0.117 A 
ATOM     16  O2  UNL     1     143.618 123.369 107.230  0.00  0.00    -0.507 OA
ATOM     17  C15 UNL     1     142.916 124.772 105.408  0.00  0.00    -0.013 A 
ATOM     18  C16 UNL     1     140.357 127.285  99.128  0.00  0.00    -0.048 A 
ATOM     19  H   UNL     1     143.526 123.096 108.122  0.00  0.00    +0.000 HD
ENDROOT
TORSDOF 0
ENDMDL
MODEL 2
REMARK VINA RESULT:    -4.757      6.458      9.547
REMARK INTER + INTRA:          -4.757
REMARK INTER:                  -4.757
REMARK INTRA:                   0.000
REMARK UNBOUND:                 0.000
REMARK  Name = /home/vital/Documents/PhD_2021/Malaria_codes/scripts/../data/pdbqt_ligands/ligand_0_temp.pdb
REMARK                            x       y       z     vdW  Elec       q    Type
REMARK                         _______ _______ _______ _____ _____    ______ ____
ROOT
ATOM      1  C1  UNL     1     138.133 128.630 100.970  0.00  0.00    -0.040 C 
ATOM      2  C2  UNL     1     139.308 128.875 100.070  0.00  0.00    -0.050 A 
ATOM      3  C3  UNL     1     139.595 127.995  99.020  0.00  0.00    -0.059 A 
ATOM      4  C4  UNL     1     140.713 128.199  98.210  0.00  0.00    -0.061 A 
ATOM      5  C5  UNL     1     141.559 129.285  98.442  0.00  0.00    -0.051 A 
ATOM      6  C6  UNL     1     141.283 130.176  99.485  0.00  0.00    +0.022 A 
ATOM      7  C7  UNL     1     142.155 131.343  99.789  0.00  0.00    +0.186 C 
ATOM      8  O1  UNL     1     142.227 131.778 100.935  0.00  0.00    -0.287 OA
ATOM      9  C8  UNL     1     142.893 131.977  98.662  0.00  0.00    -0.014 C 
ATOM     10  C9  UNL     1     143.816 132.915  98.922  0.00  0.00    -0.051 C 
ATOM     11  C10 UNL     1     144.574 133.627  97.885  0.00  0.00    -0.021 A 
ATOM     12  C11 UNL     1     145.066 132.981  96.743  0.00  0.00    -0.054 A 
ATOM     13  C12 UNL     1     145.805 133.687  95.790  0.00  0.00    -0.058 A 
ATOM     14  C13 UNL     1     146.067 135.042  95.975  0.00  0.00    -0.020 A 
ATOM     15  C14 UNL     1     145.595 135.682  97.114  0.00  0.00    +0.117 A 
ATOM     16  O2  UNL     1     145.878 137.008  97.261  0.00  0.00    -0.507 OA
ATOM     17  C15 UNL     1     144.857 134.987  98.071  0.00  0.00    -0.013 A 
ATOM     18  C16 UNL     1     140.168 129.955 100.306  0.00  0.00    -0.048 A 
ATOM     19  H   UNL     1     146.376 137.455  96.605  0.00  0.00    +0.000 HD
ENDROOT
TORSDOF 0
ENDMDL
MODEL 3
REMARK VINA RESULT:    -4.623      5.118      7.306
REMARK INTER + INTRA:          -4.623
REMARK INTER:                  -4.623
REMARK INTRA:                   0.000
REMARK UNBOUND:                 0.000
REMARK  Name = /home/vital/Documents/PhD_2021/Malaria_codes/scripts/../data/pdbqt_ligands/ligand_0_temp.pdb
REMARK                            x       y       z     vdW  Elec       q    Type
REMARK                         _______ _______ _______ _____ _____    ______ ____
ROOT
ATOM      1  C1  UNL     1     141.272 131.695  99.676  0.00  0.00    -0.040 C 
ATOM      2  C2  UNL     1     140.559 130.382  99.816  0.00  0.00    -0.050 A 
ATOM      3  C3  UNL     1     139.421 130.275 100.624  0.00  0.00    -0.059 A 
ATOM      4  C4  UNL     1     138.783 129.044 100.790  0.00  0.00    -0.061 A 
ATOM      5  C5  UNL     1     139.277 127.906 100.150  0.00  0.00    -0.051 A 
ATOM      6  C6  UNL     1     140.412 127.998  99.336  0.00  0.00    +0.022 A 
ATOM      7  C7  UNL     1     140.993 126.818  98.640  0.00  0.00    +0.186 C 
ATOM      8  O1  UNL     1     142.194 126.779  98.390  0.00  0.00    -0.287 OA
ATOM      9  C8  UNL     1     140.070 125.724  98.230  0.00  0.00    -0.014 C 
ATOM     10  C9  UNL     1     140.577 124.574  97.760  0.00  0.00    -0.051 C 
ATOM     11  C10 UNL     1     139.757 123.447  97.296  0.00  0.00    -0.021 A 
ATOM     12  C11 UNL     1     138.588 123.050  97.961  0.00  0.00    -0.054 A 
ATOM     13  C12 UNL     1     137.848 121.957  97.504  0.00  0.00    -0.058 A 
ATOM     14  C13 UNL     1     138.274 121.245  96.385  0.00  0.00    -0.020 A 
ATOM     15  C14 UNL     1     139.441 121.625  95.735  0.00  0.00    +0.117 A 
ATOM     16  O2  UNL     1     139.827 120.898  94.648  0.00  0.00    -0.507 OA
ATOM     17  C15 UNL     1     140.188 122.714  96.182  0.00  0.00    -0.013 A 
ATOM     18  C16 UNL     1     141.059 129.234  99.188  0.00  0.00    -0.048 A 
ATOM     19  H   UNL     1     139.311 120.169  94.364  0.00  0.00    +0.000 HD
ENDROOT
TORSDOF 0
ENDMDL
MODEL 4
REMARK VINA RESULT:    -4.609      5.525      7.032
REMARK INTER + INTRA:          -4.609
REMARK INTER:                  -4.609
REMARK INTRA:                   0.000
REMARK UNBOUND:                 0.000
REMARK  Name = /home/vital/Documents/PhD_2021/Malaria_codes/scripts/../data/pdbqt_ligands/ligand_0_temp.pdb
REMARK                            x       y       z     vdW  Elec       q    Type
REMARK                         _______ _______ _______ _____ _____    ______ ____
ROOT
ATOM      1  C1  UNL     1     141.625 120.604  95.842  0.00  0.00    -0.040 C 
ATOM      2  C2  UNL     1     140.755 121.544  96.624  0.00  0.00    -0.050 A 
ATOM      3  C3  UNL     1     139.698 121.055  97.400  0.00  0.00    -0.059 A 
ATOM      4  C4  UNL     1     138.861 121.933  98.092  0.00  0.00    -0.061 A 
ATOM      5  C5  UNL     1     139.071 123.310  98.014  0.00  0.00    -0.051 A 
ATOM      6  C6  UNL     1     140.127 123.815  97.245  0.00  0.00    +0.022 A 
ATOM      7  C7  UNL     1     140.392 125.273  97.113  0.00  0.00    +0.186 C 
ATOM      8  O1  UNL     1     140.923 125.714  96.099  0.00  0.00    -0.287 OA
ATOM      9  C8  UNL     1     140.031 126.156  98.257  0.00  0.00    -0.014 C 
ATOM     10  C9  UNL     1     140.094 127.488  98.108  0.00  0.00    -0.051 C 
ATOM     11  C10 UNL     1     139.795 128.446  99.180  0.00  0.00    -0.021 A 
ATOM     12  C11 UNL     1     138.731 128.259 100.074  0.00  0.00    -0.054 A 
ATOM     13  C12 UNL     1     138.462 129.206 101.067  0.00  0.00    -0.058 A 
ATOM     14  C13 UNL     1     139.247 130.352 101.167  0.00  0.00    -0.020 A 
ATOM     15  C14 UNL     1     140.291 130.548 100.272  0.00  0.00    +0.117 A 
ATOM     16  O2  UNL     1     141.031 131.686 100.401  0.00  0.00    -0.507 OA
ATOM     17  C15 UNL     1     140.568 129.611  99.279  0.00  0.00    -0.013 A 
ATOM     18  C16 UNL     1     140.952 122.929  96.538  0.00  0.00    -0.048 A 
ATOM     19  H   UNL     1     140.827 132.303 101.076  0.00  0.00    +0.000 HD
ENDROOT
TORSDOF 0
ENDMDL
MODEL 5
REMARK VINA RESULT:    -4.463      2.407      7.612
REMARK INTER + INTRA:          -4.463
REMARK INTER:                  -4.463
REMARK INTRA:                   0.000
REMARK UNBOUND:                 0.000
REMARK  Name = /home/vital/Documents/PhD_2021/Malaria_codes/scripts/../data/pdbqt_ligands/ligand_0_temp.pdb
REMARK                            x       y       z     vdW  Elec       q    Type
REMARK                         _______ _______ _______ _____ _____    ______ ____
ROOT
ATOM      1  C1  UNL     1     142.124 124.494 108.541  0.00  0.00    -0.040 C 
ATOM      2  C2  UNL     1     141.456 124.781 107.228  0.00  0.00    -0.050 A 
ATOM      3  C3  UNL     1     140.241 124.169 106.900  0.00  0.00    -0.059 A 
ATOM      4  C4  UNL     1     139.642 124.402 105.661  0.00  0.00    -0.061 A 
ATOM      5  C5  UNL     1     140.252 125.250 104.735  0.00  0.00    -0.051 A 
ATOM      6  C6  UNL     1     141.465 125.873 105.050  0.00  0.00    +0.022 A 
ATOM      7  C7  UNL     1     142.169 126.776 104.099  0.00  0.00    +0.186 C 
ATOM      8  O1  UNL     1     143.391 126.885 104.142  0.00  0.00    -0.287 OA
ATOM      9  C8  UNL     1     141.345 127.560 103.139  0.00  0.00    -0.014 C 
ATOM     10  C9  UNL     1     141.950 128.247 102.158  0.00  0.00    -0.051 C 
ATOM     11  C10 UNL     1     141.235 129.078 101.181  0.00  0.00    -0.021 A 
ATOM     12  C11 UNL     1     140.018 128.681 100.609  0.00  0.00    -0.054 A 
ATOM     13  C12 UNL     1     139.380 129.488  99.664  0.00  0.00    -0.058 A 
ATOM     14  C13 UNL     1     139.957 130.694  99.274  0.00  0.00    -0.020 A 
ATOM     15  C14 UNL     1     141.172 131.082  99.825  0.00  0.00    +0.117 A 
ATOM     16  O2  UNL     1     141.706 132.266  99.411  0.00  0.00    -0.507 OA
ATOM     17  C15 UNL     1     141.817 130.285 100.768  0.00  0.00    -0.013 A 
ATOM     18  C16 UNL     1     142.070 125.620 106.289  0.00  0.00    -0.048 A 
ATOM     19  H   UNL     1     141.256 132.787  98.775  0.00  0.00    +0.000 HD
ENDROOT
TORSDOF 0
ENDMDL
MODEL 6
REMARK VINA RESULT:    -4.379      5.482      7.910
REMARK INTER + INTRA:          -4.379
REMARK INTER:                  -4.379
REMARK INTRA:                   0.000
REMARK UNBOUND:                 0.000
REMARK  Name = /home/vital/Documents/PhD_2021/Malaria_codes/scripts/../data/pdbqt_ligands/ligand_0_temp.pdb
REMARK                            x       y       z     vdW  Elec       q    Type
REMARK                         _______ _______ _______ _____ _____    ______ ____
ROOT
ATOM      1  C1  UNL     1     139.217 123.123  97.541  0.00  0.00    -0.040 C 
ATOM      2  C2  UNL     1     140.278 124.184  97.553  0.00  0.00    -0.050 A 
ATOM      3  C3  UNL     1     141.515 123.959  96.938  0.00  0.00    -0.059 A 
ATOM      4  C4  UNL     1     142.518 124.928  96.988  0.00  0.00    -0.061 A 
ATOM      5  C5  UNL     1     142.296 126.134  97.655  0.00  0.00    -0.051 A 
ATOM      6  C6  UNL     1     141.063 126.376  98.272  0.00  0.00    +0.022 A 
ATOM      7  C7  UNL     1     140.773 127.635  99.009  0.00  0.00    +0.186 C 
ATOM      8  O1  UNL     1     139.970 127.636  99.937  0.00  0.00    -0.287 OA
ATOM      9  C8  UNL     1     141.452 128.881  98.559  0.00  0.00    -0.014 C 
ATOM     10  C9  UNL     1     141.351 129.994  99.302  0.00  0.00    -0.051 C 
ATOM     11  C10 UNL     1     141.951 131.282  98.932  0.00  0.00    -0.021 A 
ATOM     12  C11 UNL     1     143.229 131.376  98.364  0.00  0.00    -0.054 A 
ATOM     13  C12 UNL     1     143.777 132.622  98.048  0.00  0.00    -0.058 A 
ATOM     14  C13 UNL     1     143.056 133.786  98.308  0.00  0.00    -0.020 A 
ATOM     15  C14 UNL     1     141.797 133.697  98.887  0.00  0.00    +0.117 A 
ATOM     16  O2  UNL     1     141.128 134.860  99.131  0.00  0.00    -0.507 OA
ATOM     17  C15 UNL     1     141.241 132.460  99.206  0.00  0.00    -0.013 A 
ATOM     18  C16 UNL     1     140.066 125.390  98.234  0.00  0.00    -0.048 A 
ATOM     19  H   UNL     1     141.521 135.682  98.909  0.00  0.00    +0.000 HD
ENDROOT
TORSDOF 0
ENDMDL
MODEL 7
REMARK VINA RESULT:    -4.300      2.525      2.616
REMARK INTER + INTRA:          -4.300
REMARK INTER:                  -4.300
REMARK INTRA:                   0.000
REMARK UNBOUND:                 0.000
REMARK  Name = /home/vital/Documents/PhD_2021/Malaria_codes/scripts/../data/pdbqt_ligands/ligand_0_temp.pdb
REMARK                            x       y       z     vdW  Elec       q    Type
REMARK                         _______ _______ _______ _____ _____    ______ ____
ROOT
ATOM      1  C1  UNL     1     142.347 130.798  98.230  0.00  0.00    -0.040 C 
ATOM      2  C2  UNL     1     141.420 130.170  99.229  0.00  0.00    -0.050 A 
ATOM      3  C3  UNL     1     140.051 130.464  99.210  0.00  0.00    -0.059 A 
ATOM      4  C4  UNL     1     139.196 129.914 100.166  0.00  0.00    -0.061 A 
ATOM      5  C5  UNL     1     139.699 129.064 101.153  0.00  0.00    -0.051 A 
ATOM      6  C6  UNL     1     141.065 128.758 101.182  0.00  0.00    +0.022 A 
ATOM      7  C7  UNL     1     141.661 127.871 102.217  0.00  0.00    +0.186 C 
ATOM      8  O1  UNL     1     142.832 128.018 102.555  0.00  0.00    -0.287 OA
ATOM      9  C8  UNL     1     140.810 126.790 102.787  0.00  0.00    -0.014 C 
ATOM     10  C9  UNL     1     141.254 126.086 103.839  0.00  0.00    -0.051 C 
ATOM     11  C10 UNL     1     140.512 124.978 104.455  0.00  0.00    -0.021 A 
ATOM     12  C11 UNL     1     139.123 125.023 104.644  0.00  0.00    -0.054 A 
ATOM     13  C12 UNL     1     138.455 123.960 105.256  0.00  0.00    -0.058 A 
ATOM     14  C13 UNL     1     139.169 122.847 105.694  0.00  0.00    -0.020 A 
ATOM     15  C14 UNL     1     140.547 122.807 105.523  0.00  0.00    +0.117 A 
ATOM     16  O2  UNL     1     141.209 121.702 105.971  0.00  0.00    -0.507 OA
ATOM     17  C15 UNL     1     141.224 123.862 104.914  0.00  0.00    -0.013 A 
ATOM     18  C16 UNL     1     141.922 129.328 100.230  0.00  0.00    -0.048 A 
ATOM     19  H   UNL     1     140.735 121.004 106.378  0.00  0.00    +0.000 HD
ENDROOT
TORSDOF 0
ENDMDL
MODEL 8
REMARK VINA RESULT:    -4.030      2.932      7.120
REMARK INTER + INTRA:          -4.030
REMARK INTER:                  -4.030
REMARK INTRA:                   0.000
REMARK UNBOUND:                 0.000
REMARK  Name = /home/vital/Documents/PhD_2021/Malaria_codes/scripts/../data/pdbqt_ligands/ligand_0_temp.pdb
REMARK                            x       y       z     vdW  Elec       q    Type
REMARK                         _______ _______ _______ _____ _____    ______ ____
ROOT
ATOM      1  C1  UNL     1     138.637 122.441 108.839  0.00  0.00    -0.040 C 
ATOM      2  C2  UNL     1     138.767 122.987 107.447  0.00  0.00    -0.050 A 
ATOM      3  C3  UNL     1     137.769 122.750 106.495  0.00  0.00    -0.059 A 
ATOM      4  C4  UNL     1     137.911 123.220 105.188  0.00  0.00    -0.061 A 
ATOM      5  C5  UNL     1     139.054 123.931 104.818  0.00  0.00    -0.051 A 
ATOM      6  C6  UNL     1     140.059 124.179 105.760  0.00  0.00    +0.022 A 
ATOM      7  C7  UNL     1     141.305 124.919 105.421  0.00  0.00    +0.186 C 
ATOM      8  O1  UNL     1     142.344 124.689 106.032  0.00  0.00    -0.287 OA
ATOM      9  C8  UNL     1     141.233 125.960 104.359  0.00  0.00    -0.014 C 
ATOM     10  C9  UNL     1     142.365 126.522 103.908  0.00  0.00    -0.051 C 
ATOM     11  C10 UNL     1     142.404 127.579 102.890  0.00  0.00    -0.021 A 
ATOM     12  C11 UNL     1     141.567 127.567 101.766  0.00  0.00    -0.054 A 
ATOM     13  C12 UNL     1     141.651 128.578 100.806  0.00  0.00    -0.058 A 
ATOM     14  C13 UNL     1     142.579 129.606 100.956  0.00  0.00    -0.020 A 
ATOM     15  C14 UNL     1     143.422 129.612 102.060  0.00  0.00    +0.117 A 
ATOM     16  O2  UNL     1     144.321 130.632 102.165  0.00  0.00    -0.507 OA
ATOM     17  C15 UNL     1     143.347 128.608 103.023  0.00  0.00    -0.013 A 
ATOM     18  C16 UNL     1     139.918 123.689 107.066  0.00  0.00    -0.048 A 
ATOM     19  H   UNL     1     144.355 131.297 101.505  0.00  0.00    +0.000 HD
ENDROOT
TORSDOF 0
ENDMDL
MODEL 9
REMARK VINA RESULT:    -4.016      3.109      3.572
REMARK INTER + INTRA:          -4.016
REMARK INTER:                  -4.016
REMARK INTRA:                   0.000
REMARK UNBOUND:                 0.000
REMARK  Name = /home/vital/Documents/PhD_2021/Malaria_codes/scripts/../data/pdbqt_ligands/ligand_0_temp.pdb
REMARK                            x       y       z     vdW  Elec       q    Type
REMARK                         _______ _______ _______ _____ _____    ______ ____
ROOT
ATOM      1  C1  UNL     1     138.358 128.583  99.320  0.00  0.00    -0.040 C 
ATOM      2  C2  UNL     1     139.653 129.019  99.940  0.00  0.00    -0.050 A 
ATOM      3  C3  UNL     1     140.061 130.356  99.868  0.00  0.00    -0.059 A 
ATOM      4  C4  UNL     1     141.286 130.753 100.406  0.00  0.00    -0.061 A 
ATOM      5  C5  UNL     1     142.118 129.817 101.022  0.00  0.00    -0.051 A 
ATOM      6  C6  UNL     1     141.723 128.477 101.106  0.00  0.00    +0.022 A 
ATOM      7  C7  UNL     1     142.573 127.432 101.737  0.00  0.00    +0.186 C 
ATOM      8  O1  UNL     1     142.496 126.266 101.365  0.00  0.00    -0.287 OA
ATOM      9  C8  UNL     1     143.477 127.843 102.848  0.00  0.00    -0.014 C 
ATOM     10  C9  UNL     1     144.379 126.970 103.322  0.00  0.00    -0.051 C 
ATOM     11  C10 UNL     1     145.291 127.260 104.435  0.00  0.00    -0.021 A 
ATOM     12  C11 UNL     1     145.922 128.504 104.580  0.00  0.00    -0.054 A 
ATOM     13  C12 UNL     1     146.804 128.735 105.639  0.00  0.00    -0.058 A 
ATOM     14  C13 UNL     1     147.071 127.722 106.556  0.00  0.00    -0.020 A 
ATOM     15  C14 UNL     1     146.462 126.483 106.405  0.00  0.00    +0.117 A 
ATOM     16  O2  UNL     1     146.756 125.516 107.321  0.00  0.00    -0.507 OA
ATOM     17  C15 UNL     1     145.581 126.241 105.353  0.00  0.00    -0.013 A 
ATOM     18  C16 UNL     1     140.499 128.082 100.547  0.00  0.00    -0.048 A 
ATOM     19  H   UNL     1     147.351 125.699 108.021  0.00  0.00    +0.000 HD
ENDROOT
TORSDOF 0
ENDMDL
