MODEL 1
REMARK VINA RESULT:    -5.232      0.000      0.000
REMARK INTER + INTRA:          -5.232
REMARK INTER:                  -5.232
REMARK INTRA:                   0.000
REMARK UNBOUND:                 0.000
REMARK  Name = /home/vital/Documents/PhD_2021/Malaria_codes/scripts/../data/pdbqt_ligands/ligand_195_temp.pdb
REMARK                            x       y       z     vdW  Elec       q    Type
REMARK                         _______ _______ _______ _____ _____    ______ ____
ROOT
ATOM      1  C1  UNL     1     138.328 122.970 110.129  0.00  0.00    -0.031 C 
ATOM      2  C2  UNL     1     139.497 123.628 109.417  0.00  0.00    +0.087 C 
ATOM      3  O1  UNL     1     139.357 123.381 108.022  0.00  0.00    -0.489 OA
ATOM      4  C3  UNL     1     140.324 123.874 107.182  0.00  0.00    +0.162 A 
ATOM      5  C4  UNL     1     141.424 124.630 107.597  0.00  0.00    -0.016 A 
ATOM      6  C5  UNL     1     142.359 125.092 106.667  0.00  0.00    -0.053 A 
ATOM      7  C6  UNL     1     142.215 124.804 105.304  0.00  0.00    -0.024 A 
ATOM      8  C7  UNL     1     143.227 125.347 104.308  0.00  0.00    +0.046 C 
ATOM      9  C8  UNL     1     143.822 124.239 103.432  0.00  0.00    -0.042 C 
ATOM     10  N1  UNL     1     142.603 126.390 103.505  0.00  0.00    -0.305 N 
ATOM     11  C9  UNL     1     143.359 127.311 102.813  0.00  0.00    +0.245 C 
ATOM     12  O2  UNL     1     144.584 127.302 102.783  0.00  0.00    -0.270 OA
ATOM     13  C10 UNL     1     142.610 128.383 102.102  0.00  0.00    +0.038 A 
ATOM     14  C11 UNL     1     143.249 129.608 101.884  0.00  0.00    -0.048 A 
ATOM     15  C12 UNL     1     142.587 130.639 101.210  0.00  0.00    -0.041 A 
ATOM     16  C13 UNL     1     141.285 130.446 100.740  0.00  0.00    +0.058 A 
ATOM     17 CL1  UNL     1     140.523 131.760  99.917  0.00  0.00    -0.082 Cl
ATOM     18  C14 UNL     1     140.643 129.218 100.938  0.00  0.00    +0.071 A 
ATOM     19  C15 UNL     1     139.314 128.974 100.458  0.00  0.00    +0.101 C 
ATOM     20  N2  UNL     1     138.241 128.735 100.088  0.00  0.00    -0.191 NA
ATOM     21  C16 UNL     1     141.310 128.185 101.618  0.00  0.00    -0.031 A 
ATOM     22  C17 UNL     1     141.104 124.050 104.888  0.00  0.00    -0.011 A 
ATOM     23  C18 UNL     1     140.164 123.579 105.813  0.00  0.00    +0.162 A 
ATOM     24  O3  UNL     1     139.054 122.841 105.483  0.00  0.00    -0.489 OA
ATOM     25  C19 UNL     1     138.926 122.390 104.138  0.00  0.00    +0.087 C 
ATOM     26  C20 UNL     1     137.690 121.514 104.054  0.00  0.00    -0.031 C 
ATOM     27  H   UNL     1     141.621 126.439 103.456  0.00  0.00    +0.000 HD
ENDROOT
TORSDOF 0
ENDMDL
MODEL 2
REMARK VINA RESULT:    -4.811      5.534      7.895
REMARK INTER + INTRA:          -4.811
REMARK INTER:                  -4.811
REMARK INTRA:                   0.000
REMARK UNBOUND:                 0.000
REMARK  Name = /home/vital/Documents/PhD_2021/Malaria_codes/scripts/../data/pdbqt_ligands/ligand_195_temp.pdb
REMARK                            x       y       z     vdW  Elec       q    Type
REMARK                         _______ _______ _______ _____ _____    ______ ____
ROOT
ATOM      1  C1  UNL     1     141.922 121.826  94.905  0.00  0.00    -0.031 C 
ATOM      2  C2  UNL     1     141.219 122.968  95.618  0.00  0.00    +0.087 C 
ATOM      3  O1  UNL     1     142.091 123.454  96.633  0.00  0.00    -0.489 OA
ATOM      4  C3  UNL     1     141.645 124.486  97.422  0.00  0.00    +0.162 A 
ATOM      5  C4  UNL     1     140.406 125.115  97.278  0.00  0.00    -0.016 A 
ATOM      6  C5  UNL     1     140.038 126.161  98.128  0.00  0.00    -0.053 A 
ATOM      7  C6  UNL     1     140.901 126.596  99.142  0.00  0.00    -0.024 A 
ATOM      8  C7  UNL     1     140.492 127.758 100.033  0.00  0.00    +0.046 C 
ATOM      9  C8  UNL     1     140.579 127.401 101.520  0.00  0.00    -0.042 C 
ATOM     10  N1  UNL     1     141.306 128.922  99.712  0.00  0.00    -0.305 N 
ATOM     11  C9  UNL     1     140.911 130.194 100.065  0.00  0.00    +0.245 C 
ATOM     12  O2  UNL     1     139.890 130.439 100.697  0.00  0.00    -0.270 OA
ATOM     13  C10 UNL     1     141.781 131.311  99.604  0.00  0.00    +0.038 A 
ATOM     14  C11 UNL     1     141.201 132.569  99.412  0.00  0.00    -0.048 A 
ATOM     15  C12 UNL     1     141.982 133.649  98.991  0.00  0.00    -0.041 A 
ATOM     16  C13 UNL     1     143.352 133.479  98.770  0.00  0.00    +0.058 A 
ATOM     17 CL1  UNL     1     144.260 134.853  98.250  0.00  0.00    -0.082 Cl
ATOM     18  C14 UNL     1     143.945 132.228  98.975  0.00  0.00    +0.071 A 
ATOM     19  C15 UNL     1     145.349 132.015  98.776  0.00  0.00    +0.101 C 
ATOM     20  N2  UNL     1     146.479 131.798  98.625  0.00  0.00    -0.191 NA
ATOM     21  C16 UNL     1     143.156 131.144  99.397  0.00  0.00    -0.031 A 
ATOM     22  C17 UNL     1     142.150 125.966  99.280  0.00  0.00    -0.011 A 
ATOM     23  C18 UNL     1     142.525 124.914  98.435  0.00  0.00    +0.162 A 
ATOM     24  O3  UNL     1     143.727 124.254  98.506  0.00  0.00    -0.489 OA
ATOM     25  C19 UNL     1     144.587 124.546  99.604  0.00  0.00    +0.087 C 
ATOM     26  C20 UNL     1     145.786 123.619  99.518  0.00  0.00    -0.031 C 
ATOM     27  H   UNL     1     142.157 128.798  99.233  0.00  0.00    +0.000 HD
ENDROOT
TORSDOF 0
ENDMDL
MODEL 3
REMARK VINA RESULT:    -4.688      4.490     10.003
REMARK INTER + INTRA:          -4.688
REMARK INTER:                  -4.688
REMARK INTRA:                   0.000
REMARK UNBOUND:                 0.000
REMARK  Name = /home/vital/Documents/PhD_2021/Malaria_codes/scripts/../data/pdbqt_ligands/ligand_195_temp.pdb
REMARK                            x       y       z     vdW  Elec       q    Type
REMARK                         _______ _______ _______ _____ _____    ______ ____
ROOT
ATOM      1  C1  UNL     1     146.113 134.787  97.143  0.00  0.00    -0.031 C 
ATOM      2  C2  UNL     1     145.025 134.185  98.016  0.00  0.00    +0.087 C 
ATOM      3  O1  UNL     1     144.610 132.961  97.418  0.00  0.00    -0.489 OA
ATOM      4  C3  UNL     1     143.610 132.252  98.036  0.00  0.00    +0.162 A 
ATOM      5  C4  UNL     1     142.992 132.631  99.230  0.00  0.00    -0.016 A 
ATOM      6  C5  UNL     1     141.982 131.842  99.788  0.00  0.00    -0.053 A 
ATOM      7  C6  UNL     1     141.568 130.660  99.161  0.00  0.00    -0.024 A 
ATOM      8  C7  UNL     1     140.491 129.802  99.804  0.00  0.00    +0.046 C 
ATOM      9  C8  UNL     1     139.336 129.510  98.841  0.00  0.00    -0.042 C 
ATOM     10  N1  UNL     1     141.091 128.576 100.313  0.00  0.00    -0.305 N 
ATOM     11  C9  UNL     1     140.457 127.809 101.266  0.00  0.00    +0.245 C 
ATOM     12  O2  UNL     1     139.350 128.067 101.721  0.00  0.00    -0.270 OA
ATOM     13  C10 UNL     1     141.208 126.627 101.772  0.00  0.00    +0.038 A 
ATOM     14  C11 UNL     1     140.928 126.165 103.063  0.00  0.00    -0.048 A 
ATOM     15  C12 UNL     1     141.601 125.052 103.574  0.00  0.00    -0.041 A 
ATOM     16  C13 UNL     1     142.550 124.387 102.793  0.00  0.00    +0.058 A 
ATOM     17 CL1  UNL     1     143.347 123.019 103.485  0.00  0.00    -0.082 Cl
ATOM     18  C14 UNL     1     142.826 124.831 101.495  0.00  0.00    +0.071 A 
ATOM     19  C15 UNL     1     143.780 124.167 100.655  0.00  0.00    +0.101 C 
ATOM     20  N2  UNL     1     144.545 123.662  99.943  0.00  0.00    -0.191 NA
ATOM     21  C16 UNL     1     142.149 125.951 100.984  0.00  0.00    -0.031 A 
ATOM     22  C17 UNL     1     142.198 130.277  97.964  0.00  0.00    -0.011 A 
ATOM     23  C18 UNL     1     143.208 131.064  97.395  0.00  0.00    +0.162 A 
ATOM     24  O3  UNL     1     143.870 130.753  96.234  0.00  0.00    -0.489 OA
ATOM     25  C19 UNL     1     143.399 129.646  95.470  0.00  0.00    +0.087 C 
ATOM     26  C20 UNL     1     144.217 129.578  94.193  0.00  0.00    -0.031 C 
ATOM     27  H   UNL     1     141.967 128.288  99.967  0.00  0.00    +0.000 HD
ENDROOT
TORSDOF 0
ENDMDL
MODEL 4
REMARK VINA RESULT:    -4.683      7.572     12.251
REMARK INTER + INTRA:          -4.683
REMARK INTER:                  -4.683
REMARK INTRA:                   0.000
REMARK UNBOUND:                 0.000
REMARK  Name = /home/vital/Documents/PhD_2021/Malaria_codes/scripts/../data/pdbqt_ligands/ligand_195_temp.pdb
REMARK                            x       y       z     vdW  Elec       q    Type
REMARK                         _______ _______ _______ _____ _____    ______ ____
ROOT
ATOM      1  C1  UNL     1     140.540 130.147  87.803  0.00  0.00    -0.031 C 
ATOM      2  C2  UNL     1     140.319 129.174  88.948  0.00  0.00    +0.087 C 
ATOM      3  O1  UNL     1     141.329 129.408  89.924  0.00  0.00    -0.489 OA
ATOM      4  C3  UNL     1     141.331 128.619  91.048  0.00  0.00    +0.162 A 
ATOM      5  C4  UNL     1     140.390 127.621  91.316  0.00  0.00    -0.016 A 
ATOM      6  C5  UNL     1     140.471 126.869  92.491  0.00  0.00    -0.053 A 
ATOM      7  C6  UNL     1     141.496 127.096  93.418  0.00  0.00    -0.024 A 
ATOM      8  C7  UNL     1     141.543 126.287  94.704  0.00  0.00    +0.046 C 
ATOM      9  C8  UNL     1     142.902 125.609  94.908  0.00  0.00    -0.042 C 
ATOM     10  N1  UNL     1     141.196 127.146  95.828  0.00  0.00    -0.305 N 
ATOM     11  C9  UNL     1     140.781 126.620  97.031  0.00  0.00    +0.245 C 
ATOM     12  O2  UNL     1     140.710 125.419  97.262  0.00  0.00    -0.270 OA
ATOM     13  C10 UNL     1     140.369 127.598  98.076  0.00  0.00    +0.038 A 
ATOM     14  C11 UNL     1     139.442 127.190  99.041  0.00  0.00    -0.048 A 
ATOM     15  C12 UNL     1     139.036 128.071 100.046  0.00  0.00    -0.041 A 
ATOM     16  C13 UNL     1     139.563 129.365 100.099  0.00  0.00    +0.058 A 
ATOM     17 CL1  UNL     1     139.019 130.405 101.366  0.00  0.00    -0.082 Cl
ATOM     18  C14 UNL     1     140.503 129.778  99.148  0.00  0.00    +0.071 A 
ATOM     19  C15 UNL     1     141.080 131.090  99.176  0.00  0.00    +0.101 C 
ATOM     20  N2  UNL     1     141.570 132.142  99.161  0.00  0.00    -0.191 NA
ATOM     21  C16 UNL     1     140.908 128.890  98.138  0.00  0.00    -0.031 A 
ATOM     22  C17 UNL     1     142.436 128.106  93.149  0.00  0.00    -0.011 A 
ATOM     23  C18 UNL     1     142.365 128.863  91.972  0.00  0.00    +0.162 A 
ATOM     24  O3  UNL     1     143.242 129.866  91.643  0.00  0.00    -0.489 OA
ATOM     25  C19 UNL     1     144.390 130.050  92.467  0.00  0.00    +0.087 C 
ATOM     26  C20 UNL     1     145.249 131.131  91.838  0.00  0.00    -0.031 C 
ATOM     27  H   UNL     1     141.261 128.123  95.726  0.00  0.00    +0.000 HD
ENDROOT
TORSDOF 0
ENDMDL
MODEL 5
REMARK VINA RESULT:    -4.569      7.741     12.974
REMARK INTER + INTRA:          -4.569
REMARK INTER:                  -4.569
REMARK INTRA:                   0.000
REMARK UNBOUND:                 0.000
REMARK  Name = /home/vital/Documents/PhD_2021/Malaria_codes/scripts/../data/pdbqt_ligands/ligand_195_temp.pdb
REMARK                            x       y       z     vdW  Elec       q    Type
REMARK                         _______ _______ _______ _____ _____    ______ ____
ROOT
ATOM      1  C1  UNL     1     141.302 134.061  88.778  0.00  0.00    -0.031 C 
ATOM      2  C2  UNL     1     141.293 132.687  89.425  0.00  0.00    +0.087 C 
ATOM      3  O1  UNL     1     142.143 132.734  90.566  0.00  0.00    -0.489 OA
ATOM      4  C3  UNL     1     142.300 131.583  91.298  0.00  0.00    +0.162 A 
ATOM      5  C4  UNL     1     141.656 130.374  91.020  0.00  0.00    -0.016 A 
ATOM      6  C5  UNL     1     141.875 129.253  91.825  0.00  0.00    -0.053 A 
ATOM      7  C6  UNL     1     142.745 129.316  92.921  0.00  0.00    -0.024 A 
ATOM      8  C7  UNL     1     142.941 128.093  93.801  0.00  0.00    +0.046 C 
ATOM      9  C8  UNL     1     144.421 127.724  93.952  0.00  0.00    -0.042 C 
ATOM     10  N1  UNL     1     142.310 128.321  95.094  0.00  0.00    -0.305 N 
ATOM     11  C9  UNL     1     141.989 127.275  95.930  0.00  0.00    +0.245 C 
ATOM     12  O2  UNL     1     142.238 126.102  95.680  0.00  0.00    -0.270 OA
ATOM     13  C10 UNL     1     141.267 127.626  97.184  0.00  0.00    +0.038 A 
ATOM     14  C11 UNL     1     140.436 126.662  97.765  0.00  0.00    -0.048 A 
ATOM     15  C12 UNL     1     139.748 126.945  98.948  0.00  0.00    -0.041 A 
ATOM     16  C13 UNL     1     139.895 128.191  99.564  0.00  0.00    +0.058 A 
ATOM     17 CL1  UNL     1     139.016 128.477 101.023  0.00  0.00    -0.082 Cl
ATOM     18  C14 UNL     1     140.736 129.157  99.000  0.00  0.00    +0.071 A 
ATOM     19  C15 UNL     1     140.928 130.441  99.609  0.00  0.00    +0.101 C 
ATOM     20  N2  UNL     1     141.110 131.492 100.066  0.00  0.00    -0.191 NA
ATOM     21  C16 UNL     1     141.425 128.870  97.809  0.00  0.00    -0.031 A 
ATOM     22  C17 UNL     1     143.385 130.536  93.203  0.00  0.00    -0.011 A 
ATOM     23  C18 UNL     1     143.175 131.665  92.400  0.00  0.00    +0.162 A 
ATOM     24  O3  UNL     1     143.759 132.888  92.614  0.00  0.00    -0.489 OA
ATOM     25  C19 UNL     1     144.764 132.983  93.619  0.00  0.00    +0.087 C 
ATOM     26  C20 UNL     1     145.327 134.392  93.586  0.00  0.00    -0.031 C 
ATOM     27  H   UNL     1     142.109 129.243  95.376  0.00  0.00    +0.000 HD
ENDROOT
TORSDOF 0
ENDMDL
MODEL 6
REMARK VINA RESULT:    -4.510      7.220     10.219
REMARK INTER + INTRA:          -4.510
REMARK INTER:                  -4.510
REMARK INTRA:                   0.000
REMARK UNBOUND:                 0.000
REMARK  Name = /home/vital/Documents/PhD_2021/Malaria_codes/scripts/../data/pdbqt_ligands/ligand_195_temp.pdb
REMARK                            x       y       z     vdW  Elec       q    Type
REMARK                         _______ _______ _______ _____ _____    ______ ____
ROOT
ATOM      1  C1  UNL     1     138.355 128.673 101.065  0.00  0.00    -0.031 C 
ATOM      2  C2  UNL     1     139.266 129.708 100.429  0.00  0.00    +0.087 C 
ATOM      3  O1  UNL     1     140.203 129.020  99.606  0.00  0.00    -0.489 OA
ATOM      4  C3  UNL     1     141.144 129.768  98.943  0.00  0.00    +0.162 A 
ATOM      5  C4  UNL     1     141.228 131.162  98.993  0.00  0.00    -0.016 A 
ATOM      6  C5  UNL     1     142.222 131.839  98.281  0.00  0.00    -0.053 A 
ATOM      7  C6  UNL     1     143.153 131.136  97.507  0.00  0.00    -0.024 A 
ATOM      8  C7  UNL     1     144.203 131.897  96.714  0.00  0.00    +0.046 C 
ATOM      9  C8  UNL     1     145.622 131.407  97.022  0.00  0.00    -0.042 C 
ATOM     10  N1  UNL     1     143.898 131.802  95.293  0.00  0.00    -0.305 N 
ATOM     11  C9  UNL     1     144.428 132.692  94.385  0.00  0.00    +0.245 C 
ATOM     12  O2  UNL     1     145.210 133.586  94.684  0.00  0.00    -0.270 OA
ATOM     13  C10 UNL     1     143.974 132.550  92.974  0.00  0.00    +0.038 A 
ATOM     14  C11 UNL     1     143.988 133.682  92.153  0.00  0.00    -0.048 A 
ATOM     15  C12 UNL     1     143.581 133.592  90.820  0.00  0.00    -0.041 A 
ATOM     16  C13 UNL     1     143.166 132.364  90.295  0.00  0.00    +0.058 A 
ATOM     17 CL1  UNL     1     142.674 132.321  88.640  0.00  0.00    -0.082 Cl
ATOM     18  C14 UNL     1     143.163 131.222  91.103  0.00  0.00    +0.071 A 
ATOM     19  C15 UNL     1     142.761 129.941  90.600  0.00  0.00    +0.101 C 
ATOM     20  N2  UNL     1     142.442 128.887  90.235  0.00  0.00    -0.191 NA
ATOM     21  C16 UNL     1     143.572 131.317  92.444  0.00  0.00    -0.031 A 
ATOM     22  C17 UNL     1     143.061 129.734  97.451  0.00  0.00    -0.011 A 
ATOM     23  C18 UNL     1     142.072 129.046  98.165  0.00  0.00    +0.162 A 
ATOM     24  O3  UNL     1     141.917 127.682  98.158  0.00  0.00    -0.489 OA
ATOM     25  C19 UNL     1     142.916 126.899  97.512  0.00  0.00    +0.087 C 
ATOM     26  C20 UNL     1     142.580 125.436  97.734  0.00  0.00    -0.031 C 
ATOM     27  H   UNL     1     143.302 131.087  94.974  0.00  0.00    +0.000 HD
ENDROOT
TORSDOF 0
ENDMDL
MODEL 7
REMARK VINA RESULT:    -4.498      8.496     11.628
REMARK INTER + INTRA:          -4.498
REMARK INTER:                  -4.498
REMARK INTRA:                   0.000
REMARK UNBOUND:                 0.000
REMARK  Name = /home/vital/Documents/PhD_2021/Malaria_codes/scripts/../data/pdbqt_ligands/ligand_195_temp.pdb
REMARK                            x       y       z     vdW  Elec       q    Type
REMARK                         _______ _______ _______ _____ _____    ______ ____
ROOT
ATOM      1  C1  UNL     1     139.101 129.517  99.058  0.00  0.00    -0.031 C 
ATOM      2  C2  UNL     1     139.989 130.745  99.155  0.00  0.00    +0.087 C 
ATOM      3  O1  UNL     1     141.238 130.434  98.547  0.00  0.00    -0.489 OA
ATOM      4  C3  UNL     1     142.208 131.405  98.540  0.00  0.00    +0.162 A 
ATOM      5  C4  UNL     1     142.046 132.691  99.060  0.00  0.00    -0.016 A 
ATOM      6  C5  UNL     1     143.092 133.616  99.006  0.00  0.00    -0.053 A 
ATOM      7  C6  UNL     1     144.323 133.271  98.433  0.00  0.00    -0.024 A 
ATOM      8  C7  UNL     1     145.434 134.305  98.355  0.00  0.00    +0.046 C 
ATOM      9  C8  UNL     1     146.739 133.794  98.975  0.00  0.00    -0.042 C 
ATOM     10  N1  UNL     1     145.620 134.711  96.969  0.00  0.00    -0.305 N 
ATOM     11  C9  UNL     1     146.262 135.887  96.646  0.00  0.00    +0.245 C 
ATOM     12  O2  UNL     1     146.752 136.645  97.474  0.00  0.00    -0.270 OA
ATOM     13  C10 UNL     1     146.312 136.238  95.200  0.00  0.00    +0.038 A 
ATOM     14  C11 UNL     1     146.406 137.589  94.847  0.00  0.00    -0.048 A 
ATOM     15  C12 UNL     1     146.468 137.964  93.502  0.00  0.00    -0.041 A 
ATOM     16  C13 UNL     1     146.447 136.989  92.501  0.00  0.00    +0.058 A 
ATOM     17 CL1  UNL     1     146.524 137.519  90.859  0.00  0.00    -0.082 Cl
ATOM     18  C14 UNL     1     146.369 135.634  92.844  0.00  0.00    +0.071 A 
ATOM     19  C15 UNL     1     146.361 134.602  91.848  0.00  0.00    +0.101 C 
ATOM     20  N2  UNL     1     146.351 133.736  91.077  0.00  0.00    -0.191 NA
ATOM     21  C16 UNL     1     146.306 135.261  94.197  0.00  0.00    -0.031 A 
ATOM     22  C17 UNL     1     144.481 131.979  97.903  0.00  0.00    -0.011 A 
ATOM     23  C18 UNL     1     143.439 131.044  97.957  0.00  0.00    +0.162 A 
ATOM     24  O3  UNL     1     143.517 129.767  97.458  0.00  0.00    -0.489 OA
ATOM     25  C19 UNL     1     144.784 129.305  96.997  0.00  0.00    +0.087 C 
ATOM     26  C20 UNL     1     144.634 127.847  96.604  0.00  0.00    -0.031 C 
ATOM     27  H   UNL     1     145.281 134.134  96.248  0.00  0.00    +0.000 HD
ENDROOT
TORSDOF 0
ENDMDL
MODEL 8
REMARK VINA RESULT:    -4.462      4.154      8.108
REMARK INTER + INTRA:          -4.462
REMARK INTER:                  -4.462
REMARK INTRA:                   0.000
REMARK UNBOUND:                 0.000
REMARK  Name = /home/vital/Documents/PhD_2021/Malaria_codes/scripts/../data/pdbqt_ligands/ligand_195_temp.pdb
REMARK                            x       y       z     vdW  Elec       q    Type
REMARK                         _______ _______ _______ _____ _____    ______ ____
ROOT
ATOM      1  C1  UNL     1     142.125 125.001  94.673  0.00  0.00    -0.031 C 
ATOM      2  C2  UNL     1     142.782 125.234  96.022  0.00  0.00    +0.087 C 
ATOM      3  O1  UNL     1     141.873 125.974  96.831  0.00  0.00    -0.489 OA
ATOM      4  C3  UNL     1     142.274 126.316  98.098  0.00  0.00    +0.162 A 
ATOM      5  C4  UNL     1     143.501 125.961  98.664  0.00  0.00    -0.016 A 
ATOM      6  C5  UNL     1     143.822 126.352  99.967  0.00  0.00    -0.053 A 
ATOM      7  C6  UNL     1     142.923 127.111 100.728  0.00  0.00    -0.024 A 
ATOM      8  C7  UNL     1     143.280 127.496 102.154  0.00  0.00    +0.046 C 
ATOM      9  C8  UNL     1     143.164 129.006 102.388  0.00  0.00    -0.042 C 
ATOM     10  N1  UNL     1     142.448 126.742 103.082  0.00  0.00    -0.305 N 
ATOM     11  C9  UNL     1     142.804 126.589 104.403  0.00  0.00    +0.245 C 
ATOM     12  O2  UNL     1     143.801 127.095 104.903  0.00  0.00    -0.270 OA
ATOM     13  C10 UNL     1     141.920 125.723 105.232  0.00  0.00    +0.038 A 
ATOM     14  C11 UNL     1     142.475 125.074 106.340  0.00  0.00    -0.048 A 
ATOM     15  C12 UNL     1     141.680 124.261 107.152  0.00  0.00    -0.041 A 
ATOM     16  C13 UNL     1     140.321 124.100 106.867  0.00  0.00    +0.058 A 
ATOM     17 CL1  UNL     1     139.394 123.081 107.909  0.00  0.00    -0.082 Cl
ATOM     18  C14 UNL     1     139.752 124.759 105.771  0.00  0.00    +0.071 A 
ATOM     19  C15 UNL     1     138.360 124.634 105.454  0.00  0.00    +0.101 C 
ATOM     20  N2  UNL     1     137.239 124.560 105.160  0.00  0.00    -0.191 NA
ATOM     21  C16 UNL     1     140.555 125.574 104.955  0.00  0.00    -0.031 A 
ATOM     22  C17 UNL     1     141.686 127.460 100.159  0.00  0.00    -0.011 A 
ATOM     23  C18 UNL     1     141.357 127.075  98.853  0.00  0.00    +0.162 A 
ATOM     24  O3  UNL     1     140.170 127.374  98.232  0.00  0.00    -0.489 OA
ATOM     25  C19 UNL     1     139.275 128.264  98.893  0.00  0.00    +0.087 C 
ATOM     26  C20 UNL     1     138.101 128.520  97.966  0.00  0.00    -0.031 C 
ATOM     27  H   UNL     1     141.613 126.334 102.757  0.00  0.00    +0.000 HD
ENDROOT
TORSDOF 0
ENDMDL
MODEL 9
REMARK VINA RESULT:    -4.406      3.433      8.482
REMARK INTER + INTRA:          -4.406
REMARK INTER:                  -4.406
REMARK INTRA:                   0.000
REMARK UNBOUND:                 0.000
REMARK  Name = /home/vital/Documents/PhD_2021/Malaria_codes/scripts/../data/pdbqt_ligands/ligand_195_temp.pdb
REMARK                            x       y       z     vdW  Elec       q    Type
REMARK                         _______ _______ _______ _____ _____    ______ ____
ROOT
ATOM      1  C1  UNL     1     143.272 131.725 100.505  0.00  0.00    -0.031 C 
ATOM      2  C2  UNL     1     142.557 130.388 100.584  0.00  0.00    +0.087 C 
ATOM      3  O1  UNL     1     143.285 129.553 101.479  0.00  0.00    -0.489 OA
ATOM      4  C3  UNL     1     142.822 128.277 101.687  0.00  0.00    +0.162 A 
ATOM      5  C4  UNL     1     141.666 127.749 101.104  0.00  0.00    -0.016 A 
ATOM      6  C5  UNL     1     141.271 126.437 101.377  0.00  0.00    -0.053 A 
ATOM      7  C6  UNL     1     142.025 125.625 102.234  0.00  0.00    -0.024 A 
ATOM      8  C7  UNL     1     141.556 124.213 102.542  0.00  0.00    +0.046 C 
ATOM      9  C8  UNL     1     142.645 123.172 102.263  0.00  0.00    -0.042 C 
ATOM     10  N1  UNL     1     141.090 124.148 103.920  0.00  0.00    -0.305 N 
ATOM     11  C9  UNL     1     140.264 123.133 104.351  0.00  0.00    +0.245 C 
ATOM     12  O2  UNL     1     139.898 122.205 103.640  0.00  0.00    -0.270 OA
ATOM     13  C10 UNL     1     139.782 123.222 105.757  0.00  0.00    +0.038 A 
ATOM     14  C11 UNL     1     138.564 122.616 106.082  0.00  0.00    -0.048 A 
ATOM     15  C12 UNL     1     138.079 122.665 107.391  0.00  0.00    -0.041 A 
ATOM     16  C13 UNL     1     138.815 123.313 108.388  0.00  0.00    +0.058 A 
ATOM     17 CL1  UNL     1     138.159 123.339 109.985  0.00  0.00    -0.082 Cl
ATOM     18  C14 UNL     1     140.042 123.908 108.077  0.00  0.00    +0.071 A 
ATOM     19  C15 UNL     1     140.836 124.568 109.072  0.00  0.00    +0.101 C 
ATOM     20  N2  UNL     1     141.509 125.113 109.844  0.00  0.00    -0.191 NA
ATOM     21  C16 UNL     1     140.526 123.859 106.758  0.00  0.00    -0.031 A 
ATOM     22  C17 UNL     1     143.183 126.162 102.824  0.00  0.00    -0.011 A 
ATOM     23  C18 UNL     1     143.589 127.475 102.554  0.00  0.00    +0.162 A 
ATOM     24  O3  UNL     1     144.703 128.068 103.094  0.00  0.00    -0.489 OA
ATOM     25  C19 UNL     1     145.592 127.255 103.855  0.00  0.00    +0.087 C 
ATOM     26  C20 UNL     1     146.786 128.106 104.245  0.00  0.00    -0.031 C 
ATOM     27  H   UNL     1     141.371 124.843 104.558  0.00  0.00    +0.000 HD
ENDROOT
TORSDOF 0
ENDMDL
