MODEL 1
REMARK VINA RESULT:    -5.384      0.000      0.000
REMARK INTER + INTRA:          -5.384
REMARK INTER:                  -5.384
REMARK INTRA:                   0.000
REMARK UNBOUND:                 0.000
REMARK  Name = /home/vital/Documents/PhD_2021/Malaria_codes/scripts/../data/pdbqt_ligands/ligand_166_temp.pdb
REMARK                            x       y       z     vdW  Elec       q    Type
REMARK                         _______ _______ _______ _____ _____    ______ ____
ROOT
ATOM      1  N   UNL     1     129.251 133.690  85.161  0.00  0.00    +0.385 N 
ATOM      2  C   UNL     1     128.076 132.816  85.413  0.00  0.00    -0.031 C 
ATOM      3  C   UNL     1     126.765 133.580  85.504  0.00  0.00    -0.057 A 
ATOM      4  C   UNL     1     126.688 134.916  85.937  0.00  0.00    -0.056 A 
ATOM      5  C   UNL     1     125.455 135.569  86.005  0.00  0.00    -0.020 A 
ATOM      6  C   UNL     1     124.292 134.897  85.653  0.00  0.00    +0.117 A 
ATOM      7  O   UNL     1     123.120 135.583  85.740  0.00  0.00    -0.507 OA
ATOM      8  C   UNL     1     124.336 133.575  85.233  0.00  0.00    -0.020 A 
ATOM      9  C   UNL     1     125.568 132.919  85.163  0.00  0.00    -0.056 A 
ATOM     10  C   UNL     1     128.361 131.906  86.594  0.00  0.00    -0.058 A 
ATOM     11  C   UNL     1     128.805 130.589  86.368  0.00  0.00    -0.059 A 
ATOM     12  C   UNL     1     129.113 129.745  87.439  0.00  0.00    -0.048 A 
ATOM     13  C   UNL     1     128.986 130.208  88.745  0.00  0.00    +0.018 A 
ATOM     14 BR   UNL     1     129.403 129.067  90.191  0.00  0.00    -0.050 Br
ATOM     15  C   UNL     1     128.553 131.509  88.991  0.00  0.00    -0.048 A 
ATOM     16  C   UNL     1     128.245 132.355  87.922  0.00  0.00    -0.059 A 
ATOM     17  H   UNL     1     129.056 134.300  84.367  0.00  0.00    +0.000 HD
ATOM     18  H   UNL     1     130.066 133.113  84.954  0.00  0.00    +0.000 HD
ATOM     19  H   UNL     1     129.437 134.257  85.989  0.00  0.00    +0.000 HD
ATOM     20  H   UNL     1     123.119 136.476  86.026  0.00  0.00    +0.000 HD
ENDROOT
TORSDOF 0
ENDMDL
MODEL 2
REMARK VINA RESULT:    -4.701     10.262     11.433
REMARK INTER + INTRA:          -4.701
REMARK INTER:                  -4.701
REMARK INTRA:                   0.000
REMARK UNBOUND:                 0.000
REMARK  Name = /home/vital/Documents/PhD_2021/Malaria_codes/scripts/../data/pdbqt_ligands/ligand_166_temp.pdb
REMARK                            x       y       z     vdW  Elec       q    Type
REMARK                         _______ _______ _______ _____ _____    ______ ____
ROOT
ATOM      1  N   UNL     1     132.368 125.630  86.564  0.00  0.00    +0.385 N 
ATOM      2  C   UNL     1     132.886 124.346  87.103  0.00  0.00    -0.031 C 
ATOM      3  C   UNL     1     131.928 123.671  88.072  0.00  0.00    -0.057 A 
ATOM      4  C   UNL     1     131.008 124.385  88.861  0.00  0.00    -0.056 A 
ATOM      5  C   UNL     1     130.154 123.714  89.739  0.00  0.00    -0.020 A 
ATOM      6  C   UNL     1     130.215 122.330  89.845  0.00  0.00    +0.117 A 
ATOM      7  O   UNL     1     129.359 121.730  90.717  0.00  0.00    -0.507 OA
ATOM      8  C   UNL     1     131.120 121.600  89.088  0.00  0.00    -0.020 A 
ATOM      9  C   UNL     1     131.975 122.269  88.208  0.00  0.00    -0.056 A 
ATOM     10  C   UNL     1     134.292 124.547  87.639  0.00  0.00    -0.058 A 
ATOM     11  C   UNL     1     135.398 124.209  86.837  0.00  0.00    -0.059 A 
ATOM     12  C   UNL     1     136.702 124.423  87.293  0.00  0.00    -0.048 A 
ATOM     13  C   UNL     1     136.915 124.980  88.550  0.00  0.00    +0.018 A 
ATOM     14 BR   UNL     1     138.677 125.269  89.164  0.00  0.00    -0.050 Br
ATOM     15  C   UNL     1     135.834 125.325  89.358  0.00  0.00    -0.048 A 
ATOM     16  C   UNL     1     134.529 125.114  88.905  0.00  0.00    -0.059 A 
ATOM     17  H   UNL     1     131.424 125.492  86.204  0.00  0.00    +0.000 HD
ATOM     18  H   UNL     1     132.975 125.951  85.809  0.00  0.00    +0.000 HD
ATOM     19  H   UNL     1     132.351 126.329  87.307  0.00  0.00    +0.000 HD
ATOM     20  H   UNL     1     128.758 122.248  91.215  0.00  0.00    +0.000 HD
ENDROOT
TORSDOF 0
ENDMDL
MODEL 3
REMARK VINA RESULT:    -4.582     18.721     19.879
REMARK INTER + INTRA:          -4.582
REMARK INTER:                  -4.582
REMARK INTRA:                   0.000
REMARK UNBOUND:                 0.000
REMARK  Name = /home/vital/Documents/PhD_2021/Malaria_codes/scripts/../data/pdbqt_ligands/ligand_166_temp.pdb
REMARK                            x       y       z     vdW  Elec       q    Type
REMARK                         _______ _______ _______ _____ _____    ______ ____
ROOT
ATOM      1  N   UNL     1     140.034 130.709 101.329  0.00  0.00    +0.385 N 
ATOM      2  C   UNL     1     141.366 130.416 100.738  0.00  0.00    -0.031 C 
ATOM      3  C   UNL     1     141.973 131.601 100.005  0.00  0.00    -0.057 A 
ATOM      4  C   UNL     1     141.196 132.602  99.395  0.00  0.00    -0.056 A 
ATOM      5  C   UNL     1     141.807 133.668  98.730  0.00  0.00    -0.020 A 
ATOM      6  C   UNL     1     143.192 133.740  98.659  0.00  0.00    +0.117 A 
ATOM      7  O   UNL     1     143.731 134.800  97.997  0.00  0.00    -0.507 OA
ATOM      8  C   UNL     1     143.984 132.761  99.241  0.00  0.00    -0.020 A 
ATOM      9  C   UNL     1     143.376 131.694  99.908  0.00  0.00    -0.056 A 
ATOM     10  C   UNL     1     141.293 129.137  99.924  0.00  0.00    -0.058 A 
ATOM     11  C   UNL     1     141.711 127.921 100.497  0.00  0.00    -0.059 A 
ATOM     12  C   UNL     1     141.615 126.724  99.780  0.00  0.00    -0.048 A 
ATOM     13  C   UNL     1     141.099 126.728  98.489  0.00  0.00    +0.018 A 
ATOM     14 BR   UNL     1     140.970 125.110  97.523  0.00  0.00    -0.050 Br
ATOM     15  C   UNL     1     140.676 127.919  97.905  0.00  0.00    -0.048 A 
ATOM     16  C   UNL     1     140.769 129.118  98.618  0.00  0.00    -0.059 A 
ATOM     17  H   UNL     1     140.087 131.568 101.875  0.00  0.00    +0.000 HD
ATOM     18  H   UNL     1     139.753 129.937 101.934  0.00  0.00    +0.000 HD
ATOM     19  H   UNL     1     139.349 130.821 100.582  0.00  0.00    +0.000 HD
ATOM     20  H   UNL     1     143.172 135.447  97.614  0.00  0.00    +0.000 HD
ENDROOT
TORSDOF 0
ENDMDL
MODEL 4
REMARK VINA RESULT:    -4.500     18.519     19.973
REMARK INTER + INTRA:          -4.500
REMARK INTER:                  -4.500
REMARK INTRA:                   0.000
REMARK UNBOUND:                 0.000
REMARK  Name = /home/vital/Documents/PhD_2021/Malaria_codes/scripts/../data/pdbqt_ligands/ligand_166_temp.pdb
REMARK                            x       y       z     vdW  Elec       q    Type
REMARK                         _______ _______ _______ _____ _____    ______ ____
ROOT
ATOM      1  N   UNL     1     141.075 128.594 102.021  0.00  0.00    +0.385 N 
ATOM      2  C   UNL     1     140.505 128.860 100.675  0.00  0.00    -0.031 C 
ATOM      3  C   UNL     1     140.384 127.611  99.816  0.00  0.00    -0.057 A 
ATOM      4  C   UNL     1     141.238 126.502  99.955  0.00  0.00    -0.056 A 
ATOM      5  C   UNL     1     141.085 125.381  99.135  0.00  0.00    -0.020 A 
ATOM      6  C   UNL     1     140.089 125.360  98.167  0.00  0.00    +0.117 A 
ATOM      7  O   UNL     1     139.987 124.242  97.397  0.00  0.00    -0.507 OA
ATOM      8  C   UNL     1     139.240 126.444  97.999  0.00  0.00    -0.020 A 
ATOM      9  C   UNL     1     139.390 127.566  98.818  0.00  0.00    -0.056 A 
ATOM     10  C   UNL     1     141.252 130.008 100.021  0.00  0.00    -0.058 A 
ATOM     11  C   UNL     1     140.718 131.309 100.077  0.00  0.00    -0.059 A 
ATOM     12  C   UNL     1     141.407 132.389  99.518  0.00  0.00    -0.048 A 
ATOM     13  C   UNL     1     142.638 132.182  98.902  0.00  0.00    +0.018 A 
ATOM     14 BR   UNL     1     143.568 133.642  98.149  0.00  0.00    -0.050 Br
ATOM     15  C   UNL     1     143.186 130.904  98.840  0.00  0.00    -0.048 A 
ATOM     16  C   UNL     1     142.500 129.822  99.398  0.00  0.00    -0.059 A 
ATOM     17  H   UNL     1     140.570 127.823 102.458  0.00  0.00    +0.000 HD
ATOM     18  H   UNL     1     140.984 129.430 102.600  0.00  0.00    +0.000 HD
ATOM     19  H   UNL     1     142.061 128.349 101.931  0.00  0.00    +0.000 HD
ATOM     20  H   UNL     1     140.574 123.524  97.533  0.00  0.00    +0.000 HD
ENDROOT
TORSDOF 0
ENDMDL
MODEL 5
REMARK VINA RESULT:    -4.326     18.717     19.595
REMARK INTER + INTRA:          -4.326
REMARK INTER:                  -4.326
REMARK INTRA:                   0.000
REMARK UNBOUND:                 0.000
REMARK  Name = /home/vital/Documents/PhD_2021/Malaria_codes/scripts/../data/pdbqt_ligands/ligand_166_temp.pdb
REMARK                            x       y       z     vdW  Elec       q    Type
REMARK                         _______ _______ _______ _____ _____    ______ ____
ROOT
ATOM      1  N   UNL     1     138.411 128.622  98.696  0.00  0.00    +0.385 N 
ATOM      2  C   UNL     1     139.617 127.962  99.261  0.00  0.00    -0.031 C 
ATOM      3  C   UNL     1     140.563 128.928  99.954  0.00  0.00    -0.057 A 
ATOM      4  C   UNL     1     140.672 130.284  99.593  0.00  0.00    -0.056 A 
ATOM      5  C   UNL     1     141.562 131.127 100.262  0.00  0.00    -0.020 A 
ATOM      6  C   UNL     1     142.356 130.627 101.286  0.00  0.00    +0.117 A 
ATOM      7  O   UNL     1     143.206 131.495 101.901  0.00  0.00    -0.507 OA
ATOM      8  C   UNL     1     142.279 129.293 101.656  0.00  0.00    -0.020 A 
ATOM      9  C   UNL     1     141.389 128.446 100.990  0.00  0.00    -0.056 A 
ATOM     10  C   UNL     1     140.266 127.091  98.201  0.00  0.00    -0.058 A 
ATOM     11  C   UNL     1     139.997 125.709  98.174  0.00  0.00    -0.059 A 
ATOM     12  C   UNL     1     140.551 124.894  97.183  0.00  0.00    -0.048 A 
ATOM     13  C   UNL     1     141.373 125.449  96.207  0.00  0.00    +0.018 A 
ATOM     14 BR   UNL     1     142.120 124.345  94.868  0.00  0.00    -0.050 Br
ATOM     15  C   UNL     1     141.648 126.814  96.213  0.00  0.00    -0.048 A 
ATOM     16  C   UNL     1     141.096 127.633  97.202  0.00  0.00    -0.059 A 
ATOM     17  H   UNL     1     137.978 129.207  99.411  0.00  0.00    +0.000 HD
ATOM     18  H   UNL     1     137.747 127.912  98.388  0.00  0.00    +0.000 HD
ATOM     19  H   UNL     1     138.682 129.201  97.901  0.00  0.00    +0.000 HD
ATOM     20  H   UNL     1     143.237 132.391 101.631  0.00  0.00    +0.000 HD
ENDROOT
TORSDOF 0
ENDMDL
MODEL 6
REMARK VINA RESULT:    -4.219     10.444     11.626
REMARK INTER + INTRA:          -4.219
REMARK INTER:                  -4.219
REMARK INTRA:                   0.000
REMARK UNBOUND:                 0.000
REMARK  Name = /home/vital/Documents/PhD_2021/Malaria_codes/scripts/../data/pdbqt_ligands/ligand_166_temp.pdb
REMARK                            x       y       z     vdW  Elec       q    Type
REMARK                         _______ _______ _______ _____ _____    ______ ____
ROOT
ATOM      1  N   UNL     1     132.114 125.722  86.285  0.00  0.00    +0.385 N 
ATOM      2  C   UNL     1     132.427 124.283  86.487  0.00  0.00    -0.031 C 
ATOM      3  C   UNL     1     131.754 123.687  87.713  0.00  0.00    -0.057 A 
ATOM      4  C   UNL     1     131.424 124.448  88.849  0.00  0.00    -0.056 A 
ATOM      5  C   UNL     1     130.810 123.848  89.951  0.00  0.00    -0.020 A 
ATOM      6  C   UNL     1     130.529 122.488  89.934  0.00  0.00    +0.117 A 
ATOM      7  O   UNL     1     129.931 121.958  91.036  0.00  0.00    -0.507 OA
ATOM      8  C   UNL     1     130.854 121.710  88.833  0.00  0.00    -0.020 A 
ATOM      9  C   UNL     1     131.467 122.308  87.728  0.00  0.00    -0.056 A 
ATOM     10  C   UNL     1     133.929 124.073  86.424  0.00  0.00    -0.058 A 
ATOM     11  C   UNL     1     134.522 123.634  85.225  0.00  0.00    -0.059 A 
ATOM     12  C   UNL     1     135.907 123.473  85.131  0.00  0.00    -0.048 A 
ATOM     13  C   UNL     1     136.714 123.751  86.230  0.00  0.00    +0.018 A 
ATOM     14 BR   UNL     1     138.586 123.533  86.100  0.00  0.00    -0.050 Br
ATOM     15  C   UNL     1     136.149 124.190  87.424  0.00  0.00    -0.048 A 
ATOM     16  C   UNL     1     134.764 124.354  87.521  0.00  0.00    -0.059 A 
ATOM     17  H   UNL     1     131.105 125.859  86.327  0.00  0.00    +0.000 HD
ATOM     18  H   UNL     1     132.460 126.020  85.372  0.00  0.00    +0.000 HD
ATOM     19  H   UNL     1     132.565 126.273  87.015  0.00  0.00    +0.000 HD
ATOM     20  H   UNL     1     129.722 122.507  91.766  0.00  0.00    +0.000 HD
ENDROOT
TORSDOF 0
ENDMDL
MODEL 7
REMARK VINA RESULT:    -4.121     10.256     12.354
REMARK INTER + INTRA:          -4.121
REMARK INTER:                  -4.121
REMARK INTRA:                   0.000
REMARK UNBOUND:                 0.000
REMARK  Name = /home/vital/Documents/PhD_2021/Malaria_codes/scripts/../data/pdbqt_ligands/ligand_166_temp.pdb
REMARK                            x       y       z     vdW  Elec       q    Type
REMARK                         _______ _______ _______ _____ _____    ______ ____
ROOT
ATOM      1  N   UNL     1     131.659 121.579  85.221  0.00  0.00    +0.385 N 
ATOM      2  C   UNL     1     132.401 121.512  86.507  0.00  0.00    -0.031 C 
ATOM      3  C   UNL     1     131.813 122.403  87.589  0.00  0.00    -0.057 A 
ATOM      4  C   UNL     1     131.108 123.586  87.305  0.00  0.00    -0.056 A 
ATOM      5  C   UNL     1     130.592 124.370  88.339  0.00  0.00    -0.020 A 
ATOM      6  C   UNL     1     130.781 123.988  89.661  0.00  0.00    +0.117 A 
ATOM      7  O   UNL     1     130.257 124.791  90.627  0.00  0.00    -0.507 OA
ATOM      8  C   UNL     1     131.483 122.833  89.972  0.00  0.00    -0.020 A 
ATOM      9  C   UNL     1     132.000 122.045  88.940  0.00  0.00    -0.056 A 
ATOM     10  C   UNL     1     133.883 121.719  86.252  0.00  0.00    -0.058 A 
ATOM     11  C   UNL     1     134.736 120.604  86.147  0.00  0.00    -0.059 A 
ATOM     12  C   UNL     1     136.096 120.769  85.872  0.00  0.00    -0.048 A 
ATOM     13  C   UNL     1     136.618 122.046  85.694  0.00  0.00    +0.018 A 
ATOM     14 BR   UNL     1     138.457 122.267  85.322  0.00  0.00    -0.050 Br
ATOM     15  C   UNL     1     135.792 123.163  85.789  0.00  0.00    -0.048 A 
ATOM     16  C   UNL     1     134.431 123.002  86.063  0.00  0.00    -0.059 A 
ATOM     17  H   UNL     1     130.663 121.438  85.396  0.00  0.00    +0.000 HD
ATOM     18  H   UNL     1     131.999 120.851  84.593  0.00  0.00    +0.000 HD
ATOM     19  H   UNL     1     131.804 122.493  84.792  0.00  0.00    +0.000 HD
ATOM     20  H   UNL     1     129.787 125.566  90.389  0.00  0.00    +0.000 HD
ENDROOT
TORSDOF 0
ENDMDL
MODEL 8
REMARK VINA RESULT:    -4.116     19.172     21.617
REMARK INTER + INTRA:          -4.116
REMARK INTER:                  -4.116
REMARK INTRA:                   0.000
REMARK UNBOUND:                 0.000
REMARK  Name = /home/vital/Documents/PhD_2021/Malaria_codes/scripts/../data/pdbqt_ligands/ligand_166_temp.pdb
REMARK                            x       y       z     vdW  Elec       q    Type
REMARK                         _______ _______ _______ _____ _____    ______ ____
ROOT
ATOM      1  N   UNL     1     143.244 130.504 102.191  0.00  0.00    +0.385 N 
ATOM      2  C   UNL     1     142.992 129.196 101.534  0.00  0.00    -0.031 C 
ATOM      3  C   UNL     1     141.770 129.202 100.630  0.00  0.00    -0.057 A 
ATOM      4  C   UNL     1     140.666 130.047 100.843  0.00  0.00    -0.056 A 
ATOM      5  C   UNL     1     139.566 130.008  99.984  0.00  0.00    -0.020 A 
ATOM      6  C   UNL     1     139.552 129.123  98.913  0.00  0.00    +0.117 A 
ATOM      7  O   UNL     1     138.453 129.128  98.109  0.00  0.00    -0.507 OA
ATOM      8  C   UNL     1     140.621 128.270  98.685  0.00  0.00    -0.020 A 
ATOM      9  C   UNL     1     141.724 128.307  99.542  0.00  0.00    -0.056 A 
ATOM     10  C   UNL     1     143.006 128.090 102.574  0.00  0.00    -0.058 A 
ATOM     11  C   UNL     1     144.174 127.330 102.768  0.00  0.00    -0.059 A 
ATOM     12  C   UNL     1     144.223 126.334 103.747  0.00  0.00    -0.048 A 
ATOM     13  C   UNL     1     143.110 126.091 104.545  0.00  0.00    +0.018 A 
ATOM     14 BR   UNL     1     143.179 124.745 105.869  0.00  0.00    -0.050 Br
ATOM     15  C   UNL     1     141.946 126.834 104.373  0.00  0.00    -0.048 A 
ATOM     16  C   UNL     1     141.893 127.832 103.395  0.00  0.00    -0.059 A 
ATOM     17  H   UNL     1     143.235 131.245 101.490  0.00  0.00    +0.000 HD
ATOM     18  H   UNL     1     144.154 130.484 102.652  0.00  0.00    +0.000 HD
ATOM     19  H   UNL     1     142.517 130.682 102.884  0.00  0.00    +0.000 HD
ATOM     20  H   UNL     1     137.746 129.716  98.287  0.00  0.00    +0.000 HD
ENDROOT
TORSDOF 0
ENDMDL
MODEL 9
REMARK VINA RESULT:    -3.859     11.534     12.632
REMARK INTER + INTRA:          -3.859
REMARK INTER:                  -3.859
REMARK INTRA:                   0.000
REMARK UNBOUND:                 0.000
REMARK  Name = /home/vital/Documents/PhD_2021/Malaria_codes/scripts/../data/pdbqt_ligands/ligand_166_temp.pdb
REMARK                            x       y       z     vdW  Elec       q    Type
REMARK                         _______ _______ _______ _____ _____    ______ ____
ROOT
ATOM      1  N   UNL     1     132.565 121.670  85.142  0.00  0.00    +0.385 N 
ATOM      2  C   UNL     1     133.380 121.675  86.385  0.00  0.00    -0.031 C 
ATOM      3  C   UNL     1     132.553 121.863  87.647  0.00  0.00    -0.057 A 
ATOM      4  C   UNL     1     131.334 122.566  87.664  0.00  0.00    -0.056 A 
ATOM      5  C   UNL     1     130.617 122.713  88.853  0.00  0.00    -0.020 A 
ATOM      6  C   UNL     1     131.110 122.171  90.033  0.00  0.00    +0.117 A 
ATOM      7  O   UNL     1     130.368 122.346  91.161  0.00  0.00    -0.507 OA
ATOM      8  C   UNL     1     132.314 121.483  90.049  0.00  0.00    -0.020 A 
ATOM      9  C   UNL     1     133.034 121.333  88.861  0.00  0.00    -0.056 A 
ATOM     10  C   UNL     1     134.536 122.647  86.234  0.00  0.00    -0.058 A 
ATOM     11  C   UNL     1     135.806 122.168  85.864  0.00  0.00    -0.059 A 
ATOM     12  C   UNL     1     136.876 123.049  85.680  0.00  0.00    -0.048 A 
ATOM     13  C   UNL     1     136.687 124.416  85.858  0.00  0.00    +0.018 A 
ATOM     14 BR   UNL     1     138.133 125.604  85.607  0.00  0.00    -0.050 Br
ATOM     15  C   UNL     1     135.437 124.911  86.220  0.00  0.00    -0.048 A 
ATOM     16  C   UNL     1     134.365 124.034  86.404  0.00  0.00    -0.059 A 
ATOM     17  H   UNL     1     131.790 121.016  85.247  0.00  0.00    +0.000 HD
ATOM     18  H   UNL     1     133.147 121.385  84.355  0.00  0.00    +0.000 HD
ATOM     19  H   UNL     1     132.199 122.607  84.972  0.00  0.00    +0.000 HD
ATOM     20  H   UNL     1     129.558 122.815  91.122  0.00  0.00    +0.000 HD
ENDROOT
TORSDOF 0
ENDMDL
