MODEL 1
REMARK VINA RESULT:    -5.985      0.000      0.000
REMARK INTER + INTRA:          -5.985
REMARK INTER:                  -5.985
REMARK INTRA:                   0.000
REMARK UNBOUND:                 0.000
REMARK  Name = /home/vital/Documents/PhD_2021/Malaria_codes/scripts/../data/pdbqt_ligands/ligand_229_temp.pdb
REMARK                            x       y       z     vdW  Elec       q    Type
REMARK                         _______ _______ _______ _____ _____    ______ ____
ROOT
ATOM      1  C1  UNL     1     133.497 130.754  85.158  0.00  0.00    +0.079 C 
ATOM      2  O1  UNL     1     132.234 131.391  85.306  0.00  0.00    -0.495 OA
ATOM      3  C2  UNL     1     131.179 130.598  85.670  0.00  0.00    +0.125 A 
ATOM      4  C3  UNL     1     129.963 131.276  85.820  0.00  0.00    +0.002 A 
ATOM      5  C4  UNL     1     128.792 130.607  86.191  0.00  0.00    +0.040 A 
ATOM      6  N1  UNL     1     127.548 131.234  86.339  0.00  0.00    -0.283 N 
ATOM      7  C5  UNL     1     127.094 132.541  86.179  0.00  0.00    +0.222 A 
ATOM      8  N2  UNL     1     127.892 133.520  85.741  0.00  0.00    -0.199 NA
ATOM      9  C6  UNL     1     127.364 134.741  85.607  0.00  0.00    +0.129 A 
ATOM     10  N3  UNL     1     128.251 135.720  85.139  0.00  0.00    -0.343 N 
ATOM     11  C7  UNL     1     126.037 135.040  85.919  0.00  0.00    +0.040 A 
ATOM     12  C8  UNL     1     125.442 136.323  85.823  0.00  0.00    -0.049 A 
ATOM     13  C9  UNL     1     124.103 136.508  86.155  0.00  0.00    -0.061 A 
ATOM     14  C10 UNL     1     123.352 135.421  86.585  0.00  0.00    -0.060 A 
ATOM     15  C11 UNL     1     123.949 134.161  86.684  0.00  0.00    -0.036 A 
ATOM     16  C12 UNL     1     125.285 133.950  86.361  0.00  0.00    +0.078 A 
ATOM     17  N4  UNL     1     125.800 132.721  86.484  0.00  0.00    -0.214 NA
ATOM     18  C13 UNL     1     128.869 129.219  86.400  0.00  0.00    +0.002 A 
ATOM     19  C14 UNL     1     130.075 128.527  86.254  0.00  0.00    +0.125 A 
ATOM     20  O2  UNL     1     130.258 127.183  86.436  0.00  0.00    -0.495 OA
ATOM     21  C15 UNL     1     129.120 126.419  86.814  0.00  0.00    +0.079 C 
ATOM     22  C16 UNL     1     131.228 129.224  85.888  0.00  0.00    +0.022 A 
ATOM     23  H   UNL     1     126.837 130.612  86.618  0.00  0.00    +0.000 HD
ATOM     24  H   UNL     1     129.181 135.480  84.927  0.00  0.00    +0.000 HD
ATOM     25  H   UNL     1     127.943 136.648  85.022  0.00  0.00    +0.000 HD
ENDROOT
TORSDOF 0
ENDMDL
MODEL 2
REMARK VINA RESULT:    -5.199     18.944     20.185
REMARK INTER + INTRA:          -5.199
REMARK INTER:                  -5.199
REMARK INTRA:                   0.000
REMARK UNBOUND:                 0.000
REMARK  Name = /home/vital/Documents/PhD_2021/Malaria_codes/scripts/../data/pdbqt_ligands/ligand_229_temp.pdb
REMARK                            x       y       z     vdW  Elec       q    Type
REMARK                         _______ _______ _______ _____ _____    ______ ____
ROOT
ATOM      1  C1  UNL     1     146.883 133.267  94.475  0.00  0.00    +0.079 C 
ATOM      2  O1  UNL     1     145.878 132.711  95.313  0.00  0.00    -0.495 OA
ATOM      3  C2  UNL     1     145.422 133.496  96.338  0.00  0.00    +0.125 A 
ATOM      4  C3  UNL     1     144.421 132.911  97.123  0.00  0.00    +0.002 A 
ATOM      5  C4  UNL     1     143.850 133.586  98.207  0.00  0.00    +0.040 A 
ATOM      6  N1  UNL     1     142.859 133.041  99.032  0.00  0.00    -0.283 N 
ATOM      7  C5  UNL     1     142.198 131.815  99.077  0.00  0.00    +0.222 A 
ATOM      8  N2  UNL     1     142.504 130.815  98.245  0.00  0.00    -0.199 NA
ATOM      9  C6  UNL     1     141.823 129.670  98.371  0.00  0.00    +0.129 A 
ATOM     10  N3  UNL     1     142.195 128.660  97.473  0.00  0.00    -0.343 N 
ATOM     11  C7  UNL     1     140.806 129.483  99.308  0.00  0.00    +0.040 A 
ATOM     12  C8  UNL     1     140.038 128.301  99.457  0.00  0.00    -0.049 A 
ATOM     13  C9  UNL     1     139.049 128.219 100.434  0.00  0.00    -0.061 A 
ATOM     14  C10 UNL     1     138.819 129.311 101.262  0.00  0.00    -0.060 A 
ATOM     15  C11 UNL     1     139.576 130.475 101.102  0.00  0.00    -0.036 A 
ATOM     16  C12 UNL     1     140.568 130.583 100.134  0.00  0.00    +0.078 A 
ATOM     17  N4  UNL     1     141.254 131.727 100.026  0.00  0.00    -0.214 NA
ATOM     18  C13 UNL     1     144.323 134.878  98.496  0.00  0.00    +0.002 A 
ATOM     19  C14 UNL     1     145.323 135.476  97.724  0.00  0.00    +0.125 A 
ATOM     20  O2  UNL     1     145.850 136.725  97.918  0.00  0.00    -0.495 OA
ATOM     21  C15 UNL     1     145.331 137.486  99.000  0.00  0.00    +0.079 C 
ATOM     22  C16 UNL     1     145.869 134.779  96.644  0.00  0.00    +0.022 A 
ATOM     23  H   UNL     1     142.564 133.661  99.738  0.00  0.00    +0.000 HD
ATOM     24  H   UNL     1     142.916 128.821  96.823  0.00  0.00    +0.000 HD
ATOM     25  H   UNL     1     141.736 127.790  97.493  0.00  0.00    +0.000 HD
ENDROOT
TORSDOF 0
ENDMDL
MODEL 3
REMARK VINA RESULT:    -5.110     20.143     22.773
REMARK INTER + INTRA:          -5.110
REMARK INTER:                  -5.110
REMARK INTRA:                   0.000
REMARK UNBOUND:                 0.000
REMARK  Name = /home/vital/Documents/PhD_2021/Malaria_codes/scripts/../data/pdbqt_ligands/ligand_229_temp.pdb
REMARK                            x       y       z     vdW  Elec       q    Type
REMARK                         _______ _______ _______ _____ _____    ______ ____
ROOT
ATOM      1  C1  UNL     1     141.828 132.795  99.323  0.00  0.00    +0.079 C 
ATOM      2  O1  UNL     1     142.141 131.686 100.156  0.00  0.00    -0.495 OA
ATOM      3  C2  UNL     1     141.342 130.581 100.041  0.00  0.00    +0.125 A 
ATOM      4  C3  UNL     1     141.702 129.510 100.869  0.00  0.00    +0.002 A 
ATOM      5  C4  UNL     1     140.987 128.309 100.867  0.00  0.00    +0.040 A 
ATOM      6  N1  UNL     1     141.294 127.215 101.685  0.00  0.00    -0.283 N 
ATOM      7  C5  UNL     1     142.262 126.971 102.657  0.00  0.00    +0.222 A 
ATOM      8  N2  UNL     1     143.130 127.911 103.044  0.00  0.00    -0.199 NA
ATOM      9  C6  UNL     1     144.016 127.588 103.994  0.00  0.00    +0.129 A 
ATOM     10  N3  UNL     1     144.893 128.619 104.357  0.00  0.00    -0.343 N 
ATOM     11  C7  UNL     1     144.085 126.323 104.578  0.00  0.00    +0.040 A 
ATOM     12  C8  UNL     1     145.024 125.926 105.562  0.00  0.00    -0.049 A 
ATOM     13  C9  UNL     1     144.999 124.636 106.084  0.00  0.00    -0.061 A 
ATOM     14  C10 UNL     1     144.044 123.736 105.628  0.00  0.00    -0.060 A 
ATOM     15  C11 UNL     1     143.127 124.133 104.650  0.00  0.00    -0.036 A 
ATOM     16  C12 UNL     1     143.132 125.415 104.112  0.00  0.00    +0.078 A 
ATOM     17  N4  UNL     1     142.232 125.733 103.173  0.00  0.00    -0.214 NA
ATOM     18  C13 UNL     1     139.877 128.209 100.009  0.00  0.00    +0.002 A 
ATOM     19  C14 UNL     1     139.503 129.268  99.177  0.00  0.00    +0.125 A 
ATOM     20  O2  UNL     1     138.446 129.273  98.307  0.00  0.00    -0.495 OA
ATOM     21  C15 UNL     1     137.659 128.092  98.237  0.00  0.00    +0.079 C 
ATOM     22  C16 UNL     1     140.241 130.453  99.198  0.00  0.00    +0.022 A 
ATOM     23  H   UNL     1     140.694 126.448 101.542  0.00  0.00    +0.000 HD
ATOM     24  H   UNL     1     144.820 129.501 103.928  0.00  0.00    +0.000 HD
ATOM     25  H   UNL     1     145.582 128.460 105.042  0.00  0.00    +0.000 HD
ENDROOT
TORSDOF 0
ENDMDL
MODEL 4
REMARK VINA RESULT:    -5.076     20.634     22.803
REMARK INTER + INTRA:          -5.076
REMARK INTER:                  -5.076
REMARK INTRA:                   0.000
REMARK UNBOUND:                 0.000
REMARK  Name = /home/vital/Documents/PhD_2021/Malaria_codes/scripts/../data/pdbqt_ligands/ligand_229_temp.pdb
REMARK                            x       y       z     vdW  Elec       q    Type
REMARK                         _______ _______ _______ _____ _____    ______ ____
ROOT
ATOM      1  C1  UNL     1     140.712 125.020 105.402  0.00  0.00    +0.079 C 
ATOM      2  O1  UNL     1     141.012 126.120 104.552  0.00  0.00    -0.495 OA
ATOM      3  C2  UNL     1     142.327 126.488 104.456  0.00  0.00    +0.125 A 
ATOM      4  C3  UNL     1     142.572 127.563 103.593  0.00  0.00    +0.002 A 
ATOM      5  C4  UNL     1     143.864 128.057 103.384  0.00  0.00    +0.040 A 
ATOM      6  N1  UNL     1     144.161 129.139 102.547  0.00  0.00    -0.283 N 
ATOM      7  C5  UNL     1     143.396 129.993 101.755  0.00  0.00    +0.222 A 
ATOM      8  N2  UNL     1     142.062 129.924 101.723  0.00  0.00    -0.199 NA
ATOM      9  C6  UNL     1     141.411 130.794 100.942  0.00  0.00    +0.129 A 
ATOM     10  N3  UNL     1     140.015 130.672 100.958  0.00  0.00    -0.343 N 
ATOM     11  C7  UNL     1     142.058 131.746 100.154  0.00  0.00    +0.040 A 
ATOM     12  C8  UNL     1     141.414 132.666  99.289  0.00  0.00    -0.049 A 
ATOM     13  C9  UNL     1     142.158 133.583  98.551  0.00  0.00    -0.061 A 
ATOM     14  C10 UNL     1     143.542 133.585  98.667  0.00  0.00    -0.060 A 
ATOM     15  C11 UNL     1     144.170 132.669  99.516  0.00  0.00    -0.036 A 
ATOM     16  C12 UNL     1     143.450 131.743 100.263  0.00  0.00    +0.078 A 
ATOM     17  N4  UNL     1     144.109 130.887 101.053  0.00  0.00    -0.214 NA
ATOM     18  C13 UNL     1     144.919 127.443 104.081  0.00  0.00    +0.002 A 
ATOM     19  C14 UNL     1     144.693 126.369 104.946  0.00  0.00    +0.125 A 
ATOM     20  O2  UNL     1     145.646 125.701 105.667  0.00  0.00    -0.495 OA
ATOM     21  C15 UNL     1     146.991 126.134 105.519  0.00  0.00    +0.079 C 
ATOM     22  C16 UNL     1     143.392 125.895 105.129  0.00  0.00    +0.022 A 
ATOM     23  H   UNL     1     145.124 129.341 102.509  0.00  0.00    +0.000 HD
ATOM     24  H   UNL     1     139.587 129.990 101.524  0.00  0.00    +0.000 HD
ATOM     25  H   UNL     1     139.463 131.268 100.402  0.00  0.00    +0.000 HD
ENDROOT
TORSDOF 0
ENDMDL
MODEL 5
REMARK VINA RESULT:    -4.836     21.177     23.671
REMARK INTER + INTRA:          -4.836
REMARK INTER:                  -4.836
REMARK INTRA:                   0.000
REMARK UNBOUND:                 0.000
REMARK  Name = /home/vital/Documents/PhD_2021/Malaria_codes/scripts/../data/pdbqt_ligands/ligand_229_temp.pdb
REMARK                            x       y       z     vdW  Elec       q    Type
REMARK                         _______ _______ _______ _____ _____    ______ ____
ROOT
ATOM      1  C1  UNL     1     139.444 129.060  99.031  0.00  0.00    +0.079 C 
ATOM      2  O1  UNL     1     139.565 128.353 100.259  0.00  0.00    -0.495 OA
ATOM      3  C2  UNL     1     140.763 128.451 100.915  0.00  0.00    +0.125 A 
ATOM      4  C3  UNL     1     140.825 127.752 102.127  0.00  0.00    +0.002 A 
ATOM      5  C4  UNL     1     141.978 127.755 102.917  0.00  0.00    +0.040 A 
ATOM      6  N1  UNL     1     142.099 127.061 104.127  0.00  0.00    -0.283 N 
ATOM      7  C5  UNL     1     141.251 126.233 104.860  0.00  0.00    +0.222 A 
ATOM      8  N2  UNL     1     140.039 125.886 104.414  0.00  0.00    -0.199 NA
ATOM      9  C6  UNL     1     139.301 125.076 105.182  0.00  0.00    +0.129 A 
ATOM     10  N3  UNL     1     138.045 124.748 104.655  0.00  0.00    -0.343 N 
ATOM     11  C7  UNL     1     139.727 124.598 106.421  0.00  0.00    +0.040 A 
ATOM     12  C8  UNL     1     138.970 123.765 107.282  0.00  0.00    -0.049 A 
ATOM     13  C9  UNL     1     139.496 123.339 108.498  0.00  0.00    -0.061 A 
ATOM     14  C10 UNL     1     140.775 123.741 108.863  0.00  0.00    -0.060 A 
ATOM     15  C11 UNL     1     141.512 124.569 108.012  0.00  0.00    -0.036 A 
ATOM     16  C12 UNL     1     141.008 125.010 106.793  0.00  0.00    +0.078 A 
ATOM     17  N4  UNL     1     141.761 125.808 106.026  0.00  0.00    -0.214 NA
ATOM     18  C13 UNL     1     143.090 128.478 102.449  0.00  0.00    +0.002 A 
ATOM     19  C14 UNL     1     143.046 129.180 101.241  0.00  0.00    +0.125 A 
ATOM     20  O2  UNL     1     144.066 129.913 100.699  0.00  0.00    -0.495 OA
ATOM     21  C15 UNL     1     145.282 129.973 101.433  0.00  0.00    +0.079 C 
ATOM     22  C16 UNL     1     141.877 129.162 100.478  0.00  0.00    +0.022 A 
ATOM     23  H   UNL     1     142.976 127.185 104.555  0.00  0.00    +0.000 HD
ATOM     24  H   UNL     1     137.771 125.100 103.778  0.00  0.00    +0.000 HD
ATOM     25  H   UNL     1     137.435 124.164 105.163  0.00  0.00    +0.000 HD
ENDROOT
TORSDOF 0
ENDMDL
MODEL 6
REMARK VINA RESULT:    -4.809     20.282     22.441
REMARK INTER + INTRA:          -4.809
REMARK INTER:                  -4.809
REMARK INTRA:                   0.000
REMARK UNBOUND:                 0.000
REMARK  Name = /home/vital/Documents/PhD_2021/Malaria_codes/scripts/../data/pdbqt_ligands/ligand_229_temp.pdb
REMARK                            x       y       z     vdW  Elec       q    Type
REMARK                         _______ _______ _______ _____ _____    ______ ____
ROOT
ATOM      1  C1  UNL     1     137.769 122.957 105.385  0.00  0.00    +0.079 C 
ATOM      2  O1  UNL     1     138.313 124.025 104.619  0.00  0.00    -0.495 OA
ATOM      3  C2  UNL     1     139.606 124.385 104.890  0.00  0.00    +0.125 A 
ATOM      4  C3  UNL     1     140.102 125.427 104.098  0.00  0.00    +0.002 A 
ATOM      5  C4  UNL     1     141.406 125.908 104.251  0.00  0.00    +0.040 A 
ATOM      6  N1  UNL     1     141.945 126.958 103.497  0.00  0.00    -0.283 N 
ATOM      7  C5  UNL     1     141.450 127.785 102.491  0.00  0.00    +0.222 A 
ATOM      8  N2  UNL     1     140.179 127.720 102.082  0.00  0.00    -0.199 NA
ATOM      9  C6  UNL     1     139.790 128.563 101.118  0.00  0.00    +0.129 A 
ATOM     10  N3  UNL     1     138.447 128.447 100.739  0.00  0.00    -0.343 N 
ATOM     11  C7  UNL     1     140.648 129.485 100.516  0.00  0.00    +0.040 A 
ATOM     12  C8  UNL     1     140.291 130.375  99.473  0.00  0.00    -0.049 A 
ATOM     13  C9  UNL     1     141.227 131.261  98.947  0.00  0.00    -0.061 A 
ATOM     14  C10 UNL     1     142.520 131.263  99.455  0.00  0.00    -0.060 A 
ATOM     15  C11 UNL     1     142.867 130.376 100.478  0.00  0.00    -0.036 A 
ATOM     16  C12 UNL     1     141.951 129.480 101.018  0.00  0.00    +0.078 A 
ATOM     17  N4  UNL     1     142.345 128.651 101.992  0.00  0.00    -0.214 NA
ATOM     18  C13 UNL     1     142.210 125.316 105.240  0.00  0.00    +0.002 A 
ATOM     19  C14 UNL     1     141.732 124.275 106.040  0.00  0.00    +0.125 A 
ATOM     20  O2  UNL     1     142.430 123.630 107.026  0.00  0.00    -0.495 OA
ATOM     21  C15 UNL     1     143.768 124.053 107.253  0.00  0.00    +0.079 C 
ATOM     22  C16 UNL     1     140.426 123.813 105.860  0.00  0.00    +0.022 A 
ATOM     23  H   UNL     1     142.881 127.156 103.729  0.00  0.00    +0.000 HD
ATOM     24  H   UNL     1     137.865 127.788 101.182  0.00  0.00    +0.000 HD
ATOM     25  H   UNL     1     138.084 129.025 100.029  0.00  0.00    +0.000 HD
ENDROOT
TORSDOF 0
ENDMDL
MODEL 7
REMARK VINA RESULT:    -4.561     19.790     22.414
REMARK INTER + INTRA:          -4.561
REMARK INTER:                  -4.561
REMARK INTRA:                   0.000
REMARK UNBOUND:                 0.000
REMARK  Name = /home/vital/Documents/PhD_2021/Malaria_codes/scripts/../data/pdbqt_ligands/ligand_229_temp.pdb
REMARK                            x       y       z     vdW  Elec       q    Type
REMARK                         _______ _______ _______ _____ _____    ______ ____
ROOT
ATOM      1  C1  UNL     1     141.233 126.356  96.394  0.00  0.00    +0.079 C 
ATOM      2  O1  UNL     1     141.232 126.140  97.800  0.00  0.00    -0.495 OA
ATOM      3  C2  UNL     1     141.252 127.252  98.598  0.00  0.00    +0.125 A 
ATOM      4  C3  UNL     1     141.232 126.987  99.972  0.00  0.00    +0.002 A 
ATOM      5  C4  UNL     1     141.246 128.016 100.919  0.00  0.00    +0.040 A 
ATOM      6  N1  UNL     1     141.243 127.805 102.303  0.00  0.00    -0.283 N 
ATOM      7  C5  UNL     1     141.242 126.671 103.113  0.00  0.00    +0.222 A 
ATOM      8  N2  UNL     1     141.311 125.437 102.604  0.00  0.00    -0.199 NA
ATOM      9  C6  UNL     1     141.317 124.409 103.460  0.00  0.00    +0.129 A 
ATOM     10  N3  UNL     1     141.396 123.144 102.862  0.00  0.00    -0.343 N 
ATOM     11  C7  UNL     1     141.236 124.565 104.844  0.00  0.00    +0.040 A 
ATOM     12  C8  UNL     1     141.207 123.508 105.787  0.00  0.00    -0.049 A 
ATOM     13  C9  UNL     1     141.132 123.777 107.150  0.00  0.00    -0.061 A 
ATOM     14  C10 UNL     1     141.082 125.097 107.580  0.00  0.00    -0.060 A 
ATOM     15  C11 UNL     1     141.102 126.134 106.643  0.00  0.00    -0.036 A 
ATOM     16  C12 UNL     1     141.176 125.891 105.276  0.00  0.00    +0.078 A 
ATOM     17  N4  UNL     1     141.184 126.927 104.428  0.00  0.00    -0.214 NA
ATOM     18  C13 UNL     1     141.293 129.339 100.446  0.00  0.00    +0.002 A 
ATOM     19  C14 UNL     1     141.315 129.622  99.077  0.00  0.00    +0.125 A 
ATOM     20  O2  UNL     1     141.358 130.869  98.514  0.00  0.00    -0.495 OA
ATOM     21  C15 UNL     1     141.377 131.980  99.401  0.00  0.00    +0.079 C 
ATOM     22  C16 UNL     1     141.294 128.572  98.157  0.00  0.00    +0.022 A 
ATOM     23  H   UNL     1     141.242 128.643 102.819  0.00  0.00    +0.000 HD
ATOM     24  H   UNL     1     141.452 123.064 101.883  0.00  0.00    +0.000 HD
ATOM     25  H   UNL     1     141.395 122.334 103.423  0.00  0.00    +0.000 HD
ENDROOT
TORSDOF 0
ENDMDL
MODEL 8
REMARK VINA RESULT:    -4.547     20.492     23.403
REMARK INTER + INTRA:          -4.547
REMARK INTER:                  -4.547
REMARK INTRA:                   0.000
REMARK UNBOUND:                 0.000
REMARK  Name = /home/vital/Documents/PhD_2021/Malaria_codes/scripts/../data/pdbqt_ligands/ligand_229_temp.pdb
REMARK                            x       y       z     vdW  Elec       q    Type
REMARK                         _______ _______ _______ _____ _____    ______ ____
ROOT
ATOM      1  C1  UNL     1     138.239 128.643  98.884  0.00  0.00    +0.079 C 
ATOM      2  O1  UNL     1     139.298 128.352  99.788  0.00  0.00    -0.495 OA
ATOM      3  C2  UNL     1     140.249 129.322  99.961  0.00  0.00    +0.125 A 
ATOM      4  C3  UNL     1     141.259 128.995 100.873  0.00  0.00    +0.002 A 
ATOM      5  C4  UNL     1     142.301 129.881 101.163  0.00  0.00    +0.040 A 
ATOM      6  N1  UNL     1     143.344 129.596 102.053  0.00  0.00    -0.283 N 
ATOM      7  C5  UNL     1     143.677 128.495 102.839  0.00  0.00    +0.222 A 
ATOM      8  N2  UNL     1     142.972 127.361 102.804  0.00  0.00    -0.199 NA
ATOM      9  C6  UNL     1     143.374 126.352 103.585  0.00  0.00    +0.129 A 
ATOM     10  N3  UNL     1     142.595 125.190 103.498  0.00  0.00    -0.343 N 
ATOM     11  C7  UNL     1     144.475 126.437 104.438  0.00  0.00    +0.040 A 
ATOM     12  C8  UNL     1     144.920 125.408 105.305  0.00  0.00    -0.049 A 
ATOM     13  C9  UNL     1     146.039 125.597 106.112  0.00  0.00    -0.061 A 
ATOM     14  C10 UNL     1     146.716 126.810 106.062  0.00  0.00    -0.060 A 
ATOM     15  C11 UNL     1     146.264 127.822 105.211  0.00  0.00    -0.036 A 
ATOM     16  C12 UNL     1     145.149 127.659 104.396  0.00  0.00    +0.078 A 
ATOM     17  N4  UNL     1     144.763 128.669 103.608  0.00  0.00    -0.214 NA
ATOM     18  C13 UNL     1     142.313 131.118 100.495  0.00  0.00    +0.002 A 
ATOM     19  C14 UNL     1     141.313 131.461  99.580  0.00  0.00    +0.125 A 
ATOM     20  O2  UNL     1     141.230 132.635  98.881  0.00  0.00    -0.495 OA
ATOM     21  C15 UNL     1     142.250 133.598  99.110  0.00  0.00    +0.079 C 
ATOM     22  C16 UNL     1     140.282 130.557  99.318  0.00  0.00    +0.022 A 
ATOM     23  H   UNL     1     143.984 130.339 102.145  0.00  0.00    +0.000 HD
ATOM     24  H   UNL     1     141.824 125.159 102.887  0.00  0.00    +0.000 HD
ATOM     25  H   UNL     1     142.819 124.405 104.048  0.00  0.00    +0.000 HD
ENDROOT
TORSDOF 0
ENDMDL
MODEL 9
REMARK VINA RESULT:    -4.473     21.307     23.192
REMARK INTER + INTRA:          -4.473
REMARK INTER:                  -4.473
REMARK INTRA:                   0.000
REMARK UNBOUND:                 0.000
REMARK  Name = /home/vital/Documents/PhD_2021/Malaria_codes/scripts/../data/pdbqt_ligands/ligand_229_temp.pdb
REMARK                            x       y       z     vdW  Elec       q    Type
REMARK                         _______ _______ _______ _____ _____    ______ ____
ROOT
ATOM      1  C1  UNL     1     146.453 124.970 106.612  0.00  0.00    +0.079 C 
ATOM      2  O1  UNL     1     145.605 125.649 105.695  0.00  0.00    -0.495 OA
ATOM      3  C2  UNL     1     144.295 125.254 105.654  0.00  0.00    +0.125 A 
ATOM      4  C3  UNL     1     143.498 125.964 104.748  0.00  0.00    +0.002 A 
ATOM      5  C4  UNL     1     142.137 125.682 104.591  0.00  0.00    +0.040 A 
ATOM      6  N1  UNL     1     141.300 126.351 103.689  0.00  0.00    -0.283 N 
ATOM      7  C5  UNL     1     141.492 127.368 102.756  0.00  0.00    +0.222 A 
ATOM      8  N2  UNL     1     142.699 127.889 102.514  0.00  0.00    -0.199 NA
ATOM      9  C6  UNL     1     142.788 128.853 101.592  0.00  0.00    +0.129 A 
ATOM     10  N3  UNL     1     144.081 129.353 101.383  0.00  0.00    -0.343 N 
ATOM     11  C7  UNL     1     141.687 129.347 100.892  0.00  0.00    +0.040 A 
ATOM     12  C8  UNL     1     141.727 130.387  99.930  0.00  0.00    -0.049 A 
ATOM     13  C9  UNL     1     140.565 130.799  99.284  0.00  0.00    -0.061 A 
ATOM     14  C10 UNL     1     139.360 130.181  99.593  0.00  0.00    -0.060 A 
ATOM     15  C11 UNL     1     139.328 129.162 100.550  0.00  0.00    -0.036 A 
ATOM     16  C12 UNL     1     140.474 128.733 101.210  0.00  0.00    +0.078 A 
ATOM     17  N4  UNL     1     140.376 127.758 102.121  0.00  0.00    -0.214 NA
ATOM     18  C13 UNL     1     141.589 124.647 105.368  0.00  0.00    +0.002 A 
ATOM     19  C14 UNL     1     142.370 123.927 106.276  0.00  0.00    +0.125 A 
ATOM     20  O2  UNL     1     141.937 122.906 107.078  0.00  0.00    -0.495 OA
ATOM     21  C15 UNL     1     140.564 122.548 106.986  0.00  0.00    +0.079 C 
ATOM     22  C16 UNL     1     143.725 124.236 106.415  0.00  0.00    +0.022 A 
ATOM     23  H   UNL     1     140.369 126.031 103.720  0.00  0.00    +0.000 HD
ATOM     24  H   UNL     1     144.839 128.985 101.892  0.00  0.00    +0.000 HD
ATOM     25  H   UNL     1     144.231 130.072 100.728  0.00  0.00    +0.000 HD
ENDROOT
TORSDOF 0
ENDMDL
