MODEL 1
REMARK VINA RESULT:    -5.087      0.000      0.000
REMARK INTER + INTRA:          -5.087
REMARK INTER:                  -5.087
REMARK INTRA:                   0.000
REMARK UNBOUND:                 0.000
REMARK  Name = /home/vital/Documents/PhD_2021/Malaria_codes/scripts/../data/pdbqt_ligands/ligand_417_temp.pdb
REMARK                            x       y       z     vdW  Elec       q    Type
REMARK                         _______ _______ _______ _____ _____    ______ ____
ROOT
ATOM      1  C   UNL     1     137.067 121.062 105.785  0.00  0.00    -0.050 C 
ATOM      2  C   UNL     1     138.336 121.762 106.288  0.00  0.00    +0.004 C 
ATOM      3  C   UNL     1     139.472 120.741 106.398  0.00  0.00    -0.050 C 
ATOM      4  N   UNL     1     138.606 122.910 105.421  0.00  0.00    -0.303 N 
ATOM      5  C   UNL     1     139.325 122.652 104.182  0.00  0.00    -0.013 C 
ATOM      6  C   UNL     1     138.978 124.151 106.113  0.00  0.00    +0.000 C 
ATOM      7  C   UNL     1     140.261 124.186 106.968  0.00  0.00    -0.028 C 
ATOM      8  C   UNL     1     141.577 124.255 106.183  0.00  0.00    -0.003 C 
ATOM      9  N   UNL     1     141.661 125.500 105.423  0.00  0.00    -0.309 N 
ATOM     10  C   UNL     1     142.615 125.398 104.321  0.00  0.00    +0.055 C 
ATOM     11  C   UNL     1     142.837 126.724 103.682  0.00  0.00    +0.119 A 
ATOM     12  C   UNL     1     143.836 127.666 103.784  0.00  0.00    -0.019 A 
ATOM     13  C   UNL     1     143.476 128.723 102.913  0.00  0.00    -0.016 A 
ATOM     14  C   UNL     1     142.270 128.376 102.337  0.00  0.00    +0.135 A 
ATOM     15  C   UNL     1     141.363 129.022 101.392  0.00  0.00    +0.019 A 
ATOM     16  C   UNL     1     140.134 128.434 101.044  0.00  0.00    -0.051 A 
ATOM     17  C   UNL     1     139.259 129.065 100.158  0.00  0.00    -0.060 A 
ATOM     18  C   UNL     1     139.598 130.293  99.600  0.00  0.00    -0.043 A 
ATOM     19  C   UNL     1     140.815 130.882  99.932  0.00  0.00    +0.042 A 
ATOM     20 CL   UNL     1     141.238 132.402  99.246  0.00  0.00    -0.084 Cl
ATOM     21  C   UNL     1     141.694 130.257 100.818  0.00  0.00    -0.033 A 
ATOM     22  O   UNL     1     141.889 127.149 102.800  0.00  0.00    -0.458 OA
ATOM     23  H   UNL     1     137.670 123.105 105.068  0.00  0.00    +0.000 HD
ATOM     24  H   UNL     1     141.958 126.250 106.047  0.00  0.00    +0.000 HD
ATOM     25  H   UNL     1     140.740 125.695 105.030  0.00  0.00    +0.000 HD
ENDROOT
TORSDOF 0
ENDMDL
MODEL 2
REMARK VINA RESULT:    -4.679      4.066      8.208
REMARK INTER + INTRA:          -4.679
REMARK INTER:                  -4.679
REMARK INTRA:                   0.000
REMARK UNBOUND:                 0.000
REMARK  Name = /home/vital/Documents/PhD_2021/Malaria_codes/scripts/../data/pdbqt_ligands/ligand_417_temp.pdb
REMARK                            x       y       z     vdW  Elec       q    Type
REMARK                         _______ _______ _______ _____ _____    ______ ____
ROOT
ATOM      1  C   UNL     1     140.640 127.558  96.991  0.00  0.00    -0.050 C 
ATOM      2  C   UNL     1     141.625 127.591  98.167  0.00  0.00    +0.004 C 
ATOM      3  C   UNL     1     142.061 129.035  98.427  0.00  0.00    -0.050 C 
ATOM      4  N   UNL     1     141.009 126.907  99.306  0.00  0.00    -0.303 N 
ATOM      5  C   UNL     1     140.101 127.686 100.136  0.00  0.00    -0.013 C 
ATOM      6  C   UNL     1     141.883 125.981 100.035  0.00  0.00    +0.000 C 
ATOM      7  C   UNL     1     143.147 126.522 100.733  0.00  0.00    -0.028 C 
ATOM      8  C   UNL     1     142.904 127.287 102.040  0.00  0.00    -0.003 C 
ATOM      9  N   UNL     1     142.326 126.407 103.055  0.00  0.00    -0.309 N 
ATOM     10  C   UNL     1     141.643 127.164 104.101  0.00  0.00    +0.055 C 
ATOM     11  C   UNL     1     141.235 126.274 105.223  0.00  0.00    +0.119 A 
ATOM     12  C   UNL     1     141.768 126.018 106.467  0.00  0.00    -0.019 A 
ATOM     13  C   UNL     1     140.911 125.070 107.078  0.00  0.00    -0.016 A 
ATOM     14  C   UNL     1     139.910 124.789 106.169  0.00  0.00    +0.135 A 
ATOM     15  C   UNL     1     138.753 123.898 106.165  0.00  0.00    +0.019 A 
ATOM     16  C   UNL     1     137.936 123.771 105.027  0.00  0.00    -0.051 A 
ATOM     17  C   UNL     1     136.844 122.902 105.016  0.00  0.00    -0.060 A 
ATOM     18  C   UNL     1     136.546 122.145 106.145  0.00  0.00    -0.043 A 
ATOM     19  C   UNL     1     137.344 122.266 107.280  0.00  0.00    +0.042 A 
ATOM     20 CL   UNL     1     136.981 121.331 108.678  0.00  0.00    -0.084 Cl
ATOM     21  C   UNL     1     138.437 123.133 107.296  0.00  0.00    -0.033 A 
ATOM     22  O   UNL     1     140.105 125.536 105.043  0.00  0.00    -0.458 OA
ATOM     23  H   UNL     1     140.354 126.291  98.825  0.00  0.00    +0.000 HD
ATOM     24  H   UNL     1     143.072 125.857 103.479  0.00  0.00    +0.000 HD
ATOM     25  H   UNL     1     141.641 125.805 102.599  0.00  0.00    +0.000 HD
ENDROOT
TORSDOF 0
ENDMDL
MODEL 3
REMARK VINA RESULT:    -4.649      6.784      9.564
REMARK INTER + INTRA:          -4.649
REMARK INTER:                  -4.649
REMARK INTRA:                   0.000
REMARK UNBOUND:                 0.000
REMARK  Name = /home/vital/Documents/PhD_2021/Malaria_codes/scripts/../data/pdbqt_ligands/ligand_417_temp.pdb
REMARK                            x       y       z     vdW  Elec       q    Type
REMARK                         _______ _______ _______ _____ _____    ______ ____
ROOT
ATOM      1  C   UNL     1     138.342 128.559 100.323  0.00  0.00    -0.050 C 
ATOM      2  C   UNL     1     139.621 129.370 100.570  0.00  0.00    +0.004 C 
ATOM      3  C   UNL     1     140.636 128.503 101.321  0.00  0.00    -0.050 C 
ATOM      4  N   UNL     1     140.083 129.908  99.289  0.00  0.00    -0.303 N 
ATOM      5  C   UNL     1     140.885 129.030  98.450  0.00  0.00    -0.013 C 
ATOM      6  C   UNL     1     140.508 131.313  99.311  0.00  0.00    +0.000 C 
ATOM      7  C   UNL     1     141.703 131.728 100.192  0.00  0.00    -0.028 C 
ATOM      8  C   UNL     1     143.087 131.340  99.657  0.00  0.00    -0.003 C 
ATOM      9  N   UNL     1     143.363 132.023  98.394  0.00  0.00    -0.309 N 
ATOM     10  C   UNL     1     144.400 131.339  97.625  0.00  0.00    +0.055 C 
ATOM     11  C   UNL     1     144.810 132.149  96.444  0.00  0.00    +0.119 A 
ATOM     12  C   UNL     1     145.884 132.974  96.191  0.00  0.00    -0.019 A 
ATOM     13  C   UNL     1     145.711 133.455  94.871  0.00  0.00    -0.016 A 
ATOM     14  C   UNL     1     144.536 132.910  94.394  0.00  0.00    +0.135 A 
ATOM     15  C   UNL     1     143.789 133.021  93.144  0.00  0.00    +0.019 A 
ATOM     16  C   UNL     1     142.546 132.385  92.980  0.00  0.00    -0.051 A 
ATOM     17  C   UNL     1     141.823 132.511  91.793  0.00  0.00    -0.060 A 
ATOM     18  C   UNL     1     142.331 133.273  90.745  0.00  0.00    -0.043 A 
ATOM     19  C   UNL     1     143.564 133.902  90.893  0.00  0.00    +0.042 A 
ATOM     20 CL   UNL     1     144.196 134.847  89.602  0.00  0.00    -0.084 Cl
ATOM     21  C   UNL     1     144.291 133.780  92.079  0.00  0.00    -0.033 A 
ATOM     22  O   UNL     1     143.995 132.103  95.354  0.00  0.00    -0.458 OA
ATOM     23  H   UNL     1     139.206 129.931  98.767  0.00  0.00    +0.000 HD
ATOM     24  H   UNL     1     143.673 132.974  98.593  0.00  0.00    +0.000 HD
ATOM     25  H   UNL     1     142.507 132.026  97.840  0.00  0.00    +0.000 HD
ENDROOT
TORSDOF 0
ENDMDL
MODEL 4
REMARK VINA RESULT:    -4.519      5.857      7.276
REMARK INTER + INTRA:          -4.519
REMARK INTER:                  -4.519
REMARK INTRA:                   0.000
REMARK UNBOUND:                 0.000
REMARK  Name = /home/vital/Documents/PhD_2021/Malaria_codes/scripts/../data/pdbqt_ligands/ligand_417_temp.pdb
REMARK                            x       y       z     vdW  Elec       q    Type
REMARK                         _______ _______ _______ _____ _____    ______ ____
ROOT
ATOM      1  C   UNL     1     145.364 122.084  96.428  0.00  0.00    -0.050 C 
ATOM      2  C   UNL     1     143.884 122.416  96.658  0.00  0.00    +0.004 C 
ATOM      3  C   UNL     1     143.316 121.491  97.738  0.00  0.00    -0.050 C 
ATOM      4  N   UNL     1     143.768 123.848  96.935  0.00  0.00    -0.303 N 
ATOM      5  C   UNL     1     144.005 124.282  98.304  0.00  0.00    -0.013 C 
ATOM      6  C   UNL     1     142.674 124.539  96.241  0.00  0.00    +0.000 C 
ATOM      7  C   UNL     1     141.216 124.120  96.519  0.00  0.00    -0.028 C 
ATOM      8  C   UNL     1     140.636 124.593  97.858  0.00  0.00    -0.003 C 
ATOM      9  N   UNL     1     140.568 126.053  97.906  0.00  0.00    -0.309 N 
ATOM     10  C   UNL     1     140.498 126.547  99.279  0.00  0.00    +0.055 C 
ATOM     11  C   UNL     1     140.230 128.011  99.306  0.00  0.00    +0.119 A 
ATOM     12  C   UNL     1     139.094 128.759  99.522  0.00  0.00    -0.019 A 
ATOM     13  C   UNL     1     139.488 130.116  99.423  0.00  0.00    -0.016 A 
ATOM     14  C   UNL     1     140.840 130.122  99.141  0.00  0.00    +0.135 A 
ATOM     15  C   UNL     1     141.829 131.169  98.896  0.00  0.00    +0.019 A 
ATOM     16  C   UNL     1     143.154 130.851  98.547  0.00  0.00    -0.051 A 
ATOM     17  C   UNL     1     144.092 131.852  98.291  0.00  0.00    -0.060 A 
ATOM     18  C   UNL     1     143.724 133.191  98.382  0.00  0.00    -0.043 A 
ATOM     19  C   UNL     1     142.417 133.518  98.733  0.00  0.00    +0.042 A 
ATOM     20 CL   UNL     1     141.956 135.172  98.846  0.00  0.00    -0.084 Cl
ATOM     21  C   UNL     1     141.474 132.521  98.989  0.00  0.00    -0.033 A 
ATOM     22  O   UNL     1     141.292 128.835  99.082  0.00  0.00    -0.458 OA
ATOM     23  H   UNL     1     144.605 124.199  96.470  0.00  0.00    +0.000 HD
ATOM     24  H   UNL     1     139.738 126.362  97.401  0.00  0.00    +0.000 HD
ATOM     25  H   UNL     1     141.416 126.425  97.477  0.00  0.00    +0.000 HD
ENDROOT
TORSDOF 0
ENDMDL
MODEL 5
REMARK VINA RESULT:    -4.486      7.298     10.352
REMARK INTER + INTRA:          -4.486
REMARK INTER:                  -4.486
REMARK INTRA:                   0.000
REMARK UNBOUND:                 0.000
REMARK  Name = /home/vital/Documents/PhD_2021/Malaria_codes/scripts/../data/pdbqt_ligands/ligand_417_temp.pdb
REMARK                            x       y       z     vdW  Elec       q    Type
REMARK                         _______ _______ _______ _____ _____    ______ ____
ROOT
ATOM      1  C   UNL     1     140.619 128.656 101.136  0.00  0.00    -0.050 C 
ATOM      2  C   UNL     1     141.610 129.803 100.900  0.00  0.00    +0.004 C 
ATOM      3  C   UNL     1     142.978 129.420 101.473  0.00  0.00    -0.050 C 
ATOM      4  N   UNL     1     141.599 130.139  99.475  0.00  0.00    -0.303 N 
ATOM      5  C   UNL     1     142.431 129.331  98.596  0.00  0.00    -0.013 C 
ATOM      6  C   UNL     1     141.569 131.573  99.165  0.00  0.00    +0.000 C 
ATOM      7  C   UNL     1     142.739 132.470  99.616  0.00  0.00    -0.028 C 
ATOM      8  C   UNL     1     144.026 132.342  98.792  0.00  0.00    -0.003 C 
ATOM      9  N   UNL     1     143.803 132.770  97.412  0.00  0.00    -0.309 N 
ATOM     10  C   UNL     1     144.809 132.222  96.506  0.00  0.00    +0.055 C 
ATOM     11  C   UNL     1     144.688 132.822  95.149  0.00  0.00    +0.119 A 
ATOM     12  C   UNL     1     145.377 133.816  94.491  0.00  0.00    -0.019 A 
ATOM     13  C   UNL     1     144.787 133.927  93.209  0.00  0.00    -0.016 A 
ATOM     14  C   UNL     1     143.761 133.004  93.157  0.00  0.00    +0.135 A 
ATOM     15  C   UNL     1     142.766 132.634  92.154  0.00  0.00    +0.019 A 
ATOM     16  C   UNL     1     141.773 131.679  92.432  0.00  0.00    -0.051 A 
ATOM     17  C   UNL     1     140.809 131.343  91.480  0.00  0.00    -0.060 A 
ATOM     18  C   UNL     1     140.823 131.954  90.230  0.00  0.00    -0.043 A 
ATOM     19  C   UNL     1     141.806 132.897  89.940  0.00  0.00    +0.042 A 
ATOM     20 CL   UNL     1     141.826 133.656  88.397  0.00  0.00    -0.084 Cl
ATOM     21  C   UNL     1     142.771 133.237  90.889  0.00  0.00    -0.033 A 
ATOM     22  O   UNL     1     143.712 132.323  94.340  0.00  0.00    -0.458 OA
ATOM     23  H   UNL     1     140.667 129.817  99.213  0.00  0.00    +0.000 HD
ATOM     24  H   UNL     1     143.842 133.788  97.371  0.00  0.00    +0.000 HD
ATOM     25  H   UNL     1     142.889 132.427  97.117  0.00  0.00    +0.000 HD
ENDROOT
TORSDOF 0
ENDMDL
MODEL 6
REMARK VINA RESULT:    -4.461      7.145     10.668
REMARK INTER + INTRA:          -4.461
REMARK INTER:                  -4.461
REMARK INTRA:                   0.000
REMARK UNBOUND:                 0.000
REMARK  Name = /home/vital/Documents/PhD_2021/Malaria_codes/scripts/../data/pdbqt_ligands/ligand_417_temp.pdb
REMARK                            x       y       z     vdW  Elec       q    Type
REMARK                         _______ _______ _______ _____ _____    ______ ____
ROOT
ATOM      1  C   UNL     1     143.322 129.618 102.080  0.00  0.00    -0.050 C 
ATOM      2  C   UNL     1     143.283 130.847 101.163  0.00  0.00    +0.004 C 
ATOM      3  C   UNL     1     144.607 131.609 101.276  0.00  0.00    -0.050 C 
ATOM      4  N   UNL     1     142.927 130.407  99.813  0.00  0.00    -0.303 N 
ATOM      5  C   UNL     1     144.003 129.901  98.973  0.00  0.00    -0.013 C 
ATOM      6  C   UNL     1     141.930 131.233  99.122  0.00  0.00    +0.000 C 
ATOM      7  C   UNL     1     142.250 132.710  98.817  0.00  0.00    -0.028 C 
ATOM      8  C   UNL     1     143.222 132.950  97.655  0.00  0.00    -0.003 C 
ATOM      9  N   UNL     1     142.651 132.476  96.396  0.00  0.00    -0.309 N 
ATOM     10  C   UNL     1     143.683 132.233  95.391  0.00  0.00    +0.055 C 
ATOM     11  C   UNL     1     143.076 131.945  94.062  0.00  0.00    +0.119 A 
ATOM     12  C   UNL     1     142.875 132.705  92.931  0.00  0.00    -0.019 A 
ATOM     13  C   UNL     1     142.248 131.854  91.988  0.00  0.00    -0.016 A 
ATOM     14  C   UNL     1     142.088 130.626  92.598  0.00  0.00    +0.135 A 
ATOM     15  C   UNL     1     141.502 129.351  92.194  0.00  0.00    +0.019 A 
ATOM     16  C   UNL     1     141.417 128.272  93.092  0.00  0.00    -0.051 A 
ATOM     17  C   UNL     1     140.835 127.062  92.711  0.00  0.00    -0.060 A 
ATOM     18  C   UNL     1     140.331 126.906  91.424  0.00  0.00    -0.043 A 
ATOM     19  C   UNL     1     140.417 127.965  90.523  0.00  0.00    +0.042 A 
ATOM     20 CL   UNL     1     139.794 127.778  88.931  0.00  0.00    -0.084 Cl
ATOM     21  C   UNL     1     140.996 129.178  90.899  0.00  0.00    -0.033 A 
ATOM     22  O   UNL     1     142.606 130.682  93.861  0.00  0.00    -0.458 OA
ATOM     23  H   UNL     1     142.421 129.546 100.023  0.00  0.00    +0.000 HD
ATOM     24  H   UNL     1     142.003 133.180  96.041  0.00  0.00    +0.000 HD
ATOM     25  H   UNL     1     142.169 131.596  96.577  0.00  0.00    +0.000 HD
ENDROOT
TORSDOF 0
ENDMDL
MODEL 7
REMARK VINA RESULT:    -4.285     15.247     17.849
REMARK INTER + INTRA:          -4.285
REMARK INTER:                  -4.285
REMARK INTRA:                   0.000
REMARK UNBOUND:                 0.000
REMARK  Name = /home/vital/Documents/PhD_2021/Malaria_codes/scripts/../data/pdbqt_ligands/ligand_417_temp.pdb
REMARK                            x       y       z     vdW  Elec       q    Type
REMARK                         _______ _______ _______ _____ _____    ______ ____
ROOT
ATOM      1  C   UNL     1     145.249 139.895  97.313  0.00  0.00    -0.050 C 
ATOM      2  C   UNL     1     144.544 141.238  97.542  0.00  0.00    +0.004 C 
ATOM      3  C   UNL     1     143.534 141.482  96.417  0.00  0.00    -0.050 C 
ATOM      4  N   UNL     1     143.989 141.245  98.896  0.00  0.00    -0.303 N 
ATOM      5  C   UNL     1     142.691 140.611  99.085  0.00  0.00    -0.013 C 
ATOM      6  C   UNL     1     144.198 142.481  99.659  0.00  0.00    +0.000 C 
ATOM      7  C   UNL     1     143.592 143.801  99.143  0.00  0.00    -0.028 C 
ATOM      8  C   UNL     1     142.079 143.958  99.345  0.00  0.00    -0.003 C 
ATOM      9  N   UNL     1     141.748 143.985 100.769  0.00  0.00    -0.309 N 
ATOM     10  C   UNL     1     140.347 143.644 101.005  0.00  0.00    +0.055 C 
ATOM     11  C   UNL     1     139.976 143.868 102.429  0.00  0.00    +0.119 A 
ATOM     12  C   UNL     1     139.308 144.879 103.083  0.00  0.00    -0.019 A 
ATOM     13  C   UNL     1     139.267 144.508 104.449  0.00  0.00    -0.016 A 
ATOM     14  C   UNL     1     139.922 143.298 104.557  0.00  0.00    +0.135 A 
ATOM     15  C   UNL     1     140.247 142.405 105.667  0.00  0.00    +0.019 A 
ATOM     16  C   UNL     1     141.015 141.245 105.467  0.00  0.00    -0.051 A 
ATOM     17  C   UNL     1     141.344 140.406 106.532  0.00  0.00    -0.060 A 
ATOM     18  C   UNL     1     140.907 140.709 107.818  0.00  0.00    -0.043 A 
ATOM     19  C   UNL     1     140.140 141.851 108.028  0.00  0.00    +0.042 A 
ATOM     20 CL   UNL     1     139.599 142.231 109.616  0.00  0.00    -0.084 Cl
ATOM     21  C   UNL     1     139.809 142.695 106.966  0.00  0.00    -0.033 A 
ATOM     22  O   UNL     1     140.343 142.904 103.319  0.00  0.00    -0.458 OA
ATOM     23  H   UNL     1     144.603 140.573  99.356  0.00  0.00    +0.000 HD
ATOM     24  H   UNL     1     141.925 144.921 101.132  0.00  0.00    +0.000 HD
ATOM     25  H   UNL     1     142.328 143.293 101.243  0.00  0.00    +0.000 HD
ENDROOT
TORSDOF 0
ENDMDL
MODEL 8
REMARK VINA RESULT:    -4.216     14.579     16.121
REMARK INTER + INTRA:          -4.216
REMARK INTER:                  -4.216
REMARK INTRA:                   0.000
REMARK UNBOUND:                 0.000
REMARK  Name = /home/vital/Documents/PhD_2021/Malaria_codes/scripts/../data/pdbqt_ligands/ligand_417_temp.pdb
REMARK                            x       y       z     vdW  Elec       q    Type
REMARK                         _______ _______ _______ _____ _____    ______ ____
ROOT
ATOM      1  C   UNL     1     145.572 139.017 108.352  0.00  0.00    -0.050 C 
ATOM      2  C   UNL     1     144.169 139.631 108.252  0.00  0.00    +0.004 C 
ATOM      3  C   UNL     1     144.041 140.775 109.261  0.00  0.00    -0.050 C 
ATOM      4  N   UNL     1     143.923 139.997 106.856  0.00  0.00    -0.303 N 
ATOM      5  C   UNL     1     144.441 141.280 106.403  0.00  0.00    -0.013 C 
ATOM      6  C   UNL     1     142.599 139.637 106.333  0.00  0.00    +0.000 C 
ATOM      7  C   UNL     1     141.339 140.256 106.971  0.00  0.00    -0.028 C 
ATOM      8  C   UNL     1     141.063 141.720 106.604  0.00  0.00    -0.003 C 
ATOM      9  N   UNL     1     140.799 141.853 105.172  0.00  0.00    -0.309 N 
ATOM     10  C   UNL     1     141.016 143.221 104.707  0.00  0.00    +0.055 C 
ATOM     11  C   UNL     1     140.555 143.385 103.300  0.00  0.00    +0.119 A 
ATOM     12  C   UNL     1     139.417 143.918 102.736  0.00  0.00    -0.019 A 
ATOM     13  C   UNL     1     139.572 143.787 101.334  0.00  0.00    -0.016 A 
ATOM     14  C   UNL     1     140.789 143.171 101.120  0.00  0.00    +0.135 A 
ATOM     15  C   UNL     1     141.519 142.733  99.933  0.00  0.00    +0.019 A 
ATOM     16  C   UNL     1     142.740 142.044 100.043  0.00  0.00    -0.051 A 
ATOM     17  C   UNL     1     143.425 141.606  98.908  0.00  0.00    -0.060 A 
ATOM     18  C   UNL     1     142.903 141.852  97.642  0.00  0.00    -0.043 A 
ATOM     19  C   UNL     1     141.698 142.539  97.520  0.00  0.00    +0.042 A 
ATOM     20 CL   UNL     1     141.048 142.843  95.957  0.00  0.00    -0.084 Cl
ATOM     21  C   UNL     1     141.008 142.978  98.651  0.00  0.00    -0.033 A 
ATOM     22  O   UNL     1     141.391 142.938 102.323  0.00  0.00    -0.458 OA
ATOM     23  H   UNL     1     144.552 139.352 106.378  0.00  0.00    +0.000 HD
ATOM     24  H   UNL     1     139.830 141.591 104.988  0.00  0.00    +0.000 HD
ATOM     25  H   UNL     1     141.444 141.241 104.672  0.00  0.00    +0.000 HD
ENDROOT
TORSDOF 0
ENDMDL
MODEL 9
REMARK VINA RESULT:    -3.959      6.863     11.507
REMARK INTER + INTRA:          -3.959
REMARK INTER:                  -3.959
REMARK INTRA:                   0.000
REMARK UNBOUND:                 0.000
REMARK  Name = /home/vital/Documents/PhD_2021/Malaria_codes/scripts/../data/pdbqt_ligands/ligand_417_temp.pdb
REMARK                            x       y       z     vdW  Elec       q    Type
REMARK                         _______ _______ _______ _____ _____    ______ ____
ROOT
ATOM      1  C   UNL     1     140.743 131.949  90.047  0.00  0.00    -0.050 C 
ATOM      2  C   UNL     1     142.077 132.139  90.782  0.00  0.00    +0.004 C 
ATOM      3  C   UNL     1     142.523 133.599  90.658  0.00  0.00    -0.050 C 
ATOM      4  N   UNL     1     141.927 131.644  92.151  0.00  0.00    -0.303 N 
ATOM      5  C   UNL     1     141.341 132.552  93.126  0.00  0.00    -0.013 C 
ATOM      6  C   UNL     1     143.035 130.821  92.650  0.00  0.00    +0.000 C 
ATOM      7  C   UNL     1     144.443 131.439  92.770  0.00  0.00    -0.028 C 
ATOM      8  C   UNL     1     144.648 132.393  93.952  0.00  0.00    -0.003 C 
ATOM      9  N   UNL     1     144.497 131.685  95.222  0.00  0.00    -0.309 N 
ATOM     10  C   UNL     1     144.199 132.600  96.321  0.00  0.00    +0.055 C 
ATOM     11  C   UNL     1     144.245 131.894  97.631  0.00  0.00    +0.119 A 
ATOM     12  C   UNL     1     145.190 131.817  98.629  0.00  0.00    -0.019 A 
ATOM     13  C   UNL     1     144.638 130.985  99.634  0.00  0.00    -0.016 A 
ATOM     14  C   UNL     1     143.393 130.589  99.189  0.00  0.00    +0.135 A 
ATOM     15  C   UNL     1     142.341 129.727  99.724  0.00  0.00    +0.019 A 
ATOM     16  C   UNL     1     141.182 129.447  98.979  0.00  0.00    -0.051 A 
ATOM     17  C   UNL     1     140.189 128.605  99.482  0.00  0.00    -0.060 A 
ATOM     18  C   UNL     1     140.335 128.029 100.740  0.00  0.00    -0.043 A 
ATOM     19  C   UNL     1     141.476 128.304 101.490  0.00  0.00    +0.042 A 
ATOM     20 CL   UNL     1     141.663 127.594 103.045  0.00  0.00    -0.084 Cl
ATOM     21  C   UNL     1     142.473 129.145 100.991  0.00  0.00    -0.033 A 
ATOM     22  O   UNL     1     143.151 131.156  97.971  0.00  0.00    -0.458 OA
ATOM     23  H   UNL     1     141.168 130.973  92.027  0.00  0.00    +0.000 HD
ATOM     24  H   UNL     1     145.364 131.190  95.430  0.00  0.00    +0.000 HD
ATOM     25  H   UNL     1     143.718 131.033  95.131  0.00  0.00    +0.000 HD
ENDROOT
TORSDOF 0
ENDMDL
