MODEL 1
REMARK VINA RESULT:    -6.293      0.000      0.000
REMARK INTER + INTRA:          -6.293
REMARK INTER:                  -6.293
REMARK INTRA:                   0.000
REMARK UNBOUND:                 0.000
REMARK  Name = /home/vital/Documents/PhD_2021/Malaria_codes/scripts/../data/pdbqt_ligands/ligand_254_temp.pdb
REMARK                            x       y       z     vdW  Elec       q    Type
REMARK                         _______ _______ _______ _____ _____    ______ ____
ROOT
ATOM      1  C   UNL     1     123.326 131.677  86.569  0.00  0.00    +0.015 C 
ATOM      2  C   UNL     1     124.597 132.432  86.375  0.00  0.00    +0.223 C 
ATOM      3  N   UNL     1     124.676 133.721  86.472  0.00  0.00    -0.214 NA
ATOM      4  C   UNL     1     125.919 134.316  86.180  0.00  0.00    +0.078 A 
ATOM      5  C   UNL     1     125.894 135.526  85.476  0.00  0.00    -0.036 A 
ATOM      6  C   UNL     1     127.076 136.188  85.133  0.00  0.00    -0.060 A 
ATOM      7  C   UNL     1     128.307 135.645  85.492  0.00  0.00    -0.061 A 
ATOM      8  C   UNL     1     128.355 134.448  86.207  0.00  0.00    -0.049 A 
ATOM      9  C   UNL     1     127.166 133.790  86.561  0.00  0.00    +0.043 A 
ATOM     10  C   UNL     1     127.244 132.534  87.373  0.00  0.00    +0.168 C 
ATOM     11  N   UNL     1     128.139 132.511  88.429  0.00  0.00    -0.324 N 
ATOM     12  C   UNL     1     128.534 131.275  89.096  0.00  0.00    +0.034 C 
ATOM     13  C   UNL     1     129.211 131.610  90.428  0.00  0.00    +0.060 C 
ATOM     14  O   UNL     1     128.329 132.353  91.270  0.00  0.00    -0.393 OA
ATOM     15  N   UNL     1     126.498 131.485  87.137  0.00  0.00    -0.061 N 
ATOM     16  O   UNL     1     125.641 131.630  86.025  0.00  0.00    -0.338 OA
ATOM     17  H   UNL     1     128.524 133.362  88.742  0.00  0.00    +0.000 HD
ATOM     18  H   UNL     1     128.087 133.184  90.833  0.00  0.00    +0.000 HD
ATOM     19  H   UNL     1     126.532 130.669  87.687  0.00  0.00    +0.000 HD
ENDROOT
TORSDOF 0
ENDMDL
MODEL 2
REMARK VINA RESULT:    -5.002     17.545     20.193
REMARK INTER + INTRA:          -5.002
REMARK INTER:                  -5.002
REMARK INTRA:                   0.000
REMARK UNBOUND:                 0.000
REMARK  Name = /home/vital/Documents/PhD_2021/Malaria_codes/scripts/../data/pdbqt_ligands/ligand_254_temp.pdb
REMARK                            x       y       z     vdW  Elec       q    Type
REMARK                         _______ _______ _______ _____ _____    ______ ____
ROOT
ATOM      1  C   UNL     1     138.289 128.502  98.534  0.00  0.00    +0.015 C 
ATOM      2  C   UNL     1     139.556 129.154  98.975  0.00  0.00    +0.223 C 
ATOM      3  N   UNL     1     139.615 130.383  99.380  0.00  0.00    -0.214 NA
ATOM      4  C   UNL     1     140.888 130.901  99.688  0.00  0.00    +0.078 A 
ATOM      5  C   UNL     1     141.142 132.225  99.310  0.00  0.00    -0.036 A 
ATOM      6  C   UNL     1     142.378 132.825  99.564  0.00  0.00    -0.060 A 
ATOM      7  C   UNL     1     143.384 132.104 100.203  0.00  0.00    -0.061 A 
ATOM      8  C   UNL     1     143.147 130.787 100.602  0.00  0.00    -0.049 A 
ATOM      9  C   UNL     1     141.900 130.190 100.356  0.00  0.00    +0.043 A 
ATOM     10  C   UNL     1     141.655 128.794 100.840  0.00  0.00    +0.168 C 
ATOM     11  N   UNL     1     142.101 128.471 102.110  0.00  0.00    -0.324 N 
ATOM     12  C   UNL     1     142.204 127.093 102.579  0.00  0.00    +0.034 C 
ATOM     13  C   UNL     1     142.352 127.085 104.103  0.00  0.00    +0.060 C 
ATOM     14  O   UNL     1     141.236 127.724 104.723  0.00  0.00    -0.393 OA
ATOM     15  N   UNL     1     141.029 127.893 100.128  0.00  0.00    -0.061 N 
ATOM     16  O   UNL     1     140.642 128.341  98.847  0.00  0.00    -0.338 OA
ATOM     17  H   UNL     1     142.359 129.200 102.720  0.00  0.00    +0.000 HD
ATOM     18  H   UNL     1     141.184 128.645 104.426  0.00  0.00    +0.000 HD
ATOM     19  H   UNL     1     140.846 126.983 100.456  0.00  0.00    +0.000 HD
ENDROOT
TORSDOF 0
ENDMDL
MODEL 3
REMARK VINA RESULT:    -4.931      2.305      2.327
REMARK INTER + INTRA:          -4.931
REMARK INTER:                  -4.931
REMARK INTRA:                   0.000
REMARK UNBOUND:                 0.000
REMARK  Name = /home/vital/Documents/PhD_2021/Malaria_codes/scripts/../data/pdbqt_ligands/ligand_254_temp.pdb
REMARK                            x       y       z     vdW  Elec       q    Type
REMARK                         _______ _______ _______ _____ _____    ______ ____
ROOT
ATOM      1  C   UNL     1     123.567 131.603  86.834  0.00  0.00    +0.015 C 
ATOM      2  C   UNL     1     124.757 132.368  86.360  0.00  0.00    +0.223 C 
ATOM      3  N   UNL     1     125.258 133.370  87.011  0.00  0.00    -0.214 NA
ATOM      4  C   UNL     1     126.331 134.058  86.411  0.00  0.00    +0.078 A 
ATOM      5  C   UNL     1     126.344 135.452  86.544  0.00  0.00    -0.036 A 
ATOM      6  C   UNL     1     127.362 136.223  85.976  0.00  0.00    -0.060 A 
ATOM      7  C   UNL     1     128.387 135.606  85.263  0.00  0.00    -0.061 A 
ATOM      8  C   UNL     1     128.401 134.218  85.130  0.00  0.00    -0.049 A 
ATOM      9  C   UNL     1     127.384 133.443  85.712  0.00  0.00    +0.043 A 
ATOM     10  C   UNL     1     127.451 131.952  85.598  0.00  0.00    +0.168 C 
ATOM     11  N   UNL     1     128.683 131.352  85.794  0.00  0.00    -0.324 N 
ATOM     12  C   UNL     1     128.951 129.968  85.416  0.00  0.00    +0.034 C 
ATOM     13  C   UNL     1     130.241 129.497  86.094  0.00  0.00    +0.060 C 
ATOM     14  O   UNL     1     130.133 129.597  87.514  0.00  0.00    -0.393 OA
ATOM     15  N   UNL     1     126.405 131.208  85.346  0.00  0.00    -0.061 N 
ATOM     16  O   UNL     1     125.215 131.940  85.151  0.00  0.00    -0.338 OA
ATOM     17  H   UNL     1     129.407 131.880  86.203  0.00  0.00    +0.000 HD
ATOM     18  H   UNL     1     129.977 130.522  87.762  0.00  0.00    +0.000 HD
ATOM     19  H   UNL     1     126.445 130.226  85.297  0.00  0.00    +0.000 HD
ENDROOT
TORSDOF 0
ENDMDL
MODEL 4
REMARK VINA RESULT:    -4.412     17.104     20.206
REMARK INTER + INTRA:          -4.412
REMARK INTER:                  -4.412
REMARK INTRA:                   0.000
REMARK UNBOUND:                 0.000
REMARK  Name = /home/vital/Documents/PhD_2021/Malaria_codes/scripts/../data/pdbqt_ligands/ligand_254_temp.pdb
REMARK                            x       y       z     vdW  Elec       q    Type
REMARK                         _______ _______ _______ _____ _____    ______ ____
ROOT
ATOM      1  C   UNL     1     144.450 128.371 101.449  0.00  0.00    +0.015 C 
ATOM      2  C   UNL     1     143.722 129.553 100.902  0.00  0.00    +0.223 C 
ATOM      3  N   UNL     1     144.158 130.251  99.902  0.00  0.00    -0.214 NA
ATOM      4  C   UNL     1     143.417 131.393  99.539  0.00  0.00    +0.078 A 
ATOM      5  C   UNL     1     144.144 132.527  99.159  0.00  0.00    -0.036 A 
ATOM      6  C   UNL     1     143.499 133.710  98.791  0.00  0.00    -0.060 A 
ATOM      7  C   UNL     1     142.108 133.776  98.799  0.00  0.00    -0.061 A 
ATOM      8  C   UNL     1     141.362 132.653  99.160  0.00  0.00    -0.049 A 
ATOM      9  C   UNL     1     142.013 131.461  99.519  0.00  0.00    +0.043 A 
ATOM     10  C   UNL     1     141.189 130.256  99.852  0.00  0.00    +0.168 C 
ATOM     11  N   UNL     1     140.099 129.984  99.044  0.00  0.00    -0.324 N 
ATOM     12  C   UNL     1     139.052 129.042  99.428  0.00  0.00    +0.034 C 
ATOM     13  C   UNL     1     138.217 128.681  98.197  0.00  0.00    +0.060 C 
ATOM     14  O   UNL     1     139.037 128.103  97.181  0.00  0.00    -0.393 OA
ATOM     15  N   UNL     1     141.469 129.454 100.848  0.00  0.00    -0.061 N 
ATOM     16  O   UNL     1     142.593 129.850 101.603  0.00  0.00    -0.338 OA
ATOM     17  H   UNL     1     140.026 130.444  98.176  0.00  0.00    +0.000 HD
ATOM     18  H   UNL     1     139.717 128.740  96.913  0.00  0.00    +0.000 HD
ATOM     19  H   UNL     1     140.942 128.648 101.052  0.00  0.00    +0.000 HD
ENDROOT
TORSDOF 0
ENDMDL
MODEL 5
REMARK VINA RESULT:    -4.333     10.671     12.900
REMARK INTER + INTRA:          -4.333
REMARK INTER:                  -4.333
REMARK INTRA:                   0.000
REMARK UNBOUND:                 0.000
REMARK  Name = /home/vital/Documents/PhD_2021/Malaria_codes/scripts/../data/pdbqt_ligands/ligand_254_temp.pdb
REMARK                            x       y       z     vdW  Elec       q    Type
REMARK                         _______ _______ _______ _____ _____    ______ ____
ROOT
ATOM      1  C   UNL     1     136.623 124.773  89.016  0.00  0.00    +0.015 C 
ATOM      2  C   UNL     1     135.614 124.086  88.160  0.00  0.00    +0.223 C 
ATOM      3  N   UNL     1     135.657 122.818  87.894  0.00  0.00    -0.214 NA
ATOM      4  C   UNL     1     134.691 122.312  87.003  0.00  0.00    +0.078 A 
ATOM      5  C   UNL     1     135.118 121.343  86.088  0.00  0.00    -0.036 A 
ATOM      6  C   UNL     1     134.235 120.787  85.158  0.00  0.00    -0.060 A 
ATOM      7  C   UNL     1     132.904 121.197  85.131  0.00  0.00    -0.061 A 
ATOM      8  C   UNL     1     132.453 122.151  86.043  0.00  0.00    -0.049 A 
ATOM      9  C   UNL     1     133.339 122.700  86.985  0.00  0.00    +0.043 A 
ATOM     10  C   UNL     1     132.818 123.683  87.987  0.00  0.00    +0.168 C 
ATOM     11  N   UNL     1     131.598 123.405  88.579  0.00  0.00    -0.324 N 
ATOM     12  C   UNL     1     130.841 124.405  89.324  0.00  0.00    +0.034 C 
ATOM     13  C   UNL     1     129.761 123.709  90.157  0.00  0.00    +0.060 C 
ATOM     14  O   UNL     1     130.346 122.773  91.064  0.00  0.00    -0.393 OA
ATOM     15  N   UNL     1     133.469 124.764  88.330  0.00  0.00    -0.061 N 
ATOM     16  O   UNL     1     134.689 124.941  87.643  0.00  0.00    -0.338 OA
ATOM     17  H   UNL     1     131.227 122.496  88.495  0.00  0.00    +0.000 HD
ATOM     18  H   UNL     1     130.830 122.098  90.563  0.00  0.00    +0.000 HD
ATOM     19  H   UNL     1     133.138 125.398  89.007  0.00  0.00    +0.000 HD
ENDROOT
TORSDOF 0
ENDMDL
MODEL 6
REMARK VINA RESULT:    -4.248     10.619     12.187
REMARK INTER + INTRA:          -4.248
REMARK INTER:                  -4.248
REMARK INTRA:                   0.000
REMARK UNBOUND:                 0.000
REMARK  Name = /home/vital/Documents/PhD_2021/Malaria_codes/scripts/../data/pdbqt_ligands/ligand_254_temp.pdb
REMARK                            x       y       z     vdW  Elec       q    Type
REMARK                         _______ _______ _______ _____ _____    ______ ____
ROOT
ATOM      1  C   UNL     1     130.353 124.341  89.818  0.00  0.00    +0.015 C 
ATOM      2  C   UNL     1     131.267 123.633  88.875  0.00  0.00    +0.223 C 
ATOM      3  N   UNL     1     130.922 123.301  87.671  0.00  0.00    -0.214 NA
ATOM      4  C   UNL     1     131.851 122.561  86.914  0.00  0.00    +0.078 A 
ATOM      5  C   UNL     1     131.340 121.539  86.105  0.00  0.00    -0.036 A 
ATOM      6  C   UNL     1     132.183 120.744  85.324  0.00  0.00    -0.060 A 
ATOM      7  C   UNL     1     133.559 120.962  85.343  0.00  0.00    -0.061 A 
ATOM      8  C   UNL     1     134.088 121.985  86.130  0.00  0.00    -0.049 A 
ATOM      9  C   UNL     1     133.238 122.790  86.905  0.00  0.00    +0.043 A 
ATOM     10  C   UNL     1     133.827 123.913  87.701  0.00  0.00    +0.168 C 
ATOM     11  N   UNL     1     134.798 124.688  87.090  0.00  0.00    -0.324 N 
ATOM     12  C   UNL     1     135.659 125.600  87.837  0.00  0.00    +0.034 C 
ATOM     13  C   UNL     1     136.340 126.567  86.864  0.00  0.00    +0.060 C 
ATOM     14  O   UNL     1     135.368 127.313  86.130  0.00  0.00    -0.393 OA
ATOM     15  N   UNL     1     133.451 124.196  88.922  0.00  0.00    -0.061 N 
ATOM     16  O   UNL     1     132.469 123.323  89.435  0.00  0.00    -0.338 OA
ATOM     17  H   UNL     1     134.912 124.622  86.114  0.00  0.00    +0.000 HD
ATOM     18  H   UNL     1     134.813 126.705  85.618  0.00  0.00    +0.000 HD
ATOM     19  H   UNL     1     133.820 124.950  89.436  0.00  0.00    +0.000 HD
ENDROOT
TORSDOF 0
ENDMDL
MODEL 7
REMARK VINA RESULT:    -4.189     18.222     20.618
REMARK INTER + INTRA:          -4.189
REMARK INTER:                  -4.189
REMARK INTRA:                   0.000
REMARK UNBOUND:                 0.000
REMARK  Name = /home/vital/Documents/PhD_2021/Malaria_codes/scripts/../data/pdbqt_ligands/ligand_254_temp.pdb
REMARK                            x       y       z     vdW  Elec       q    Type
REMARK                         _______ _______ _______ _____ _____    ______ ____
ROOT
ATOM      1  C   UNL     1     143.686 130.472  97.519  0.00  0.00    +0.015 C 
ATOM      2  C   UNL     1     142.547 130.118  98.416  0.00  0.00    +0.223 C 
ATOM      3  N   UNL     1     141.676 129.204  98.126  0.00  0.00    -0.214 NA
ATOM      4  C   UNL     1     140.603 129.028  99.020  0.00  0.00    +0.078 A 
ATOM      5  C   UNL     1     139.345 128.774  98.460  0.00  0.00    -0.036 A 
ATOM      6  C   UNL     1     138.217 128.594  99.265  0.00  0.00    -0.060 A 
ATOM      7  C   UNL     1     138.333 128.666 100.651  0.00  0.00    -0.061 A 
ATOM      8  C   UNL     1     139.579 128.904 101.232  0.00  0.00    -0.049 A 
ATOM      9  C   UNL     1     140.714 129.072 100.421  0.00  0.00    +0.043 A 
ATOM     10  C   UNL     1     142.048 129.274 101.071  0.00  0.00    +0.168 C 
ATOM     11  N   UNL     1     142.352 128.481 102.164  0.00  0.00    -0.324 N 
ATOM     12  C   UNL     1     143.462 128.777 103.064  0.00  0.00    +0.034 C 
ATOM     13  C   UNL     1     143.767 127.543 103.918  0.00  0.00    +0.060 C 
ATOM     14  O   UNL     1     144.099 126.427 103.092  0.00  0.00    -0.393 OA
ATOM     15  N   UNL     1     142.927 130.141 100.640  0.00  0.00    -0.061 N 
ATOM     16  O   UNL     1     142.490 130.898  99.532  0.00  0.00    -0.338 OA
ATOM     17  H   UNL     1     141.797 127.686 102.341  0.00  0.00    +0.000 HD
ATOM     18  H   UNL     1     143.351 126.219 102.511  0.00  0.00    +0.000 HD
ATOM     19  H   UNL     1     143.814 130.256 101.052  0.00  0.00    +0.000 HD
ENDROOT
TORSDOF 0
ENDMDL
MODEL 8
REMARK VINA RESULT:    -4.140     18.660     20.656
REMARK INTER + INTRA:          -4.140
REMARK INTER:                  -4.140
REMARK INTRA:                   0.000
REMARK UNBOUND:                 0.000
REMARK  Name = /home/vital/Documents/PhD_2021/Malaria_codes/scripts/../data/pdbqt_ligands/ligand_254_temp.pdb
REMARK                            x       y       z     vdW  Elec       q    Type
REMARK                         _______ _______ _______ _____ _____    ______ ____
ROOT
ATOM      1  C   UNL     1     138.841 128.609  99.999  0.00  0.00    +0.015 C 
ATOM      2  C   UNL     1     140.063 129.438  99.789  0.00  0.00    +0.223 C 
ATOM      3  N   UNL     1     140.134 130.690 100.114  0.00  0.00    -0.214 NA
ATOM      4  C   UNL     1     141.317 131.378  99.783  0.00  0.00    +0.078 A 
ATOM      5  C   UNL     1     141.180 132.694  99.325  0.00  0.00    -0.036 A 
ATOM      6  C   UNL     1     142.295 133.454  98.964  0.00  0.00    -0.060 A 
ATOM      7  C   UNL     1     143.572 132.904  99.056  0.00  0.00    -0.061 A 
ATOM      8  C   UNL     1     143.733 131.600  99.523  0.00  0.00    -0.049 A 
ATOM      9  C   UNL     1     142.612 130.841  99.897  0.00  0.00    +0.043 A 
ATOM     10  C   UNL     1     142.817 129.462 100.443  0.00  0.00    +0.168 C 
ATOM     11  N   UNL     1     143.844 129.283 101.354  0.00  0.00    -0.324 N 
ATOM     12  C   UNL     1     144.344 127.962 101.723  0.00  0.00    +0.034 C 
ATOM     13  C   UNL     1     145.186 128.076 102.997  0.00  0.00    +0.060 C 
ATOM     14  O   UNL     1     144.412 128.616 104.069  0.00  0.00    -0.393 OA
ATOM     15  N   UNL     1     142.063 128.445 100.114  0.00  0.00    -0.061 N 
ATOM     16  O   UNL     1     141.065 128.755  99.166  0.00  0.00    -0.338 OA
ATOM     17  H   UNL     1     144.254 130.077 101.768  0.00  0.00    +0.000 HD
ATOM     18  H   UNL     1     144.100 129.502 103.828  0.00  0.00    +0.000 HD
ATOM     19  H   UNL     1     142.182 127.544 100.492  0.00  0.00    +0.000 HD
ENDROOT
TORSDOF 0
ENDMDL
MODEL 9
REMARK VINA RESULT:    -4.115     18.170     20.685
REMARK INTER + INTRA:          -4.115
REMARK INTER:                  -4.115
REMARK INTRA:                   0.000
REMARK UNBOUND:                 0.000
REMARK  Name = /home/vital/Documents/PhD_2021/Malaria_codes/scripts/../data/pdbqt_ligands/ligand_254_temp.pdb
REMARK                            x       y       z     vdW  Elec       q    Type
REMARK                         _______ _______ _______ _____ _____    ______ ____
ROOT
ATOM      1  C   UNL     1     138.321 128.545  99.425  0.00  0.00    +0.015 C 
ATOM      2  C   UNL     1     139.576 128.868 100.163  0.00  0.00    +0.223 C 
ATOM      3  N   UNL     1     140.609 128.086 100.178  0.00  0.00    -0.214 NA
ATOM      4  C   UNL     1     141.698 128.470 100.984  0.00  0.00    +0.078 A 
ATOM      5  C   UNL     1     142.361 127.454 101.682  0.00  0.00    -0.036 A 
ATOM      6  C   UNL     1     143.447 127.737 102.514  0.00  0.00    -0.060 A 
ATOM      7  C   UNL     1     143.889 129.050 102.659  0.00  0.00    -0.061 A 
ATOM      8  C   UNL     1     143.253 130.077 101.961  0.00  0.00    -0.049 A 
ATOM      9  C   UNL     1     142.168 129.789 101.117  0.00  0.00    +0.043 A 
ATOM     10  C   UNL     1     141.537 130.902 100.340  0.00  0.00    +0.168 C 
ATOM     11  N   UNL     1     142.380 131.822  99.741  0.00  0.00    -0.324 N 
ATOM     12  C   UNL     1     141.907 133.103  99.226  0.00  0.00    +0.034 C 
ATOM     13  C   UNL     1     142.973 133.706  98.307  0.00  0.00    +0.060 C 
ATOM     14  O   UNL     1     143.261 132.826  97.221  0.00  0.00    -0.393 OA
ATOM     15  N   UNL     1     140.242 131.024 100.192  0.00  0.00    -0.061 N 
ATOM     16  O   UNL     1     139.494 130.034 100.863  0.00  0.00    -0.338 OA
ATOM     17  H   UNL     1     143.338 131.604  99.661  0.00  0.00    +0.000 HD
ATOM     18  H   UNL     1     143.597 131.984  97.567  0.00  0.00    +0.000 HD
ATOM     19  H   UNL     1     139.828 131.741  99.660  0.00  0.00    +0.000 HD
ENDROOT
TORSDOF 0
ENDMDL
