MODEL 1
REMARK VINA RESULT:    -5.517      0.000      0.000
REMARK INTER + INTRA:          -5.517
REMARK INTER:                  -5.517
REMARK INTRA:                   0.000
REMARK UNBOUND:                 0.000
REMARK  Name = /home/vital/Documents/PhD_2021/Malaria_codes/scripts/../data/pdbqt_ligands/ligand_67_temp.pdb
REMARK                            x       y       z     vdW  Elec       q    Type
REMARK                         _______ _______ _______ _____ _____    ______ ____
ROOT
ATOM      1  C1  UNL     1     144.672 127.182 104.104  0.00  0.00    -0.055 C 
ATOM      2  C2  UNL     1     143.562 127.717 103.581  0.00  0.00    +0.135 C 
ATOM      3  O1  UNL     1     142.347 127.577 104.234  0.00  0.00    -0.485 OA
ATOM      4  C3  UNL     1     141.522 126.558 103.637  0.00  0.00    +0.131 C 
ATOM      5  C4  UNL     1     141.209 126.960 102.197  0.00  0.00    +0.075 C 
ATOM      6  N1  UNL     1     140.442 127.980 102.085  0.00  0.00    -0.266 NA
ATOM      7  C5  UNL     1     140.447 128.847 100.935  0.00  0.00    +0.103 C 
ATOM      8  N2  UNL     1     140.639 130.230 101.395  0.00  0.00    -0.324 N 
ATOM      9  C6  UNL     1     141.753 130.922 100.884  0.00  0.00    +0.051 A 
ATOM     10  C7  UNL     1     141.587 131.731  99.750  0.00  0.00    -0.019 A 
ATOM     11  C8  UNL     1     142.675 132.397  99.175  0.00  0.00    +0.061 A 
ATOM     12 CL1  UNL     1     142.369 133.370  97.778  0.00  0.00    -0.082 Cl
ATOM     13  C9  UNL     1     143.953 132.255  99.721  0.00  0.00    +0.061 A 
ATOM     14 CL2  UNL     1     145.341 133.033  99.049  0.00  0.00    -0.082 Cl
ATOM     15  C10 UNL     1     144.140 131.445 100.843  0.00  0.00    -0.019 A 
ATOM     16  C11 UNL     1     143.053 130.786 101.439  0.00  0.00    +0.054 A 
ATOM     17  N3  UNL     1     143.329 129.923 102.548  0.00  0.00    -0.310 N 
ATOM     18  C12 UNL     1     143.590 128.555 102.364  0.00  0.00    +0.073 C 
ATOM     19  C13 UNL     1     143.692 127.993 101.137  0.00  0.00    -0.037 C 
ATOM     20  C14 UNL     1     143.228 126.662 100.797  0.00  0.00    -0.058 C 
ATOM     21  C15 UNL     1     142.016 126.216 101.171  0.00  0.00    -0.037 C 
ATOM     22  H   UNL     1     140.018 130.652 102.031  0.00  0.00    +0.000 HD
ATOM     23  H   UNL     1     143.336 130.297 103.459  0.00  0.00    +0.000 HD
ENDROOT
TORSDOF 0
ENDMDL
MODEL 2
REMARK VINA RESULT:    -4.919     16.072     17.556
REMARK INTER + INTRA:          -4.919
REMARK INTER:                  -4.919
REMARK INTRA:                   0.000
REMARK UNBOUND:                 0.000
REMARK  Name = /home/vital/Documents/PhD_2021/Malaria_codes/scripts/../data/pdbqt_ligands/ligand_67_temp.pdb
REMARK                            x       y       z     vdW  Elec       q    Type
REMARK                         _______ _______ _______ _____ _____    ______ ____
ROOT
ATOM      1  C1  UNL     1     131.161 121.311  85.882  0.00  0.00    -0.055 C 
ATOM      2  C2  UNL     1     131.705 121.844  86.983  0.00  0.00    +0.135 C 
ATOM      3  O1  UNL     1     131.549 121.217  88.211  0.00  0.00    -0.485 OA
ATOM      4  C3  UNL     1     130.540 121.850  89.021  0.00  0.00    +0.131 C 
ATOM      5  C4  UNL     1     130.969 123.288  89.308  0.00  0.00    +0.075 C 
ATOM      6  N1  UNL     1     131.989 123.395  90.075  0.00  0.00    -0.266 NA
ATOM      7  C5  UNL     1     132.879 124.527  90.050  0.00  0.00    +0.103 C 
ATOM      8  N2  UNL     1     134.253 124.037  89.870  0.00  0.00    -0.324 N 
ATOM      9  C6  UNL     1     134.958 124.512  88.749  0.00  0.00    +0.051 A 
ATOM     10  C7  UNL     1     135.788 125.633  88.894  0.00  0.00    -0.019 A 
ATOM     11  C8  UNL     1     136.468 126.175  87.798  0.00  0.00    +0.061 A 
ATOM     12 CL1  UNL     1     137.467 127.557  88.080  0.00  0.00    -0.082 Cl
ATOM     13  C9  UNL     1     136.318 125.607  86.530  0.00  0.00    +0.061 A 
ATOM     14 CL2  UNL     1     137.112 126.236  85.131  0.00  0.00    -0.082 Cl
ATOM     15  C10 UNL     1     135.487 124.498  86.363  0.00  0.00    -0.019 A 
ATOM     16  C11 UNL     1     134.814 123.935  87.459  0.00  0.00    +0.054 A 
ATOM     17  N3  UNL     1     133.930 122.838  87.202  0.00  0.00    -0.310 N 
ATOM     18  C12 UNL     1     132.566 123.043  86.934  0.00  0.00    +0.073 C 
ATOM     19  C13 UNL     1     132.028 124.280  86.807  0.00  0.00    -0.037 C 
ATOM     20  C14 UNL     1     130.704 124.654  87.261  0.00  0.00    -0.058 C 
ATOM     21  C15 UNL     1     130.247 124.312  88.479  0.00  0.00    -0.037 C 
ATOM     22  H   UNL     1     134.661 123.405  90.505  0.00  0.00    +0.000 HD
ATOM     23  H   UNL     1     134.285 121.921  87.213  0.00  0.00    +0.000 HD
ENDROOT
TORSDOF 0
ENDMDL
MODEL 3
REMARK VINA RESULT:    -4.743      3.434      5.601
REMARK INTER + INTRA:          -4.743
REMARK INTER:                  -4.743
REMARK INTRA:                   0.000
REMARK UNBOUND:                 0.000
REMARK  Name = /home/vital/Documents/PhD_2021/Malaria_codes/scripts/../data/pdbqt_ligands/ligand_67_temp.pdb
REMARK                            x       y       z     vdW  Elec       q    Type
REMARK                         _______ _______ _______ _____ _____    ______ ____
ROOT
ATOM      1  C1  UNL     1     138.490 128.409 100.323  0.00  0.00    -0.055 C 
ATOM      2  C2  UNL     1     139.642 129.018 100.626  0.00  0.00    +0.135 C 
ATOM      3  O1  UNL     1     139.712 130.403 100.656  0.00  0.00    -0.485 OA
ATOM      4  C3  UNL     1     140.328 130.943  99.471  0.00  0.00    +0.131 C 
ATOM      5  C4  UNL     1     141.764 130.429  99.386  0.00  0.00    +0.075 C 
ATOM      6  N1  UNL     1     142.548 130.887 100.290  0.00  0.00    -0.266 NA
ATOM      7  C5  UNL     1     143.718 130.184 100.748  0.00  0.00    +0.103 C 
ATOM      8  N2  UNL     1     143.647 130.063 102.211  0.00  0.00    -0.324 N 
ATOM      9  C6  UNL     1     143.675 128.762 102.746  0.00  0.00    +0.051 A 
ATOM     10  C7  UNL     1     144.905 128.220 103.147  0.00  0.00    -0.019 A 
ATOM     11  C8  UNL     1     144.992 126.912 103.636  0.00  0.00    +0.061 A 
ATOM     12 CL1  UNL     1     146.553 126.336 104.105  0.00  0.00    -0.082 Cl
ATOM     13  C9  UNL     1     143.845 126.118 103.719  0.00  0.00    +0.061 A 
ATOM     14 CL2  UNL     1     143.885 124.489 104.294  0.00  0.00    -0.082 Cl
ATOM     15  C10 UNL     1     142.614 126.635 103.314  0.00  0.00    -0.019 A 
ATOM     16  C11 UNL     1     142.512 127.952 102.839  0.00  0.00    +0.054 A 
ATOM     17  N3  UNL     1     141.229 128.394 102.381  0.00  0.00    -0.310 N 
ATOM     18  C12 UNL     1     140.846 128.266 101.035  0.00  0.00    +0.073 C 
ATOM     19  C13 UNL     1     141.617 127.636 100.118  0.00  0.00    -0.037 C 
ATOM     20  C14 UNL     1     141.750 128.042  98.732  0.00  0.00    -0.058 C 
ATOM     21  C15 UNL     1     141.953 129.325  98.385  0.00  0.00    -0.037 C 
ATOM     22  H   UNL     1     143.581 130.856 102.791  0.00  0.00    +0.000 HD
ATOM     23  H   UNL     1     140.601 128.797 103.024  0.00  0.00    +0.000 HD
ENDROOT
TORSDOF 0
ENDMDL
MODEL 4
REMARK VINA RESULT:    -4.641      1.808      2.376
REMARK INTER + INTRA:          -4.641
REMARK INTER:                  -4.641
REMARK INTRA:                   0.000
REMARK UNBOUND:                 0.000
REMARK  Name = /home/vital/Documents/PhD_2021/Malaria_codes/scripts/../data/pdbqt_ligands/ligand_67_temp.pdb
REMARK                            x       y       z     vdW  Elec       q    Type
REMARK                         _______ _______ _______ _____ _____    ______ ____
ROOT
ATOM      1  C1  UNL     1     141.998 126.621 102.382  0.00  0.00    -0.055 C 
ATOM      2  C2  UNL     1     141.495 127.742 101.852  0.00  0.00    +0.135 C 
ATOM      3  O1  UNL     1     140.195 128.129 102.144  0.00  0.00    -0.485 OA
ATOM      4  C3  UNL     1     139.282 127.820 101.073  0.00  0.00    +0.131 C 
ATOM      5  C4  UNL     1     139.706 128.595  99.826  0.00  0.00    +0.075 C 
ATOM      6  N1  UNL     1     139.552 129.864  99.911  0.00  0.00    -0.266 NA
ATOM      7  C5  UNL     1     140.339 130.806  99.157  0.00  0.00    +0.103 C 
ATOM      8  N2  UNL     1     140.933 131.771 100.093  0.00  0.00    -0.324 N 
ATOM      9  C6  UNL     1     142.337 131.870 100.100  0.00  0.00    +0.051 A 
ATOM     10  C7  UNL     1     142.952 132.848  99.304  0.00  0.00    -0.019 A 
ATOM     11  C8  UNL     1     144.345 132.952  99.237  0.00  0.00    +0.061 A 
ATOM     12 CL1  UNL     1     145.007 134.190  98.227  0.00  0.00    -0.082 Cl
ATOM     13  C9  UNL     1     145.149 132.066  99.958  0.00  0.00    +0.061 A 
ATOM     14 CL2  UNL     1     146.875 132.126  99.905  0.00  0.00    -0.082 Cl
ATOM     15  C10 UNL     1     144.557 131.079 100.747  0.00  0.00    -0.019 A 
ATOM     16  C11 UNL     1     143.160 130.977 100.836  0.00  0.00    +0.054 A 
ATOM     17  N3  UNL     1     142.622 129.901 101.613  0.00  0.00    -0.310 N 
ATOM     18  C12 UNL     1     142.311 128.660 101.031  0.00  0.00    +0.073 C 
ATOM     19  C13 UNL     1     142.588 128.375  99.737  0.00  0.00    -0.037 C 
ATOM     20  C14 UNL     1     141.747 127.572  98.871  0.00  0.00    -0.058 C 
ATOM     21  C15 UNL     1     140.417 127.755  98.804  0.00  0.00    -0.037 C 
ATOM     22  H   UNL     1     140.376 132.322 100.689  0.00  0.00    +0.000 HD
ATOM     23  H   UNL     1     142.467 130.033 102.576  0.00  0.00    +0.000 HD
ENDROOT
TORSDOF 0
ENDMDL
MODEL 5
REMARK VINA RESULT:    -4.430      3.913      5.296
REMARK INTER + INTRA:          -4.430
REMARK INTER:                  -4.430
REMARK INTRA:                   0.000
REMARK UNBOUND:                 0.000
REMARK  Name = /home/vital/Documents/PhD_2021/Malaria_codes/scripts/../data/pdbqt_ligands/ligand_67_temp.pdb
REMARK                            x       y       z     vdW  Elec       q    Type
REMARK                         _______ _______ _______ _____ _____    ______ ____
ROOT
ATOM      1  C1  UNL     1     146.308 129.345  97.278  0.00  0.00    -0.055 C 
ATOM      2  C2  UNL     1     145.536 130.004  98.149  0.00  0.00    +0.135 C 
ATOM      3  O1  UNL     1     145.849 131.306  98.512  0.00  0.00    -0.485 OA
ATOM      4  C3  UNL     1     146.483 131.373  99.804  0.00  0.00    +0.131 C 
ATOM      5  C4  UNL     1     145.513 130.840 100.857  0.00  0.00    +0.075 C 
ATOM      6  N1  UNL     1     144.488 131.581 101.058  0.00  0.00    -0.266 NA
ATOM      7  C5  UNL     1     143.232 131.072 101.545  0.00  0.00    +0.103 C 
ATOM      8  N2  UNL     1     142.169 131.488 100.619  0.00  0.00    -0.324 N 
ATOM      9  C6  UNL     1     141.403 130.466 100.028  0.00  0.00    +0.051 A 
ATOM     10  C7  UNL     1     140.196 130.086 100.632  0.00  0.00    -0.019 A 
ATOM     11  C8  UNL     1     139.426 129.041 100.111  0.00  0.00    +0.061 A 
ATOM     12 CL1  UNL     1     137.954 128.648 100.928  0.00  0.00    -0.082 Cl
ATOM     13  C9  UNL     1     139.861 128.348  98.978  0.00  0.00    +0.061 A 
ATOM     14 CL2  UNL     1     138.969 127.035  98.295  0.00  0.00    -0.082 Cl
ATOM     15  C10 UNL     1     141.065 128.703  98.369  0.00  0.00    -0.019 A 
ATOM     16  C11 UNL     1     141.837 129.762  98.873  0.00  0.00    +0.054 A 
ATOM     17  N3  UNL     1     143.090 130.030  98.235  0.00  0.00    -0.310 N 
ATOM     18  C12 UNL     1     144.282 129.431  98.680  0.00  0.00    +0.073 C 
ATOM     19  C13 UNL     1     144.304 128.501  99.663  0.00  0.00    -0.037 C 
ATOM     20  C14 UNL     1     145.350 128.378 100.660  0.00  0.00    -0.058 C 
ATOM     21  C15 UNL     1     145.830 129.447 101.321  0.00  0.00    -0.037 C 
ATOM     22  H   UNL     1     142.001 132.437 100.421  0.00  0.00    +0.000 HD
ATOM     23  H   UNL     1     143.119 130.647  97.468  0.00  0.00    +0.000 HD
ENDROOT
TORSDOF 0
ENDMDL
MODEL 6
REMARK VINA RESULT:    -4.385     16.822     18.101
REMARK INTER + INTRA:          -4.385
REMARK INTER:                  -4.385
REMARK INTRA:                   0.000
REMARK UNBOUND:                 0.000
REMARK  Name = /home/vital/Documents/PhD_2021/Malaria_codes/scripts/../data/pdbqt_ligands/ligand_67_temp.pdb
REMARK                            x       y       z     vdW  Elec       q    Type
REMARK                         _______ _______ _______ _____ _____    ______ ____
ROOT
ATOM      1  C1  UNL     1     130.231 124.729  87.920  0.00  0.00    -0.055 C 
ATOM      2  C2  UNL     1     131.144 123.794  87.629  0.00  0.00    +0.135 C 
ATOM      3  O1  UNL     1     130.749 122.488  87.380  0.00  0.00    -0.485 OA
ATOM      4  C3  UNL     1     130.974 121.626  88.512  0.00  0.00    +0.131 C 
ATOM      5  C4  UNL     1     132.471 121.587  88.811  0.00  0.00    +0.075 C 
ATOM      6  N1  UNL     1     133.176 120.996  87.920  0.00  0.00    -0.266 NA
ATOM      7  C5  UNL     1     134.567 121.291  87.690  0.00  0.00    +0.103 C 
ATOM      8  N2  UNL     1     134.748 121.605  86.266  0.00  0.00    -0.324 N 
ATOM      9  C6  UNL     1     135.286 122.867  85.955  0.00  0.00    +0.051 A 
ATOM     10  C7  UNL     1     136.670 122.985  85.760  0.00  0.00    -0.019 A 
ATOM     11  C8  UNL     1     137.259 124.228  85.501  0.00  0.00    +0.061 A 
ATOM     12 CL1  UNL     1     138.972 124.269  85.276  0.00  0.00    -0.082 Cl
ATOM     13  C9  UNL     1     136.469 125.379  85.444  0.00  0.00    +0.061 A 
ATOM     14 CL2  UNL     1     137.133 126.946  85.147  0.00  0.00    -0.082 Cl
ATOM     15  C10 UNL     1     135.091 125.284  85.646  0.00  0.00    -0.019 A 
ATOM     16  C11 UNL     1     134.487 124.040  85.889  0.00  0.00    +0.054 A 
ATOM     17  N3  UNL     1     133.080 124.026  86.150  0.00  0.00    -0.310 N 
ATOM     18  C12 UNL     1     132.575 124.117  87.458  0.00  0.00    +0.073 C 
ATOM     19  C13 UNL     1     133.375 124.319  88.532  0.00  0.00    -0.037 C 
ATOM     20  C14 UNL     1     133.165 123.729  89.840  0.00  0.00    -0.058 C 
ATOM     21  C15 UNL     1     132.875 122.424  89.991  0.00  0.00    -0.037 C 
ATOM     22  H   UNL     1     134.503 120.962  85.561  0.00  0.00    +0.000 HD
ATOM     23  H   UNL     1     132.451 123.952  85.396  0.00  0.00    +0.000 HD
ENDROOT
TORSDOF 0
ENDMDL
MODEL 7
REMARK VINA RESULT:    -4.380      3.284      4.496
REMARK INTER + INTRA:          -4.380
REMARK INTER:                  -4.380
REMARK INTRA:                   0.000
REMARK UNBOUND:                 0.000
REMARK  Name = /home/vital/Documents/PhD_2021/Malaria_codes/scripts/../data/pdbqt_ligands/ligand_67_temp.pdb
REMARK                            x       y       z     vdW  Elec       q    Type
REMARK                         _______ _______ _______ _____ _____    ______ ____
ROOT
ATOM      1  C1  UNL     1     138.470 128.981 100.671  0.00  0.00    -0.055 C 
ATOM      2  C2  UNL     1     139.296 128.958  99.618  0.00  0.00    +0.135 C 
ATOM      3  O1  UNL     1     138.783 128.973  98.330  0.00  0.00    -0.485 OA
ATOM      4  C3  UNL     1     138.797 127.667  97.723  0.00  0.00    +0.131 C 
ATOM      5  C4  UNL     1     140.243 127.188  97.618  0.00  0.00    +0.075 C 
ATOM      6  N1  UNL     1     140.962 127.843  96.785  0.00  0.00    -0.266 NA
ATOM      7  C5  UNL     1     142.393 127.959  96.898  0.00  0.00    +0.103 C 
ATOM      8  N2  UNL     1     142.748 129.385  96.873  0.00  0.00    -0.324 N 
ATOM      9  C6  UNL     1     143.454 129.886  97.982  0.00  0.00    +0.051 A 
ATOM     10  C7  UNL     1     144.854 129.932  97.932  0.00  0.00    -0.019 A 
ATOM     11  C8  UNL     1     145.602 130.373  99.030  0.00  0.00    +0.061 A 
ATOM     12 CL1  UNL     1     147.323 130.392  98.869  0.00  0.00    -0.082 Cl
ATOM     13  C9  UNL     1     144.956 130.765 100.205  0.00  0.00    +0.061 A 
ATOM     14 CL2  UNL     1     145.818 131.300 101.603  0.00  0.00    -0.082 Cl
ATOM     15  C10 UNL     1     143.563 130.715 100.279  0.00  0.00    -0.019 A 
ATOM     16  C11 UNL     1     142.802 130.292  99.177  0.00  0.00    +0.054 A 
ATOM     17  N3  UNL     1     141.383 130.207  99.346  0.00  0.00    -0.310 N 
ATOM     18  C12 UNL     1     140.765 129.017  99.768  0.00  0.00    +0.073 C 
ATOM     19  C13 UNL     1     141.471 127.920 100.131  0.00  0.00    -0.037 C 
ATOM     20  C14 UNL     1     141.069 126.554  99.864  0.00  0.00    -0.058 C 
ATOM     21  C15 UNL     1     140.620 126.169  98.656  0.00  0.00    -0.037 C 
ATOM     22  H   UNL     1     142.504 129.964  96.114  0.00  0.00    +0.000 HD
ATOM     23  H   UNL     1     140.828 130.999  99.163  0.00  0.00    +0.000 HD
ENDROOT
TORSDOF 0
ENDMDL
MODEL 8
REMARK VINA RESULT:    -4.358     15.959     17.242
REMARK INTER + INTRA:          -4.358
REMARK INTER:                  -4.358
REMARK INTRA:                   0.000
REMARK UNBOUND:                 0.000
REMARK  Name = /home/vital/Documents/PhD_2021/Malaria_codes/scripts/../data/pdbqt_ligands/ligand_67_temp.pdb
REMARK                            x       y       z     vdW  Elec       q    Type
REMARK                         _______ _______ _______ _____ _____    ______ ____
ROOT
ATOM      1  C1  UNL     1     131.364 122.131  89.648  0.00  0.00    -0.055 C 
ATOM      2  C2  UNL     1     131.876 122.820  88.622  0.00  0.00    +0.135 C 
ATOM      3  O1  UNL     1     131.045 123.295  87.618  0.00  0.00    -0.485 OA
ATOM      4  C3  UNL     1     131.101 122.477  86.433  0.00  0.00    +0.131 C 
ATOM      5  C4  UNL     1     132.525 122.507  85.882  0.00  0.00    +0.075 C 
ATOM      6  N1  UNL     1     132.887 123.639  85.404  0.00  0.00    -0.266 NA
ATOM      7  C5  UNL     1     134.261 124.066  85.344  0.00  0.00    +0.103 C 
ATOM      8  N2  UNL     1     134.371 125.377  86.000  0.00  0.00    -0.324 N 
ATOM      9  C6  UNL     1     135.257 125.473  87.088  0.00  0.00    +0.051 A 
ATOM     10  C7  UNL     1     136.570 125.909  86.858  0.00  0.00    -0.019 A 
ATOM     11  C8  UNL     1     137.503 125.971  87.900  0.00  0.00    +0.061 A 
ATOM     12 CL1  UNL     1     139.096 126.521  87.514  0.00  0.00    -0.082 Cl
ATOM     13  C9  UNL     1     137.137 125.584  89.191  0.00  0.00    +0.061 A 
ATOM     14 CL2  UNL     1     138.243 125.617  90.518  0.00  0.00    -0.082 Cl
ATOM     15  C10 UNL     1     135.838 125.136  89.438  0.00  0.00    -0.019 A 
ATOM     16  C11 UNL     1     134.889 125.087  88.405  0.00  0.00    +0.054 A 
ATOM     17  N3  UNL     1     133.596 124.558  88.718  0.00  0.00    -0.310 N 
ATOM     18  C12 UNL     1     133.304 123.193  88.558  0.00  0.00    +0.073 C 
ATOM     19  C13 UNL     1     134.243 122.287  88.196  0.00  0.00    -0.037 C 
ATOM     20  C14 UNL     1     134.002 121.149  87.331  0.00  0.00    -0.058 C 
ATOM     21  C15 UNL     1     133.315 121.265  86.180  0.00  0.00    -0.037 C 
ATOM     22  H   UNL     1     133.848 126.152  85.692  0.00  0.00    +0.000 HD
ATOM     23  H   UNL     1     132.896 125.164  89.052  0.00  0.00    +0.000 HD
ENDROOT
TORSDOF 0
ENDMDL
MODEL 9
REMARK VINA RESULT:    -4.270      4.432      6.171
REMARK INTER + INTRA:          -4.270
REMARK INTER:                  -4.270
REMARK INTRA:                   0.000
REMARK UNBOUND:                 0.000
REMARK  Name = /home/vital/Documents/PhD_2021/Malaria_codes/scripts/../data/pdbqt_ligands/ligand_67_temp.pdb
REMARK                            x       y       z     vdW  Elec       q    Type
REMARK                         _______ _______ _______ _____ _____    ______ ____
ROOT
ATOM      1  C1  UNL     1     144.483 131.117  97.984  0.00  0.00    -0.055 C 
ATOM      2  C2  UNL     1     143.185 130.812  98.101  0.00  0.00    +0.135 C 
ATOM      3  O1  UNL     1     142.220 131.793  97.927  0.00  0.00    -0.485 OA
ATOM      4  C3  UNL     1     141.697 132.271  99.181  0.00  0.00    +0.131 C 
ATOM      5  C4  UNL     1     141.022 131.109  99.908  0.00  0.00    +0.075 C 
ATOM      6  N1  UNL     1     139.950 130.685  99.351  0.00  0.00    -0.266 NA
ATOM      7  C5  UNL     1     139.464 129.337  99.502  0.00  0.00    +0.103 C 
ATOM      8  N2  UNL     1     139.255 128.764  98.165  0.00  0.00    -0.324 N 
ATOM      9  C6  UNL     1     139.965 127.589  97.857  0.00  0.00    +0.051 A 
ATOM     10  C7  UNL     1     139.344 126.348  98.063  0.00  0.00    -0.019 A 
ATOM     11  C8  UNL     1     140.026 125.151  97.822  0.00  0.00    +0.061 A 
ATOM     12 CL1  UNL     1     139.174 123.674  98.107  0.00  0.00    -0.082 Cl
ATOM     13  C9  UNL     1     141.352 125.176  97.381  0.00  0.00    +0.061 A 
ATOM     14 CL2  UNL     1     142.259 123.736  97.083  0.00  0.00    -0.082 Cl
ATOM     15  C10 UNL     1     141.991 126.401  97.181  0.00  0.00    -0.019 A 
ATOM     16  C11 UNL     1     141.310 127.609  97.403  0.00  0.00    +0.054 A 
ATOM     17  N3  UNL     1     142.048 128.825  97.238  0.00  0.00    -0.310 N 
ATOM     18  C12 UNL     1     142.718 129.427  98.316  0.00  0.00    +0.073 C 
ATOM     19  C13 UNL     1     142.790 128.852  99.540  0.00  0.00    -0.037 C 
ATOM     20  C14 UNL     1     142.749 129.575 100.796  0.00  0.00    -0.058 C 
ATOM     21  C15 UNL     1     141.842 130.540 101.030  0.00  0.00    -0.037 C 
ATOM     22  H   UNL     1     138.648 129.184  97.513  0.00  0.00    +0.000 HD
ATOM     23  H   UNL     1     142.086 129.248  96.350  0.00  0.00    +0.000 HD
ENDROOT
TORSDOF 0
ENDMDL
