MODEL 1
REMARK VINA RESULT:    -4.489      0.000      0.000
REMARK INTER + INTRA:          -4.489
REMARK INTER:                  -4.489
REMARK INTRA:                   0.000
REMARK UNBOUND:                 0.000
REMARK  Name = /home/vital/Documents/PhD_2021/Malaria_codes/scripts/../data/pdbqt_ligands/ligand_269_temp.pdb
REMARK                            x       y       z     vdW  Elec       q    Type
REMARK                         _______ _______ _______ _____ _____    ______ ____
ROOT
ATOM      1  C1  UNL     1     138.478 127.830  97.973  0.00  0.00    +0.079 C 
ATOM      2  O1  UNL     1     139.521 128.793  98.029  0.00  0.00    -0.491 OA
ATOM      3  C2  UNL     1     140.353 128.775  99.121  0.00  0.00    +0.164 A 
ATOM      4  C3  UNL     1     140.247 127.866 100.181  0.00  0.00    +0.010 A 
ATOM      5  C4  UNL     1     141.118 127.893 101.264  0.00  0.00    +0.081 A 
ATOM      6  N1  UNL     1     140.965 126.989 102.236  0.00  0.00    -0.222 NA
ATOM      7  C5  UNL     1     141.826 127.034 103.264  0.00  0.00    +0.190 A 
ATOM      8  S1  UNL     1     141.657 125.852 104.580  0.00  0.00    -0.089 S 
ATOM      9  C6  UNL     1     140.488 124.694 103.827  0.00  0.00    -0.011 C 
ATOM     10  N2  UNL     1     142.812 127.928 103.399  0.00  0.00    -0.207 NA
ATOM     11  C7  UNL     1     142.942 128.832 102.424  0.00  0.00    +0.128 A 
ATOM     12  N3  UNL     1     143.981 129.752 102.608  0.00  0.00    -0.343 N 
ATOM     13  C8  UNL     1     142.119 128.866 101.293  0.00  0.00    +0.044 A 
ATOM     14  C9  UNL     1     142.247 129.786 100.223  0.00  0.00    -0.004 A 
ATOM     15  C10 UNL     1     141.371 129.743  99.139  0.00  0.00    +0.162 A 
ATOM     16  O2  UNL     1     141.419 130.595  98.065  0.00  0.00    -0.491 OA
ATOM     17  C11 UNL     1     142.506 131.505  97.991  0.00  0.00    +0.079 C 
ATOM     18  H   UNL     1     144.544 129.705 103.414  0.00  0.00    +0.000 HD
ATOM     19  H   UNL     1     144.149 130.447 101.931  0.00  0.00    +0.000 HD
ENDROOT
TORSDOF 0
ENDMDL
MODEL 2
REMARK VINA RESULT:    -4.179      3.324      5.142
REMARK INTER + INTRA:          -4.179
REMARK INTER:                  -4.179
REMARK INTRA:                   0.000
REMARK UNBOUND:                 0.000
REMARK  Name = /home/vital/Documents/PhD_2021/Malaria_codes/scripts/../data/pdbqt_ligands/ligand_269_temp.pdb
REMARK                            x       y       z     vdW  Elec       q    Type
REMARK                         _______ _______ _______ _____ _____    ______ ____
ROOT
ATOM      1  C1  UNL     1     138.374 128.582 100.382  0.00  0.00    +0.079 C 
ATOM      2  O1  UNL     1     139.283 128.046 101.333  0.00  0.00    -0.491 OA
ATOM      3  C2  UNL     1     140.551 128.571 101.375  0.00  0.00    +0.164 A 
ATOM      4  C3  UNL     1     141.007 129.603 100.547  0.00  0.00    +0.010 A 
ATOM      5  C4  UNL     1     142.304 130.096 100.631  0.00  0.00    +0.081 A 
ATOM      6  N1  UNL     1     142.670 131.090  99.816  0.00  0.00    -0.222 NA
ATOM      7  C5  UNL     1     143.924 131.551  99.927  0.00  0.00    +0.190 A 
ATOM      8  S1  UNL     1     144.453 132.871  98.860  0.00  0.00    -0.089 S 
ATOM      9  C6  UNL     1     142.861 133.393  98.178  0.00  0.00    -0.011 C 
ATOM     10  N2  UNL     1     144.843 131.078 100.777  0.00  0.00    -0.207 NA
ATOM     11  C7  UNL     1     144.463 130.076 101.575  0.00  0.00    +0.128 A 
ATOM     12  N3  UNL     1     145.456 129.606 102.444  0.00  0.00    -0.343 N 
ATOM     13  C8  UNL     1     143.174 129.532 101.566  0.00  0.00    +0.044 A 
ATOM     14  C9  UNL     1     142.725 128.494 102.419  0.00  0.00    -0.004 A 
ATOM     15  C10 UNL     1     141.419 128.013 102.329  0.00  0.00    +0.162 A 
ATOM     16  O2  UNL     1     140.902 127.012 103.110  0.00  0.00    -0.491 OA
ATOM     17  C11 UNL     1     141.711 126.511 104.164  0.00  0.00    +0.079 C 
ATOM     18  H   UNL     1     146.355 130.008 102.428  0.00  0.00    +0.000 HD
ATOM     19  H   UNL     1     145.256 128.874 103.071  0.00  0.00    +0.000 HD
ENDROOT
TORSDOF 0
ENDMDL
MODEL 3
REMARK VINA RESULT:    -4.154      2.362      3.910
REMARK INTER + INTRA:          -4.154
REMARK INTER:                  -4.154
REMARK INTRA:                   0.000
REMARK UNBOUND:                 0.000
REMARK  Name = /home/vital/Documents/PhD_2021/Malaria_codes/scripts/../data/pdbqt_ligands/ligand_269_temp.pdb
REMARK                            x       y       z     vdW  Elec       q    Type
REMARK                         _______ _______ _______ _____ _____    ______ ____
ROOT
ATOM      1  C1  UNL     1     146.431 131.086 101.142  0.00  0.00    +0.079 C 
ATOM      2  O1  UNL     1     145.269 131.668 100.567  0.00  0.00    -0.491 OA
ATOM      3  C2  UNL     1     144.074 131.012 100.732  0.00  0.00    +0.164 A 
ATOM      4  C3  UNL     1     143.922 129.810 101.433  0.00  0.00    +0.010 A 
ATOM      5  C4  UNL     1     142.687 129.187 101.567  0.00  0.00    +0.081 A 
ATOM      6  N1  UNL     1     142.612 128.046 102.259  0.00  0.00    -0.222 NA
ATOM      7  C5  UNL     1     141.406 127.473 102.380  0.00  0.00    +0.190 A 
ATOM      8  S1  UNL     1     141.262 125.952 103.290  0.00  0.00    -0.089 S 
ATOM      9  C6  UNL     1     142.886 125.896 104.084  0.00  0.00    -0.011 C 
ATOM     10  N2  UNL     1     140.275 127.946 101.844  0.00  0.00    -0.207 NA
ATOM     11  C7  UNL     1     140.371 129.081 101.144  0.00  0.00    +0.128 A 
ATOM     12  N3  UNL     1     139.167 129.538 100.595  0.00  0.00    -0.343 N 
ATOM     13  C8  UNL     1     141.571 129.780 100.973  0.00  0.00    +0.044 A 
ATOM     14  C9  UNL     1     141.706 131.002 100.270  0.00  0.00    -0.004 A 
ATOM     15  C10 UNL     1     142.950 131.620 100.148  0.00  0.00    +0.162 A 
ATOM     16  O2  UNL     1     143.173 132.798  99.483  0.00  0.00    -0.491 OA
ATOM     17  C11 UNL     1     142.043 133.501  98.987  0.00  0.00    +0.079 C 
ATOM     18  H   UNL     1     138.337 129.025 100.731  0.00  0.00    +0.000 HD
ATOM     19  H   UNL     1     139.149 130.371 100.071  0.00  0.00    +0.000 HD
ENDROOT
TORSDOF 0
ENDMDL
MODEL 4
REMARK VINA RESULT:    -4.026      4.721      6.519
REMARK INTER + INTRA:          -4.026
REMARK INTER:                  -4.026
REMARK INTRA:                   0.000
REMARK UNBOUND:                 0.000
REMARK  Name = /home/vital/Documents/PhD_2021/Malaria_codes/scripts/../data/pdbqt_ligands/ligand_269_temp.pdb
REMARK                            x       y       z     vdW  Elec       q    Type
REMARK                         _______ _______ _______ _____ _____    ______ ____
ROOT
ATOM      1  C1  UNL     1     143.983 127.504 100.256  0.00  0.00    +0.079 C 
ATOM      2  O1  UNL     1     142.778 128.213 100.510  0.00  0.00    -0.491 OA
ATOM      3  C2  UNL     1     142.707 129.522 100.103  0.00  0.00    +0.164 A 
ATOM      4  C3  UNL     1     143.740 130.205  99.451  0.00  0.00    +0.010 A 
ATOM      5  C4  UNL     1     143.614 131.534  99.062  0.00  0.00    +0.081 A 
ATOM      6  N1  UNL     1     144.636 132.122  98.434  0.00  0.00    -0.222 NA
ATOM      7  C5  UNL     1     144.482 133.401  98.062  0.00  0.00    +0.190 A 
ATOM      8  S1  UNL     1     145.819 134.222  97.226  0.00  0.00    -0.089 S 
ATOM      9  C6  UNL     1     146.877 132.806  96.841  0.00  0.00    -0.011 C 
ATOM     10  N2  UNL     1     143.390 134.139  98.291  0.00  0.00    -0.207 NA
ATOM     11  C7  UNL     1     142.383 133.539  98.932  0.00  0.00    +0.128 A 
ATOM     12  N3  UNL     1     141.262 134.349  99.158  0.00  0.00    -0.343 N 
ATOM     13  C8  UNL     1     142.421 132.202  99.344  0.00  0.00    +0.044 A 
ATOM     14  C9  UNL     1     141.362 131.522  99.994  0.00  0.00    -0.004 A 
ATOM     15  C10 UNL     1     141.499 130.187 100.372  0.00  0.00    +0.162 A 
ATOM     16  O2  UNL     1     140.530 129.454 101.008  0.00  0.00    -0.491 OA
ATOM     17  C11 UNL     1     139.256 130.056 101.186  0.00  0.00    +0.079 C 
ATOM     18  H   UNL     1     141.264 135.286  98.857  0.00  0.00    +0.000 HD
ATOM     19  H   UNL     1     140.473 133.981  99.617  0.00  0.00    +0.000 HD
ENDROOT
TORSDOF 0
ENDMDL
MODEL 5
REMARK VINA RESULT:    -3.867     13.431     14.690
REMARK INTER + INTRA:          -3.867
REMARK INTER:                  -3.867
REMARK INTRA:                   0.000
REMARK UNBOUND:                 0.000
REMARK  Name = /home/vital/Documents/PhD_2021/Malaria_codes/scripts/../data/pdbqt_ligands/ligand_269_temp.pdb
REMARK                            x       y       z     vdW  Elec       q    Type
REMARK                         _______ _______ _______ _____ _____    ______ ____
ROOT
ATOM      1  C1  UNL     1     138.999 144.626  94.368  0.00  0.00    +0.079 C 
ATOM      2  O1  UNL     1     139.859 143.572  93.960  0.00  0.00    -0.491 OA
ATOM      3  C2  UNL     1     140.599 142.937  94.927  0.00  0.00    +0.164 A 
ATOM      4  C3  UNL     1     140.558 143.255  96.290  0.00  0.00    +0.010 A 
ATOM      5  C4  UNL     1     141.331 142.580  97.227  0.00  0.00    +0.081 A 
ATOM      6  N1  UNL     1     141.235 142.928  98.513  0.00  0.00    -0.222 NA
ATOM      7  C5  UNL     1     141.985 142.252  99.395  0.00  0.00    +0.190 A 
ATOM      8  S1  UNL     1     141.890 142.686 101.117  0.00  0.00    -0.089 S 
ATOM      9  C6  UNL     1     140.431 143.755 101.101  0.00  0.00    -0.011 C 
ATOM     10  N2  UNL     1     142.837 141.270  99.083  0.00  0.00    -0.207 NA
ATOM     11  C7  UNL     1     142.930 140.943  97.791  0.00  0.00    +0.128 A 
ATOM     12  N3  UNL     1     143.838 139.915  97.507  0.00  0.00    -0.343 N 
ATOM     13  C8  UNL     1     142.178 141.561  96.786  0.00  0.00    +0.044 A 
ATOM     14  C9  UNL     1     142.223 141.220  95.412  0.00  0.00    -0.004 A 
ATOM     15  C10 UNL     1     141.437 141.901  94.483  0.00  0.00    +0.162 A 
ATOM     16  O2  UNL     1     141.420 141.640  93.137  0.00  0.00    -0.491 OA
ATOM     17  C11 UNL     1     142.161 140.522  92.671  0.00  0.00    +0.079 C 
ATOM     18  H   UNL     1     144.354 139.498  98.234  0.00  0.00    +0.000 HD
ATOM     19  H   UNL     1     143.960 139.609  96.579  0.00  0.00    +0.000 HD
ENDROOT
TORSDOF 0
ENDMDL
MODEL 6
REMARK VINA RESULT:    -3.668      3.147      4.534
REMARK INTER + INTRA:          -3.668
REMARK INTER:                  -3.668
REMARK INTRA:                   0.000
REMARK UNBOUND:                 0.000
REMARK  Name = /home/vital/Documents/PhD_2021/Malaria_codes/scripts/../data/pdbqt_ligands/ligand_269_temp.pdb
REMARK                            x       y       z     vdW  Elec       q    Type
REMARK                         _______ _______ _______ _____ _____    ______ ____
ROOT
ATOM      1  C1  UNL     1     142.135 125.172  99.488  0.00  0.00    +0.079 C 
ATOM      2  O1  UNL     1     141.116 126.115  99.189  0.00  0.00    -0.491 OA
ATOM      3  C2  UNL     1     141.395 127.445  99.384  0.00  0.00    +0.164 A 
ATOM      4  C3  UNL     1     142.620 127.935  99.853  0.00  0.00    +0.010 A 
ATOM      5  C4  UNL     1     142.849 129.294 100.033  0.00  0.00    +0.081 A 
ATOM      6  N1  UNL     1     144.045 129.694 100.474  0.00  0.00    -0.222 NA
ATOM      7  C5  UNL     1     144.239 131.012 100.629  0.00  0.00    +0.190 A 
ATOM      8  S1  UNL     1     145.816 131.586 101.216  0.00  0.00    -0.089 S 
ATOM      9  C6  UNL     1     146.792 130.071 101.056  0.00  0.00    -0.011 C 
ATOM     10  N2  UNL     1     143.320 131.955 100.396  0.00  0.00    -0.207 NA
ATOM     11  C7  UNL     1     142.125 131.536  99.968  0.00  0.00    +0.128 A 
ATOM     12  N3  UNL     1     141.190 132.554  99.743  0.00  0.00    -0.343 N 
ATOM     13  C8  UNL     1     141.816 130.190  99.745  0.00  0.00    +0.044 A 
ATOM     14  C9  UNL     1     140.575 129.711  99.260  0.00  0.00    -0.004 A 
ATOM     15  C10 UNL     1     140.361 128.345  99.077  0.00  0.00    +0.162 A 
ATOM     16  O2  UNL     1     139.192 127.794  98.617  0.00  0.00    -0.491 OA
ATOM     17  C11 UNL     1     138.170 128.680  98.183  0.00  0.00    +0.079 C 
ATOM     18  H   UNL     1     141.435 133.494  99.909  0.00  0.00    +0.000 HD
ATOM     19  H   UNL     1     140.288 132.331  99.419  0.00  0.00    +0.000 HD
ENDROOT
TORSDOF 0
ENDMDL
MODEL 7
REMARK VINA RESULT:    -3.641      3.478      4.893
REMARK INTER + INTRA:          -3.641
REMARK INTER:                  -3.641
REMARK INTRA:                   0.000
REMARK UNBOUND:                 0.000
REMARK  Name = /home/vital/Documents/PhD_2021/Malaria_codes/scripts/../data/pdbqt_ligands/ligand_269_temp.pdb
REMARK                            x       y       z     vdW  Elec       q    Type
REMARK                         _______ _______ _______ _____ _____    ______ ____
ROOT
ATOM      1  C1  UNL     1     143.900 132.173  94.922  0.00  0.00    +0.079 C 
ATOM      2  O1  UNL     1     144.657 132.405  96.101  0.00  0.00    -0.491 OA
ATOM      3  C2  UNL     1     144.139 131.963  97.293  0.00  0.00    +0.164 A 
ATOM      4  C3  UNL     1     142.916 131.293  97.425  0.00  0.00    +0.010 A 
ATOM      5  C4  UNL     1     142.438 130.868  98.658  0.00  0.00    +0.081 A 
ATOM      6  N1  UNL     1     141.267 130.225  98.709  0.00  0.00    -0.222 NA
ATOM      7  C5  UNL     1     140.837 129.819  99.912  0.00  0.00    +0.190 A 
ATOM      8  S1  UNL     1     139.283 128.962 100.026  0.00  0.00    -0.089 S 
ATOM      9  C6  UNL     1     138.976 128.617  98.277  0.00  0.00    -0.011 C 
ATOM     10  N2  UNL     1     141.479 130.026 101.067  0.00  0.00    -0.207 NA
ATOM     11  C7  UNL     1     142.641 130.682 100.998  0.00  0.00    +0.128 A 
ATOM     12  N3  UNL     1     143.277 130.884 102.230  0.00  0.00    -0.343 N 
ATOM     13  C8  UNL     1     143.201 131.130  99.798  0.00  0.00    +0.044 A 
ATOM     14  C9  UNL     1     144.445 131.797  99.681  0.00  0.00    -0.004 A 
ATOM     15  C10 UNL     1     144.917 132.212  98.436  0.00  0.00    +0.162 A 
ATOM     16  O2  UNL     1     146.105 132.866  98.231  0.00  0.00    -0.491 OA
ATOM     17  C11 UNL     1     146.972 133.026  99.345  0.00  0.00    +0.079 C 
ATOM     18  H   UNL     1     142.859 130.557 103.060  0.00  0.00    +0.000 HD
ATOM     19  H   UNL     1     144.142 131.352 102.266  0.00  0.00    +0.000 HD
ENDROOT
TORSDOF 0
ENDMDL
MODEL 8
REMARK VINA RESULT:    -3.546      3.658      6.000
REMARK INTER + INTRA:          -3.546
REMARK INTER:                  -3.546
REMARK INTRA:                   0.000
REMARK UNBOUND:                 0.000
REMARK  Name = /home/vital/Documents/PhD_2021/Malaria_codes/scripts/../data/pdbqt_ligands/ligand_269_temp.pdb
REMARK                            x       y       z     vdW  Elec       q    Type
REMARK                         _______ _______ _______ _____ _____    ______ ____
ROOT
ATOM      1  C1  UNL     1     145.884 127.821 102.971  0.00  0.00    +0.079 C 
ATOM      2  O1  UNL     1     144.670 127.087 103.040  0.00  0.00    -0.491 OA
ATOM      3  C2  UNL     1     143.550 127.645 102.477  0.00  0.00    +0.164 A 
ATOM      4  C3  UNL     1     143.523 128.889 101.834  0.00  0.00    +0.010 A 
ATOM      5  C4  UNL     1     142.359 129.409 101.282  0.00  0.00    +0.081 A 
ATOM      6  N1  UNL     1     142.408 130.598 100.674  0.00  0.00    -0.222 NA
ATOM      7  C5  UNL     1     141.271 131.069 100.143  0.00  0.00    +0.190 A 
ATOM      8  S1  UNL     1     141.291 132.648  99.327  0.00  0.00    -0.089 S 
ATOM      9  C6  UNL     1     143.074 132.923  99.200  0.00  0.00    -0.011 C 
ATOM     10  N2  UNL     1     140.086 130.448 100.193  0.00  0.00    -0.207 NA
ATOM     11  C7  UNL     1     140.053 129.267 100.816  0.00  0.00    +0.128 A 
ATOM     12  N3  UNL     1     138.794 128.655 100.852  0.00  0.00    -0.343 N 
ATOM     13  C8  UNL     1     141.181 128.666 101.385  0.00  0.00    +0.044 A 
ATOM     14  C9  UNL     1     141.193 127.401 102.022  0.00  0.00    -0.004 A 
ATOM     15  C10 UNL     1     142.370 126.888 102.566  0.00  0.00    +0.162 A 
ATOM     16  O2  UNL     1     142.471 125.677 103.202  0.00  0.00    -0.491 OA
ATOM     17  C11 UNL     1     141.329 124.833 103.203  0.00  0.00    +0.079 C 
ATOM     18  H   UNL     1     138.017 129.102 100.443  0.00  0.00    +0.000 HD
ATOM     19  H   UNL     1     138.685 127.778 101.286  0.00  0.00    +0.000 HD
ENDROOT
TORSDOF 0
ENDMDL
MODEL 9
REMARK VINA RESULT:    -3.544      3.592      5.046
REMARK INTER + INTRA:          -3.544
REMARK INTER:                  -3.544
REMARK INTRA:                   0.000
REMARK UNBOUND:                 0.000
REMARK  Name = /home/vital/Documents/PhD_2021/Malaria_codes/scripts/../data/pdbqt_ligands/ligand_269_temp.pdb
REMARK                            x       y       z     vdW  Elec       q    Type
REMARK                         _______ _______ _______ _____ _____    ______ ____
ROOT
ATOM      1  C1  UNL     1     145.246 128.057  96.100  0.00  0.00    +0.079 C 
ATOM      2  O1  UNL     1     145.323 129.475  96.057  0.00  0.00    -0.491 OA
ATOM      3  C2  UNL     1     144.427 130.189  96.812  0.00  0.00    +0.164 A 
ATOM      4  C3  UNL     1     143.443 129.615  97.626  0.00  0.00    +0.010 A 
ATOM      5  C4  UNL     1     142.559 130.387  98.370  0.00  0.00    +0.081 A 
ATOM      6  N1  UNL     1     141.652 129.772  99.134  0.00  0.00    -0.222 NA
ATOM      7  C5  UNL     1     140.818 130.543  99.848  0.00  0.00    +0.190 A 
ATOM      8  S1  UNL     1     139.594 129.765 100.876  0.00  0.00    -0.089 S 
ATOM      9  C6  UNL     1     140.187 128.057 100.849  0.00  0.00    -0.011 C 
ATOM     10  N2  UNL     1     140.812 131.881  99.836  0.00  0.00    -0.207 NA
ATOM     11  C7  UNL     1     141.718 132.478  99.056  0.00  0.00    +0.128 A 
ATOM     12  N3  UNL     1     141.673 133.878  99.067  0.00  0.00    -0.343 N 
ATOM     13  C8  UNL     1     142.654 131.777  98.288  0.00  0.00    +0.044 A 
ATOM     14  C9  UNL     1     143.650 132.375  97.477  0.00  0.00    -0.004 A 
ATOM     15  C10 UNL     1     144.536 131.588  96.741  0.00  0.00    +0.162 A 
ATOM     16  O2  UNL     1     145.525 132.081  95.930  0.00  0.00    -0.491 OA
ATOM     17  C11 UNL     1     145.742 133.484  95.929  0.00  0.00    +0.079 C 
ATOM     18  H   UNL     1     141.002 134.345  99.617  0.00  0.00    +0.000 HD
ATOM     19  H   UNL     1     142.311 134.396  98.525  0.00  0.00    +0.000 HD
ENDROOT
TORSDOF 0
ENDMDL
