MODEL 1
REMARK VINA RESULT:    -5.144      0.000      0.000
REMARK INTER + INTRA:          -5.144
REMARK INTER:                  -5.144
REMARK INTRA:                   0.000
REMARK UNBOUND:                 0.000
REMARK  Name = /home/vital/Documents/PhD_2021/Malaria_codes/scripts/../data/pdbqt_ligands/ligand_412_temp.pdb
REMARK                            x       y       z     vdW  Elec       q    Type
REMARK                         _______ _______ _______ _____ _____    ______ ____
ROOT
ATOM      1  C   UNL     1     138.360 128.276  98.197  0.00  0.00    -0.026 C 
ATOM      2  C   UNL     1     139.664 128.629  98.882  0.00  0.00    +0.021 C 
ATOM      3  N   UNL     1     140.354 129.599  98.348  0.00  0.00    -0.238 NA
ATOM      4  C   UNL     1     141.547 129.992  98.901  0.00  0.00    +0.150 C 
ATOM      5  N   UNL     1     142.299 129.038  99.281  0.00  0.00    -0.247 N 
ATOM      6  C   UNL     1     143.325 129.137 100.285  0.00  0.00    +0.162 C 
ATOM      7  C   UNL     1     143.500 130.646 101.180  0.00  0.00    +0.087 C 
ATOM      8  C   UNL     1     142.991 129.787 101.929  0.00  0.00    -0.056 C 
ATOM      9  C   UNL     1     142.565 128.606 101.871  0.00  0.00    +0.172 C 
ATOM     10  O   UNL     1     141.447 128.012 102.095  0.00  0.00    -0.485 OA
ATOM     11  C   UNL     1     140.307 128.538 101.396  0.00  0.00    +0.095 C 
ATOM     12  C   UNL     1     140.029 127.768 100.102  0.00  0.00    +0.020 C 
ATOM     13  N   UNL     1     144.414 131.562 101.054  0.00  0.00    -0.314 N 
ATOM     14  C   UNL     1     144.768 131.938  99.765  0.00  0.00    +0.014 C 
ATOM     15  C   UNL     1     143.950 132.203  98.728  0.00  0.00    +0.073 C 
ATOM     16 CL   UNL     1     144.636 132.573  97.179  0.00  0.00    -0.081 Cl
ATOM     17  C   UNL     1     142.517 132.379  98.869  0.00  0.00    +0.064 C 
ATOM     18 CL   UNL     1     142.030 134.068  98.959  0.00  0.00    -0.082 Cl
ATOM     19  C   UNL     1     141.534 131.472  98.992  0.00  0.00    +0.002 C 
ATOM     20  H   UNL     1     142.168 128.161  98.853  0.00  0.00    +0.000 HD
ATOM     21  H   UNL     1     144.839 131.972 101.842  0.00  0.00    +0.000 HD
ENDROOT
TORSDOF 0
ENDMDL
MODEL 2
REMARK VINA RESULT:    -4.769      2.981      4.863
REMARK INTER + INTRA:          -4.769
REMARK INTER:                  -4.769
REMARK INTRA:                   0.000
REMARK UNBOUND:                 0.000
REMARK  Name = /home/vital/Documents/PhD_2021/Malaria_codes/scripts/../data/pdbqt_ligands/ligand_412_temp.pdb
REMARK                            x       y       z     vdW  Elec       q    Type
REMARK                         _______ _______ _______ _____ _____    ______ ____
ROOT
ATOM      1  C   UNL     1     144.019 132.098  95.701  0.00  0.00    -0.026 C 
ATOM      2  C   UNL     1     143.551 131.713  97.089  0.00  0.00    +0.021 C 
ATOM      3  N   UNL     1     142.541 130.890  97.150  0.00  0.00    -0.238 NA
ATOM      4  C   UNL     1     142.049 130.480  98.365  0.00  0.00    +0.150 C 
ATOM      5  N   UNL     1     141.958 131.400  99.241  0.00  0.00    -0.247 N 
ATOM      6  C   UNL     1     141.948 131.194 100.664  0.00  0.00    +0.162 C 
ATOM      7  C   UNL     1     142.215 129.568 101.293  0.00  0.00    +0.087 C 
ATOM      8  C   UNL     1     143.236 130.257 101.502  0.00  0.00    -0.056 C 
ATOM      9  C   UNL     1     143.680 131.404 101.240  0.00  0.00    +0.172 C 
ATOM     10  O   UNL     1     144.703 131.883 100.628  0.00  0.00    -0.485 OA
ATOM     11  C   UNL     1     144.905 131.416  99.284  0.00  0.00    +0.095 C 
ATOM     12  C   UNL     1     144.305 132.376  98.252  0.00  0.00    +0.020 C 
ATOM     13  N   UNL     1     141.349 128.744 101.802  0.00  0.00    -0.314 N 
ATOM     14  C   UNL     1     140.132 128.613 101.147  0.00  0.00    +0.014 C 
ATOM     15  C   UNL     1     139.915 128.478  99.824  0.00  0.00    +0.073 C 
ATOM     16 CL   UNL     1     138.287 128.416  99.232  0.00  0.00    -0.081 Cl
ATOM     17  C   UNL     1     140.971 128.196  98.869  0.00  0.00    +0.064 C 
ATOM     18 CL   UNL     1     141.093 126.490  98.454  0.00  0.00    -0.082 Cl
ATOM     19  C   UNL     1     141.881 129.008  98.309  0.00  0.00    +0.002 C 
ATOM     20  H   UNL     1     141.887 132.327  98.917  0.00  0.00    +0.000 HD
ATOM     21  H   UNL     1     141.548 128.232 102.619  0.00  0.00    +0.000 HD
ENDROOT
TORSDOF 0
ENDMDL
MODEL 3
REMARK VINA RESULT:    -4.344      2.801      3.996
REMARK INTER + INTRA:          -4.344
REMARK INTER:                  -4.344
REMARK INTRA:                   0.000
REMARK UNBOUND:                 0.000
REMARK  Name = /home/vital/Documents/PhD_2021/Malaria_codes/scripts/../data/pdbqt_ligands/ligand_412_temp.pdb
REMARK                            x       y       z     vdW  Elec       q    Type
REMARK                         _______ _______ _______ _____ _____    ______ ____
ROOT
ATOM      1  C   UNL     1     140.889 124.270  97.544  0.00  0.00    -0.026 C 
ATOM      2  C   UNL     1     140.663 125.623  98.186  0.00  0.00    +0.021 C 
ATOM      3  N   UNL     1     141.668 126.122  98.853  0.00  0.00    -0.238 NA
ATOM      4  C   UNL     1     141.558 127.345  99.466  0.00  0.00    +0.150 C 
ATOM      5  N   UNL     1     140.453 127.543 100.067  0.00  0.00    -0.247 N 
ATOM      6  C   UNL     1     139.886 128.833 100.359  0.00  0.00    +0.162 C 
ATOM      7  C   UNL     1     140.684 130.276  99.737  0.00  0.00    +0.087 C 
ATOM      8  C   UNL     1     139.639 130.077  99.084  0.00  0.00    -0.056 C 
ATOM      9  C   UNL     1     138.724 129.220  98.990  0.00  0.00    +0.172 C 
ATOM     10  O   UNL     1     138.255 128.463  98.063  0.00  0.00    -0.485 OA
ATOM     11  C   UNL     1     139.211 127.625  97.395  0.00  0.00    +0.095 C 
ATOM     12  C   UNL     1     139.259 126.220  98.003  0.00  0.00    +0.020 C 
ATOM     13  N   UNL     1     141.402 131.147 100.382  0.00  0.00    -0.314 N 
ATOM     14  C   UNL     1     142.335 130.659 101.288  0.00  0.00    +0.014 C 
ATOM     15  C   UNL     1     143.201 129.642 101.116  0.00  0.00    +0.073 C 
ATOM     16 CL   UNL     1     144.217 129.159 102.434  0.00  0.00    -0.081 Cl
ATOM     17  C   UNL     1     143.469 129.035  99.825  0.00  0.00    +0.064 C 
ATOM     18 CL   UNL     1     144.921 129.662  99.052  0.00  0.00    -0.082 Cl
ATOM     19  C   UNL     1     142.768 128.130  99.123  0.00  0.00    +0.002 C 
ATOM     20  H   UNL     1     139.946 126.750 100.356  0.00  0.00    +0.000 HD
ATOM     21  H   UNL     1     141.290 132.114 100.234  0.00  0.00    +0.000 HD
ENDROOT
TORSDOF 0
ENDMDL
MODEL 4
REMARK VINA RESULT:    -4.281      3.377      4.431
REMARK INTER + INTRA:          -4.281
REMARK INTER:                  -4.281
REMARK INTRA:                   0.000
REMARK UNBOUND:                 0.000
REMARK  Name = /home/vital/Documents/PhD_2021/Malaria_codes/scripts/../data/pdbqt_ligands/ligand_412_temp.pdb
REMARK                            x       y       z     vdW  Elec       q    Type
REMARK                         _______ _______ _______ _____ _____    ______ ____
ROOT
ATOM      1  C   UNL     1     138.339 128.646 100.777  0.00  0.00    -0.026 C 
ATOM      2  C   UNL     1     139.801 128.999 100.954  0.00  0.00    +0.021 C 
ATOM      3  N   UNL     1     140.627 127.996 101.077  0.00  0.00    -0.238 NA
ATOM      4  C   UNL     1     141.973 128.218 101.237  0.00  0.00    +0.150 C 
ATOM      5  N   UNL     1     142.266 129.165 102.036  0.00  0.00    -0.247 N 
ATOM      6  C   UNL     1     143.496 129.910 102.025  0.00  0.00    +0.162 C 
ATOM      7  C   UNL     1     144.663 129.611 100.738  0.00  0.00    +0.087 C 
ATOM      8  C   UNL     1     144.112 130.713 100.538  0.00  0.00    -0.056 C 
ATOM      9  C   UNL     1     143.191 131.418 101.022  0.00  0.00    +0.172 C 
ATOM     10  O   UNL     1     142.087 131.920 100.595  0.00  0.00    -0.485 OA
ATOM     11  C   UNL     1     141.166 130.991 100.000  0.00  0.00    +0.095 C 
ATOM     12  C   UNL     1     140.122 130.500 101.008  0.00  0.00    +0.020 C 
ATOM     13  N   UNL     1     145.790 128.965 100.800  0.00  0.00    -0.314 N 
ATOM     14  C   UNL     1     145.798 127.762 101.494  0.00  0.00    +0.014 C 
ATOM     15  C   UNL     1     144.896 126.764 101.429  0.00  0.00    +0.073 C 
ATOM     16 CL   UNL     1     145.078 125.385 102.464  0.00  0.00    -0.081 Cl
ATOM     17  C   UNL     1     143.869 126.684 100.406  0.00  0.00    +0.064 C 
ATOM     18 CL   UNL     1     144.302 125.626  99.068  0.00  0.00    -0.082 Cl
ATOM     19  C   UNL     1     142.691 127.321 100.301  0.00  0.00    +0.002 C 
ATOM     20  H   UNL     1     141.596 129.407 102.716  0.00  0.00    +0.000 HD
ATOM     21  H   UNL     1     146.604 129.314 100.371  0.00  0.00    +0.000 HD
ENDROOT
TORSDOF 0
ENDMDL
MODEL 5
REMARK VINA RESULT:    -4.247      1.979      3.028
REMARK INTER + INTRA:          -4.247
REMARK INTER:                  -4.247
REMARK INTRA:                   0.000
REMARK UNBOUND:                 0.000
REMARK  Name = /home/vital/Documents/PhD_2021/Malaria_codes/scripts/../data/pdbqt_ligands/ligand_412_temp.pdb
REMARK                            x       y       z     vdW  Elec       q    Type
REMARK                         _______ _______ _______ _____ _____    ______ ____
ROOT
ATOM      1  C   UNL     1     143.239 125.504 100.403  0.00  0.00    -0.026 C 
ATOM      2  C   UNL     1     142.658 126.901 100.469  0.00  0.00    +0.021 C 
ATOM      3  N   UNL     1     143.377 127.851  99.937  0.00  0.00    -0.238 NA
ATOM      4  C   UNL     1     142.930 129.149  99.945  0.00  0.00    +0.150 C 
ATOM      5  N   UNL     1     142.397 129.523 101.039  0.00  0.00    -0.247 N 
ATOM      6  C   UNL     1     141.450 130.598 101.177  0.00  0.00    +0.162 C 
ATOM      7  C   UNL     1     140.853 131.401  99.726  0.00  0.00    +0.087 C 
ATOM      8  C   UNL     1     139.948 130.679 100.191  0.00  0.00    -0.056 C 
ATOM      9  C   UNL     1     139.778 129.840 101.112  0.00  0.00    +0.172 C 
ATOM     10  O   UNL     1     139.425 128.607 101.189  0.00  0.00    -0.485 OA
ATOM     11  C   UNL     1     140.185 127.687 100.388  0.00  0.00    +0.095 C 
ATOM     12  C   UNL     1     141.309 127.027 101.193  0.00  0.00    +0.020 C 
ATOM     13  N   UNL     1     141.164 132.576  99.264  0.00  0.00    -0.314 N 
ATOM     14  C   UNL     1     142.508 132.927  99.266  0.00  0.00    +0.014 C 
ATOM     15  C   UNL     1     143.559 132.177  98.881  0.00  0.00    +0.073 C 
ATOM     16 CL   UNL     1     145.164 132.810  99.058  0.00  0.00    -0.081 Cl
ATOM     17  C   UNL     1     143.423 130.931  98.150  0.00  0.00    +0.064 C 
ATOM     18 CL   UNL     1     143.636 131.118  96.413  0.00  0.00    -0.082 Cl
ATOM     19  C   UNL     1     143.114 129.697  98.579  0.00  0.00    +0.002 C 
ATOM     20  H   UNL     1     142.653 129.037 101.856  0.00  0.00    +0.000 HD
ATOM     21  H   UNL     1     140.475 133.191  98.924  0.00  0.00    +0.000 HD
ENDROOT
TORSDOF 0
ENDMDL
MODEL 6
REMARK VINA RESULT:    -4.163     16.033     17.546
REMARK INTER + INTRA:          -4.163
REMARK INTER:                  -4.163
REMARK INTRA:                   0.000
REMARK UNBOUND:                 0.000
REMARK  Name = /home/vital/Documents/PhD_2021/Malaria_codes/scripts/../data/pdbqt_ligands/ligand_412_temp.pdb
REMARK                            x       y       z     vdW  Elec       q    Type
REMARK                         _______ _______ _______ _____ _____    ______ ____
ROOT
ATOM      1  C   UNL     1     131.399 124.524  89.510  0.00  0.00    -0.026 C 
ATOM      2  C   UNL     1     132.091 123.781  88.386  0.00  0.00    +0.021 C 
ATOM      3  N   UNL     1     133.396 123.820  88.384  0.00  0.00    -0.238 NA
ATOM      4  C   UNL     1     134.110 123.173  87.407  0.00  0.00    +0.150 C 
ATOM      5  N   UNL     1     133.637 123.294  86.231  0.00  0.00    -0.247 N 
ATOM      6  C   UNL     1     133.868 122.380  85.144  0.00  0.00    +0.162 C 
ATOM      7  C   UNL     1     134.762 120.893  85.455  0.00  0.00    +0.087 C 
ATOM      8  C   UNL     1     133.555 120.615  85.299  0.00  0.00    -0.056 C 
ATOM      9  C   UNL     1     132.456 121.205  85.135  0.00  0.00    +0.172 C 
ATOM     10  O   UNL     1     131.331 121.256  85.753  0.00  0.00    -0.485 OA
ATOM     11  C   UNL     1     131.398 121.609  87.145  0.00  0.00    +0.095 C 
ATOM     12  C   UNL     1     131.164 123.106  87.365  0.00  0.00    +0.020 C 
ATOM     13  N   UNL     1     135.986 120.600  85.131  0.00  0.00    -0.314 N 
ATOM     14  C   UNL     1     136.952 121.577  85.338  0.00  0.00    +0.014 C 
ATOM     15  C   UNL     1     137.120 122.356  86.424  0.00  0.00    +0.073 C 
ATOM     16 CL   UNL     1     138.356 123.571  86.414  0.00  0.00    -0.081 Cl
ATOM     17  C   UNL     1     136.444 122.119  87.686  0.00  0.00    +0.064 C 
ATOM     18 CL   UNL     1     137.435 121.247  88.851  0.00  0.00    -0.082 Cl
ATOM     19  C   UNL     1     135.192 122.408  88.073  0.00  0.00    +0.002 C 
ATOM     20  H   UNL     1     133.067 124.077  86.052  0.00  0.00    +0.000 HD
ATOM     21  H   UNL     1     136.219 119.721  84.753  0.00  0.00    +0.000 HD
ENDROOT
TORSDOF 0
ENDMDL
MODEL 7
REMARK VINA RESULT:    -4.158      2.410      3.028
REMARK INTER + INTRA:          -4.158
REMARK INTER:                  -4.158
REMARK INTRA:                   0.000
REMARK UNBOUND:                 0.000
REMARK  Name = /home/vital/Documents/PhD_2021/Malaria_codes/scripts/../data/pdbqt_ligands/ligand_412_temp.pdb
REMARK                            x       y       z     vdW  Elec       q    Type
REMARK                         _______ _______ _______ _____ _____    ______ ____
ROOT
ATOM      1  C   UNL     1     142.265 127.204  94.765  0.00  0.00    -0.026 C 
ATOM      2  C   UNL     1     141.979 127.599  96.199  0.00  0.00    +0.021 C 
ATOM      3  N   UNL     1     142.702 128.570  96.687  0.00  0.00    -0.238 NA
ATOM      4  C   UNL     1     142.513 129.000  97.977  0.00  0.00    +0.150 C 
ATOM      5  N   UNL     1     142.342 128.070  98.829  0.00  0.00    -0.247 N 
ATOM      6  C   UNL     1     141.668 128.214 100.092  0.00  0.00    +0.162 C 
ATOM      7  C   UNL     1     140.886 129.747 100.472  0.00  0.00    +0.087 C 
ATOM      8  C   UNL     1     140.008 128.897 100.216  0.00  0.00    -0.056 C 
ATOM      9  C   UNL     1     139.924 127.706  99.820  0.00  0.00    +0.172 C 
ATOM     10  O   UNL     1     139.384 127.096  98.826  0.00  0.00    -0.485 OA
ATOM     11  C   UNL     1     139.745 127.582  97.523  0.00  0.00    +0.095 C 
ATOM     12  C   UNL     1     140.896 126.776  96.913  0.00  0.00    +0.020 C 
ATOM     13  N   UNL     1     141.279 130.677 101.291  0.00  0.00    -0.314 N 
ATOM     14  C   UNL     1     142.622 131.028 101.260  0.00  0.00    +0.014 C 
ATOM     15  C   UNL     1     143.393 131.252 100.178  0.00  0.00    +0.073 C 
ATOM     16 CL   UNL     1     145.078 131.598 100.393  0.00  0.00    -0.081 Cl
ATOM     17  C   UNL     1     142.859 131.403  98.837  0.00  0.00    +0.064 C 
ATOM     18 CL   UNL     1     142.666 133.084  98.352  0.00  0.00    -0.082 Cl
ATOM     19  C   UNL     1     142.448 130.481  97.952  0.00  0.00    +0.002 C 
ATOM     20  H   UNL     1     142.700 127.180  98.606  0.00  0.00    +0.000 HD
ATOM     21  H   UNL     1     140.649 131.114 101.908  0.00  0.00    +0.000 HD
ENDROOT
TORSDOF 0
ENDMDL
MODEL 8
REMARK VINA RESULT:    -4.147     14.806     17.442
REMARK INTER + INTRA:          -4.147
REMARK INTER:                  -4.147
REMARK INTRA:                   0.000
REMARK UNBOUND:                 0.000
REMARK  Name = /home/vital/Documents/PhD_2021/Malaria_codes/scripts/../data/pdbqt_ligands/ligand_412_temp.pdb
REMARK                            x       y       z     vdW  Elec       q    Type
REMARK                         _______ _______ _______ _____ _____    ______ ____
ROOT
ATOM      1  C   UNL     1     136.885 126.608  87.820  0.00  0.00    -0.026 C 
ATOM      2  C   UNL     1     136.083 125.364  87.495  0.00  0.00    +0.021 C 
ATOM      3  N   UNL     1     134.887 125.296  88.012  0.00  0.00    -0.238 NA
ATOM      4  C   UNL     1     134.085 124.209  87.769  0.00  0.00    +0.150 C 
ATOM      5  N   UNL     1     134.681 123.085  87.819  0.00  0.00    -0.247 N 
ATOM      6  C   UNL     1     134.242 121.882  87.163  0.00  0.00    +0.162 C 
ATOM      7  C   UNL     1     132.848 121.957  86.087  0.00  0.00    +0.087 C 
ATOM      8  C   UNL     1     133.884 121.833  85.401  0.00  0.00    -0.056 C 
ATOM      9  C   UNL     1     135.131 121.803  85.557  0.00  0.00    +0.172 C 
ATOM     10  O   UNL     1     136.134 122.484  85.132  0.00  0.00    -0.485 OA
ATOM     11  C   UNL     1     136.065 123.903  85.349  0.00  0.00    +0.095 C 
ATOM     12  C   UNL     1     136.800 124.319  86.627  0.00  0.00    +0.020 C 
ATOM     13  N   UNL     1     131.638 121.532  86.297  0.00  0.00    -0.314 N 
ATOM     14  C   UNL     1     131.072 121.805  87.536  0.00  0.00    +0.014 C 
ATOM     15  C   UNL     1     131.092 122.969  88.215  0.00  0.00    +0.073 C 
ATOM     16 CL   UNL     1     130.383 123.042  89.795  0.00  0.00    -0.081 Cl
ATOM     17  C   UNL     1     131.513 124.227  87.627  0.00  0.00    +0.064 C 
ATOM     18 CL   UNL     1     130.168 125.219  87.074  0.00  0.00    -0.082 Cl
ATOM     19  C   UNL     1     132.742 124.714  87.396  0.00  0.00    +0.002 C 
ATOM     20  H   UNL     1     135.509 123.035  88.350  0.00  0.00    +0.000 HD
ATOM     21  H   UNL     1     131.142 121.037  85.607  0.00  0.00    +0.000 HD
ENDROOT
TORSDOF 0
ENDMDL
MODEL 9
REMARK VINA RESULT:    -3.907     14.699     16.418
REMARK INTER + INTRA:          -3.907
REMARK INTER:                  -3.907
REMARK INTRA:                   0.000
REMARK UNBOUND:                 0.000
REMARK  Name = /home/vital/Documents/PhD_2021/Malaria_codes/scripts/../data/pdbqt_ligands/ligand_412_temp.pdb
REMARK                            x       y       z     vdW  Elec       q    Type
REMARK                         _______ _______ _______ _____ _____    ______ ____
ROOT
ATOM      1  C   UNL     1     130.403 122.530  90.189  0.00  0.00    -0.026 C 
ATOM      2  C   UNL     1     131.467 122.595  89.113  0.00  0.00    +0.021 C 
ATOM      3  N   UNL     1     132.446 123.432  89.318  0.00  0.00    -0.238 NA
ATOM      4  C   UNL     1     133.460 123.557  88.400  0.00  0.00    +0.150 C 
ATOM      5  N   UNL     1     133.079 123.570  87.185  0.00  0.00    -0.247 N 
ATOM      6  C   UNL     1     133.895 123.212  86.055  0.00  0.00    +0.162 C 
ATOM      7  C   UNL     1     135.513 122.571  86.340  0.00  0.00    +0.087 C 
ATOM      8  C   UNL     1     134.768 121.641  85.969  0.00  0.00    -0.056 C 
ATOM      9  C   UNL     1     133.556 121.442  85.700  0.00  0.00    +0.172 C 
ATOM     10  O   UNL     1     132.624 120.673  86.138  0.00  0.00    -0.485 OA
ATOM     11  C   UNL     1     132.378 120.731  87.553  0.00  0.00    +0.095 C 
ATOM     12  C   UNL     1     131.235 121.691  87.893  0.00  0.00    +0.020 C 
ATOM     13  N   UNL     1     136.659 123.164  86.180  0.00  0.00    -0.314 N 
ATOM     14  C   UNL     1     136.771 124.470  86.638  0.00  0.00    +0.014 C 
ATOM     15  C   UNL     1     136.349 124.972  87.815  0.00  0.00    +0.073 C 
ATOM     16 CL   UNL     1     136.528 126.668  88.128  0.00  0.00    -0.081 Cl
ATOM     17  C   UNL     1     135.913 124.144  88.924  0.00  0.00    +0.064 C 
ATOM     18 CL   UNL     1     137.169 123.879  90.128  0.00  0.00    -0.082 Cl
ATOM     19  C   UNL     1     134.744 123.519  89.140  0.00  0.00    +0.002 C 
ATOM     20  H   UNL     1     132.152 123.848  87.004  0.00  0.00    +0.000 HD
ATOM     21  H   UNL     1     137.417 122.705  85.751  0.00  0.00    +0.000 HD
ENDROOT
TORSDOF 0
ENDMDL
