MODEL 1
REMARK VINA RESULT:    -6.596      0.000      0.000
REMARK INTER + INTRA:          -6.596
REMARK INTER:                  -6.596
REMARK INTRA:                   0.000
REMARK UNBOUND:                 0.000
REMARK  Name = /home/vital/Documents/PhD_2021/Malaria_codes/scripts/../data/pdbqt_ligands/ligand_115_temp.pdb
REMARK                            x       y       z     vdW  Elec       q    Type
REMARK                         _______ _______ _______ _____ _____    ______ ____
ROOT
ATOM      1  C   UNL     1     142.664 133.672  98.995  0.00  0.00    -0.078 C 
ATOM      2  C   UNL     1     142.641 132.329  99.007  0.00  0.00    +0.060 C 
ATOM      3 CL   UNL     1     142.489 131.561 100.564  0.00  0.00    -0.082 Cl
ATOM      4  C   UNL     1     142.748 131.496  97.822  0.00  0.00    +0.102 C 
ATOM      5 CL   UNL     1     142.347 129.818  97.850  0.00  0.00    -0.073 Cl
ATOM      6  C   UNL     1     143.091 131.935  96.647  0.00  0.00    -0.083 C 
ATOM      7  C   UNL     1     143.438 132.385  95.480  0.00  0.00    +0.041 C 
ATOM      8  N   UNL     1     142.565 132.370  94.440  0.00  0.00    -0.283 N 
ATOM      9  C   UNL     1     142.784 132.836  93.149  0.00  0.00    +0.222 A 
ATOM     10  N   UNL     1     141.764 132.691  92.296  0.00  0.00    -0.199 NA
ATOM     11  C   UNL     1     141.944 133.122  91.038  0.00  0.00    +0.132 A 
ATOM     12  N   UNL     1     140.849 132.897  90.177  0.00  0.00    -0.328 N 
ATOM     13  C   UNL     1     141.095 131.746  89.295  0.00  0.00    +0.012 C 
ATOM     14  C   UNL     1     140.000 131.653  88.231  0.00  0.00    -0.025 C 
ATOM     15  C   UNL     1     138.600 131.351  88.778  0.00  0.00    -0.003 C 
ATOM     16  N   UNL     1     138.493 130.138  89.587  0.00  0.00    -0.316 N 
ATOM     17  C   UNL     1     138.814 128.883  88.901  0.00  0.00    -0.004 C 
ATOM     18  C   UNL     1     137.857 128.532  87.756  0.00  0.00    -0.037 C 
ATOM     19  C   UNL     1     138.175 127.182  87.103  0.00  0.00    -0.034 C 
ATOM     20  C   UNL     1     137.925 126.009  88.010  0.00  0.00    -0.086 C 
ATOM     21  C   UNL     1     136.867 125.178  87.995  0.00  0.00    -0.060 C 
ATOM     22  C   UNL     1     135.668 125.223  87.097  0.00  0.00    +0.101 C 
ATOM     23  O   UNL     1     134.504 125.290  87.928  0.00  0.00    -0.233 OA
ATOM     24  O   UNL     1     133.365 125.311  87.019  0.00  0.00    -0.250 OA
ATOM     25  C   UNL     1     143.120 133.751  90.607  0.00  0.00    +0.040 A 
ATOM     26  C   UNL     1     143.336 134.295  89.316  0.00  0.00    -0.049 A 
ATOM     27  C   UNL     1     144.550 134.896  88.989  0.00  0.00    -0.061 A 
ATOM     28  C   UNL     1     145.550 134.965  89.949  0.00  0.00    -0.060 A 
ATOM     29  C   UNL     1     145.325 134.445  91.227  0.00  0.00    -0.036 A 
ATOM     30  C   UNL     1     144.119 133.845  91.575  0.00  0.00    +0.078 A 
ATOM     31  N   UNL     1     143.962 133.389  92.822  0.00  0.00    -0.214 NA
ATOM     32  H   UNL     1     141.676 131.988  94.621  0.00  0.00    +0.000 HD
ATOM     33  H   UNL     1     140.027 133.440  90.168  0.00  0.00    +0.000 HD
ATOM     34  H   UNL     1     137.533 130.072  89.927  0.00  0.00    +0.000 HD
ATOM     35  H   UNL     1     139.189 130.235  90.327  0.00  0.00    +0.000 HD
ATOM     36  H   UNL     1     132.542 125.357  87.532  0.00  0.00    +0.000 HD
ENDROOT
TORSDOF 0
ENDMDL
MODEL 2
REMARK VINA RESULT:    -5.333      1.328      1.568
REMARK INTER + INTRA:          -5.333
REMARK INTER:                  -5.333
REMARK INTRA:                   0.000
REMARK UNBOUND:                 0.000
REMARK  Name = /home/vital/Documents/PhD_2021/Malaria_codes/scripts/../data/pdbqt_ligands/ligand_115_temp.pdb
REMARK                            x       y       z     vdW  Elec       q    Type
REMARK                         _______ _______ _______ _____ _____    ______ ____
ROOT
ATOM      1  C   UNL     1     143.114 131.607 100.133  0.00  0.00    -0.078 C 
ATOM      2  C   UNL     1     143.035 130.293  99.867  0.00  0.00    +0.060 C 
ATOM      3 CL   UNL     1     142.790 129.229 101.226  0.00  0.00    -0.082 Cl
ATOM      4  C   UNL     1     143.152 129.717  98.539  0.00  0.00    +0.102 C 
ATOM      5 CL   UNL     1     142.680 128.090  98.207  0.00  0.00    -0.073 Cl
ATOM      6  C   UNL     1     143.558 130.370  97.490  0.00  0.00    -0.083 C 
ATOM      7  C   UNL     1     143.968 131.033  96.452  0.00  0.00    +0.041 C 
ATOM      8  N   UNL     1     143.135 131.275  95.407  0.00  0.00    -0.283 N 
ATOM      9  C   UNL     1     143.424 131.984  94.246  0.00  0.00    +0.222 A 
ATOM     10  N   UNL     1     142.432 132.067  93.353  0.00  0.00    -0.199 NA
ATOM     11  C   UNL     1     142.678 132.738  92.217  0.00  0.00    +0.132 A 
ATOM     12  N   UNL     1     141.608 132.749  91.297  0.00  0.00    -0.328 N 
ATOM     13  C   UNL     1     141.839 131.793  90.204  0.00  0.00    +0.012 C 
ATOM     14  C   UNL     1     140.784 131.974  89.112  0.00  0.00    -0.025 C 
ATOM     15  C   UNL     1     139.353 131.635  89.544  0.00  0.00    -0.003 C 
ATOM     16  N   UNL     1     139.164 130.288  90.081  0.00  0.00    -0.316 N 
ATOM     17  C   UNL     1     139.458 129.187  89.160  0.00  0.00    -0.004 C 
ATOM     18  C   UNL     1     138.532 129.126  87.940  0.00  0.00    -0.037 C 
ATOM     19  C   UNL     1     138.818 127.925  87.031  0.00  0.00    -0.034 C 
ATOM     20  C   UNL     1     138.483 126.605  87.668  0.00  0.00    -0.086 C 
ATOM     21  C   UNL     1     137.394 125.847  87.451  0.00  0.00    -0.060 C 
ATOM     22  C   UNL     1     136.233 126.134  86.546  0.00  0.00    +0.101 C 
ATOM     23  O   UNL     1     135.042 126.086  87.340  0.00  0.00    -0.233 OA
ATOM     24  O   UNL     1     133.940 126.349  86.422  0.00  0.00    -0.250 OA
ATOM     25  C   UNL     1     143.895 133.384  91.960  0.00  0.00    +0.040 A 
ATOM     26  C   UNL     1     144.184 134.170  90.817  0.00  0.00    -0.049 A 
ATOM     27  C   UNL     1     145.433 134.765  90.656  0.00  0.00    -0.061 A 
ATOM     28  C   UNL     1     146.398 134.587  91.638  0.00  0.00    -0.060 A 
ATOM     29  C   UNL     1     146.102 133.828  92.774  0.00  0.00    -0.036 A 
ATOM     30  C   UNL     1     144.859 133.229  92.956  0.00  0.00    +0.078 A 
ATOM     31  N   UNL     1     144.635 132.534  94.076  0.00  0.00    -0.214 NA
ATOM     32  H   UNL     1     142.225 130.907  95.479  0.00  0.00    +0.000 HD
ATOM     33  H   UNL     1     140.811 133.322  91.377  0.00  0.00    +0.000 HD
ATOM     34  H   UNL     1     138.189 130.201  90.372  0.00  0.00    +0.000 HD
ATOM     35  H   UNL     1     139.834 130.198  90.844  0.00  0.00    +0.000 HD
ATOM     36  H   UNL     1     133.101 126.329  86.909  0.00  0.00    +0.000 HD
ENDROOT
TORSDOF 0
ENDMDL
MODEL 3
REMARK VINA RESULT:    -5.200      1.229      1.322
REMARK INTER + INTRA:          -5.200
REMARK INTER:                  -5.200
REMARK INTRA:                   0.000
REMARK UNBOUND:                 0.000
REMARK  Name = /home/vital/Documents/PhD_2021/Malaria_codes/scripts/../data/pdbqt_ligands/ligand_115_temp.pdb
REMARK                            x       y       z     vdW  Elec       q    Type
REMARK                         _______ _______ _______ _____ _____    ______ ____
ROOT
ATOM      1  C   UNL     1     142.754 133.192  98.242  0.00  0.00    -0.078 C 
ATOM      2  C   UNL     1     143.043 131.882  98.189  0.00  0.00    +0.060 C 
ATOM      3 CL   UNL     1     143.245 131.061  99.713  0.00  0.00    -0.082 Cl
ATOM      4  C   UNL     1     143.208 131.127  96.960  0.00  0.00    +0.102 C 
ATOM      5 CL   UNL     1     143.210 129.401  96.943  0.00  0.00    -0.073 Cl
ATOM      6  C   UNL     1     143.309 131.663  95.779  0.00  0.00    -0.083 C 
ATOM      7  C   UNL     1     143.412 132.212  94.606  0.00  0.00    +0.041 C 
ATOM      8  N   UNL     1     142.457 132.018  93.662  0.00  0.00    -0.283 N 
ATOM      9  C   UNL     1     142.420 132.554  92.379  0.00  0.00    +0.222 A 
ATOM     10  N   UNL     1     141.373 132.195  91.628  0.00  0.00    -0.199 NA
ATOM     11  C   UNL     1     141.309 132.688  90.382  0.00  0.00    +0.132 A 
ATOM     12  N   UNL     1     140.207 132.234  89.626  0.00  0.00    -0.328 N 
ATOM     13  C   UNL     1     140.613 131.196  88.667  0.00  0.00    +0.012 C 
ATOM     14  C   UNL     1     139.459 130.875  87.715  0.00  0.00    -0.025 C 
ATOM     15  C   UNL     1     138.236 130.239  88.386  0.00  0.00    -0.003 C 
ATOM     16  N   UNL     1     138.501 129.015  89.140  0.00  0.00    -0.316 N 
ATOM     17  C   UNL     1     139.025 127.888  88.363  0.00  0.00    -0.004 C 
ATOM     18  C   UNL     1     138.055 127.351  87.305  0.00  0.00    -0.037 C 
ATOM     19  C   UNL     1     138.601 126.130  86.557  0.00  0.00    -0.034 C 
ATOM     20  C   UNL     1     138.729 124.909  87.424  0.00  0.00    -0.086 C 
ATOM     21  C   UNL     1     137.897 123.854  87.475  0.00  0.00    -0.060 C 
ATOM     22  C   UNL     1     136.628 123.638  86.706  0.00  0.00    +0.101 C 
ATOM     23  O   UNL     1     135.579 123.410  87.653  0.00  0.00    -0.233 OA
ATOM     24  O   UNL     1     134.372 123.186  86.866  0.00  0.00    -0.250 OA
ATOM     25  C   UNL     1     142.253 133.586  89.866  0.00  0.00    +0.040 A 
ATOM     26  C   UNL     1     142.195 134.198  88.588  0.00  0.00    -0.049 A 
ATOM     27  C   UNL     1     143.193 135.074  88.171  0.00  0.00    -0.061 A 
ATOM     28  C   UNL     1     144.251 135.353  89.026  0.00  0.00    -0.060 A 
ATOM     29  C   UNL     1     144.293 134.762  90.293  0.00  0.00    -0.036 A 
ATOM     30  C   UNL     1     143.304 133.888  90.731  0.00  0.00    +0.078 A 
ATOM     31  N   UNL     1     143.395 133.376  91.963  0.00  0.00    -0.214 NA
ATOM     32  H   UNL     1     141.706 131.433  93.912  0.00  0.00    +0.000 HD
ATOM     33  H   UNL     1     139.286 132.569  89.727  0.00  0.00    +0.000 HD
ATOM     34  H   UNL     1     137.625 128.717  89.572  0.00  0.00    +0.000 HD
ATOM     35  H   UNL     1     139.232 129.254  89.809  0.00  0.00    +0.000 HD
ATOM     36  H   UNL     1     133.623 123.025  87.461  0.00  0.00    +0.000 HD
ENDROOT
TORSDOF 0
ENDMDL
MODEL 4
REMARK VINA RESULT:    -5.073      8.806     12.901
REMARK INTER + INTRA:          -5.073
REMARK INTER:                  -5.073
REMARK INTRA:                   0.000
REMARK UNBOUND:                 0.000
REMARK  Name = /home/vital/Documents/PhD_2021/Malaria_codes/scripts/../data/pdbqt_ligands/ligand_115_temp.pdb
REMARK                            x       y       z     vdW  Elec       q    Type
REMARK                         _______ _______ _______ _____ _____    ______ ____
ROOT
ATOM      1  C   UNL     1     138.511 123.461 107.699  0.00  0.00    -0.078 C 
ATOM      2  C   UNL     1     138.363 122.713 106.594  0.00  0.00    +0.060 C 
ATOM      3 CL   UNL     1     137.043 121.574 106.588  0.00  0.00    -0.082 Cl
ATOM      4  C   UNL     1     139.231 122.786 105.432  0.00  0.00    +0.102 C 
ATOM      5 CL   UNL     1     138.787 122.084 103.919  0.00  0.00    -0.073 Cl
ATOM      6  C   UNL     1     140.367 123.418 105.404  0.00  0.00    -0.083 C 
ATOM      7  C   UNL     1     141.501 124.051 105.392  0.00  0.00    +0.041 C 
ATOM      8  N   UNL     1     141.680 125.142 104.604  0.00  0.00    -0.283 N 
ATOM      9  C   UNL     1     142.821 125.929 104.502  0.00  0.00    +0.222 A 
ATOM     10  N   UNL     1     142.753 126.945 103.635  0.00  0.00    -0.199 NA
ATOM     11  C   UNL     1     143.840 127.721 103.506  0.00  0.00    +0.132 A 
ATOM     12  N   UNL     1     143.719 128.745 102.542  0.00  0.00    -0.328 N 
ATOM     13  C   UNL     1     144.428 128.393 101.303  0.00  0.00    +0.012 C 
ATOM     14  C   UNL     1     144.470 129.596 100.358  0.00  0.00    -0.025 C 
ATOM     15  C   UNL     1     143.102 130.046  99.835  0.00  0.00    -0.003 C 
ATOM     16  N   UNL     1     142.322 129.013  99.153  0.00  0.00    -0.316 N 
ATOM     17  C   UNL     1     142.927 128.453  97.941  0.00  0.00    -0.004 C 
ATOM     18  C   UNL     1     143.097 129.463  96.801  0.00  0.00    -0.037 C 
ATOM     19  C   UNL     1     143.667 128.835  95.525  0.00  0.00    -0.034 C 
ATOM     20  C   UNL     1     142.723 127.867  94.866  0.00  0.00    -0.086 C 
ATOM     21  C   UNL     1     141.949 128.088  93.789  0.00  0.00    -0.060 C 
ATOM     22  C   UNL     1     141.812 129.350  92.991  0.00  0.00    +0.101 C 
ATOM     23  O   UNL     1     140.425 129.710  92.982  0.00  0.00    -0.233 OA
ATOM     24  O   UNL     1     140.334 130.926  92.183  0.00  0.00    -0.250 OA
ATOM     25  C   UNL     1     145.003 127.540 104.266  0.00  0.00    +0.040 A 
ATOM     26  C   UNL     1     146.149 128.373 104.228  0.00  0.00    -0.049 A 
ATOM     27  C   UNL     1     147.258 128.098 105.024  0.00  0.00    -0.061 A 
ATOM     28  C   UNL     1     147.228 126.996 105.869  0.00  0.00    -0.060 A 
ATOM     29  C   UNL     1     146.087 126.189 105.918  0.00  0.00    -0.036 A 
ATOM     30  C   UNL     1     144.968 126.449 105.134  0.00  0.00    +0.078 A 
ATOM     31  N   UNL     1     143.902 125.650 105.246  0.00  0.00    -0.214 NA
ATOM     32  H   UNL     1     140.916 125.406 104.042  0.00  0.00    +0.000 HD
ATOM     33  H   UNL     1     143.226 129.586 102.682  0.00  0.00    +0.000 HD
ATOM     34  H   UNL     1     141.423 129.420  98.895  0.00  0.00    +0.000 HD
ATOM     35  H   UNL     1     142.252 128.238  99.812  0.00  0.00    +0.000 HD
ATOM     36  H   UNL     1     139.409 131.217  92.142  0.00  0.00    +0.000 HD
ENDROOT
TORSDOF 0
ENDMDL
MODEL 5
REMARK VINA RESULT:    -4.756      5.761     10.311
REMARK INTER + INTRA:          -4.756
REMARK INTER:                  -4.756
REMARK INTRA:                   0.000
REMARK UNBOUND:                 0.000
REMARK  Name = /home/vital/Documents/PhD_2021/Malaria_codes/scripts/../data/pdbqt_ligands/ligand_115_temp.pdb
REMARK                            x       y       z     vdW  Elec       q    Type
REMARK                         _______ _______ _______ _____ _____    ______ ____
ROOT
ATOM      1  C   UNL     1     140.068 124.193  87.124  0.00  0.00    -0.078 C 
ATOM      2  C   UNL     1     139.337 124.022  88.238  0.00  0.00    +0.060 C 
ATOM      3 CL   UNL     1     138.659 122.438  88.496  0.00  0.00    -0.082 Cl
ATOM      4  C   UNL     1     139.074 125.065  89.214  0.00  0.00    +0.102 C 
ATOM      5 CL   UNL     1     138.455 124.706  90.785  0.00  0.00    -0.073 Cl
ATOM      6  C   UNL     1     139.326 126.327  89.025  0.00  0.00    -0.083 C 
ATOM      7  C   UNL     1     139.580 127.583  88.821  0.00  0.00    +0.041 C 
ATOM      8  N   UNL     1     140.517 128.232  89.559  0.00  0.00    -0.283 N 
ATOM      9  C   UNL     1     140.910 129.561  89.441  0.00  0.00    +0.222 A 
ATOM     10  N   UNL     1     141.846 129.970  90.304  0.00  0.00    -0.199 NA
ATOM     11  C   UNL     1     142.244 131.249  90.224  0.00  0.00    +0.132 A 
ATOM     12  N   UNL     1     143.199 131.629  91.191  0.00  0.00    -0.328 N 
ATOM     13  C   UNL     1     142.575 132.405  92.274  0.00  0.00    +0.012 C 
ATOM     14  C   UNL     1     143.651 132.990  93.192  0.00  0.00    -0.025 C 
ATOM     15  C   UNL     1     144.466 131.948  93.965  0.00  0.00    -0.003 C 
ATOM     16  N   UNL     1     143.684 131.022  94.784  0.00  0.00    -0.316 N 
ATOM     17  C   UNL     1     142.896 131.632  95.859  0.00  0.00    -0.004 C 
ATOM     18  C   UNL     1     143.738 132.311  96.945  0.00  0.00    -0.037 C 
ATOM     19  C   UNL     1     142.893 132.877  98.091  0.00  0.00    -0.034 C 
ATOM     20  C   UNL     1     142.223 131.815  98.918  0.00  0.00    -0.086 C 
ATOM     21  C   UNL     1     142.608 131.357 100.123  0.00  0.00    -0.060 C 
ATOM     22  C   UNL     1     143.803 131.766 100.930  0.00  0.00    +0.101 C 
ATOM     23  O   UNL     1     144.568 130.586 101.202  0.00  0.00    -0.233 OA
ATOM     24  O   UNL     1     145.705 131.023 102.003  0.00  0.00    -0.250 OA
ATOM     25  C   UNL     1     141.761 132.140  89.257  0.00  0.00    +0.040 A 
ATOM     26  C   UNL     1     142.200 133.475  89.075  0.00  0.00    -0.049 A 
ATOM     27  C   UNL     1     141.645 134.280  88.083  0.00  0.00    -0.061 A 
ATOM     28  C   UNL     1     140.657 133.757  87.261  0.00  0.00    -0.060 A 
ATOM     29  C   UNL     1     140.241 132.433  87.430  0.00  0.00    -0.036 A 
ATOM     30  C   UNL     1     140.785 131.611  88.412  0.00  0.00    +0.078 A 
ATOM     31  N   UNL     1     140.358 130.347  88.506  0.00  0.00    -0.214 NA
ATOM     32  H   UNL     1     140.969 127.703  90.256  0.00  0.00    +0.000 HD
ATOM     33  H   UNL     1     144.156 131.405  91.147  0.00  0.00    +0.000 HD
ATOM     34  H   UNL     1     144.330 130.356  95.208  0.00  0.00    +0.000 HD
ATOM     35  H   UNL     1     143.007 130.597  94.151  0.00  0.00    +0.000 HD
ATOM     36  H   UNL     1     146.262 130.259 102.218  0.00  0.00    +0.000 HD
ENDROOT
TORSDOF 0
ENDMDL
MODEL 6
REMARK VINA RESULT:    -4.736      1.840      2.048
REMARK INTER + INTRA:          -4.736
REMARK INTER:                  -4.736
REMARK INTRA:                   0.000
REMARK UNBOUND:                 0.000
REMARK  Name = /home/vital/Documents/PhD_2021/Malaria_codes/scripts/../data/pdbqt_ligands/ligand_115_temp.pdb
REMARK                            x       y       z     vdW  Elec       q    Type
REMARK                         _______ _______ _______ _____ _____    ______ ____
ROOT
ATOM      1  C   UNL     1     142.855 129.996  99.031  0.00  0.00    -0.078 C 
ATOM      2  C   UNL     1     143.045 128.746  98.580  0.00  0.00    +0.060 C 
ATOM      3 CL   UNL     1     143.156 127.486  99.780  0.00  0.00    -0.082 Cl
ATOM      4  C   UNL     1     143.174 128.390  97.177  0.00  0.00    +0.102 C 
ATOM      5 CL   UNL     1     143.046 126.756  96.636  0.00  0.00    -0.073 Cl
ATOM      6  C   UNL     1     143.337 129.250  96.215  0.00  0.00    -0.083 C 
ATOM      7  C   UNL     1     143.503 130.120  95.266  0.00  0.00    +0.041 C 
ATOM      8  N   UNL     1     142.553 130.298  94.312  0.00  0.00    -0.283 N 
ATOM      9  C   UNL     1     142.580 131.200  93.254  0.00  0.00    +0.222 A 
ATOM     10  N   UNL     1     141.523 131.169  92.435  0.00  0.00    -0.199 NA
ATOM     11  C   UNL     1     141.519 132.020  91.399  0.00  0.00    +0.132 A 
ATOM     12  N   UNL     1     140.399 131.905  90.547  0.00  0.00    -0.328 N 
ATOM     13  C   UNL     1     140.743 131.180  89.315  0.00  0.00    +0.012 C 
ATOM     14  C   UNL     1     139.585 131.254  88.318  0.00  0.00    -0.025 C 
ATOM     15  C   UNL     1     138.305 130.542  88.770  0.00  0.00    -0.003 C 
ATOM     16  N   UNL     1     138.463 129.129  89.114  0.00  0.00    -0.316 N 
ATOM     17  C   UNL     1     138.914 128.255  88.027  0.00  0.00    -0.004 C 
ATOM     18  C   UNL     1     137.925 128.143  86.861  0.00  0.00    -0.037 C 
ATOM     19  C   UNL     1     138.391 127.169  85.773  0.00  0.00    -0.034 C 
ATOM     20  C   UNL     1     138.411 125.735  86.227  0.00  0.00    -0.086 C 
ATOM     21  C   UNL     1     137.500 124.783  85.959  0.00  0.00    -0.060 C 
ATOM     22  C   UNL     1     136.233 124.911  85.167  0.00  0.00    +0.101 C 
ATOM     23  O   UNL     1     135.152 124.487  86.007  0.00  0.00    -0.233 OA
ATOM     24  O   UNL     1     133.947 124.608  85.196  0.00  0.00    -0.250 OA
ATOM     25  C   UNL     1     142.537 132.957  91.176  0.00  0.00    +0.040 A 
ATOM     26  C   UNL     1     142.549 133.931  90.146  0.00  0.00    -0.049 A 
ATOM     27  C   UNL     1     143.619 134.812  90.009  0.00  0.00    -0.061 A 
ATOM     28  C   UNL     1     144.678 134.734  90.903  0.00  0.00    -0.060 A 
ATOM     29  C   UNL     1     144.653 133.785  91.929  0.00  0.00    -0.036 A 
ATOM     30  C   UNL     1     143.593 132.898  92.086  0.00  0.00    +0.078 A 
ATOM     31  N   UNL     1     143.622 132.031  93.103  0.00  0.00    -0.214 NA
ATOM     32  H   UNL     1     141.755 129.724  94.377  0.00  0.00    +0.000 HD
ATOM     33  H   UNL     1     139.505 132.264  90.751  0.00  0.00    +0.000 HD
ATOM     34  H   UNL     1     137.560 128.784  89.439  0.00  0.00    +0.000 HD
ATOM     35  H   UNL     1     139.198 129.096  89.819  0.00  0.00    +0.000 HD
ATOM     36  H   UNL     1     133.177 124.332  85.718  0.00  0.00    +0.000 HD
ENDROOT
TORSDOF 0
ENDMDL
MODEL 7
REMARK VINA RESULT:    -4.609      5.983     10.210
REMARK INTER + INTRA:          -4.609
REMARK INTER:                  -4.609
REMARK INTRA:                   0.000
REMARK UNBOUND:                 0.000
REMARK  Name = /home/vital/Documents/PhD_2021/Malaria_codes/scripts/../data/pdbqt_ligands/ligand_115_temp.pdb
REMARK                            x       y       z     vdW  Elec       q    Type
REMARK                         _______ _______ _______ _____ _____    ______ ____
ROOT
ATOM      1  C   UNL     1     137.409 125.827  85.220  0.00  0.00    -0.078 C 
ATOM      2  C   UNL     1     136.568 125.509  86.217  0.00  0.00    +0.060 C 
ATOM      3 CL   UNL     1     135.367 124.294  85.874  0.00  0.00    -0.082 Cl
ATOM      4  C   UNL     1     136.591 126.118  87.536  0.00  0.00    +0.102 C 
ATOM      5 CL   UNL     1     135.749 125.426  88.873  0.00  0.00    -0.073 Cl
ATOM      6  C   UNL     1     137.276 127.181  87.840  0.00  0.00    -0.083 C 
ATOM      7  C   UNL     1     137.963 128.244  88.129  0.00  0.00    +0.041 C 
ATOM      8  N   UNL     1     138.995 128.188  89.009  0.00  0.00    -0.283 N 
ATOM      9  C   UNL     1     139.828 129.231  89.397  0.00  0.00    +0.222 A 
ATOM     10  N   UNL     1     140.767 128.922  90.299  0.00  0.00    -0.199 NA
ATOM     11  C   UNL     1     141.584 129.907  90.702  0.00  0.00    +0.132 A 
ATOM     12  N   UNL     1     142.520 129.527  91.687  0.00  0.00    -0.328 N 
ATOM     13  C   UNL     1     142.106 129.993  93.019  0.00  0.00    +0.012 C 
ATOM     14  C   UNL     1     143.230 129.764  94.032  0.00  0.00    -0.025 C 
ATOM     15  C   UNL     1     143.566 128.292  94.292  0.00  0.00    -0.003 C 
ATOM     16  N   UNL     1     142.444 127.460  94.726  0.00  0.00    -0.316 N 
ATOM     17  C   UNL     1     141.820 127.845  95.996  0.00  0.00    -0.004 C 
ATOM     18  C   UNL     1     142.743 127.714  97.212  0.00  0.00    -0.037 C 
ATOM     19  C   UNL     1     142.043 128.055  98.533  0.00  0.00    -0.034 C 
ATOM     20  C   UNL     1     140.979 127.063  98.915  0.00  0.00    -0.086 C 
ATOM     21  C   UNL     1     141.073 126.075  99.823  0.00  0.00    -0.060 C 
ATOM     22  C   UNL     1     142.259 125.697 100.659  0.00  0.00    +0.101 C 
ATOM     23  O   UNL     1     142.545 124.317 100.407  0.00  0.00    -0.233 OA
ATOM     24  O   UNL     1     143.687 123.986 101.251  0.00  0.00    -0.250 OA
ATOM     25  C   UNL     1     141.524 131.209  90.187  0.00  0.00    +0.040 A 
ATOM     26  C   UNL     1     142.409 132.266  90.517  0.00  0.00    -0.049 A 
ATOM     27  C   UNL     1     142.255 133.528  89.949  0.00  0.00    -0.061 A 
ATOM     28  C   UNL     1     141.225 133.742  89.043  0.00  0.00    -0.060 A 
ATOM     29  C   UNL     1     140.367 132.691  88.706  0.00  0.00    -0.036 A 
ATOM     30  C   UNL     1     140.506 131.422  89.258  0.00  0.00    +0.078 A 
ATOM     31  N   UNL     1     139.665 130.456  88.874  0.00  0.00    -0.214 NA
ATOM     32  H   UNL     1     139.174 127.311  89.418  0.00  0.00    +0.000 HD
ATOM     33  H   UNL     1     143.343 129.017  91.507  0.00  0.00    +0.000 HD
ATOM     34  H   UNL     1     142.782 126.502  94.821  0.00  0.00    +0.000 HD
ATOM     35  H   UNL     1     141.722 127.577  94.016  0.00  0.00    +0.000 HD
ATOM     36  H   UNL     1     143.927 123.055 101.120  0.00  0.00    +0.000 HD
ENDROOT
TORSDOF 0
ENDMDL
MODEL 8
REMARK VINA RESULT:    -4.599      3.335      4.210
REMARK INTER + INTRA:          -4.599
REMARK INTER:                  -4.599
REMARK INTRA:                   0.000
REMARK UNBOUND:                 0.000
REMARK  Name = /home/vital/Documents/PhD_2021/Malaria_codes/scripts/../data/pdbqt_ligands/ligand_115_temp.pdb
REMARK                            x       y       z     vdW  Elec       q    Type
REMARK                         _______ _______ _______ _____ _____    ______ ____
ROOT
ATOM      1  C   UNL     1     141.493 128.233  98.578  0.00  0.00    -0.078 C 
ATOM      2  C   UNL     1     141.510 126.920  98.297  0.00  0.00    +0.060 C 
ATOM      3 CL   UNL     1     141.402 125.826  99.650  0.00  0.00    -0.082 Cl
ATOM      4  C   UNL     1     141.625 126.369  96.958  0.00  0.00    +0.102 C 
ATOM      5 CL   UNL     1     141.275 124.713  96.621  0.00  0.00    -0.073 Cl
ATOM      6  C   UNL     1     141.939 127.064  95.904  0.00  0.00    -0.083 C 
ATOM      7  C   UNL     1     142.257 127.769  94.862  0.00  0.00    +0.041 C 
ATOM      8  N   UNL     1     141.370 127.953  93.850  0.00  0.00    -0.283 N 
ATOM      9  C   UNL     1     141.558 128.695  92.690  0.00  0.00    +0.222 A 
ATOM     10  N   UNL     1     140.531 128.707  91.833  0.00  0.00    -0.199 NA
ATOM     11  C   UNL     1     140.681 129.408  90.699  0.00  0.00    +0.132 A 
ATOM     12  N   UNL     1     139.581 129.342  89.817  0.00  0.00    -0.328 N 
ATOM     13  C   UNL     1     139.849 128.419  88.704  0.00  0.00    +0.012 C 
ATOM     14  C   UNL     1     138.743 128.525  87.652  0.00  0.00    -0.025 C 
ATOM     15  C   UNL     1     137.360 128.067  88.129  0.00  0.00    -0.003 C 
ATOM     16  N   UNL     1     137.300 126.703  88.655  0.00  0.00    -0.316 N 
ATOM     17  C   UNL     1     137.649 125.639  87.709  0.00  0.00    -0.004 C 
ATOM     18  C   UNL     1     136.687 125.517  86.522  0.00  0.00    -0.037 C 
ATOM     19  C   UNL     1     137.035 124.352  85.588  0.00  0.00    -0.034 C 
ATOM     20  C   UNL     1     136.832 123.002  86.219  0.00  0.00    -0.086 C 
ATOM     21  C   UNL     1     135.800 122.161  86.030  0.00  0.00    -0.060 C 
ATOM     22  C   UNL     1     134.588 122.362  85.171  0.00  0.00    +0.101 C 
ATOM     23  O   UNL     1     133.434 122.210  86.006  0.00  0.00    -0.233 OA
ATOM     24  O   UNL     1     132.282 122.392  85.131  0.00  0.00    -0.250 OA
ATOM     25  C   UNL     1     141.831 130.153  90.407  0.00  0.00    +0.040 A 
ATOM     26  C   UNL     1     142.014 130.972  89.265  0.00  0.00    -0.049 A 
ATOM     27  C   UNL     1     143.205 131.668  89.068  0.00  0.00    -0.061 A 
ATOM     28  C   UNL     1     144.216 131.558  90.013  0.00  0.00    -0.060 A 
ATOM     29  C   UNL     1     144.023 130.765  91.148  0.00  0.00    -0.036 A 
ATOM     30  C   UNL     1     142.841 130.066  91.366  0.00  0.00    +0.078 A 
ATOM     31  N   UNL     1     142.714 129.343  92.484  0.00  0.00    -0.214 NA
ATOM     32  H   UNL     1     140.495 127.512  93.949  0.00  0.00    +0.000 HD
ATOM     33  H   UNL     1     138.744 129.847  89.933  0.00  0.00    +0.000 HD
ATOM     34  H   UNL     1     136.347 126.535  88.979  0.00  0.00    +0.000 HD
ATOM     35  H   UNL     1     138.003 126.660  89.393  0.00  0.00    +0.000 HD
ATOM     36  H   UNL     1     131.466 122.299  85.647  0.00  0.00    +0.000 HD
ENDROOT
TORSDOF 0
ENDMDL
MODEL 9
REMARK VINA RESULT:    -4.581      6.668     10.970
REMARK INTER + INTRA:          -4.581
REMARK INTER:                  -4.581
REMARK INTRA:                   0.000
REMARK UNBOUND:                 0.000
REMARK  Name = /home/vital/Documents/PhD_2021/Malaria_codes/scripts/../data/pdbqt_ligands/ligand_115_temp.pdb
REMARK                            x       y       z     vdW  Elec       q    Type
REMARK                         _______ _______ _______ _____ _____    ______ ____
ROOT
ATOM      1  C   UNL     1     134.742 123.293  86.602  0.00  0.00    -0.078 C 
ATOM      2  C   UNL     1     134.002 123.589  87.683  0.00  0.00    +0.060 C 
ATOM      3 CL   UNL     1     132.489 122.742  87.854  0.00  0.00    -0.082 Cl
ATOM      4  C   UNL     1     134.377 124.564  88.692  0.00  0.00    +0.102 C 
ATOM      5 CL   UNL     1     133.588 124.638  90.226  0.00  0.00    -0.073 Cl
ATOM      6  C   UNL     1     135.353 125.414  88.563  0.00  0.00    -0.083 C 
ATOM      7  C   UNL     1     136.329 126.259  88.419  0.00  0.00    +0.041 C 
ATOM      8  N   UNL     1     137.427 126.195  89.214  0.00  0.00    -0.283 N 
ATOM      9  C   UNL     1     138.552 127.010  89.164  0.00  0.00    +0.222 A 
ATOM     10  N   UNL     1     139.499 126.754  90.073  0.00  0.00    -0.199 NA
ATOM     11  C   UNL     1     140.595 127.528  90.059  0.00  0.00    +0.132 A 
ATOM     12  N   UNL     1     141.533 127.237  91.072  0.00  0.00    -0.328 N 
ATOM     13  C   UNL     1     141.455 128.218  92.164  0.00  0.00    +0.012 C 
ATOM     14  C   UNL     1     142.616 128.016  93.140  0.00  0.00    -0.025 C 
ATOM     15  C   UNL     1     142.590 126.683  93.897  0.00  0.00    -0.003 C 
ATOM     16  N   UNL     1     141.365 126.415  94.651  0.00  0.00    -0.316 N 
ATOM     17  C   UNL     1     141.056 127.365  95.723  0.00  0.00    -0.004 C 
ATOM     18  C   UNL     1     142.081 127.378  96.863  0.00  0.00    -0.037 C 
ATOM     19  C   UNL     1     141.696 128.329  98.003  0.00  0.00    -0.034 C 
ATOM     20  C   UNL     1     140.477 127.883  98.763  0.00  0.00    -0.086 C 
ATOM     21  C   UNL     1     140.442 127.271  99.960  0.00  0.00    -0.060 C 
ATOM     22  C   UNL     1     141.596 126.858 100.823  0.00  0.00    +0.101 C 
ATOM     23  O   UNL     1     141.472 125.453 101.071  0.00  0.00    -0.233 OA
ATOM     24  O   UNL     1     142.598 125.098 101.927  0.00  0.00    -0.250 OA
ATOM     25  C   UNL     1     140.803 128.541  89.113  0.00  0.00    +0.040 A 
ATOM     26  C   UNL     1     141.972 129.335  89.001  0.00  0.00    -0.049 A 
ATOM     27  C   UNL     1     142.072 130.323  88.024  0.00  0.00    -0.061 A 
ATOM     28  C   UNL     1     141.013 130.520  87.149  0.00  0.00    -0.060 A 
ATOM     29  C   UNL     1     139.870 129.720  87.251  0.00  0.00    -0.036 A 
ATOM     30  C   UNL     1     139.751 128.725  88.216  0.00  0.00    +0.078 A 
ATOM     31  N   UNL     1     138.640 127.982  88.243  0.00  0.00    -0.214 NA
ATOM     32  H   UNL     1     137.429 125.491  89.903  0.00  0.00    +0.000 HD
ATOM     33  H   UNL     1     142.158 126.476  91.050  0.00  0.00    +0.000 HD
ATOM     34  H   UNL     1     141.451 125.488  95.068  0.00  0.00    +0.000 HD
ATOM     35  H   UNL     1     140.602 126.498  93.979  0.00  0.00    +0.000 HD
ATOM     36  H   UNL     1     142.564 124.149 102.129  0.00  0.00    +0.000 HD
ENDROOT
TORSDOF 0
ENDMDL
