MODEL 1
REMARK VINA RESULT:    -5.015      0.000      0.000
REMARK INTER + INTRA:          -5.015
REMARK INTER:                  -5.015
REMARK INTRA:                   0.000
REMARK UNBOUND:                 0.000
REMARK  Name = /home/vital/Documents/PhD_2021/Malaria_codes/scripts/../data/pdbqt_ligands/ligand_287_temp.pdb
REMARK                            x       y       z     vdW  Elec       q    Type
REMARK                         _______ _______ _______ _____ _____    ______ ____
ROOT
ATOM      1  O   UNL     1     143.982 131.078 102.051  0.00  0.00    -0.394 OA
ATOM      2  C   UNL     1     143.085 131.622 101.083  0.00  0.00    +0.057 C 
ATOM      3  C   UNL     1     141.782 130.813 101.082  0.00  0.00    +0.020 C 
ATOM      4  N   UNL     1     142.100 129.394 100.894  0.00  0.00    -0.301 N 
ATOM      5  C   UNL     1     140.941 128.512 101.106  0.00  0.00    +0.092 C 
ATOM      6  C   UNL     1     141.471 127.031 101.222  0.00  0.00    +0.125 C 
ATOM      7  N   UNL     1     142.300 126.598 102.261  0.00  0.00    -0.272 N 
ATOM      8  C   UNL     1     142.763 127.402 103.302  0.00  0.00    -0.000 C 
ATOM      9  C   UNL     1     143.732 127.047 104.156  0.00  0.00    -0.046 C 
ATOM     10  C   UNL     1     144.389 125.774 103.993  0.00  0.00    -0.043 C 
ATOM     11  C   UNL     1     143.906 124.891 103.103  0.00  0.00    +0.054 C 
ATOM     12 CL   UNL     1     144.713 123.379 102.860  0.00  0.00    -0.085 Cl
ATOM     13  C   UNL     1     142.684 125.162 102.244  0.00  0.00    +0.139 C 
ATOM     14 CL   UNL     1     141.302 124.236 102.926  0.00  0.00    -0.094 Cl
ATOM     15  N   UNL     1     141.059 126.268 100.238  0.00  0.00    -0.234 N 
ATOM     16  C   UNL     1     140.204 127.044  99.444  0.00  0.00    +0.071 A 
ATOM     17  C   UNL     1     139.514 126.601  98.329  0.00  0.00    -0.036 A 
ATOM     18  C   UNL     1     138.669 127.497  97.671  0.00  0.00    -0.060 A 
ATOM     19  C   UNL     1     138.522 128.812  98.139  0.00  0.00    -0.061 A 
ATOM     20  C   UNL     1     139.223 129.251  99.266  0.00  0.00    -0.055 A 
ATOM     21  C   UNL     1     140.070 128.356  99.898  0.00  0.00    +0.002 A 
ATOM     22  H   UNL     1     144.806 131.590 102.051  0.00  0.00    +0.000 HD
ATOM     23  H   UNL     1     142.832 129.134 101.555  0.00  0.00    +0.000 HD
ATOM     24  H   UNL     1     142.402 129.274  99.926  0.00  0.00    +0.000 HD
ATOM     25  H   UNL     1     141.303 125.327 100.086  0.00  0.00    +0.000 HD
ENDROOT
TORSDOF 0
ENDMDL
MODEL 2
REMARK VINA RESULT:    -5.015      3.449      6.225
REMARK INTER + INTRA:          -5.015
REMARK INTER:                  -5.015
REMARK INTRA:                   0.000
REMARK UNBOUND:                 0.000
REMARK  Name = /home/vital/Documents/PhD_2021/Malaria_codes/scripts/../data/pdbqt_ligands/ligand_287_temp.pdb
REMARK                            x       y       z     vdW  Elec       q    Type
REMARK                         _______ _______ _______ _____ _____    ______ ____
ROOT
ATOM      1  O   UNL     1     147.340 130.194 104.274  0.00  0.00    -0.394 OA
ATOM      2  C   UNL     1     147.249 129.217 105.311  0.00  0.00    +0.057 C 
ATOM      3  C   UNL     1     146.387 128.043 104.834  0.00  0.00    +0.020 C 
ATOM      4  N   UNL     1     145.097 128.557 104.361  0.00  0.00    -0.301 N 
ATOM      5  C   UNL     1     144.289 127.537 103.673  0.00  0.00    +0.092 C 
ATOM      6  C   UNL     1     143.115 128.273 102.919  0.00  0.00    +0.125 C 
ATOM      7  N   UNL     1     143.328 129.168 101.867  0.00  0.00    -0.272 N 
ATOM      8  C   UNL     1     144.578 129.524 101.361  0.00  0.00    -0.000 C 
ATOM      9  C   UNL     1     144.788 130.544 100.518  0.00  0.00    -0.046 C 
ATOM     10  C   UNL     1     143.678 131.373 100.118  0.00  0.00    -0.043 C 
ATOM     11  C   UNL     1     142.429 131.010 100.452  0.00  0.00    +0.054 C 
ATOM     12 CL   UNL     1     141.090 132.020 100.023  0.00  0.00    -0.085 Cl
ATOM     13  C   UNL     1     142.112 129.752 101.241  0.00  0.00    +0.139 C 
ATOM     14 CL   UNL     1     141.462 128.523 100.101  0.00  0.00    -0.094 Cl
ATOM     15  N   UNL     1     141.934 127.962 103.398  0.00  0.00    -0.234 N 
ATOM     16  C   UNL     1     142.133 126.997 104.394  0.00  0.00    +0.071 A 
ATOM     17  C   UNL     1     141.137 126.363 105.115  0.00  0.00    -0.036 A 
ATOM     18  C   UNL     1     141.507 125.392 106.048  0.00  0.00    -0.060 A 
ATOM     19  C   UNL     1     142.858 125.065 106.239  0.00  0.00    -0.061 A 
ATOM     20  C   UNL     1     143.858 125.710 105.505  0.00  0.00    -0.055 A 
ATOM     21  C   UNL     1     143.478 126.683 104.597  0.00  0.00    +0.002 A 
ATOM     22  H   UNL     1     147.886 130.937 104.577  0.00  0.00    +0.000 HD
ATOM     23  H   UNL     1     145.271 129.326 103.714  0.00  0.00    +0.000 HD
ATOM     24  H   UNL     1     144.571 128.861 105.181  0.00  0.00    +0.000 HD
ATOM     25  H   UNL     1     141.070 128.336 103.112  0.00  0.00    +0.000 HD
ENDROOT
TORSDOF 0
ENDMDL
MODEL 3
REMARK VINA RESULT:    -4.921      4.486      5.656
REMARK INTER + INTRA:          -4.921
REMARK INTER:                  -4.921
REMARK INTRA:                   0.000
REMARK UNBOUND:                 0.000
REMARK  Name = /home/vital/Documents/PhD_2021/Malaria_codes/scripts/../data/pdbqt_ligands/ligand_287_temp.pdb
REMARK                            x       y       z     vdW  Elec       q    Type
REMARK                         _______ _______ _______ _____ _____    ______ ____
ROOT
ATOM      1  O   UNL     1     143.514 133.807  97.459  0.00  0.00    -0.394 OA
ATOM      2  C   UNL     1     142.562 134.008  98.503  0.00  0.00    +0.057 C 
ATOM      3  C   UNL     1     142.405 132.713  99.309  0.00  0.00    +0.020 C 
ATOM      4  N   UNL     1     142.086 131.614  98.392  0.00  0.00    -0.301 N 
ATOM      5  C   UNL     1     142.141 130.292  99.037  0.00  0.00    +0.092 C 
ATOM      6  C   UNL     1     142.129 129.195  97.903  0.00  0.00    +0.125 C 
ATOM      7  N   UNL     1     143.159 129.055  96.969  0.00  0.00    -0.272 N 
ATOM      8  C   UNL     1     144.303 129.851  96.915  0.00  0.00    -0.000 C 
ATOM      9  C   UNL     1     145.166 129.863  95.889  0.00  0.00    -0.046 C 
ATOM     10  C   UNL     1     144.905 129.041  94.734  0.00  0.00    -0.043 C 
ATOM     11  C   UNL     1     143.902 128.148  94.771  0.00  0.00    +0.054 C 
ATOM     12 CL   UNL     1     143.544 127.190  93.375  0.00  0.00    -0.085 Cl
ATOM     13  C   UNL     1     143.012 127.950  95.985  0.00  0.00    +0.139 C 
ATOM     14 CL   UNL     1     143.517 126.435  96.811  0.00  0.00    -0.094 Cl
ATOM     15  N   UNL     1     141.049 128.452  97.931  0.00  0.00    -0.234 N 
ATOM     16  C   UNL     1     140.296 128.858  99.040  0.00  0.00    +0.071 A 
ATOM     17  C   UNL     1     139.106 128.291  99.460  0.00  0.00    -0.036 A 
ATOM     18  C   UNL     1     138.502 128.791 100.615  0.00  0.00    -0.060 A 
ATOM     19  C   UNL     1     139.097 129.840 101.334  0.00  0.00    -0.061 A 
ATOM     20  C   UNL     1     140.300 130.406 100.903  0.00  0.00    -0.055 A 
ATOM     21  C   UNL     1     140.878 129.911  99.746  0.00  0.00    +0.002 A 
ATOM     22  H   UNL     1     143.612 134.626  96.950  0.00  0.00    +0.000 HD
ATOM     23  H   UNL     1     142.755 131.628  97.622  0.00  0.00    +0.000 HD
ATOM     24  H   UNL     1     141.129 131.756  98.068  0.00  0.00    +0.000 HD
ATOM     25  H   UNL     1     140.812 127.742  97.292  0.00  0.00    +0.000 HD
ENDROOT
TORSDOF 0
ENDMDL
MODEL 4
REMARK VINA RESULT:    -4.825     13.508     14.830
REMARK INTER + INTRA:          -4.825
REMARK INTER:                  -4.825
REMARK INTRA:                   0.000
REMARK UNBOUND:                 0.000
REMARK  Name = /home/vital/Documents/PhD_2021/Malaria_codes/scripts/../data/pdbqt_ligands/ligand_287_temp.pdb
REMARK                            x       y       z     vdW  Elec       q    Type
REMARK                         _______ _______ _______ _____ _____    ______ ____
ROOT
ATOM      1  O   UNL     1     142.873 142.471 103.178  0.00  0.00    -0.394 OA
ATOM      2  C   UNL     1     141.630 142.871 103.754  0.00  0.00    +0.057 C 
ATOM      3  C   UNL     1     141.763 142.906 105.282  0.00  0.00    +0.020 C 
ATOM      4  N   UNL     1     142.267 141.610 105.749  0.00  0.00    -0.301 N 
ATOM      5  C   UNL     1     142.644 141.619 107.171  0.00  0.00    +0.092 C 
ATOM      6  C   UNL     1     143.481 140.314 107.462  0.00  0.00    +0.125 C 
ATOM      7  N   UNL     1     144.726 140.062 106.880  0.00  0.00    -0.272 N 
ATOM      8  C   UNL     1     145.375 140.910 105.983  0.00  0.00    -0.000 C 
ATOM      9  C   UNL     1     146.448 140.563 105.258  0.00  0.00    -0.046 C 
ATOM     10  C   UNL     1     146.967 139.222 105.359  0.00  0.00    -0.043 C 
ATOM     11  C   UNL     1     146.484 138.395 106.299  0.00  0.00    +0.054 C 
ATOM     12 CL   UNL     1     147.061 136.767 106.400  0.00  0.00    -0.085 Cl
ATOM     13  C   UNL     1     145.401 138.800 107.284  0.00  0.00    +0.139 C 
ATOM     14 CL   UNL     1     146.175 139.101 108.879  0.00  0.00    -0.094 Cl
ATOM     15  N   UNL     1     142.873 139.498 108.290  0.00  0.00    -0.234 N 
ATOM     16  C   UNL     1     141.689 140.128 108.696  0.00  0.00    +0.071 A 
ATOM     17  C   UNL     1     140.781 139.627 109.611  0.00  0.00    -0.036 A 
ATOM     18  C   UNL     1     139.667 140.404 109.936  0.00  0.00    -0.060 A 
ATOM     19  C   UNL     1     139.484 141.667 109.352  0.00  0.00    -0.061 A 
ATOM     20  C   UNL     1     140.408 142.166 108.429  0.00  0.00    -0.055 A 
ATOM     21  C   UNL     1     141.498 141.376 108.103  0.00  0.00    +0.002 A 
ATOM     22  H   UNL     1     142.789 142.449 102.212  0.00  0.00    +0.000 HD
ATOM     23  H   UNL     1     143.088 141.363 105.196  0.00  0.00    +0.000 HD
ATOM     24  H   UNL     1     141.514 140.931 105.637  0.00  0.00    +0.000 HD
ATOM     25  H   UNL     1     143.189 138.610 108.573  0.00  0.00    +0.000 HD
ENDROOT
TORSDOF 0
ENDMDL
MODEL 5
REMARK VINA RESULT:    -4.755      4.917      7.496
REMARK INTER + INTRA:          -4.755
REMARK INTER:                  -4.755
REMARK INTRA:                   0.000
REMARK UNBOUND:                 0.000
REMARK  Name = /home/vital/Documents/PhD_2021/Malaria_codes/scripts/../data/pdbqt_ligands/ligand_287_temp.pdb
REMARK                            x       y       z     vdW  Elec       q    Type
REMARK                         _______ _______ _______ _____ _____    ______ ____
ROOT
ATOM      1  O   UNL     1     142.138 129.645  94.102  0.00  0.00    -0.394 OA
ATOM      2  C   UNL     1     143.008 130.654  93.589  0.00  0.00    +0.057 C 
ATOM      3  C   UNL     1     143.952 131.128  94.701  0.00  0.00    +0.020 C 
ATOM      4  N   UNL     1     143.157 131.537  95.863  0.00  0.00    -0.301 N 
ATOM      5  C   UNL     1     143.976 131.790  97.059  0.00  0.00    +0.092 C 
ATOM      6  C   UNL     1     143.009 131.874  98.303  0.00  0.00    +0.125 C 
ATOM      7  N   UNL     1     142.249 130.790  98.751  0.00  0.00    -0.272 N 
ATOM      8  C   UNL     1     142.243 129.523  98.168  0.00  0.00    -0.000 C 
ATOM      9  C   UNL     1     141.351 128.565  98.456  0.00  0.00    -0.046 C 
ATOM     10  C   UNL     1     140.292 128.841  99.395  0.00  0.00    -0.043 C 
ATOM     11  C   UNL     1     140.315 129.985 100.098  0.00  0.00    +0.054 C 
ATOM     12 CL   UNL     1     139.025 130.354 101.192  0.00  0.00    -0.085 Cl
ATOM     13  C   UNL     1     141.413 131.024  99.958  0.00  0.00    +0.139 C 
ATOM     14 CL   UNL     1     142.496 130.893 101.387  0.00  0.00    -0.094 Cl
ATOM     15  N   UNL     1     142.991 133.066  98.849  0.00  0.00    -0.234 N 
ATOM     16  C   UNL     1     143.924 133.851  98.159  0.00  0.00    +0.071 A 
ATOM     17  C   UNL     1     144.252 135.163  98.454  0.00  0.00    -0.036 A 
ATOM     18  C   UNL     1     145.237 135.790  97.689  0.00  0.00    -0.060 A 
ATOM     19  C   UNL     1     145.881 135.099  96.651  0.00  0.00    -0.061 A 
ATOM     20  C   UNL     1     145.544 133.774  96.360  0.00  0.00    -0.055 A 
ATOM     21  C   UNL     1     144.553 133.170  97.116  0.00  0.00    +0.002 A 
ATOM     22  H   UNL     1     141.541 129.346  93.398  0.00  0.00    +0.000 HD
ATOM     23  H   UNL     1     142.489 130.795  96.077  0.00  0.00    +0.000 HD
ATOM     24  H   UNL     1     142.690 132.411  95.621  0.00  0.00    +0.000 HD
ATOM     25  H   UNL     1     142.428 133.355  99.603  0.00  0.00    +0.000 HD
ENDROOT
TORSDOF 0
ENDMDL
MODEL 6
REMARK VINA RESULT:    -4.700      4.265      6.197
REMARK INTER + INTRA:          -4.700
REMARK INTER:                  -4.700
REMARK INTRA:                   0.000
REMARK UNBOUND:                 0.000
REMARK  Name = /home/vital/Documents/PhD_2021/Malaria_codes/scripts/../data/pdbqt_ligands/ligand_287_temp.pdb
REMARK                            x       y       z     vdW  Elec       q    Type
REMARK                         _______ _______ _______ _____ _____    ______ ____
ROOT
ATOM      1  O   UNL     1     146.145 129.374 102.947  0.00  0.00    -0.394 OA
ATOM      2  C   UNL     1     145.082 128.523 103.374  0.00  0.00    +0.057 C 
ATOM      3  C   UNL     1     144.152 128.232 102.190  0.00  0.00    +0.020 C 
ATOM      4  N   UNL     1     143.721 129.502 101.596  0.00  0.00    -0.301 N 
ATOM      5  C   UNL     1     143.013 129.327 100.318  0.00  0.00    +0.092 C 
ATOM      6  C   UNL     1     142.914 130.738  99.619  0.00  0.00    +0.125 C 
ATOM      7  N   UNL     1     144.035 131.452  99.184  0.00  0.00    -0.272 N 
ATOM      8  C   UNL     1     145.355 131.023  99.312  0.00  0.00    -0.000 C 
ATOM      9  C   UNL     1     146.425 131.804  99.105  0.00  0.00    -0.046 C 
ATOM     10  C   UNL     1     146.234 133.193  98.766  0.00  0.00    -0.043 C 
ATOM     11  C   UNL     1     144.999 133.641  98.490  0.00  0.00    +0.054 C 
ATOM     12 CL   UNL     1     144.747 135.316  98.130  0.00  0.00    -0.085 Cl
ATOM     13  C   UNL     1     143.768 132.753  98.514  0.00  0.00    +0.139 C 
ATOM     14 CL   UNL     1     143.305 132.389  96.815  0.00  0.00    -0.094 Cl
ATOM     15  N   UNL     1     141.678 131.162  99.510  0.00  0.00    -0.234 N 
ATOM     16  C   UNL     1     140.848 130.146 100.001  0.00  0.00    +0.071 A 
ATOM     17  C   UNL     1     139.465 130.171 100.017  0.00  0.00    -0.036 A 
ATOM     18  C   UNL     1     138.785 129.053 100.506  0.00  0.00    -0.060 A 
ATOM     19  C   UNL     1     139.495 127.931 100.962  0.00  0.00    -0.061 A 
ATOM     20  C   UNL     1     140.892 127.915 100.941  0.00  0.00    -0.055 A 
ATOM     21  C   UNL     1     141.552 129.037 100.470  0.00  0.00    +0.002 A 
ATOM     22  H   UNL     1     146.733 129.557 103.697  0.00  0.00    +0.000 HD
ATOM     23  H   UNL     1     144.545 130.082 101.436  0.00  0.00    +0.000 HD
ATOM     24  H   UNL     1     143.070 129.938 102.249  0.00  0.00    +0.000 HD
ATOM     25  H   UNL     1     141.388 132.031  99.150  0.00  0.00    +0.000 HD
ENDROOT
TORSDOF 0
ENDMDL
MODEL 7
REMARK VINA RESULT:    -4.605      2.325      2.465
REMARK INTER + INTRA:          -4.605
REMARK INTER:                  -4.605
REMARK INTRA:                   0.000
REMARK UNBOUND:                 0.000
REMARK  Name = /home/vital/Documents/PhD_2021/Malaria_codes/scripts/../data/pdbqt_ligands/ligand_287_temp.pdb
REMARK                            x       y       z     vdW  Elec       q    Type
REMARK                         _______ _______ _______ _____ _____    ______ ____
ROOT
ATOM      1  O   UNL     1     143.759 132.843  99.203  0.00  0.00    -0.394 OA
ATOM      2  C   UNL     1     142.476 132.930  98.583  0.00  0.00    +0.057 C 
ATOM      3  C   UNL     1     141.524 131.920  99.235  0.00  0.00    +0.020 C 
ATOM      4  N   UNL     1     142.136 130.588  99.193  0.00  0.00    -0.301 N 
ATOM      5  C   UNL     1     141.405 129.594  99.995  0.00  0.00    +0.092 C 
ATOM      6  C   UNL     1     142.328 128.325 100.157  0.00  0.00    +0.125 C 
ATOM      7  N   UNL     1     143.543 128.350 100.848  0.00  0.00    -0.272 N 
ATOM      8  C   UNL     1     144.088 129.476 101.464  0.00  0.00    -0.000 C 
ATOM      9  C   UNL     1     145.347 129.550 101.920  0.00  0.00    -0.046 C 
ATOM     10  C   UNL     1     146.233 128.427 101.743  0.00  0.00    -0.043 C 
ATOM     11  C   UNL     1     145.741 127.264 101.285  0.00  0.00    +0.054 C 
ATOM     12 CL   UNL     1     146.801 125.922 101.019  0.00  0.00    -0.085 Cl
ATOM     13  C   UNL     1     144.277 127.060 100.938  0.00  0.00    +0.139 C 
ATOM     14 CL   UNL     1     143.514 126.108 102.259  0.00  0.00    -0.094 Cl
ATOM     15  N   UNL     1     141.835 127.263  99.565  0.00  0.00    -0.234 N 
ATOM     16  C   UNL     1     140.586 127.623  99.043  0.00  0.00    +0.071 A 
ATOM     17  C   UNL     1     139.711 126.777  98.386  0.00  0.00    -0.036 A 
ATOM     18  C   UNL     1     138.483 127.288  97.962  0.00  0.00    -0.060 A 
ATOM     19  C   UNL     1     138.146 128.629  98.207  0.00  0.00    -0.061 A 
ATOM     20  C   UNL     1     139.036 129.476  98.873  0.00  0.00    -0.055 A 
ATOM     21  C   UNL     1     140.258 128.960  99.272  0.00  0.00    +0.002 A 
ATOM     22  H   UNL     1     144.361 133.483  98.790  0.00  0.00    +0.000 HD
ATOM     23  H   UNL     1     143.089 130.658  99.551  0.00  0.00    +0.000 HD
ATOM     24  H   UNL     1     142.116 130.273  98.223  0.00  0.00    +0.000 HD
ATOM     25  H   UNL     1     142.263 126.379  99.500  0.00  0.00    +0.000 HD
ENDROOT
TORSDOF 0
ENDMDL
MODEL 8
REMARK VINA RESULT:    -4.595      2.173      2.711
REMARK INTER + INTRA:          -4.595
REMARK INTER:                  -4.595
REMARK INTRA:                   0.000
REMARK UNBOUND:                 0.000
REMARK  Name = /home/vital/Documents/PhD_2021/Malaria_codes/scripts/../data/pdbqt_ligands/ligand_287_temp.pdb
REMARK                            x       y       z     vdW  Elec       q    Type
REMARK                         _______ _______ _______ _____ _____    ______ ____
ROOT
ATOM      1  O   UNL     1     146.891 128.906 100.949  0.00  0.00    -0.394 OA
ATOM      2  C   UNL     1     146.227 129.709  99.973  0.00  0.00    +0.057 C 
ATOM      3  C   UNL     1     144.904 130.227 100.551  0.00  0.00    +0.020 C 
ATOM      4  N   UNL     1     144.120 129.090 101.046  0.00  0.00    -0.301 N 
ATOM      5  C   UNL     1     142.940 129.501 101.823  0.00  0.00    +0.092 C 
ATOM      6  C   UNL     1     142.390 128.231 102.581  0.00  0.00    +0.125 C 
ATOM      7  N   UNL     1     143.115 127.563 103.572  0.00  0.00    -0.272 N 
ATOM      8  C   UNL     1     144.392 127.918 104.005  0.00  0.00    -0.000 C 
ATOM      9  C   UNL     1     145.167 127.147 104.780  0.00  0.00    -0.046 C 
ATOM     10  C   UNL     1     144.699 125.843 105.178  0.00  0.00    -0.043 C 
ATOM     11  C   UNL     1     143.430 125.489 104.916  0.00  0.00    +0.054 C 
ATOM     12 CL   UNL     1     142.867 123.909 105.341  0.00  0.00    -0.085 Cl
ATOM     13  C   UNL     1     142.441 126.402 104.213  0.00  0.00    +0.139 C 
ATOM     14 CL   UNL     1     141.311 127.062 105.446  0.00  0.00    -0.094 Cl
ATOM     15  N   UNL     1     141.197 127.874 102.169  0.00  0.00    -0.234 N 
ATOM     16  C   UNL     1     140.787 128.821 101.222  0.00  0.00    +0.071 A 
ATOM     17  C   UNL     1     139.562 128.841 100.579  0.00  0.00    -0.036 A 
ATOM     18  C   UNL     1     139.296 129.883  99.688  0.00  0.00    -0.060 A 
ATOM     19  C   UNL     1     140.249 130.888  99.461  0.00  0.00    -0.061 A 
ATOM     20  C   UNL     1     141.484 130.860 100.116  0.00  0.00    -0.055 A 
ATOM     21  C   UNL     1     141.741 129.811 100.983  0.00  0.00    +0.002 A 
ATOM     22  H   UNL     1     147.728 128.579 100.583  0.00  0.00    +0.000 HD
ATOM     23  H   UNL     1     144.719 128.517 101.641  0.00  0.00    +0.000 HD
ATOM     24  H   UNL     1     143.786 128.573 100.232  0.00  0.00    +0.000 HD
ATOM     25  H   UNL     1     140.687 127.088 102.469  0.00  0.00    +0.000 HD
ENDROOT
TORSDOF 0
ENDMDL
MODEL 9
REMARK VINA RESULT:    -4.310      4.907      6.414
REMARK INTER + INTRA:          -4.310
REMARK INTER:                  -4.310
REMARK INTRA:                   0.000
REMARK UNBOUND:                 0.000
REMARK  Name = /home/vital/Documents/PhD_2021/Malaria_codes/scripts/../data/pdbqt_ligands/ligand_287_temp.pdb
REMARK                            x       y       z     vdW  Elec       q    Type
REMARK                         _______ _______ _______ _____ _____    ______ ____
ROOT
ATOM      1  O   UNL     1     144.306 126.372  96.990  0.00  0.00    -0.394 OA
ATOM      2  C   UNL     1     143.099 125.796  97.488  0.00  0.00    +0.057 C 
ATOM      3  C   UNL     1     142.000 126.864  97.526  0.00  0.00    +0.020 C 
ATOM      4  N   UNL     1     142.484 128.023  98.284  0.00  0.00    -0.301 N 
ATOM      5  C   UNL     1     141.592 129.189  98.184  0.00  0.00    +0.092 C 
ATOM      6  C   UNL     1     142.372 130.447  98.731  0.00  0.00    +0.125 C 
ATOM      7  N   UNL     1     143.516 130.960  98.114  0.00  0.00    -0.272 N 
ATOM      8  C   UNL     1     144.108 130.437  96.965  0.00  0.00    -0.000 C 
ATOM      9  C   UNL     1     145.321 130.787  96.515  0.00  0.00    -0.046 C 
ATOM     10  C   UNL     1     146.109 131.734  97.264  0.00  0.00    -0.043 C 
ATOM     11  C   UNL     1     145.553 132.382  98.300  0.00  0.00    +0.054 C 
ATOM     12 CL   UNL     1     146.501 133.484  99.241  0.00  0.00    -0.085 Cl
ATOM     13  C   UNL     1     144.114 132.172  98.736  0.00  0.00    +0.139 C 
ATOM     14 CL   UNL     1     143.147 133.583  98.181  0.00  0.00    -0.094 Cl
ATOM     15  N   UNL     1     141.837 130.938  99.823  0.00  0.00    -0.234 N 
ATOM     16  C   UNL     1     140.680 130.193 100.087  0.00  0.00    +0.071 A 
ATOM     17  C   UNL     1     139.791 130.421 101.123  0.00  0.00    -0.036 A 
ATOM     18  C   UNL     1     138.661 129.607 101.221  0.00  0.00    -0.060 A 
ATOM     19  C   UNL     1     138.432 128.589 100.282  0.00  0.00    -0.061 A 
ATOM     20  C   UNL     1     139.334 128.367  99.237  0.00  0.00    -0.055 A 
ATOM     21  C   UNL     1     140.460 129.170  99.164  0.00  0.00    +0.002 A 
ATOM     22  H   UNL     1     145.001 125.695  96.966  0.00  0.00    +0.000 HD
ATOM     23  H   UNL     1     143.403 128.284  97.926  0.00  0.00    +0.000 HD
ATOM     24  H   UNL     1     142.523 127.750  99.267  0.00  0.00    +0.000 HD
ATOM     25  H   UNL     1     142.183 131.689 100.357  0.00  0.00    +0.000 HD
ENDROOT
TORSDOF 0
ENDMDL
