MODEL 1
REMARK VINA RESULT:    -5.694      0.000      0.000
REMARK INTER + INTRA:          -5.694
REMARK INTER:                  -5.694
REMARK INTRA:                   0.000
REMARK UNBOUND:                 0.000
REMARK  Name = /home/vital/Documents/PhD_2021/Malaria_codes/scripts/../data/pdbqt_ligands/ligand_84_temp.pdb
REMARK                            x       y       z     vdW  Elec       q    Type
REMARK                         _______ _______ _______ _____ _____    ______ ____
ROOT
ATOM      1  C1  UNL     1     141.224 125.558 107.825  0.00  0.00    -0.061 C 
ATOM      2  C2  UNL     1     142.052 125.183 106.605  0.00  0.00    -0.008 C 
ATOM      3  C3  UNL     1     141.436 125.656 105.279  0.00  0.00    +0.196 C 
ATOM      4  O1  UNL     1     142.384 125.419 104.220  0.00  0.00    -0.477 OA
ATOM      5  C4  UNL     1     143.071 126.548 103.860  0.00  0.00    +0.140 A 
ATOM      6  C5  UNL     1     144.384 126.646 104.332  0.00  0.00    +0.023 A 
ATOM      7  C6  UNL     1     145.167 127.741 103.987  0.00  0.00    +0.124 A 
ATOM      8  O2  UNL     1     146.432 127.799 104.488  0.00  0.00    -0.507 OA
ATOM      9  C7  UNL     1     144.668 128.735 103.154  0.00  0.00    +0.023 A 
ATOM     10  C8  UNL     1     143.367 128.622 102.650  0.00  0.00    +0.146 A 
ATOM     11  O3  UNL     1     142.974 129.644 101.819  0.00  0.00    -0.451 OA
ATOM     12  C9  UNL     1     141.721 129.586 101.264  0.00  0.00    +0.180 A 
ATOM     13  C10 UNL     1     141.349 130.633 100.417  0.00  0.00    +0.160 A 
ATOM     14  O4  UNL     1     142.199 131.671 100.153  0.00  0.00    -0.503 OA
ATOM     15  C11 UNL     1     140.095 130.656  99.812  0.00  0.00    -0.016 A 
ATOM     16  C12 UNL     1     139.195 129.619 100.053  0.00  0.00    -0.057 A 
ATOM     17  C13 UNL     1     139.554 128.567 100.897  0.00  0.00    -0.047 A 
ATOM     18  C14 UNL     1     140.819 128.557 101.498  0.00  0.00    +0.068 A 
ATOM     19  C15 UNL     1     141.215 127.458 102.392  0.00  0.00    +0.204 A 
ATOM     20  O5  UNL     1     140.435 126.544 102.617  0.00  0.00    -0.286 OA
ATOM     21  C16 UNL     1     142.565 127.527 102.992  0.00  0.00    +0.106 A 
ATOM     22  C17 UNL     1     140.138 124.882 105.017  0.00  0.00    +0.348 C 
ATOM     23  O6  UNL     1     139.037 125.251 105.416  0.00  0.00    -0.247 OA
ATOM     24  O7  UNL     1     140.372 123.703 104.372  0.00  0.00    -0.465 OA
ATOM     25  C18 UNL     1     139.192 122.963 104.071  0.00  0.00    +0.082 C 
ATOM     26  H   UNL     1     146.746 127.116 105.048  0.00  0.00    +0.000 HD
ATOM     27  H   UNL     1     143.051 131.690 100.543  0.00  0.00    +0.000 HD
ENDROOT
TORSDOF 0
ENDMDL
MODEL 2
REMARK VINA RESULT:    -5.596      4.990      6.992
REMARK INTER + INTRA:          -5.596
REMARK INTER:                  -5.596
REMARK INTRA:                   0.000
REMARK UNBOUND:                 0.000
REMARK  Name = /home/vital/Documents/PhD_2021/Malaria_codes/scripts/../data/pdbqt_ligands/ligand_84_temp.pdb
REMARK                            x       y       z     vdW  Elec       q    Type
REMARK                         _______ _______ _______ _____ _____    ______ ____
ROOT
ATOM      1  C1  UNL     1     138.309 128.381  99.208  0.00  0.00    -0.061 C 
ATOM      2  C2  UNL     1     139.778 128.143  99.522  0.00  0.00    -0.008 C 
ATOM      3  C3  UNL     1     140.716 128.483  98.353  0.00  0.00    +0.196 C 
ATOM      4  O1  UNL     1     142.078 128.406  98.817  0.00  0.00    -0.477 OA
ATOM      5  C4  UNL     1     142.613 129.634  99.100  0.00  0.00    +0.140 A 
ATOM      6  C5  UNL     1     142.700 129.971 100.455  0.00  0.00    +0.023 A 
ATOM      7  C6  UNL     1     143.262 131.183 100.835  0.00  0.00    +0.124 A 
ATOM      8  O2  UNL     1     143.306 131.471 102.166  0.00  0.00    -0.507 OA
ATOM      9  C7  UNL     1     143.764 132.062  99.883  0.00  0.00    +0.023 A 
ATOM     10  C8  UNL     1     143.712 131.713  98.529  0.00  0.00    +0.146 A 
ATOM     11  O3  UNL     1     144.253 132.638  97.668  0.00  0.00    -0.451 OA
ATOM     12  C9  UNL     1     144.263 132.352  96.327  0.00  0.00    +0.180 A 
ATOM     13  C10 UNL     1     144.825 133.304  95.475  0.00  0.00    +0.160 A 
ATOM     14  O4  UNL     1     145.343 134.474  95.958  0.00  0.00    -0.503 OA
ATOM     15  C11 UNL     1     144.876 133.096  94.099  0.00  0.00    -0.016 A 
ATOM     16  C12 UNL     1     144.359 131.919  93.560  0.00  0.00    -0.057 A 
ATOM     17  C13 UNL     1     143.795 130.958  94.401  0.00  0.00    -0.047 A 
ATOM     18  C14 UNL     1     143.751 131.181  95.783  0.00  0.00    +0.068 A 
ATOM     19  C15 UNL     1     143.158 130.182  96.685  0.00  0.00    +0.204 A 
ATOM     20  O5  UNL     1     142.696 129.146  96.228  0.00  0.00    -0.286 OA
ATOM     21  C16 UNL     1     143.145 130.497  98.129  0.00  0.00    +0.106 A 
ATOM     22  C17 UNL     1     140.484 127.487  97.210  0.00  0.00    +0.348 C 
ATOM     23  O6  UNL     1     139.657 127.659  96.319  0.00  0.00    -0.247 OA
ATOM     24  O7  UNL     1     141.240 126.361  97.357  0.00  0.00    -0.465 OA
ATOM     25  C18 UNL     1     141.087 125.419  96.298  0.00  0.00    +0.082 C 
ATOM     26  H   UNL     1     142.961 130.862 102.789  0.00  0.00    +0.000 HD
ATOM     27  H   UNL     1     145.326 134.650  96.879  0.00  0.00    +0.000 HD
ENDROOT
TORSDOF 0
ENDMDL
MODEL 3
REMARK VINA RESULT:    -5.580      4.581      6.655
REMARK INTER + INTRA:          -5.580
REMARK INTER:                  -5.580
REMARK INTRA:                   0.000
REMARK UNBOUND:                 0.000
REMARK  Name = /home/vital/Documents/PhD_2021/Malaria_codes/scripts/../data/pdbqt_ligands/ligand_84_temp.pdb
REMARK                            x       y       z     vdW  Elec       q    Type
REMARK                         _______ _______ _______ _____ _____    ______ ____
ROOT
ATOM      1  C1  UNL     1     141.230 125.175  96.520  0.00  0.00    -0.061 C 
ATOM      2  C2  UNL     1     141.438 125.597  97.967  0.00  0.00    -0.008 C 
ATOM      3  C3  UNL     1     142.287 126.869  98.117  0.00  0.00    +0.196 C 
ATOM      4  O1  UNL     1     142.260 127.282  99.497  0.00  0.00    -0.477 OA
ATOM      5  C4  UNL     1     141.380 128.305  99.728  0.00  0.00    +0.140 A 
ATOM      6  C5  UNL     1     140.170 127.950 100.333  0.00  0.00    +0.023 A 
ATOM      7  C6  UNL     1     139.232 128.929 100.637  0.00  0.00    +0.124 A 
ATOM      8  O2  UNL     1     138.062 128.530 101.208  0.00  0.00    -0.507 OA
ATOM      9  C7  UNL     1     139.491 130.268 100.368  0.00  0.00    +0.023 A 
ATOM     10  C8  UNL     1     140.716 130.630  99.796  0.00  0.00    +0.146 A 
ATOM     11  O3  UNL     1     140.885 131.979  99.589  0.00  0.00    -0.451 OA
ATOM     12  C9  UNL     1     142.073 132.411  99.058  0.00  0.00    +0.180 A 
ATOM     13  C10 UNL     1     142.223 133.786  98.865  0.00  0.00    +0.160 A 
ATOM     14  O4  UNL     1     141.226 134.664  99.191  0.00  0.00    -0.503 OA
ATOM     15  C11 UNL     1     143.395 134.313  98.329  0.00  0.00    -0.016 A 
ATOM     16  C12 UNL     1     144.439 133.456  97.980  0.00  0.00    -0.057 A 
ATOM     17  C13 UNL     1     144.302 132.080  98.169  0.00  0.00    -0.047 A 
ATOM     18  C14 UNL     1     143.117 131.565  98.709  0.00  0.00    +0.068 A 
ATOM     19  C15 UNL     1     142.953 130.117  98.913  0.00  0.00    +0.204 A 
ATOM     20  O5  UNL     1     143.857 129.353  98.607  0.00  0.00    -0.286 OA
ATOM     21  C16 UNL     1     141.670 129.655  99.481  0.00  0.00    +0.106 A 
ATOM     22  C17 UNL     1     143.726 126.573  97.675  0.00  0.00    +0.348 C 
ATOM     23  O6  UNL     1     144.120 126.701  96.519  0.00  0.00    -0.247 OA
ATOM     24  O7  UNL     1     144.478 126.073  98.697  0.00  0.00    -0.465 OA
ATOM     25  C18 UNL     1     145.835 125.817  98.347  0.00  0.00    +0.082 C 
ATOM     26  H   UNL     1     137.910 127.621 101.380  0.00  0.00    +0.000 HD
ATOM     27  H   UNL     1     140.422 134.346  99.553  0.00  0.00    +0.000 HD
ENDROOT
TORSDOF 0
ENDMDL
MODEL 4
REMARK VINA RESULT:    -5.206      2.353      7.390
REMARK INTER + INTRA:          -5.206
REMARK INTER:                  -5.206
REMARK INTRA:                   0.000
REMARK UNBOUND:                 0.000
REMARK  Name = /home/vital/Documents/PhD_2021/Malaria_codes/scripts/../data/pdbqt_ligands/ligand_84_temp.pdb
REMARK                            x       y       z     vdW  Elec       q    Type
REMARK                         _______ _______ _______ _____ _____    ______ ____
ROOT
ATOM      1  C1  UNL     1     142.826 133.319  99.117  0.00  0.00    -0.061 C 
ATOM      2  C2  UNL     1     142.662 131.920  98.541  0.00  0.00    -0.008 C 
ATOM      3  C3  UNL     1     143.134 130.809  99.492  0.00  0.00    +0.196 C 
ATOM      4  O1  UNL     1     142.760 129.535  98.933  0.00  0.00    -0.477 OA
ATOM      5  C4  UNL     1     141.630 129.014  99.504  0.00  0.00    +0.140 A 
ATOM      6  C5  UNL     1     140.455 129.122  98.752  0.00  0.00    +0.023 A 
ATOM      7  C6  UNL     1     139.267 128.590  99.239  0.00  0.00    +0.124 A 
ATOM      8  O2  UNL     1     138.148 128.739  98.478  0.00  0.00    -0.507 OA
ATOM      9  C7  UNL     1     139.235 127.928 100.460  0.00  0.00    +0.023 A 
ATOM     10  C8  UNL     1     140.415 127.786 101.198  0.00  0.00    +0.146 A 
ATOM     11  O3  UNL     1     140.284 127.097 102.380  0.00  0.00    -0.451 OA
ATOM     12  C9  UNL     1     141.405 126.894 103.143  0.00  0.00    +0.180 A 
ATOM     13  C10 UNL     1     141.246 126.184 104.336  0.00  0.00    +0.160 A 
ATOM     14  O4  UNL     1     140.022 125.713 104.725  0.00  0.00    -0.503 OA
ATOM     15  C11 UNL     1     142.330 125.933 105.172  0.00  0.00    -0.016 A 
ATOM     16  C12 UNL     1     143.597 126.396 104.817  0.00  0.00    -0.057 A 
ATOM     17  C13 UNL     1     143.769 127.106 103.627  0.00  0.00    -0.047 A 
ATOM     18  C14 UNL     1     142.670 127.350 102.795  0.00  0.00    +0.068 A 
ATOM     19  C15 UNL     1     142.831 128.099 101.540  0.00  0.00    +0.204 A 
ATOM     20  O5  UNL     1     143.934 128.515 101.217  0.00  0.00    -0.286 OA
ATOM     21  C16 UNL     1     141.619 128.319 100.723  0.00  0.00    +0.106 A 
ATOM     22  C17 UNL     1     144.656 130.895  99.658  0.00  0.00    +0.348 C 
ATOM     23  O6  UNL     1     145.206 131.574 100.520  0.00  0.00    -0.247 OA
ATOM     24  O7  UNL     1     145.312 130.201  98.684  0.00  0.00    -0.465 OA
ATOM     25  C18 UNL     1     146.731 130.218  98.816  0.00  0.00    +0.082 C 
ATOM     26  H   UNL     1     138.195 129.190  97.657  0.00  0.00    +0.000 HD
ATOM     27  H   UNL     1     139.270 125.862 104.188  0.00  0.00    +0.000 HD
ENDROOT
TORSDOF 0
ENDMDL
MODEL 5
REMARK VINA RESULT:    -5.194      2.864      5.617
REMARK INTER + INTRA:          -5.194
REMARK INTER:                  -5.194
REMARK INTRA:                   0.000
REMARK UNBOUND:                 0.000
REMARK  Name = /home/vital/Documents/PhD_2021/Malaria_codes/scripts/../data/pdbqt_ligands/ligand_84_temp.pdb
REMARK                            x       y       z     vdW  Elec       q    Type
REMARK                         _______ _______ _______ _____ _____    ______ ____
ROOT
ATOM      1  C1  UNL     1     142.973 124.527 101.809  0.00  0.00    -0.061 C 
ATOM      2  C2  UNL     1     142.293 125.804 102.281  0.00  0.00    -0.008 C 
ATOM      3  C3  UNL     1     143.010 127.083 101.822  0.00  0.00    +0.196 C 
ATOM      4  O1  UNL     1     142.187 128.218 102.155  0.00  0.00    -0.477 OA
ATOM      5  C4  UNL     1     141.476 128.692 101.085  0.00  0.00    +0.140 A 
ATOM      6  C5  UNL     1     140.119 128.354 101.048  0.00  0.00    +0.023 A 
ATOM      7  C6  UNL     1     139.314 128.821 100.017  0.00  0.00    +0.124 A 
ATOM      8  O2  UNL     1     138.005 128.447 100.017  0.00  0.00    -0.507 OA
ATOM      9  C7  UNL     1     139.836 129.644  99.027  0.00  0.00    +0.023 A 
ATOM     10  C8  UNL     1     141.185 130.014  99.080  0.00  0.00    +0.146 A 
ATOM     11  O3  UNL     1     141.600 130.847  98.068  0.00  0.00    -0.451 OA
ATOM     12  C9  UNL     1     142.903 131.275  98.071  0.00  0.00    +0.180 A 
ATOM     13  C10 UNL     1     143.298 132.127  97.037  0.00  0.00    +0.160 A 
ATOM     14  O4  UNL     1     142.421 132.517  96.063  0.00  0.00    -0.503 OA
ATOM     15  C11 UNL     1     144.602 132.608  96.961  0.00  0.00    -0.016 A 
ATOM     16  C12 UNL     1     145.532 132.236  97.932  0.00  0.00    -0.057 A 
ATOM     17  C13 UNL     1     145.150 131.386  98.971  0.00  0.00    -0.047 A 
ATOM     18  C14 UNL     1     143.834 130.910  99.035  0.00  0.00    +0.068 A 
ATOM     19  C15 UNL     1     143.414 130.011 100.120  0.00  0.00    +0.204 A 
ATOM     20  O5  UNL     1     144.218 129.672 100.976  0.00  0.00    -0.286 OA
ATOM     21  C16 UNL     1     142.010 129.549 100.111  0.00  0.00    +0.106 A 
ATOM     22  C17 UNL     1     144.369 127.184 102.526  0.00  0.00    +0.348 C 
ATOM     23  O6  UNL     1     145.402 126.697 102.076  0.00  0.00    -0.247 OA
ATOM     24  O7  UNL     1     144.268 127.797 103.739  0.00  0.00    -0.465 OA
ATOM     25  C18 UNL     1     145.512 127.949 104.418  0.00  0.00    +0.082 C 
ATOM     26  H   UNL     1     137.675 127.891 100.696  0.00  0.00    +0.000 HD
ATOM     27  H   UNL     1     141.535 132.213  96.081  0.00  0.00    +0.000 HD
ENDROOT
TORSDOF 0
ENDMDL
MODEL 6
REMARK VINA RESULT:    -5.128      2.541      6.834
REMARK INTER + INTRA:          -5.128
REMARK INTER:                  -5.128
REMARK INTRA:                   0.000
REMARK UNBOUND:                 0.000
REMARK  Name = /home/vital/Documents/PhD_2021/Malaria_codes/scripts/../data/pdbqt_ligands/ligand_84_temp.pdb
REMARK                            x       y       z     vdW  Elec       q    Type
REMARK                         _______ _______ _______ _____ _____    ______ ____
ROOT
ATOM      1  C1  UNL     1     138.315 128.244  98.440  0.00  0.00    -0.061 C 
ATOM      2  C2  UNL     1     139.762 127.800  98.604  0.00  0.00    -0.008 C 
ATOM      3  C3  UNL     1     140.230 127.772 100.067  0.00  0.00    +0.196 C 
ATOM      4  O1  UNL     1     141.534 127.162 100.122  0.00  0.00    -0.477 OA
ATOM      5  C4  UNL     1     141.491 125.850 100.513  0.00  0.00    +0.140 A 
ATOM      6  C5  UNL     1     141.643 124.901  99.497  0.00  0.00    +0.023 A 
ATOM      7  C6  UNL     1     141.647 123.546  99.806  0.00  0.00    +0.124 A 
ATOM      8  O2  UNL     1     141.779 122.662  98.779  0.00  0.00    -0.507 OA
ATOM      9  C7  UNL     1     141.525 123.119 101.123  0.00  0.00    +0.023 A 
ATOM     10  C8  UNL     1     141.410 124.067 102.146  0.00  0.00    +0.146 A 
ATOM     11  O3  UNL     1     141.317 123.546 103.415  0.00  0.00    -0.451 OA
ATOM     12  C9  UNL     1     141.230 124.417 104.471  0.00  0.00    +0.180 A 
ATOM     13  C10 UNL     1     141.145 123.863 105.750  0.00  0.00    +0.160 A 
ATOM     14  O4  UNL     1     141.147 122.508 105.940  0.00  0.00    -0.503 OA
ATOM     15  C11 UNL     1     141.052 124.672 106.879  0.00  0.00    -0.016 A 
ATOM     16  C12 UNL     1     141.044 126.059 106.734  0.00  0.00    -0.057 A 
ATOM     17  C13 UNL     1     141.130 126.626 105.461  0.00  0.00    -0.047 A 
ATOM     18  C14 UNL     1     141.223 125.799 104.335  0.00  0.00    +0.068 A 
ATOM     19  C15 UNL     1     141.312 126.377 102.985  0.00  0.00    +0.204 A 
ATOM     20  O5  UNL     1     141.302 127.591 102.842  0.00  0.00    -0.286 OA
ATOM     21  C16 UNL     1     141.401 125.436 101.850  0.00  0.00    +0.106 A 
ATOM     22  C17 UNL     1     140.287 129.205 100.610  0.00  0.00    +0.348 C 
ATOM     23  O6  UNL     1     139.335 129.765 101.147  0.00  0.00    -0.247 OA
ATOM     24  O7  UNL     1     141.485 129.801 100.344  0.00  0.00    -0.465 OA
ATOM     25  C18 UNL     1     141.602 131.124 100.862  0.00  0.00    +0.082 C 
ATOM     26  H   UNL     1     141.859 122.974  97.899  0.00  0.00    +0.000 HD
ATOM     27  H   UNL     1     141.208 121.931 105.204  0.00  0.00    +0.000 HD
ENDROOT
TORSDOF 0
ENDMDL
MODEL 7
REMARK VINA RESULT:    -5.107      4.823      7.744
REMARK INTER + INTRA:          -5.107
REMARK INTER:                  -5.107
REMARK INTRA:                   0.000
REMARK UNBOUND:                 0.000
REMARK  Name = /home/vital/Documents/PhD_2021/Malaria_codes/scripts/../data/pdbqt_ligands/ligand_84_temp.pdb
REMARK                            x       y       z     vdW  Elec       q    Type
REMARK                         _______ _______ _______ _____ _____    ______ ____
ROOT
ATOM      1  C1  UNL     1     145.442 131.493 101.174  0.00  0.00    -0.061 C 
ATOM      2  C2  UNL     1     144.138 131.838 100.469  0.00  0.00    -0.008 C 
ATOM      3  C3  UNL     1     143.780 130.862  99.336  0.00  0.00    +0.196 C 
ATOM      4  O1  UNL     1     142.450 131.165  98.871  0.00  0.00    -0.477 OA
ATOM      5  C4  UNL     1     141.503 130.318  99.381  0.00  0.00    +0.140 A 
ATOM      6  C5  UNL     1     140.714 130.829 100.417  0.00  0.00    +0.023 A 
ATOM      7  C6  UNL     1     139.705 130.051 100.970  0.00  0.00    +0.124 A 
ATOM      8  O2  UNL     1     138.978 130.587 101.989  0.00  0.00    -0.507 OA
ATOM      9  C7  UNL     1     139.451 128.771 100.490  0.00  0.00    +0.023 A 
ATOM     10  C8  UNL     1     140.214 128.271  99.429  0.00  0.00    +0.146 A 
ATOM     11  O3  UNL     1     139.872 127.006  99.012  0.00  0.00    -0.451 OA
ATOM     12  C9  UNL     1     140.558 126.462  97.957  0.00  0.00    +0.180 A 
ATOM     13  C10 UNL     1     140.187 125.179  97.547  0.00  0.00    +0.160 A 
ATOM     14  O4  UNL     1     139.180 124.496  98.174  0.00  0.00    -0.503 OA
ATOM     15  C11 UNL     1     140.831 124.549  96.486  0.00  0.00    -0.016 A 
ATOM     16  C12 UNL     1     141.864 125.206  95.818  0.00  0.00    -0.057 A 
ATOM     17  C13 UNL     1     142.245 126.488  96.217  0.00  0.00    -0.047 A 
ATOM     18  C14 UNL     1     141.587 127.110  97.286  0.00  0.00    +0.068 A 
ATOM     19  C15 UNL     1     141.976 128.459  97.723  0.00  0.00    +0.204 A 
ATOM     20  O5  UNL     1     142.883 129.047  97.151  0.00  0.00    -0.286 OA
ATOM     21  C16 UNL     1     141.237 129.041  98.863  0.00  0.00    +0.106 A 
ATOM     22  C17 UNL     1     144.793 131.015  98.195  0.00  0.00    +0.348 C 
ATOM     23  O6  UNL     1     145.839 130.375  98.128  0.00  0.00    -0.247 OA
ATOM     24  O7  UNL     1     144.432 132.000  97.324  0.00  0.00    -0.465 OA
ATOM     25  C18 UNL     1     145.324 132.156  96.223  0.00  0.00    +0.082 C 
ATOM     26  H   UNL     1     139.168 131.452 102.296  0.00  0.00    +0.000 HD
ATOM     27  H   UNL     1     138.724 124.888  98.892  0.00  0.00    +0.000 HD
ENDROOT
TORSDOF 0
ENDMDL
MODEL 8
REMARK VINA RESULT:    -4.834      4.149      8.194
REMARK INTER + INTRA:          -4.834
REMARK INTER:                  -4.834
REMARK INTRA:                   0.000
REMARK UNBOUND:                 0.000
REMARK  Name = /home/vital/Documents/PhD_2021/Malaria_codes/scripts/../data/pdbqt_ligands/ligand_84_temp.pdb
REMARK                            x       y       z     vdW  Elec       q    Type
REMARK                         _______ _______ _______ _____ _____    ______ ____
ROOT
ATOM      1  C1  UNL     1     146.490 132.358  96.463  0.00  0.00    -0.061 C 
ATOM      2  C2  UNL     1     145.121 132.590  97.087  0.00  0.00    -0.008 C 
ATOM      3  C3  UNL     1     144.147 131.421  96.874  0.00  0.00    +0.196 C 
ATOM      4  O1  UNL     1     142.962 131.660  97.659  0.00  0.00    -0.477 OA
ATOM      5  C4  UNL     1     142.950 130.953  98.832  0.00  0.00    +0.140 A 
ATOM      6  C5  UNL     1     143.254 131.677  99.989  0.00  0.00    +0.023 A 
ATOM      7  C6  UNL     1     143.232 131.048 101.228  0.00  0.00    +0.124 A 
ATOM      8  O2  UNL     1     143.554 131.792 102.322  0.00  0.00    -0.507 OA
ATOM      9  C7  UNL     1     142.887 129.706 101.336  0.00  0.00    +0.023 A 
ATOM     10  C8  UNL     1     142.546 128.988 100.184  0.00  0.00    +0.146 A 
ATOM     11  O3  UNL     1     142.199 127.675 100.398  0.00  0.00    -0.451 OA
ATOM     12  C9  UNL     1     141.825 126.917  99.318  0.00  0.00    +0.180 A 
ATOM     13  C10 UNL     1     141.469 125.589  99.563  0.00  0.00    +0.160 A 
ATOM     14  O4  UNL     1     141.493 125.067 100.827  0.00  0.00    -0.503 OA
ATOM     15  C11 UNL     1     141.079 124.747  98.525  0.00  0.00    -0.016 A 
ATOM     16  C12 UNL     1     141.041 125.234  97.219  0.00  0.00    -0.057 A 
ATOM     17  C13 UNL     1     141.394 126.560  96.961  0.00  0.00    -0.047 A 
ATOM     18  C14 UNL     1     141.784 127.395  98.015  0.00  0.00    +0.068 A 
ATOM     19  C15 UNL     1     142.162 128.794  97.762  0.00  0.00    +0.204 A 
ATOM     20  O5  UNL     1     142.138 129.235  96.622  0.00  0.00    -0.286 OA
ATOM     21  C16 UNL     1     142.568 129.607  98.928  0.00  0.00    +0.106 A 
ATOM     22  C17 UNL     1     143.791 131.321  95.385  0.00  0.00    +0.348 C 
ATOM     23  O6  UNL     1     144.433 130.655  94.578  0.00  0.00    -0.247 OA
ATOM     24  O7  UNL     1     142.738 132.126  95.061  0.00  0.00    -0.465 OA
ATOM     25  C18 UNL     1     142.343 132.040  93.694  0.00  0.00    +0.082 C 
ATOM     26  H   UNL     1     143.784 132.695 102.224  0.00  0.00    +0.000 HD
ATOM     27  H   UNL     1     141.751 125.604 101.551  0.00  0.00    +0.000 HD
ENDROOT
TORSDOF 0
ENDMDL
MODEL 9
REMARK VINA RESULT:    -4.774      3.696      6.479
REMARK INTER + INTRA:          -4.774
REMARK INTER:                  -4.774
REMARK INTRA:                   0.000
REMARK UNBOUND:                 0.000
REMARK  Name = /home/vital/Documents/PhD_2021/Malaria_codes/scripts/../data/pdbqt_ligands/ligand_84_temp.pdb
REMARK                            x       y       z     vdW  Elec       q    Type
REMARK                         _______ _______ _______ _____ _____    ______ ____
ROOT
ATOM      1  C1  UNL     1     138.342 128.588 100.077  0.00  0.00    -0.061 C 
ATOM      2  C2  UNL     1     139.365 129.486 100.758  0.00  0.00    -0.008 C 
ATOM      3  C3  UNL     1     140.820 129.088 100.462  0.00  0.00    +0.196 C 
ATOM      4  O1  UNL     1     141.692 130.106 100.992  0.00  0.00    -0.477 OA
ATOM      5  C4  UNL     1     142.139 130.975 100.033  0.00  0.00    +0.140 A 
ATOM      6  C5  UNL     1     141.521 132.229 100.003  0.00  0.00    +0.023 A 
ATOM      7  C6  UNL     1     141.936 133.186  99.085  0.00  0.00    +0.124 A 
ATOM      8  O2  UNL     1     141.289 134.385  99.084  0.00  0.00    -0.507 OA
ATOM      9  C7  UNL     1     142.978 132.921  98.205  0.00  0.00    +0.023 A 
ATOM     10  C8  UNL     1     143.623 131.680  98.257  0.00  0.00    +0.146 A 
ATOM     11  O3  UNL     1     144.655 131.523  97.362  0.00  0.00    -0.451 OA
ATOM     12  C9  UNL     1     145.352 130.342  97.375  0.00  0.00    +0.180 A 
ATOM     13  C10 UNL     1     146.401 130.210  96.461  0.00  0.00    +0.160 A 
ATOM     14  O4  UNL     1     146.717 131.217  95.591  0.00  0.00    -0.503 OA
ATOM     15  C11 UNL     1     147.161 129.045  96.403  0.00  0.00    -0.016 A 
ATOM     16  C12 UNL     1     146.874 127.991  97.270  0.00  0.00    -0.057 A 
ATOM     17  C13 UNL     1     145.829 128.110  98.188  0.00  0.00    -0.047 A 
ATOM     18  C14 UNL     1     145.073 129.289  98.235  0.00  0.00    +0.068 A 
ATOM     19  C15 UNL     1     143.967 129.432  99.193  0.00  0.00    +0.204 A 
ATOM     20  O5  UNL     1     143.700 128.515  99.957  0.00  0.00    -0.286 OA
ATOM     21  C16 UNL     1     143.215 130.704  99.174  0.00  0.00    +0.106 A 
ATOM     22  C17 UNL     1     141.119 127.734 101.117  0.00  0.00    +0.348 C 
ATOM     23  O6  UNL     1     140.935 126.656 100.558  0.00  0.00    -0.247 OA
ATOM     24  O7  UNL     1     141.527 127.875 102.411  0.00  0.00    -0.465 OA
ATOM     25  C18 UNL     1     141.854 126.645 103.053  0.00  0.00    +0.082 C 
ATOM     26  H   UNL     1     140.588 134.540  99.687  0.00  0.00    +0.000 HD
ATOM     27  H   UNL     1     146.228 132.016  95.601  0.00  0.00    +0.000 HD
ENDROOT
TORSDOF 0
ENDMDL
