MODEL 1
REMARK VINA RESULT:    -5.133      0.000      0.000
REMARK INTER + INTRA:          -5.133
REMARK INTER:                  -5.133
REMARK INTRA:                   0.000
REMARK UNBOUND:                 0.000
REMARK  Name = /home/vital/Documents/PhD_2021/Malaria_codes/scripts/../data/pdbqt_ligands/ligand_355_temp.pdb
REMARK                            x       y       z     vdW  Elec       q    Type
REMARK                         _______ _______ _______ _____ _____    ______ ____
ROOT
ATOM      1  C   UNL     1     131.739 123.239  90.132  0.00  0.00    -0.015 C 
ATOM      2  C   UNL     1     130.882 123.932  89.055  0.00  0.00    -0.088 C 
ATOM      3  C   UNL     1     130.060 124.588  88.029  0.00  0.00    +0.011 C 
ATOM      4  C   UNL     1     130.241 126.105  88.067  0.00  0.00    -0.030 C 
ATOM      5  C   UNL     1     129.370 126.785  87.010  0.00  0.00    -0.003 C 
ATOM      6  N   UNL     1     129.607 128.226  86.928  0.00  0.00    -0.314 N 
ATOM      7  C   UNL     1     129.060 128.965  88.078  0.00  0.00    +0.022 C 
ATOM      8  C   UNL     1     129.153 130.480  87.854  0.00  0.00    +0.088 C 
ATOM      9  O   UNL     1     128.300 130.838  86.758  0.00  0.00    -0.273 OA
ATOM     10  N   UNL     1     128.385 132.229  86.619  0.00  0.00    -0.266 N 
ATOM     11  C   UNL     1     127.193 132.959  86.413  0.00  0.00    +0.063 A 
ATOM     12  C   UNL     1     127.263 134.281  85.957  0.00  0.00    -0.035 A 
ATOM     13  C   UNL     1     126.103 135.049  85.812  0.00  0.00    -0.040 A 
ATOM     14  C   UNL     1     124.859 134.510  86.148  0.00  0.00    +0.059 A 
ATOM     15 CL   UNL     1     123.467 135.512  85.946  0.00  0.00    -0.082 Cl
ATOM     16  C   UNL     1     124.781 133.204  86.640  0.00  0.00    +0.061 A 
ATOM     17 CL   UNL     1     123.283 132.477  87.101  0.00  0.00    -0.082 Cl
ATOM     18  C   UNL     1     125.946 132.441  86.780  0.00  0.00    -0.017 A 
ATOM     19  H   UNL     1     129.170 128.580  86.076  0.00  0.00    +0.000 HD
ATOM     20  H   UNL     1     130.617 128.369  86.925  0.00  0.00    +0.000 HD
ATOM     21  H   UNL     1     129.255 132.687  86.663  0.00  0.00    +0.000 HD
ENDROOT
TORSDOF 0
ENDMDL
MODEL 2
REMARK VINA RESULT:    -4.614     19.670     22.611
REMARK INTER + INTRA:          -4.614
REMARK INTER:                  -4.614
REMARK INTRA:                   0.000
REMARK UNBOUND:                 0.000
REMARK  Name = /home/vital/Documents/PhD_2021/Malaria_codes/scripts/../data/pdbqt_ligands/ligand_355_temp.pdb
REMARK                            x       y       z     vdW  Elec       q    Type
REMARK                         _______ _______ _______ _____ _____    ______ ____
ROOT
ATOM      1  C   UNL     1     143.565 131.700  96.212  0.00  0.00    -0.015 C 
ATOM      2  C   UNL     1     142.671 131.586  97.463  0.00  0.00    -0.088 C 
ATOM      3  C   UNL     1     141.814 131.479  98.650  0.00  0.00    +0.011 C 
ATOM      4  C   UNL     1     142.424 130.533  99.684  0.00  0.00    -0.030 C 
ATOM      5  C   UNL     1     141.520 130.409 100.912  0.00  0.00    -0.003 C 
ATOM      6  N   UNL     1     142.125 129.612 101.978  0.00  0.00    -0.314 N 
ATOM      7  C   UNL     1     142.164 128.173 101.669  0.00  0.00    +0.022 C 
ATOM      8  C   UNL     1     142.619 127.360 102.889  0.00  0.00    +0.088 C 
ATOM      9  O   UNL     1     141.628 127.480 103.919  0.00  0.00    -0.273 OA
ATOM     10  N   UNL     1     142.064 126.691 104.991  0.00  0.00    -0.266 N 
ATOM     11  C   UNL     1     141.123 125.862 105.643  0.00  0.00    +0.063 A 
ATOM     12  C   UNL     1     141.435 125.314 106.893  0.00  0.00    -0.035 A 
ATOM     13  C   UNL     1     140.552 124.435 107.527  0.00  0.00    -0.040 A 
ATOM     14  C   UNL     1     139.356 124.071 106.905  0.00  0.00    +0.059 A 
ATOM     15 CL   UNL     1     138.312 122.981 107.743  0.00  0.00    -0.082 Cl
ATOM     16  C   UNL     1     139.052 124.582 105.640  0.00  0.00    +0.061 A 
ATOM     17 CL   UNL     1     137.605 124.160 104.795  0.00  0.00    -0.082 Cl
ATOM     18  C   UNL     1     139.939 125.464 105.012  0.00  0.00    -0.017 A 
ATOM     19  H   UNL     1     141.584 129.747 102.833  0.00  0.00    +0.000 HD
ATOM     20  H   UNL     1     143.089 129.928 102.085  0.00  0.00    +0.000 HD
ATOM     21  H   UNL     1     143.003 126.714 105.284  0.00  0.00    +0.000 HD
ENDROOT
TORSDOF 0
ENDMDL
MODEL 3
REMARK VINA RESULT:    -4.566      5.317     10.177
REMARK INTER + INTRA:          -4.566
REMARK INTER:                  -4.566
REMARK INTRA:                   0.000
REMARK UNBOUND:                 0.000
REMARK  Name = /home/vital/Documents/PhD_2021/Malaria_codes/scripts/../data/pdbqt_ligands/ligand_355_temp.pdb
REMARK                            x       y       z     vdW  Elec       q    Type
REMARK                         _______ _______ _______ _____ _____    ______ ____
ROOT
ATOM      1  C   UNL     1     127.342 135.528  86.797  0.00  0.00    -0.015 C 
ATOM      2  C   UNL     1     127.727 134.288  85.966  0.00  0.00    -0.088 C 
ATOM      3  C   UNL     1     128.098 133.111  85.171  0.00  0.00    +0.011 C 
ATOM      4  C   UNL     1     128.093 131.845  86.027  0.00  0.00    -0.030 C 
ATOM      5  C   UNL     1     128.498 130.624  85.200  0.00  0.00    -0.003 C 
ATOM      6  N   UNL     1     128.384 129.374  85.950  0.00  0.00    -0.314 N 
ATOM      7  C   UNL     1     129.431 129.220  86.974  0.00  0.00    +0.022 C 
ATOM      8  C   UNL     1     129.394 127.816  87.593  0.00  0.00    +0.088 C 
ATOM      9  O   UNL     1     129.736 126.857  86.583  0.00  0.00    -0.273 OA
ATOM     10  N   UNL     1     129.731 125.601  87.202  0.00  0.00    -0.266 N 
ATOM     11  C   UNL     1     130.789 124.707  86.921  0.00  0.00    +0.063 A 
ATOM     12  C   UNL     1     130.658 123.354  87.257  0.00  0.00    -0.035 A 
ATOM     13  C   UNL     1     131.715 122.462  87.053  0.00  0.00    -0.040 A 
ATOM     14  C   UNL     1     132.928 122.920  86.535  0.00  0.00    +0.059 A 
ATOM     15 CL   UNL     1     134.193 121.765  86.310  0.00  0.00    -0.082 Cl
ATOM     16  C   UNL     1     133.083 124.275  86.231  0.00  0.00    +0.061 A 
ATOM     17 CL   UNL     1     134.561 124.921  85.611  0.00  0.00    -0.082 Cl
ATOM     18  C   UNL     1     132.020 125.162  86.435  0.00  0.00    -0.017 A 
ATOM     19  H   UNL     1     128.453 128.594  85.295  0.00  0.00    +0.000 HD
ATOM     20  H   UNL     1     127.485 129.388  86.431  0.00  0.00    +0.000 HD
ATOM     21  H   UNL     1     129.008 125.347  87.819  0.00  0.00    +0.000 HD
ENDROOT
TORSDOF 0
ENDMDL
MODEL 4
REMARK VINA RESULT:    -4.311     16.587     18.977
REMARK INTER + INTRA:          -4.311
REMARK INTER:                  -4.311
REMARK INTRA:                   0.000
REMARK UNBOUND:                 0.000
REMARK  Name = /home/vital/Documents/PhD_2021/Malaria_codes/scripts/../data/pdbqt_ligands/ligand_355_temp.pdb
REMARK                            x       y       z     vdW  Elec       q    Type
REMARK                         _______ _______ _______ _____ _____    ______ ____
ROOT
ATOM      1  C   UNL     1     143.079 132.909  87.833  0.00  0.00    -0.015 C 
ATOM      2  C   UNL     1     142.199 132.712  89.083  0.00  0.00    -0.088 C 
ATOM      3  C   UNL     1     141.356 132.519  90.270  0.00  0.00    +0.011 C 
ATOM      4  C   UNL     1     142.153 132.754  91.553  0.00  0.00    -0.030 C 
ATOM      5  C   UNL     1     141.277 132.533  92.788  0.00  0.00    -0.003 C 
ATOM      6  N   UNL     1     141.966 132.870  94.033  0.00  0.00    -0.314 N 
ATOM      7  C   UNL     1     143.001 131.888  94.401  0.00  0.00    +0.022 C 
ATOM      8  C   UNL     1     143.553 132.171  95.805  0.00  0.00    +0.088 C 
ATOM      9  O   UNL     1     142.506 131.966  96.763  0.00  0.00    -0.273 OA
ATOM     10  N   UNL     1     143.066 132.192  98.026  0.00  0.00    -0.266 N 
ATOM     11  C   UNL     1     142.762 131.289  99.070  0.00  0.00    +0.063 A 
ATOM     12  C   UNL     1     143.033 131.649 100.395  0.00  0.00    -0.035 A 
ATOM     13  C   UNL     1     142.807 130.748 101.440  0.00  0.00    -0.040 A 
ATOM     14  C   UNL     1     142.332 129.463 101.168  0.00  0.00    +0.059 A 
ATOM     15 CL   UNL     1     142.076 128.400 102.504  0.00  0.00    -0.082 Cl
ATOM     16  C   UNL     1     142.094 129.080  99.845  0.00  0.00    +0.061 A 
ATOM     17 CL   UNL     1     141.531 127.501  99.426  0.00  0.00    -0.082 Cl
ATOM     18  C   UNL     1     142.320 129.988  98.804  0.00  0.00    -0.017 A 
ATOM     19  H   UNL     1     141.277 132.913  94.785  0.00  0.00    +0.000 HD
ATOM     20  H   UNL     1     142.432 133.766  93.892  0.00  0.00    +0.000 HD
ATOM     21  H   UNL     1     143.658 132.963  98.184  0.00  0.00    +0.000 HD
ENDROOT
TORSDOF 0
ENDMDL
MODEL 5
REMARK VINA RESULT:    -4.103     18.838     21.506
REMARK INTER + INTRA:          -4.103
REMARK INTER:                  -4.103
REMARK INTRA:                   0.000
REMARK UNBOUND:                 0.000
REMARK  Name = /home/vital/Documents/PhD_2021/Malaria_codes/scripts/../data/pdbqt_ligands/ligand_355_temp.pdb
REMARK                            x       y       z     vdW  Elec       q    Type
REMARK                         _______ _______ _______ _____ _____    ______ ____
ROOT
ATOM      1  C   UNL     1     143.290 120.768 108.001  0.00  0.00    -0.015 C 
ATOM      2  C   UNL     1     142.871 122.245 107.863  0.00  0.00    -0.088 C 
ATOM      3  C   UNL     1     142.478 123.654 107.736  0.00  0.00    +0.011 C 
ATOM      4  C   UNL     1     141.932 123.948 106.339  0.00  0.00    -0.030 C 
ATOM      5  C   UNL     1     141.541 125.421 106.205  0.00  0.00    -0.003 C 
ATOM      6  N   UNL     1     140.897 125.718 104.926  0.00  0.00    -0.314 N 
ATOM      7  C   UNL     1     141.837 125.703 103.792  0.00  0.00    +0.022 C 
ATOM      8  C   UNL     1     141.163 126.214 102.512  0.00  0.00    +0.088 C 
ATOM      9  O   UNL     1     140.829 127.597 102.685  0.00  0.00    -0.273 OA
ATOM     10  N   UNL     1     140.258 128.028 101.481  0.00  0.00    -0.266 N 
ATOM     11  C   UNL     1     140.658 129.277 100.955  0.00  0.00    +0.063 A 
ATOM     12  C   UNL     1     139.894 129.879  99.948  0.00  0.00    -0.035 A 
ATOM     13  C   UNL     1     140.305 131.080  99.361  0.00  0.00    -0.040 A 
ATOM     14  C   UNL     1     141.502 131.679  99.756  0.00  0.00    +0.059 A 
ATOM     15 CL   UNL     1     141.950 133.160  98.989  0.00  0.00    -0.082 Cl
ATOM     16  C   UNL     1     142.292 131.068 100.733  0.00  0.00    +0.061 A 
ATOM     17 CL   UNL     1     143.798 131.735 101.256  0.00  0.00    -0.082 Cl
ATOM     18  C   UNL     1     141.873 129.868 101.319  0.00  0.00    -0.017 A 
ATOM     19  H   UNL     1     140.470 126.643 104.983  0.00  0.00    +0.000 HD
ATOM     20  H   UNL     1     140.204 124.988 104.757  0.00  0.00    +0.000 HD
ATOM     21  H   UNL     1     139.593 127.474 101.013  0.00  0.00    +0.000 HD
ENDROOT
TORSDOF 0
ENDMDL
MODEL 6
REMARK VINA RESULT:    -3.837     20.621     21.865
REMARK INTER + INTRA:          -3.837
REMARK INTER:                  -3.837
REMARK INTRA:                   0.000
REMARK UNBOUND:                 0.000
REMARK  Name = /home/vital/Documents/PhD_2021/Malaria_codes/scripts/../data/pdbqt_ligands/ligand_355_temp.pdb
REMARK                            x       y       z     vdW  Elec       q    Type
REMARK                         _______ _______ _______ _____ _____    ______ ____
ROOT
ATOM      1  C   UNL     1     138.296 122.447 108.553  0.00  0.00    -0.015 C 
ATOM      2  C   UNL     1     138.605 122.860 107.101  0.00  0.00    -0.088 C 
ATOM      3  C   UNL     1     138.892 123.253 105.715  0.00  0.00    +0.011 C 
ATOM      4  C   UNL     1     140.115 124.167 105.646  0.00  0.00    -0.030 C 
ATOM      5  C   UNL     1     140.400 124.590 104.203  0.00  0.00    -0.003 C 
ATOM      6  N   UNL     1     141.635 125.363 104.077  0.00  0.00    -0.314 N 
ATOM      7  C   UNL     1     141.516 126.728 104.617  0.00  0.00    +0.022 C 
ATOM      8  C   UNL     1     142.761 127.562 104.284  0.00  0.00    +0.088 C 
ATOM      9  O   UNL     1     142.830 127.742 102.863  0.00  0.00    -0.273 OA
ATOM     10  N   UNL     1     143.952 128.541 102.612  0.00  0.00    -0.266 N 
ATOM     11  C   UNL     1     143.832 129.598 101.683  0.00  0.00    +0.063 A 
ATOM     12  C   UNL     1     144.986 130.204 101.173  0.00  0.00    -0.035 A 
ATOM     13  C   UNL     1     144.895 131.297 100.305  0.00  0.00    -0.040 A 
ATOM     14  C   UNL     1     143.646 131.816  99.959  0.00  0.00    +0.059 A 
ATOM     15 CL   UNL     1     143.606 133.167  98.885  0.00  0.00    -0.082 Cl
ATOM     16  C   UNL     1     142.488 131.243 100.492  0.00  0.00    +0.061 A 
ATOM     17 CL   UNL     1     140.908 131.844 100.132  0.00  0.00    -0.082 Cl
ATOM     18  C   UNL     1     142.586 130.147 101.357  0.00  0.00    -0.017 A 
ATOM     19  H   UNL     1     141.881 125.424 103.089  0.00  0.00    +0.000 HD
ATOM     20  H   UNL     1     142.353 124.882 104.619  0.00  0.00    +0.000 HD
ATOM     21  H   UNL     1     144.805 128.370 103.073  0.00  0.00    +0.000 HD
ENDROOT
TORSDOF 0
ENDMDL
MODEL 7
REMARK VINA RESULT:    -3.800     10.565     11.713
REMARK INTER + INTRA:          -3.800
REMARK INTER:                  -3.800
REMARK INTRA:                   0.000
REMARK UNBOUND:                 0.000
REMARK  Name = /home/vital/Documents/PhD_2021/Malaria_codes/scripts/../data/pdbqt_ligands/ligand_355_temp.pdb
REMARK                            x       y       z     vdW  Elec       q    Type
REMARK                         _______ _______ _______ _____ _____    ______ ____
ROOT
ATOM      1  C   UNL     1     131.338 120.600  85.132  0.00  0.00    -0.015 C 
ATOM      2  C   UNL     1     131.861 121.473  86.291  0.00  0.00    -0.088 C 
ATOM      3  C   UNL     1     132.361 122.298  87.398  0.00  0.00    +0.011 C 
ATOM      4  C   UNL     1     133.099 123.530  86.876  0.00  0.00    -0.030 C 
ATOM      5  C   UNL     1     133.634 124.377  88.032  0.00  0.00    -0.003 C 
ATOM      6  N   UNL     1     134.238 125.629  87.578  0.00  0.00    -0.314 N 
ATOM      7  C   UNL     1     135.539 125.433  86.916  0.00  0.00    +0.022 C 
ATOM      8  C   UNL     1     136.224 126.779  86.640  0.00  0.00    +0.088 C 
ATOM      9  O   UNL     1     136.548 127.398  87.893  0.00  0.00    -0.273 OA
ATOM     10  N   UNL     1     137.207 128.596  87.591  0.00  0.00    -0.266 N 
ATOM     11  C   UNL     1     138.366 128.931  88.327  0.00  0.00    +0.063 A 
ATOM     12  C   UNL     1     138.859 130.240  88.281  0.00  0.00    -0.035 A 
ATOM     13  C   UNL     1     140.042 130.582  88.943  0.00  0.00    -0.040 A 
ATOM     14  C   UNL     1     140.763 129.608  89.636  0.00  0.00    +0.059 A 
ATOM     15 CL   UNL     1     142.217 130.096  90.430  0.00  0.00    -0.082 Cl
ATOM     16  C   UNL     1     140.301 128.289  89.657  0.00  0.00    +0.061 A 
ATOM     17 CL   UNL     1     141.150 127.023  90.472  0.00  0.00    -0.082 Cl
ATOM     18  C   UNL     1     139.114 127.955  88.995  0.00  0.00    -0.017 A 
ATOM     19  H   UNL     1     134.373 126.237  88.387  0.00  0.00    +0.000 HD
ATOM     20  H   UNL     1     133.606 126.043  86.893  0.00  0.00    +0.000 HD
ATOM     21  H   UNL     1     136.870 129.192  86.884  0.00  0.00    +0.000 HD
ENDROOT
TORSDOF 0
ENDMDL
MODEL 8
REMARK VINA RESULT:    -3.644     10.588     11.446
REMARK INTER + INTRA:          -3.644
REMARK INTER:                  -3.644
REMARK INTRA:                   0.000
REMARK UNBOUND:                 0.000
REMARK  Name = /home/vital/Documents/PhD_2021/Malaria_codes/scripts/../data/pdbqt_ligands/ligand_355_temp.pdb
REMARK                            x       y       z     vdW  Elec       q    Type
REMARK                         _______ _______ _______ _____ _____    ______ ____
ROOT
ATOM      1  C   UNL     1     131.315 120.624  86.012  0.00  0.00    -0.015 C 
ATOM      2  C   UNL     1     132.513 121.485  85.564  0.00  0.00    -0.088 C 
ATOM      3  C   UNL     1     133.651 122.307  85.132  0.00  0.00    +0.011 C 
ATOM      4  C   UNL     1     134.412 122.866  86.333  0.00  0.00    -0.030 C 
ATOM      5  C   UNL     1     135.585 123.737  85.879  0.00  0.00    -0.003 C 
ATOM      6  N   UNL     1     136.415 124.190  86.995  0.00  0.00    -0.314 N 
ATOM      7  C   UNL     1     135.762 125.225  87.813  0.00  0.00    +0.022 C 
ATOM      8  C   UNL     1     136.739 125.810  88.843  0.00  0.00    +0.088 C 
ATOM      9  O   UNL     1     137.781 126.507  88.147  0.00  0.00    -0.273 OA
ATOM     10  N   UNL     1     138.620 127.057  89.123  0.00  0.00    -0.266 N 
ATOM     11  C   UNL     1     139.063 128.389  88.959  0.00  0.00    +0.063 A 
ATOM     12  C   UNL     1     140.135 128.860  89.725  0.00  0.00    -0.035 A 
ATOM     13  C   UNL     1     140.548 130.193  89.632  0.00  0.00    -0.040 A 
ATOM     14  C   UNL     1     139.873 131.078  88.791  0.00  0.00    +0.059 A 
ATOM     15 CL   UNL     1     140.434 132.711  88.725  0.00  0.00    -0.082 Cl
ATOM     16  C   UNL     1     138.777 130.629  88.050  0.00  0.00    +0.061 A 
ATOM     17 CL   UNL     1     137.875 131.670  87.006  0.00  0.00    -0.082 Cl
ATOM     18  C   UNL     1     138.371 129.293  88.145  0.00  0.00    -0.017 A 
ATOM     19  H   UNL     1     137.284 124.571  86.620  0.00  0.00    +0.000 HD
ATOM     20  H   UNL     1     136.581 123.384  87.597  0.00  0.00    +0.000 HD
ATOM     21  H   UNL     1     138.896 126.528  89.906  0.00  0.00    +0.000 HD
ENDROOT
TORSDOF 0
ENDMDL
MODEL 9
REMARK VINA RESULT:    -3.485     10.134     12.286
REMARK INTER + INTRA:          -3.485
REMARK INTER:                  -3.485
REMARK INTRA:                   0.000
REMARK UNBOUND:                 0.000
REMARK  Name = /home/vital/Documents/PhD_2021/Malaria_codes/scripts/../data/pdbqt_ligands/ligand_355_temp.pdb
REMARK                            x       y       z     vdW  Elec       q    Type
REMARK                         _______ _______ _______ _____ _____    ______ ____
ROOT
ATOM      1  C   UNL     1     140.584 132.901  87.322  0.00  0.00    -0.015 C 
ATOM      2  C   UNL     1     139.984 131.638  87.970  0.00  0.00    -0.088 C 
ATOM      3  C   UNL     1     139.408 130.439  88.592  0.00  0.00    +0.011 C 
ATOM      4  C   UNL     1     139.171 129.341  87.555  0.00  0.00    -0.030 C 
ATOM      5  C   UNL     1     138.554 128.101  88.203  0.00  0.00    -0.003 C 
ATOM      6  N   UNL     1     138.428 126.982  87.270  0.00  0.00    -0.314 N 
ATOM      7  C   UNL     1     137.362 127.182  86.273  0.00  0.00    +0.022 C 
ATOM      8  C   UNL     1     137.133 125.908  85.449  0.00  0.00    +0.088 C 
ATOM      9  O   UNL     1     136.628 124.882  86.314  0.00  0.00    -0.273 OA
ATOM     10  N   UNL     1     136.395 123.758  85.513  0.00  0.00    -0.266 N 
ATOM     11  C   UNL     1     135.193 123.038  85.696  0.00  0.00    +0.063 A 
ATOM     12  C   UNL     1     135.069 121.753  85.155  0.00  0.00    -0.035 A 
ATOM     13  C   UNL     1     133.866 121.047  85.261  0.00  0.00    -0.040 A 
ATOM     14  C   UNL     1     132.764 121.631  85.887  0.00  0.00    +0.059 A 
ATOM     15 CL   UNL     1     131.309 120.704  85.983  0.00  0.00    -0.082 Cl
ATOM     16  C   UNL     1     132.864 122.928  86.398  0.00  0.00    +0.061 A 
ATOM     17 CL   UNL     1     131.537 123.727  87.163  0.00  0.00    -0.082 Cl
ATOM     18  C   UNL     1     134.072 123.627  86.291  0.00  0.00    -0.017 A 
ATOM     19  H   UNL     1     138.222 126.136  87.802  0.00  0.00    +0.000 HD
ATOM     20  H   UNL     1     139.310 126.908  86.762  0.00  0.00    +0.000 HD
ATOM     21  H   UNL     1     137.054 123.475  84.839  0.00  0.00    +0.000 HD
ENDROOT
TORSDOF 0
ENDMDL
