MODEL 1
REMARK VINA RESULT:    -4.460      0.000      0.000
REMARK INTER + INTRA:          -4.460
REMARK INTER:                  -4.460
REMARK INTRA:                   0.000
REMARK UNBOUND:                 0.000
REMARK  Name = /home/vital/Documents/PhD_2021/Malaria_codes/scripts/../data/pdbqt_ligands/ligand_225_temp.pdb
REMARK                            x       y       z     vdW  Elec       q    Type
REMARK                         _______ _______ _______ _____ _____    ______ ____
ROOT
ATOM      1 CL   UNL     1     139.867 131.831  88.402  0.00  0.00    -0.082 Cl
ATOM      2  C   UNL     1     138.891 130.516  87.855  0.00  0.00    +0.059 A 
ATOM      3  C   UNL     1     139.169 129.245  88.356  0.00  0.00    -0.040 A 
ATOM      4  C   UNL     1     138.408 128.143  87.946  0.00  0.00    -0.039 A 
ATOM      5  C   UNL     1     137.341 128.291  87.049  0.00  0.00    +0.038 A 
ATOM      6  N   UNL     1     136.580 127.209  86.552  0.00  0.00    -0.282 N 
ATOM      7  S   UNL     1     136.456 125.748  87.367  0.00  0.00    +0.016 S 
ATOM      8  C   UNL     1     134.867 125.223  86.841  0.00  0.00    +0.205 C 
ATOM      9  N   UNL     1     134.395 124.062  87.172  0.00  0.00    -0.215 N 
ATOM     10  C   UNL     1     133.061 124.016  86.556  0.00  0.00    +0.219 C 
ATOM     11  C   UNL     1     133.022 122.961  85.484  0.00  0.00    -0.025 C 
ATOM     12  C   UNL     1     132.217 121.893  85.367  0.00  0.00    -0.061 C 
ATOM     13  C   UNL     1     131.179 121.463  86.272  0.00  0.00    -0.064 C 
ATOM     14  C   UNL     1     131.027 121.853  87.544  0.00  0.00    -0.059 C 
ATOM     15  C   UNL     1     131.841 122.891  88.245  0.00  0.00    +0.070 C 
ATOM     16  O   UNL     1     131.944 124.044  87.425  0.00  0.00    -0.340 OA
ATOM     17  C   UNL     1     133.023 125.362  85.877  0.00  0.00    +0.066 C 
ATOM     18  N   UNL     1     134.098 126.050  86.053  0.00  0.00    -0.228 NA
ATOM     19  C   UNL     1     137.097 129.572  86.528  0.00  0.00    -0.020 A 
ATOM     20  C   UNL     1     137.855 130.680  86.934  0.00  0.00    +0.061 A 
ATOM     21 CL   UNL     1     137.460 132.217  86.247  0.00  0.00    -0.082 Cl
ATOM     22  H   UNL     1     136.106 127.316  85.697  0.00  0.00    +0.000 HD
ATOM     23  H   UNL     1     134.833 123.366  87.714  0.00  0.00    +0.000 HD
ENDROOT
TORSDOF 0
ENDMDL
MODEL 2
REMARK VINA RESULT:    -4.358     16.819     18.980
REMARK INTER + INTRA:          -4.358
REMARK INTER:                  -4.358
REMARK INTRA:                   0.000
REMARK UNBOUND:                 0.000
REMARK  Name = /home/vital/Documents/PhD_2021/Malaria_codes/scripts/../data/pdbqt_ligands/ligand_225_temp.pdb
REMARK                            x       y       z     vdW  Elec       q    Type
REMARK                         _______ _______ _______ _____ _____    ______ ____
ROOT
ATOM      1 CL   UNL     1     139.725 122.974 107.951  0.00  0.00    -0.082 Cl
ATOM      2  C   UNL     1     140.402 123.943 106.693  0.00  0.00    +0.059 A 
ATOM      3  C   UNL     1     139.755 123.955 105.458  0.00  0.00    -0.040 A 
ATOM      4  C   UNL     1     140.260 124.725 104.403  0.00  0.00    -0.039 A 
ATOM      5  C   UNL     1     141.406 125.516 104.567  0.00  0.00    +0.038 A 
ATOM      6  N   UNL     1     141.997 126.261 103.522  0.00  0.00    -0.282 N 
ATOM      7  S   UNL     1     141.134 126.759 102.172  0.00  0.00    +0.016 S 
ATOM      8  C   UNL     1     142.004 128.226 101.761  0.00  0.00    +0.205 C 
ATOM      9  N   UNL     1     141.718 128.903 100.693  0.00  0.00    -0.215 N 
ATOM     10  C   UNL     1     142.645 130.044 100.720  0.00  0.00    +0.219 C 
ATOM     11  C   UNL     1     143.611 129.953  99.571  0.00  0.00    -0.025 C 
ATOM     12  C   UNL     1     143.849 130.832  98.584  0.00  0.00    -0.061 C 
ATOM     13  C   UNL     1     143.205 132.102  98.356  0.00  0.00    -0.064 C 
ATOM     14  C   UNL     1     142.045 132.509  98.888  0.00  0.00    -0.059 C 
ATOM     15  C   UNL     1     141.240 131.766  99.903  0.00  0.00    +0.070 C 
ATOM     16  O   UNL     1     142.090 131.326 100.950  0.00  0.00    -0.340 OA
ATOM     17  C   UNL     1     143.410 129.750 101.987  0.00  0.00    +0.066 C 
ATOM     18  N   UNL     1     143.020 128.673 102.576  0.00  0.00    -0.228 NA
ATOM     19  C   UNL     1     142.065 125.465 105.806  0.00  0.00    -0.020 A 
ATOM     20  C   UNL     1     141.564 124.697 106.866  0.00  0.00    +0.061 A 
ATOM     21 CL   UNL     1     142.439 124.721 108.357  0.00  0.00    -0.082 Cl
ATOM     22  H   UNL     1     142.950 126.498 103.589  0.00  0.00    +0.000 HD
ATOM     23  H   UNL     1     141.033 128.700 100.015  0.00  0.00    +0.000 HD
ENDROOT
TORSDOF 0
ENDMDL
MODEL 3
REMARK VINA RESULT:    -4.345     17.463     18.535
REMARK INTER + INTRA:          -4.345
REMARK INTER:                  -4.345
REMARK INTRA:                   0.000
REMARK UNBOUND:                 0.000
REMARK  Name = /home/vital/Documents/PhD_2021/Malaria_codes/scripts/../data/pdbqt_ligands/ligand_225_temp.pdb
REMARK                            x       y       z     vdW  Elec       q    Type
REMARK                         _______ _______ _______ _____ _____    ______ ____
ROOT
ATOM      1 CL   UNL     1     145.492 129.589 101.092  0.00  0.00    -0.082 Cl
ATOM      2  C   UNL     1     144.248 128.537 101.663  0.00  0.00    +0.059 A 
ATOM      3  C   UNL     1     144.604 127.235 102.015  0.00  0.00    -0.040 A 
ATOM      4  C   UNL     1     143.635 126.341 102.485  0.00  0.00    -0.039 A 
ATOM      5  C   UNL     1     142.298 126.734 102.637  0.00  0.00    +0.038 A 
ATOM      6  N   UNL     1     141.267 125.858 103.044  0.00  0.00    -0.282 N 
ATOM      7  S   UNL     1     141.567 124.465 103.930  0.00  0.00    +0.016 S 
ATOM      8  C   UNL     1     140.064 124.325 104.824  0.00  0.00    +0.205 C 
ATOM      9  N   UNL     1     139.825 123.304 105.587  0.00  0.00    -0.215 N 
ATOM     10  C   UNL     1     138.494 123.570 106.153  0.00  0.00    +0.219 C 
ATOM     11  C   UNL     1     137.506 122.554 105.649  0.00  0.00    -0.025 C 
ATOM     12  C   UNL     1     136.731 121.702 106.340  0.00  0.00    -0.061 C 
ATOM     13  C   UNL     1     136.667 121.525 107.770  0.00  0.00    -0.064 C 
ATOM     14  C   UNL     1     137.578 121.939 108.661  0.00  0.00    -0.059 C 
ATOM     15  C   UNL     1     138.789 122.758 108.357  0.00  0.00    +0.070 C 
ATOM     16  O   UNL     1     138.424 123.856 107.537  0.00  0.00    -0.340 OA
ATOM     17  C   UNL     1     138.172 124.888 105.495  0.00  0.00    +0.066 C 
ATOM     18  N   UNL     1     139.106 125.308 104.713  0.00  0.00    -0.228 NA
ATOM     19  C   UNL     1     141.950 128.037 102.244  0.00  0.00    -0.020 A 
ATOM     20  C   UNL     1     142.915 128.938 101.773  0.00  0.00    +0.061 A 
ATOM     21 CL   UNL     1     142.386 130.525 101.337  0.00  0.00    -0.082 Cl
ATOM     22  H   UNL     1     140.337 126.073 102.800  0.00  0.00    +0.000 HD
ATOM     23  H   UNL     1     140.405 122.525 105.750  0.00  0.00    +0.000 HD
ENDROOT
TORSDOF 0
ENDMDL
MODEL 4
REMARK VINA RESULT:    -4.284     10.888     13.272
REMARK INTER + INTRA:          -4.284
REMARK INTER:                  -4.284
REMARK INTRA:                   0.000
REMARK UNBOUND:                 0.000
REMARK  Name = /home/vital/Documents/PhD_2021/Malaria_codes/scripts/../data/pdbqt_ligands/ligand_225_temp.pdb
REMARK                            x       y       z     vdW  Elec       q    Type
REMARK                         _______ _______ _______ _____ _____    ______ ____
ROOT
ATOM      1 CL   UNL     1     144.436 130.753 101.427  0.00  0.00    -0.082 Cl
ATOM      2  C   UNL     1     144.027 131.246  99.823  0.00  0.00    +0.059 A 
ATOM      3  C   UNL     1     145.060 131.358  98.892  0.00  0.00    -0.040 A 
ATOM      4  C   UNL     1     144.784 131.753  97.577  0.00  0.00    -0.039 A 
ATOM      5  C   UNL     1     143.473 132.021  97.160  0.00  0.00    +0.038 A 
ATOM      6  N   UNL     1     143.144 132.484  95.866  0.00  0.00    -0.282 N 
ATOM      7  S   UNL     1     144.135 132.225  94.538  0.00  0.00    +0.016 S 
ATOM      8  C   UNL     1     142.943 132.184  93.252  0.00  0.00    +0.205 C 
ATOM      9  N   UNL     1     143.294 132.092  92.008  0.00  0.00    -0.215 N 
ATOM     10  C   UNL     1     142.025 132.075  91.266  0.00  0.00    +0.219 C 
ATOM     11  C   UNL     1     141.901 133.316  90.425  0.00  0.00    -0.025 C 
ATOM     12  C   UNL     1     141.733 133.434  89.098  0.00  0.00    -0.061 C 
ATOM     13  C   UNL     1     141.653 132.379  88.118  0.00  0.00    -0.064 C 
ATOM     14  C   UNL     1     142.041 131.108  88.290  0.00  0.00    -0.059 C 
ATOM     15  C   UNL     1     142.537 130.510  89.565  0.00  0.00    +0.070 C 
ATOM     16  O   UNL     1     141.665 130.866  90.625  0.00  0.00    -0.340 OA
ATOM     17  C   UNL     1     141.039 132.189  92.401  0.00  0.00    +0.066 C 
ATOM     18  N   UNL     1     141.602 132.259  93.557  0.00  0.00    -0.228 NA
ATOM     19  C   UNL     1     142.451 131.937  98.119  0.00  0.00    -0.020 A 
ATOM     20  C   UNL     1     142.719 131.542  99.437  0.00  0.00    +0.061 A 
ATOM     21 CL   UNL     1     141.386 131.450 100.534  0.00  0.00    -0.082 Cl
ATOM     22  H   UNL     1     142.301 132.976  95.739  0.00  0.00    +0.000 HD
ATOM     23  H   UNL     1     144.208 132.045  91.642  0.00  0.00    +0.000 HD
ENDROOT
TORSDOF 0
ENDMDL
MODEL 5
REMARK VINA RESULT:    -4.257      2.966      3.566
REMARK INTER + INTRA:          -4.257
REMARK INTER:                  -4.257
REMARK INTRA:                   0.000
REMARK UNBOUND:                 0.000
REMARK  Name = /home/vital/Documents/PhD_2021/Malaria_codes/scripts/../data/pdbqt_ligands/ligand_225_temp.pdb
REMARK                            x       y       z     vdW  Elec       q    Type
REMARK                         _______ _______ _______ _____ _____    ______ ____
ROOT
ATOM      1 CL   UNL     1     141.416 127.671  92.195  0.00  0.00    -0.082 Cl
ATOM      2  C   UNL     1     140.402 126.729  91.162  0.00  0.00    +0.059 A 
ATOM      3  C   UNL     1     139.822 125.576  91.691  0.00  0.00    -0.040 A 
ATOM      4  C   UNL     1     138.991 124.776  90.898  0.00  0.00    -0.039 A 
ATOM      5  C   UNL     1     138.702 125.123  89.570  0.00  0.00    +0.038 A 
ATOM      6  N   UNL     1     137.923 124.322  88.705  0.00  0.00    -0.282 N 
ATOM      7  S   UNL     1     136.802 123.211  89.273  0.00  0.00    +0.016 S 
ATOM      8  C   UNL     1     135.649 123.217  87.950  0.00  0.00    +0.205 C 
ATOM      9  N   UNL     1     134.638 122.407  87.934  0.00  0.00    -0.215 N 
ATOM     10  C   UNL     1     133.923 122.734  86.690  0.00  0.00    +0.219 C 
ATOM     11  C   UNL     1     133.990 121.574  85.735  0.00  0.00    -0.025 C 
ATOM     12  C   UNL     1     132.992 120.880  85.164  0.00  0.00    -0.061 C 
ATOM     13  C   UNL     1     131.573 121.060  85.345  0.00  0.00    -0.064 C 
ATOM     14  C   UNL     1     130.980 121.730  86.343  0.00  0.00    -0.059 C 
ATOM     15  C   UNL     1     131.678 122.511  87.407  0.00  0.00    +0.070 C 
ATOM     16  O   UNL     1     132.656 123.350  86.813  0.00  0.00    -0.340 OA
ATOM     17  C   UNL     1     134.805 123.829  86.144  0.00  0.00    +0.066 C 
ATOM     18  N   UNL     1     135.816 124.090  86.899  0.00  0.00    -0.228 NA
ATOM     19  C   UNL     1     139.322 126.267  89.043  0.00  0.00    -0.020 A 
ATOM     20  C   UNL     1     140.156 127.073  89.832  0.00  0.00    +0.061 A 
ATOM     21 CL   UNL     1     140.852 128.472  89.092  0.00  0.00    -0.082 Cl
ATOM     22  H   UNL     1     138.043 124.420  87.733  0.00  0.00    +0.000 HD
ATOM     23  H   UNL     1     134.400 121.725  88.603  0.00  0.00    +0.000 HD
ENDROOT
TORSDOF 0
ENDMDL
MODEL 6
REMARK VINA RESULT:    -4.215     16.131     18.595
REMARK INTER + INTRA:          -4.215
REMARK INTER:                  -4.215
REMARK INTRA:                   0.000
REMARK UNBOUND:                 0.000
REMARK  Name = /home/vital/Documents/PhD_2021/Malaria_codes/scripts/../data/pdbqt_ligands/ligand_225_temp.pdb
REMARK                            x       y       z     vdW  Elec       q    Type
REMARK                         _______ _______ _______ _____ _____    ______ ____
ROOT
ATOM      1 CL   UNL     1     140.256 120.831 107.176  0.00  0.00    -0.082 Cl
ATOM      2  C   UNL     1     140.351 122.331 106.325  0.00  0.00    +0.059 A 
ATOM      3  C   UNL     1     141.603 122.932 106.200  0.00  0.00    -0.040 A 
ATOM      4  C   UNL     1     141.737 124.148 105.519  0.00  0.00    -0.039 A 
ATOM      5  C   UNL     1     140.631 124.774 104.928  0.00  0.00    +0.038 A 
ATOM      6  N   UNL     1     140.695 126.031 104.285  0.00  0.00    -0.282 N 
ATOM      7  S   UNL     1     142.120 126.643 103.645  0.00  0.00    +0.016 S 
ATOM      8  C   UNL     1     141.486 127.628 102.339  0.00  0.00    +0.205 C 
ATOM      9  N   UNL     1     142.263 128.374 101.618  0.00  0.00    -0.215 N 
ATOM     10  C   UNL     1     141.363 129.013 100.646  0.00  0.00    +0.219 C 
ATOM     11  C   UNL     1     141.308 130.496 100.890  0.00  0.00    -0.025 C 
ATOM     12  C   UNL     1     141.597 131.509 100.057  0.00  0.00    -0.061 C 
ATOM     13  C   UNL     1     142.069 131.429  98.697  0.00  0.00    -0.064 C 
ATOM     14  C   UNL     1     142.607 130.353  98.107  0.00  0.00    -0.059 C 
ATOM     15  C   UNL     1     142.728 128.993  98.712  0.00  0.00    +0.070 C 
ATOM     16  O   UNL     1     141.488 128.622  99.292  0.00  0.00    -0.340 OA
ATOM     17  C   UNL     1     140.038 128.429 101.069  0.00  0.00    +0.066 C 
ATOM     18  N   UNL     1     140.135 127.624 102.070  0.00  0.00    -0.228 NA
ATOM     19  C   UNL     1     139.373 124.173 105.093  0.00  0.00    -0.020 A 
ATOM     20  C   UNL     1     139.231 122.955 105.774  0.00  0.00    +0.061 A 
ATOM     21 CL   UNL     1     137.641 122.288 105.902  0.00  0.00    -0.082 Cl
ATOM     22  H   UNL     1     139.873 126.568 104.210  0.00  0.00    +0.000 HD
ATOM     23  H   UNL     1     143.237 128.488 101.703  0.00  0.00    +0.000 HD
ENDROOT
TORSDOF 0
ENDMDL
MODEL 7
REMARK VINA RESULT:    -4.178     17.024     18.542
REMARK INTER + INTRA:          -4.178
REMARK INTER:                  -4.178
REMARK INTRA:                   0.000
REMARK UNBOUND:                 0.000
REMARK  Name = /home/vital/Documents/PhD_2021/Malaria_codes/scripts/../data/pdbqt_ligands/ligand_225_temp.pdb
REMARK                            x       y       z     vdW  Elec       q    Type
REMARK                         _______ _______ _______ _____ _____    ______ ____
ROOT
ATOM      1 CL   UNL     1     142.018 132.180  99.207  0.00  0.00    -0.082 Cl
ATOM      2  C   UNL     1     141.847 130.739 100.144  0.00  0.00    +0.059 A 
ATOM      3  C   UNL     1     142.943 130.316 100.896  0.00  0.00    -0.040 A 
ATOM      4  C   UNL     1     142.858 129.155 101.675  0.00  0.00    -0.039 A 
ATOM      5  C   UNL     1     141.673 128.409 101.738  0.00  0.00    +0.038 A 
ATOM      6  N   UNL     1     141.550 127.197 102.454  0.00  0.00    -0.282 N 
ATOM      7  S   UNL     1     142.553 126.806 103.741  0.00  0.00    +0.016 S 
ATOM      8  C   UNL     1     141.477 125.794 104.688  0.00  0.00    +0.205 C 
ATOM      9  N   UNL     1     141.889 125.186 105.756  0.00  0.00    -0.215 N 
ATOM     10  C   UNL     1     140.705 124.469 106.252  0.00  0.00    +0.219 C 
ATOM     11  C   UNL     1     140.921 122.984 106.155  0.00  0.00    -0.025 C 
ATOM     12  C   UNL     1     140.880 122.051 107.120  0.00  0.00    -0.061 C 
ATOM     13  C   UNL     1     140.639 122.244 108.529  0.00  0.00    -0.064 C 
ATOM     14  C   UNL     1     140.721 123.404 109.194  0.00  0.00    -0.059 C 
ATOM     15  C   UNL     1     140.978 124.744 108.588  0.00  0.00    +0.070 C 
ATOM     16  O   UNL     1     140.132 124.924 107.464  0.00  0.00    -0.340 OA
ATOM     17  C   UNL     1     139.689 124.854 105.206  0.00  0.00    +0.066 C 
ATOM     18  N   UNL     1     140.168 125.627 104.294  0.00  0.00    -0.228 NA
ATOM     19  C   UNL     1     140.591 128.830 100.948  0.00  0.00    -0.020 A 
ATOM     20  C   UNL     1     140.669 129.991 100.166  0.00  0.00    +0.061 A 
ATOM     21 CL   UNL     1     139.273 130.434  99.247  0.00  0.00    -0.082 Cl
ATOM     22  H   UNL     1     140.849 126.558 102.189  0.00  0.00    +0.000 HD
ATOM     23  H   UNL     1     142.793 125.200 106.147  0.00  0.00    +0.000 HD
ENDROOT
TORSDOF 0
ENDMDL
MODEL 8
REMARK VINA RESULT:    -3.981      3.447      4.415
REMARK INTER + INTRA:          -3.981
REMARK INTER:                  -3.981
REMARK INTRA:                   0.000
REMARK UNBOUND:                 0.000
REMARK  Name = /home/vital/Documents/PhD_2021/Malaria_codes/scripts/../data/pdbqt_ligands/ligand_225_temp.pdb
REMARK                            x       y       z     vdW  Elec       q    Type
REMARK                         _______ _______ _______ _____ _____    ______ ____
ROOT
ATOM      1 CL   UNL     1     142.727 127.001  91.160  0.00  0.00    -0.082 Cl
ATOM      2  C   UNL     1     141.126 126.486  90.768  0.00  0.00    +0.059 A 
ATOM      3  C   UNL     1     140.497 127.084  89.677  0.00  0.00    -0.040 A 
ATOM      4  C   UNL     1     139.199 126.703  89.314  0.00  0.00    -0.039 A 
ATOM      5  C   UNL     1     138.514 125.702  90.017  0.00  0.00    +0.038 A 
ATOM      6  N   UNL     1     137.182 125.322  89.737  0.00  0.00    -0.282 N 
ATOM      7  S   UNL     1     136.471 125.570  88.238  0.00  0.00    +0.016 S 
ATOM      8  C   UNL     1     135.329 124.239  88.202  0.00  0.00    +0.205 C 
ATOM      9  N   UNL     1     134.483 124.102  87.230  0.00  0.00    -0.215 N 
ATOM     10  C   UNL     1     133.732 122.882  87.564  0.00  0.00    +0.219 C 
ATOM     11  C   UNL     1     132.295 123.223  87.852  0.00  0.00    -0.025 C 
ATOM     12  C   UNL     1     131.176 122.770  87.263  0.00  0.00    -0.061 C 
ATOM     13  C   UNL     1     131.068 121.842  86.165  0.00  0.00    -0.064 C 
ATOM     14  C   UNL     1     132.048 121.497  85.319  0.00  0.00    -0.059 C 
ATOM     15  C   UNL     1     133.475 121.928  85.413  0.00  0.00    +0.070 C 
ATOM     16  O   UNL     1     133.937 121.749  86.742  0.00  0.00    -0.340 OA
ATOM     17  C   UNL     1     134.384 122.504  88.870  0.00  0.00    +0.066 C 
ATOM     18  N   UNL     1     135.314 123.320  89.228  0.00  0.00    -0.228 NA
ATOM     19  C   UNL     1     139.148 125.135  91.134  0.00  0.00    -0.020 A 
ATOM     20  C   UNL     1     140.448 125.512  91.503  0.00  0.00    +0.061 A 
ATOM     21 CL   UNL     1     141.146 124.737  92.882  0.00  0.00    -0.082 Cl
ATOM     22  H   UNL     1     136.651 124.896  90.449  0.00  0.00    +0.000 HD
ATOM     23  H   UNL     1     134.368 124.684  86.444  0.00  0.00    +0.000 HD
ENDROOT
TORSDOF 0
ENDMDL
MODEL 9
REMARK VINA RESULT:    -3.814      4.400      8.796
REMARK INTER + INTRA:          -3.814
REMARK INTER:                  -3.814
REMARK INTRA:                   0.000
REMARK UNBOUND:                 0.000
REMARK  Name = /home/vital/Documents/PhD_2021/Malaria_codes/scripts/../data/pdbqt_ligands/ligand_225_temp.pdb
REMARK                            x       y       z     vdW  Elec       q    Type
REMARK                         _______ _______ _______ _____ _____    ______ ____
ROOT
ATOM      1 CL   UNL     1     131.354 120.813  85.930  0.00  0.00    -0.082 Cl
ATOM      2  C   UNL     1     132.604 121.967  86.227  0.00  0.00    +0.059 A 
ATOM      3  C   UNL     1     133.380 122.381  85.144  0.00  0.00    -0.040 A 
ATOM      4  C   UNL     1     134.406 123.316  85.328  0.00  0.00    -0.039 A 
ATOM      5  C   UNL     1     134.662 123.874  86.588  0.00  0.00    +0.038 A 
ATOM      6  N   UNL     1     135.723 124.771  86.845  0.00  0.00    -0.282 N 
ATOM      7  S   UNL     1     136.419 125.710  85.641  0.00  0.00    +0.016 S 
ATOM      8  C   UNL     1     136.937 127.099  86.580  0.00  0.00    +0.205 C 
ATOM      9  N   UNL     1     137.624 128.057  86.043  0.00  0.00    -0.215 N 
ATOM     10  C   UNL     1     137.841 129.015  87.138  0.00  0.00    +0.219 C 
ATOM     11  C   UNL     1     139.304 129.086  87.480  0.00  0.00    -0.025 C 
ATOM     12  C   UNL     1     140.129 130.145  87.483  0.00  0.00    -0.061 C 
ATOM     13  C   UNL     1     139.821 131.508  87.126  0.00  0.00    -0.064 C 
ATOM     14  C   UNL     1     138.755 131.922  86.429  0.00  0.00    -0.059 C 
ATOM     15  C   UNL     1     137.621 131.065  85.974  0.00  0.00    +0.070 C 
ATOM     16  O   UNL     1     137.174 130.260  87.052  0.00  0.00    -0.340 OA
ATOM     17  C   UNL     1     137.139 128.306  88.269  0.00  0.00    +0.066 C 
ATOM     18  N   UNL     1     136.622 127.179  87.918  0.00  0.00    -0.228 NA
ATOM     19  C   UNL     1     133.895 123.420  87.673  0.00  0.00    -0.020 A 
ATOM     20  C   UNL     1     132.865 122.484  87.496  0.00  0.00    +0.061 A 
ATOM     21 CL   UNL     1     131.966 122.008  88.894  0.00  0.00    -0.082 Cl
ATOM     22  H   UNL     1     136.066 124.849  87.765  0.00  0.00    +0.000 HD
ATOM     23  H   UNL     1     137.932 128.129  85.110  0.00  0.00    +0.000 HD
ENDROOT
TORSDOF 0
ENDMDL
