MODEL 1
REMARK VINA RESULT:    -5.285      0.000      0.000
REMARK INTER + INTRA:          -5.285
REMARK INTER:                  -5.285
REMARK INTRA:                   0.000
REMARK UNBOUND:                 0.000
REMARK  Name = /home/vital/Documents/PhD_2021/Malaria_codes/scripts/../data/pdbqt_ligands/ligand_447_temp.pdb
REMARK                            x       y       z     vdW  Elec       q    Type
REMARK                         _______ _______ _______ _____ _____    ______ ____
ROOT
ATOM      1  C1  UNL     1     143.757 129.787 101.860  0.00  0.00    -0.003 C 
ATOM      2  C2  UNL     1     142.517 130.041 101.125  0.00  0.00    -0.104 C 
ATOM      3  C3  UNL     1     141.495 130.244 100.526  0.00  0.00    -0.079 C 
ATOM      4  C4  UNL     1     140.254 130.505  99.789  0.00  0.00    +0.132 C 
ATOM      5  S1  UNL     1     139.171 129.086  99.853  0.00  0.00    +0.008 S 
ATOM      6  O1  UNL     1     138.098 129.307  98.897  0.00  0.00    -0.168 OA
ATOM      7  O2  UNL     1     138.855 128.776 101.236  0.00  0.00    -0.168 OA
ATOM      8  C5  UNL     1     140.141 127.736  99.207  0.00  0.00    +0.090 A 
ATOM      9  C6  UNL     1     140.805 126.880 100.092  0.00  0.00    -0.037 A 
ATOM     10  C7  UNL     1     141.529 125.801  99.589  0.00  0.00    -0.059 A 
ATOM     11  C8  UNL     1     141.581 125.578  98.210  0.00  0.00    -0.050 A 
ATOM     12  C9  UNL     1     140.910 126.432  97.323  0.00  0.00    +0.039 A 
ATOM     13  C10 UNL     1     140.984 126.130  95.861  0.00  0.00    +0.250 C 
ATOM     14  O3  UNL     1     141.120 124.960  95.527  0.00  0.00    -0.270 OA
ATOM     15  N1  UNL     1     140.929 127.232  95.041  0.00  0.00    -0.261 N 
ATOM     16  C11 UNL     1     140.954 127.244  93.670  0.00  0.00    +0.165 A 
ATOM     17  N2  UNL     1     140.972 128.381  93.017  0.00  0.00    -0.224 NA
ATOM     18  C12 UNL     1     141.006 128.138  91.653  0.00  0.00    +0.083 A 
ATOM     19  C13 UNL     1     141.049 129.251  90.717  0.00  0.00    +0.001 A 
ATOM     20  C14 UNL     1     141.981 129.295  89.672  0.00  0.00    -0.049 A 
ATOM     21  C15 UNL     1     142.011 130.382  88.787  0.00  0.00    -0.019 A 
ATOM     22  C16 UNL     1     141.117 131.440  88.943  0.00  0.00    +0.121 A 
ATOM     23  O4  UNL     1     141.030 132.553  88.156  0.00  0.00    -0.492 OA
ATOM     24  C17 UNL     1     142.014 132.761  87.143  0.00  0.00    +0.087 C 
ATOM     25  C18 UNL     1     141.588 132.110  85.838  0.00  0.00    -0.031 C 
ATOM     26  C19 UNL     1     140.193 131.401  89.990  0.00  0.00    -0.019 A 
ATOM     27  C20 UNL     1     140.162 130.320  90.876  0.00  0.00    -0.049 A 
ATOM     28  C21 UNL     1     140.956 126.800  91.293  0.00  0.00    +0.016 A 
ATOM     29  C22 UNL     1     140.912 126.148  89.956  0.00  0.00    -0.031 C 
ATOM     30  S2  UNL     1     140.935 125.839  92.717  0.00  0.00    -0.057 S 
ATOM     31  C23 UNL     1     140.170 127.510  97.826  0.00  0.00    -0.025 A 
ATOM     32  H   UNL     1     140.865 128.107  95.486  0.00  0.00    +0.000 HD
ENDROOT
TORSDOF 0
ENDMDL
MODEL 2
REMARK VINA RESULT:    -5.244      3.671      4.927
REMARK INTER + INTRA:          -5.244
REMARK INTER:                  -5.244
REMARK INTRA:                   0.000
REMARK UNBOUND:                 0.000
REMARK  Name = /home/vital/Documents/PhD_2021/Malaria_codes/scripts/../data/pdbqt_ligands/ligand_447_temp.pdb
REMARK                            x       y       z     vdW  Elec       q    Type
REMARK                         _______ _______ _______ _____ _____    ______ ____
ROOT
ATOM      1  C1  UNL     1     138.334 129.341 101.131  0.00  0.00    -0.003 C 
ATOM      2  C2  UNL     1     139.044 128.627 100.067  0.00  0.00    -0.104 C 
ATOM      3  C3  UNL     1     139.631 128.039  99.200  0.00  0.00    -0.079 C 
ATOM      4  C4  UNL     1     140.336 127.324  98.131  0.00  0.00    +0.132 C 
ATOM      5  S1  UNL     1     142.080 127.197  98.500  0.00  0.00    +0.008 S 
ATOM      6  O1  UNL     1     142.751 126.725  97.300  0.00  0.00    -0.168 OA
ATOM      7  O2  UNL     1     142.263 126.493  99.756  0.00  0.00    -0.168 OA
ATOM      8  C5  UNL     1     142.623 128.879  98.742  0.00  0.00    +0.090 A 
ATOM      9  C6  UNL     1     142.703 129.397 100.038  0.00  0.00    -0.037 A 
ATOM     10  C7  UNL     1     143.167 130.697 100.230  0.00  0.00    -0.059 A 
ATOM     11  C8  UNL     1     143.553 131.469  99.132  0.00  0.00    -0.050 A 
ATOM     12  C9  UNL     1     143.479 130.949  97.831  0.00  0.00    +0.039 A 
ATOM     13  C10 UNL     1     143.927 131.814  96.699  0.00  0.00    +0.250 C 
ATOM     14  O3  UNL     1     144.795 132.647  96.926  0.00  0.00    -0.270 OA
ATOM     15  N1  UNL     1     143.269 131.596  95.511  0.00  0.00    -0.261 N 
ATOM     16  C11 UNL     1     143.492 132.227  94.315  0.00  0.00    +0.165 A 
ATOM     17  N2  UNL     1     142.731 131.970  93.278  0.00  0.00    -0.224 NA
ATOM     18  C12 UNL     1     143.142 132.733  92.195  0.00  0.00    +0.083 A 
ATOM     19  C13 UNL     1     142.435 132.634  90.927  0.00  0.00    +0.001 A 
ATOM     20  C14 UNL     1     142.011 133.774  90.233  0.00  0.00    -0.049 A 
ATOM     21  C15 UNL     1     141.323 133.657  89.018  0.00  0.00    -0.019 A 
ATOM     22  C16 UNL     1     141.044 132.398  88.487  0.00  0.00    +0.121 A 
ATOM     23  O4  UNL     1     140.391 132.136  87.316  0.00  0.00    -0.492 OA
ATOM     24  C17 UNL     1     139.804 133.218  86.596  0.00  0.00    +0.087 C 
ATOM     25  C18 UNL     1     140.800 133.816  85.617  0.00  0.00    -0.031 C 
ATOM     26  C19 UNL     1     141.459 131.260  89.184  0.00  0.00    -0.019 A 
ATOM     27  C20 UNL     1     142.143 131.374  90.397  0.00  0.00    -0.049 A 
ATOM     28  C21 UNL     1     144.257 133.524  92.422  0.00  0.00    +0.016 A 
ATOM     29  C22 UNL     1     145.023 134.420  91.513  0.00  0.00    -0.031 C 
ATOM     30  S2  UNL     1     144.746 133.342  94.059  0.00  0.00    -0.057 S 
ATOM     31  C23 UNL     1     143.027 129.637  97.636  0.00  0.00    -0.025 A 
ATOM     32  H   UNL     1     142.562 130.912  95.521  0.00  0.00    +0.000 HD
ENDROOT
TORSDOF 0
ENDMDL
MODEL 3
REMARK VINA RESULT:    -5.211      5.488      8.105
REMARK INTER + INTRA:          -5.211
REMARK INTER:                  -5.211
REMARK INTRA:                   0.000
REMARK UNBOUND:                 0.000
REMARK  Name = /home/vital/Documents/PhD_2021/Malaria_codes/scripts/../data/pdbqt_ligands/ligand_447_temp.pdb
REMARK                            x       y       z     vdW  Elec       q    Type
REMARK                         _______ _______ _______ _____ _____    ______ ____
ROOT
ATOM      1  C1  UNL     1     139.907 127.599  98.758  0.00  0.00    -0.003 C 
ATOM      2  C2  UNL     1     140.118 126.371  97.990  0.00  0.00    -0.104 C 
ATOM      3  C3  UNL     1     140.298 125.364  97.359  0.00  0.00    -0.079 C 
ATOM      4  C4  UNL     1     140.504 124.132  96.592  0.00  0.00    +0.132 C 
ATOM      5  S1  UNL     1     141.996 124.236  95.615  0.00  0.00    +0.008 S 
ATOM      6  O1  UNL     1     141.999 123.114  94.692  0.00  0.00    -0.168 OA
ATOM      7  O2  UNL     1     143.135 124.459  96.487  0.00  0.00    -0.168 OA
ATOM      8  C5  UNL     1     141.791 125.700  94.615  0.00  0.00    +0.090 A 
ATOM      9  C6  UNL     1     142.354 126.908  95.040  0.00  0.00    -0.037 A 
ATOM     10  C7  UNL     1     142.228 128.041  94.239  0.00  0.00    -0.059 A 
ATOM     11  C8  UNL     1     141.551 127.962  93.019  0.00  0.00    -0.050 A 
ATOM     12  C9  UNL     1     140.991 126.749  92.590  0.00  0.00    +0.039 A 
ATOM     13  C10 UNL     1     140.298 126.722  91.267  0.00  0.00    +0.250 C 
ATOM     14  O3  UNL     1     140.679 127.505  90.406  0.00  0.00    -0.270 OA
ATOM     15  N1  UNL     1     139.260 125.825  91.178  0.00  0.00    -0.261 N 
ATOM     16  C11 UNL     1     138.473 125.577  90.084  0.00  0.00    +0.165 A 
ATOM     17  N2  UNL     1     137.464 124.744  90.168  0.00  0.00    -0.224 NA
ATOM     18  C12 UNL     1     136.816 124.667  88.944  0.00  0.00    +0.083 A 
ATOM     19  C13 UNL     1     135.647 123.814  88.793  0.00  0.00    +0.001 A 
ATOM     20  C14 UNL     1     134.466 124.286  88.206  0.00  0.00    -0.049 A 
ATOM     21  C15 UNL     1     133.347 123.451  88.079  0.00  0.00    -0.019 A 
ATOM     22  C16 UNL     1     133.395 122.138  88.545  0.00  0.00    +0.121 A 
ATOM     23  O4  UNL     1     132.388 121.217  88.481  0.00  0.00    -0.492 OA
ATOM     24  C17 UNL     1     131.103 121.628  88.021  0.00  0.00    +0.087 C 
ATOM     25  C18 UNL     1     130.998 121.478  86.513  0.00  0.00    -0.031 C 
ATOM     26  C19 UNL     1     134.570 121.669  89.139  0.00  0.00    -0.019 A 
ATOM     27  C20 UNL     1     135.685 122.501  89.270  0.00  0.00    -0.049 A 
ATOM     28  C21 UNL     1     137.390 125.414  87.927  0.00  0.00    +0.016 A 
ATOM     29  C22 UNL     1     137.034 125.544  86.488  0.00  0.00    -0.031 C 
ATOM     30  S2  UNL     1     138.734 126.278  88.560  0.00  0.00    -0.057 S 
ATOM     31  C23 UNL     1     141.127 125.604  93.386  0.00  0.00    -0.025 A 
ATOM     32  H   UNL     1     139.061 125.303  91.989  0.00  0.00    +0.000 HD
ENDROOT
TORSDOF 0
ENDMDL
MODEL 4
REMARK VINA RESULT:    -5.112      3.566      4.737
REMARK INTER + INTRA:          -5.112
REMARK INTER:                  -5.112
REMARK INTRA:                   0.000
REMARK UNBOUND:                 0.000
REMARK  Name = /home/vital/Documents/PhD_2021/Malaria_codes/scripts/../data/pdbqt_ligands/ligand_447_temp.pdb
REMARK                            x       y       z     vdW  Elec       q    Type
REMARK                         _______ _______ _______ _____ _____    ______ ____
ROOT
ATOM      1  C1  UNL     1     139.199 130.498 101.411  0.00  0.00    -0.003 C 
ATOM      2  C2  UNL     1     139.726 129.554 100.424  0.00  0.00    -0.104 C 
ATOM      3  C3  UNL     1     140.164 128.778  99.618  0.00  0.00    -0.079 C 
ATOM      4  C4  UNL     1     140.685 127.830  98.628  0.00  0.00    +0.132 C 
ATOM      5  S1  UNL     1     142.471 127.875  98.589  0.00  0.00    +0.008 S 
ATOM      6  O1  UNL     1     142.906 127.124  97.422  0.00  0.00    -0.168 OA
ATOM      7  O2  UNL     1     142.996 127.541  99.901  0.00  0.00    -0.168 OA
ATOM      8  C5  UNL     1     142.882 129.580  98.263  0.00  0.00    +0.090 A 
ATOM      9  C6  UNL     1     143.194 130.429  99.330  0.00  0.00    -0.037 A 
ATOM     10  C7  UNL     1     143.555 131.750  99.072  0.00  0.00    -0.059 A 
ATOM     11  C8  UNL     1     143.611 132.214  97.755  0.00  0.00    -0.050 A 
ATOM     12  C9  UNL     1     143.305 131.361  96.684  0.00  0.00    +0.039 A 
ATOM     13  C10 UNL     1     143.404 131.907  95.297  0.00  0.00    +0.250 C 
ATOM     14  O3  UNL     1     144.212 132.804  95.093  0.00  0.00    -0.270 OA
ATOM     15  N1  UNL     1     142.526 131.353  94.395  0.00  0.00    -0.261 N 
ATOM     16  C11 UNL     1     142.416 131.649  93.061  0.00  0.00    +0.165 A 
ATOM     17  N2  UNL     1     141.476 131.094  92.335  0.00  0.00    -0.224 NA
ATOM     18  C12 UNL     1     141.559 131.554  91.029  0.00  0.00    +0.083 A 
ATOM     19  C13 UNL     1     140.604 131.091  90.033  0.00  0.00    +0.001 A 
ATOM     20  C14 UNL     1     139.925 131.986  89.197  0.00  0.00    -0.049 A 
ATOM     21  C15 UNL     1     139.002 131.520  88.251  0.00  0.00    -0.019 A 
ATOM     22  C16 UNL     1     138.741 130.155  88.137  0.00  0.00    +0.121 A 
ATOM     23  O4  UNL     1     137.877 129.565  87.260  0.00  0.00    -0.492 OA
ATOM     24  C17 UNL     1     137.040 130.390  86.452  0.00  0.00    +0.087 C 
ATOM     25  C18 UNL     1     137.731 130.742  85.145  0.00  0.00    -0.031 C 
ATOM     26  C19 UNL     1     139.412 129.263  88.977  0.00  0.00    -0.019 A 
ATOM     27  C20 UNL     1     140.331 129.725  89.924  0.00  0.00    -0.049 A 
ATOM     28  C21 UNL     1     142.612 132.419  90.777  0.00  0.00    +0.016 A 
ATOM     29  C22 UNL     1     143.065 133.067  89.516  0.00  0.00    -0.031 C 
ATOM     30  S2  UNL     1     143.464 132.703  92.242  0.00  0.00    -0.057 S 
ATOM     31  C23 UNL     1     142.955 130.028  96.939  0.00  0.00    -0.025 A 
ATOM     32  H   UNL     1     141.910 130.670  94.745  0.00  0.00    +0.000 HD
ENDROOT
TORSDOF 0
ENDMDL
MODEL 5
REMARK VINA RESULT:    -5.068      6.494      9.041
REMARK INTER + INTRA:          -5.068
REMARK INTER:                  -5.068
REMARK INTRA:                   0.000
REMARK UNBOUND:                 0.000
REMARK  Name = /home/vital/Documents/PhD_2021/Malaria_codes/scripts/../data/pdbqt_ligands/ligand_447_temp.pdb
REMARK                            x       y       z     vdW  Elec       q    Type
REMARK                         _______ _______ _______ _____ _____    ______ ____
ROOT
ATOM      1  C1  UNL     1     133.271 124.535  90.081  0.00  0.00    -0.003 C 
ATOM      2  C2  UNL     1     134.168 124.857  88.968  0.00  0.00    -0.104 C 
ATOM      3  C3  UNL     1     134.906 125.114  88.055  0.00  0.00    -0.079 C 
ATOM      4  C4  UNL     1     135.799 125.441  86.939  0.00  0.00    +0.132 C 
ATOM      5  S1  UNL     1     137.223 124.361  86.932  0.00  0.00    +0.008 S 
ATOM      6  O1  UNL     1     138.181 124.902  85.983  0.00  0.00    -0.168 OA
ATOM      7  O2  UNL     1     136.788 122.981  86.815  0.00  0.00    -0.168 OA
ATOM      8  C5  UNL     1     137.958 124.559  88.546  0.00  0.00    +0.090 A 
ATOM      9  C6  UNL     1     137.655 123.641  89.557  0.00  0.00    -0.037 A 
ATOM     10  C7  UNL     1     138.261 123.772  90.805  0.00  0.00    -0.059 A 
ATOM     11  C8  UNL     1     139.169 124.809  91.035  0.00  0.00    -0.050 A 
ATOM     12  C9  UNL     1     139.478 125.726  90.019  0.00  0.00    +0.039 A 
ATOM     13  C10 UNL     1     140.473 126.800  90.317  0.00  0.00    +0.250 C 
ATOM     14  O3  UNL     1     141.342 126.559  91.145  0.00  0.00    -0.270 OA
ATOM     15  N1  UNL     1     140.270 127.978  89.638  0.00  0.00    -0.261 N 
ATOM     16  C11 UNL     1     141.037 129.113  89.704  0.00  0.00    +0.165 A 
ATOM     17  N2  UNL     1     140.678 130.194  89.056  0.00  0.00    -0.224 NA
ATOM     18  C12 UNL     1     141.600 131.205  89.283  0.00  0.00    +0.083 A 
ATOM     19  C13 UNL     1     141.405 132.515  88.680  0.00  0.00    +0.001 A 
ATOM     20  C14 UNL     1     141.499 133.691  89.435  0.00  0.00    -0.049 A 
ATOM     21  C15 UNL     1     141.299 134.943  88.837  0.00  0.00    -0.019 A 
ATOM     22  C16 UNL     1     140.993 135.031  87.479  0.00  0.00    +0.121 A 
ATOM     23  O4  UNL     1     140.780 136.178  86.769  0.00  0.00    -0.492 OA
ATOM     24  C17 UNL     1     140.725 137.422  87.464  0.00  0.00    +0.087 C 
ATOM     25  C18 UNL     1     142.108 138.041  87.569  0.00  0.00    -0.031 C 
ATOM     26  C19 UNL     1     140.890 133.858  86.728  0.00  0.00    -0.019 A 
ATOM     27  C20 UNL     1     141.086 132.609  87.322  0.00  0.00    -0.049 A 
ATOM     28  C21 UNL     1     142.685 130.845  90.066  0.00  0.00    +0.016 A 
ATOM     29  C22 UNL     1     143.892 131.613  90.477  0.00  0.00    -0.031 C 
ATOM     30  S2  UNL     1     142.490 129.216  90.575  0.00  0.00    -0.057 S 
ATOM     31  C23 UNL     1     138.881 125.590  88.758  0.00  0.00    -0.025 A 
ATOM     32  H   UNL     1     139.489 128.011  89.041  0.00  0.00    +0.000 HD
ENDROOT
TORSDOF 0
ENDMDL
MODEL 6
REMARK VINA RESULT:    -4.877      6.491     12.727
REMARK INTER + INTRA:          -4.877
REMARK INTER:                  -4.877
REMARK INTRA:                   0.000
REMARK UNBOUND:                 0.000
REMARK  Name = /home/vital/Documents/PhD_2021/Malaria_codes/scripts/../data/pdbqt_ligands/ligand_447_temp.pdb
REMARK                            x       y       z     vdW  Elec       q    Type
REMARK                         _______ _______ _______ _____ _____    ______ ____
ROOT
ATOM      1  C1  UNL     1     144.412 129.159  95.474  0.00  0.00    -0.003 C 
ATOM      2  C2  UNL     1     143.646 129.691  96.602  0.00  0.00    -0.104 C 
ATOM      3  C3  UNL     1     143.023 130.133  97.529  0.00  0.00    -0.079 C 
ATOM      4  C4  UNL     1     142.250 130.664  98.657  0.00  0.00    +0.132 C 
ATOM      5  S1  UNL     1     143.315 131.526  99.803  0.00  0.00    +0.008 S 
ATOM      6  O1  UNL     1     142.545 131.789 101.008  0.00  0.00    -0.168 OA
ATOM      7  O2  UNL     1     143.985 132.618  99.120  0.00  0.00    -0.168 OA
ATOM      8  C5  UNL     1     144.560 130.333 100.261  0.00  0.00    +0.090 A 
ATOM      9  C6  UNL     1     145.791 130.334  99.598  0.00  0.00    -0.037 A 
ATOM     10  C7  UNL     1     146.779 129.429  99.983  0.00  0.00    -0.059 A 
ATOM     11  C8  UNL     1     146.536 128.536 101.030  0.00  0.00    -0.050 A 
ATOM     12  C9  UNL     1     145.303 128.539 101.700  0.00  0.00    +0.039 A 
ATOM     13  C10 UNL     1     145.111 127.575 102.826  0.00  0.00    +0.250 C 
ATOM     14  O3  UNL     1     146.100 127.236 103.462  0.00  0.00    -0.270 OA
ATOM     15  N1  UNL     1     143.818 127.140 102.997  0.00  0.00    -0.261 N 
ATOM     16  C11 UNL     1     143.357 126.278 103.958  0.00  0.00    +0.165 A 
ATOM     17  N2  UNL     1     142.105 125.888 103.953  0.00  0.00    -0.224 NA
ATOM     18  C12 UNL     1     141.881 125.017 105.008  0.00  0.00    +0.083 A 
ATOM     19  C13 UNL     1     140.562 124.433 105.201  0.00  0.00    +0.001 A 
ATOM     20  C14 UNL     1     140.391 123.057 105.400  0.00  0.00    -0.049 A 
ATOM     21  C15 UNL     1     139.111 122.514 105.574  0.00  0.00    -0.019 A 
ATOM     22  C16 UNL     1     137.987 123.338 105.543  0.00  0.00    +0.121 A 
ATOM     23  O4  UNL     1     136.689 122.948 105.704  0.00  0.00    -0.492 OA
ATOM     24  C17 UNL     1     136.390 121.555 105.784  0.00  0.00    +0.087 C 
ATOM     25  C18 UNL     1     136.452 121.074 107.224  0.00  0.00    -0.031 C 
ATOM     26  C19 UNL     1     138.157 124.710 105.336  0.00  0.00    -0.019 A 
ATOM     27  C20 UNL     1     139.432 125.254 105.158  0.00  0.00    -0.049 A 
ATOM     28  C21 UNL     1     142.972 124.804 105.837  0.00  0.00    +0.016 A 
ATOM     29  C22 UNL     1     143.112 124.002 107.082  0.00  0.00    -0.031 C 
ATOM     30  S2  UNL     1     144.318 125.675 105.220  0.00  0.00    -0.057 S 
ATOM     31  C23 UNL     1     144.313 129.456 101.324  0.00  0.00    -0.025 A 
ATOM     32  H   UNL     1     143.151 127.483 102.360  0.00  0.00    +0.000 HD
ENDROOT
TORSDOF 0
ENDMDL
MODEL 7
REMARK VINA RESULT:    -4.744     15.291     17.190
REMARK INTER + INTRA:          -4.744
REMARK INTER:                  -4.744
REMARK INTRA:                   0.000
REMARK UNBOUND:                 0.000
REMARK  Name = /home/vital/Documents/PhD_2021/Malaria_codes/scripts/../data/pdbqt_ligands/ligand_447_temp.pdb
REMARK                            x       y       z     vdW  Elec       q    Type
REMARK                         _______ _______ _______ _____ _____    ______ ____
ROOT
ATOM      1  C1  UNL     1     146.341 136.669 109.075  0.00  0.00    -0.003 C 
ATOM      2  C2  UNL     1     146.679 138.011 108.598  0.00  0.00    -0.104 C 
ATOM      3  C3  UNL     1     146.956 139.116 108.214  0.00  0.00    -0.079 C 
ATOM      4  C4  UNL     1     147.299 140.458 107.732  0.00  0.00    +0.132 C 
ATOM      5  S1  UNL     1     146.547 141.710 108.761  0.00  0.00    +0.008 S 
ATOM      6  O1  UNL     1     146.700 142.987 108.084  0.00  0.00    -0.168 OA
ATOM      7  O2  UNL     1     147.005 141.556 110.130  0.00  0.00    -0.168 OA
ATOM      8  C5  UNL     1     144.801 141.341 108.733  0.00  0.00    +0.090 A 
ATOM      9  C6  UNL     1     144.239 140.592 109.771  0.00  0.00    -0.037 A 
ATOM     10  C7  UNL     1     142.869 140.339 109.771  0.00  0.00    -0.059 A 
ATOM     11  C8  UNL     1     142.067 140.840 108.742  0.00  0.00    -0.050 A 
ATOM     12  C9  UNL     1     142.630 141.597 107.703  0.00  0.00    +0.039 A 
ATOM     13  C10 UNL     1     141.719 142.125 106.643  0.00  0.00    +0.250 C 
ATOM     14  O3  UNL     1     140.559 142.363 106.953  0.00  0.00    -0.270 OA
ATOM     15  N1  UNL     1     142.292 142.247 105.399  0.00  0.00    -0.261 N 
ATOM     16  C11 UNL     1     141.698 142.722 104.258  0.00  0.00    +0.165 A 
ATOM     17  N2  UNL     1     142.346 142.710 103.119  0.00  0.00    -0.224 NA
ATOM     18  C12 UNL     1     141.541 143.226 102.115  0.00  0.00    +0.083 A 
ATOM     19  C13 UNL     1     142.038 143.299 100.749  0.00  0.00    +0.001 A 
ATOM     20  C14 UNL     1     141.285 142.824  99.669  0.00  0.00    -0.049 A 
ATOM     21  C15 UNL     1     141.787 142.896  98.361  0.00  0.00    -0.019 A 
ATOM     22  C16 UNL     1     143.050 143.434  98.123  0.00  0.00    +0.121 A 
ATOM     23  O4  UNL     1     143.658 143.571  96.907  0.00  0.00    -0.492 OA
ATOM     24  C17 UNL     1     143.035 143.004  95.755  0.00  0.00    +0.087 C 
ATOM     25  C18 UNL     1     142.085 144.000  95.112  0.00  0.00    -0.031 C 
ATOM     26  C19 UNL     1     143.806 143.900  99.202  0.00  0.00    -0.019 A 
ATOM     27  C20 UNL     1     143.309 143.827 100.506  0.00  0.00    -0.049 A 
ATOM     28  C21 UNL     1     140.298 143.677 102.532  0.00  0.00    +0.016 A 
ATOM     29  C22 UNL     1     139.195 144.338 101.783  0.00  0.00    -0.031 C 
ATOM     30  S2  UNL     1     140.131 143.374 104.215  0.00  0.00    -0.057 S 
ATOM     31  C23 UNL     1     144.005 141.865 107.707  0.00  0.00    -0.025 A 
ATOM     32  H   UNL     1     143.231 141.964 105.319  0.00  0.00    +0.000 HD
ENDROOT
TORSDOF 0
ENDMDL
MODEL 8
REMARK VINA RESULT:    -4.710      6.915     10.569
REMARK INTER + INTRA:          -4.710
REMARK INTER:                  -4.710
REMARK INTRA:                   0.000
REMARK UNBOUND:                 0.000
REMARK  Name = /home/vital/Documents/PhD_2021/Malaria_codes/scripts/../data/pdbqt_ligands/ligand_447_temp.pdb
REMARK                            x       y       z     vdW  Elec       q    Type
REMARK                         _______ _______ _______ _____ _____    ______ ____
ROOT
ATOM      1  C1  UNL     1     133.278 120.804  90.271  0.00  0.00    -0.003 C 
ATOM      2  C2  UNL     1     133.210 122.127  89.647  0.00  0.00    -0.104 C 
ATOM      3  C3  UNL     1     133.153 123.209  89.128  0.00  0.00    -0.079 C 
ATOM      4  C4  UNL     1     133.084 124.536  88.508  0.00  0.00    +0.132 C 
ATOM      5  S1  UNL     1     133.323 124.422  86.741  0.00  0.00    +0.008 S 
ATOM      6  O1  UNL     1     133.508 125.772  86.233  0.00  0.00    -0.168 OA
ATOM      7  O2  UNL     1     132.301 123.566  86.165  0.00  0.00    -0.168 OA
ATOM      8  C5  UNL     1     134.891 123.597  86.541  0.00  0.00    +0.090 A 
ATOM      9  C6  UNL     1     134.920 122.216  86.321  0.00  0.00    -0.037 A 
ATOM     10  C7  UNL     1     136.143 121.578  86.124  0.00  0.00    -0.059 A 
ATOM     11  C8  UNL     1     137.327 122.319  86.139  0.00  0.00    -0.050 A 
ATOM     12  C9  UNL     1     137.299 123.706  86.353  0.00  0.00    +0.039 A 
ATOM     13  C10 UNL     1     138.595 124.448  86.335  0.00  0.00    +0.250 C 
ATOM     14  O3  UNL     1     139.500 124.001  85.643  0.00  0.00    -0.270 OA
ATOM     15  N1  UNL     1     138.637 125.555  87.151  0.00  0.00    -0.261 N 
ATOM     16  C11 UNL     1     139.685 126.424  87.311  0.00  0.00    +0.165 A 
ATOM     17  N2  UNL     1     139.610 127.398  88.186  0.00  0.00    -0.224 NA
ATOM     18  C12 UNL     1     140.787 128.131  88.173  0.00  0.00    +0.083 A 
ATOM     19  C13 UNL     1     140.950 129.260  89.077  0.00  0.00    +0.001 A 
ATOM     20  C14 UNL     1     142.096 129.407  89.867  0.00  0.00    -0.049 A 
ATOM     21  C15 UNL     1     142.229 130.497  90.739  0.00  0.00    -0.019 A 
ATOM     22  C16 UNL     1     141.213 131.446  90.835  0.00  0.00    +0.121 A 
ATOM     23  O4  UNL     1     141.212 132.555  91.633  0.00  0.00    -0.492 OA
ATOM     24  C17 UNL     1     142.271 132.733  92.572  0.00  0.00    +0.087 C 
ATOM     25  C18 UNL     1     143.426 133.494  91.942  0.00  0.00    -0.031 C 
ATOM     26  C19 UNL     1     140.065 131.296  90.054  0.00  0.00    -0.019 A 
ATOM     27  C20 UNL     1     139.929 130.208  89.186  0.00  0.00    -0.049 A 
ATOM     28  C21 UNL     1     141.722 127.725  87.234  0.00  0.00    +0.016 A 
ATOM     29  C22 UNL     1     143.055 128.282  86.876  0.00  0.00    -0.031 C 
ATOM     30  S2  UNL     1     141.118 126.347  86.405  0.00  0.00    -0.057 S 
ATOM     31  C23 UNL     1     136.070 124.353  86.538  0.00  0.00    -0.025 A 
ATOM     32  H   UNL     1     137.827 125.743  87.676  0.00  0.00    +0.000 HD
ENDROOT
TORSDOF 0
ENDMDL
MODEL 9
REMARK VINA RESULT:    -4.648      6.743     10.252
REMARK INTER + INTRA:          -4.648
REMARK INTER:                  -4.648
REMARK INTRA:                   0.000
REMARK UNBOUND:                 0.000
REMARK  Name = /home/vital/Documents/PhD_2021/Malaria_codes/scripts/../data/pdbqt_ligands/ligand_447_temp.pdb
REMARK                            x       y       z     vdW  Elec       q    Type
REMARK                         _______ _______ _______ _____ _____    ______ ____
ROOT
ATOM      1  C1  UNL     1     130.335 123.313  89.361  0.00  0.00    -0.003 C 
ATOM      2  C2  UNL     1     131.297 123.612  88.299  0.00  0.00    -0.104 C 
ATOM      3  C3  UNL     1     132.088 123.851  87.426  0.00  0.00    -0.079 C 
ATOM      4  C4  UNL     1     133.049 124.157  86.362  0.00  0.00    +0.132 C 
ATOM      5  S1  UNL     1     134.105 122.752  86.041  0.00  0.00    +0.008 S 
ATOM      6  O1  UNL     1     135.188 123.202  85.182  0.00  0.00    -0.168 OA
ATOM      7  O2  UNL     1     133.295 121.613  85.648  0.00  0.00    -0.168 OA
ATOM      8  C5  UNL     1     134.848 122.365  87.615  0.00  0.00    +0.090 A 
ATOM      9  C6  UNL     1     134.285 121.366  88.416  0.00  0.00    -0.037 A 
ATOM     10  C7  UNL     1     134.890 121.036  89.627  0.00  0.00    -0.059 A 
ATOM     11  C8  UNL     1     136.054 121.696  90.029  0.00  0.00    -0.050 A 
ATOM     12  C9  UNL     1     136.623 122.694  89.223  0.00  0.00    +0.039 A 
ATOM     13  C10 UNL     1     137.880 123.349  89.695  0.00  0.00    +0.250 C 
ATOM     14  O3  UNL     1     138.635 122.694  90.402  0.00  0.00    -0.270 OA
ATOM     15  N1  UNL     1     138.029 124.659  89.304  0.00  0.00    -0.261 N 
ATOM     16  C11 UNL     1     139.088 125.487  89.575  0.00  0.00    +0.165 A 
ATOM     17  N2  UNL     1     139.060 126.743  89.201  0.00  0.00    -0.224 NA
ATOM     18  C12 UNL     1     140.230 127.376  89.594  0.00  0.00    +0.083 A 
ATOM     19  C13 UNL     1     140.424 128.789  89.305  0.00  0.00    +0.001 A 
ATOM     20  C14 UNL     1     140.842 129.688  90.293  0.00  0.00    -0.049 A 
ATOM     21  C15 UNL     1     141.014 131.048  89.996  0.00  0.00    -0.019 A 
ATOM     22  C16 UNL     1     140.761 131.523  88.710  0.00  0.00    +0.121 A 
ATOM     23  O4  UNL     1     140.893 132.813  88.281  0.00  0.00    -0.492 OA
ATOM     24  C17 UNL     1     141.188 133.832  89.235  0.00  0.00    +0.087 C 
ATOM     25  C18 UNL     1     142.690 133.997  89.398  0.00  0.00    -0.031 C 
ATOM     26  C19 UNL     1     140.335 130.627  87.726  0.00  0.00    -0.019 A 
ATOM     27  C20 UNL     1     140.160 129.272  88.020  0.00  0.00    -0.049 A 
ATOM     28  C21 UNL     1     141.159 126.559  90.218  0.00  0.00    +0.016 A 
ATOM     29  C22 UNL     1     142.530 126.843  90.722  0.00  0.00    -0.031 C 
ATOM     30  S2  UNL     1     140.501 124.978  90.367  0.00  0.00    -0.057 S 
ATOM     31  C23 UNL     1     136.025 123.020  87.998  0.00  0.00    -0.025 A 
ATOM     32  H   UNL     1     137.297 125.044  88.772  0.00  0.00    +0.000 HD
ENDROOT
TORSDOF 0
ENDMDL
