MODEL 1
REMARK VINA RESULT:    -5.465      0.000      0.000
REMARK INTER + INTRA:          -5.465
REMARK INTER:                  -5.465
REMARK INTRA:                   0.000
REMARK UNBOUND:                 0.000
REMARK  Name = /home/vital/Documents/PhD_2021/Malaria_codes/scripts/../data/pdbqt_ligands/ligand_111_temp.pdb
REMARK                            x       y       z     vdW  Elec       q    Type
REMARK                         _______ _______ _______ _____ _____    ______ ____
ROOT
ATOM      1  C1  UNL     1     144.519 127.457 102.995  0.00  0.00    -0.063 C 
ATOM      2  C2  UNL     1     145.235 127.942 101.743  0.00  0.00    -0.026 C 
ATOM      3  C3  UNL     1     144.742 129.325 101.272  0.00  0.00    +0.118 C 
ATOM      4  C4  UNL     1     145.549 129.854 100.060  0.00  0.00    +0.240 C 
ATOM      5  O1  UNL     1     146.426 129.186  99.519  0.00  0.00    -0.273 OA
ATOM      6  N1  UNL     1     145.241 131.175  99.751  0.00  0.00    -0.284 N 
ATOM      7  C5  UNL     1     145.739 131.953  98.686  0.00  0.00    +0.037 A 
ATOM      8  C6  UNL     1     146.548 131.447  97.668  0.00  0.00    -0.040 A 
ATOM      9  C7  UNL     1     146.989 132.283  96.641  0.00  0.00    -0.057 A 
ATOM     10  C8  UNL     1     146.622 133.628  96.626  0.00  0.00    -0.020 A 
ATOM     11  C9  UNL     1     145.812 134.149  97.635  0.00  0.00    +0.122 A 
ATOM     12  O2  UNL     1     145.523 135.480  97.503  0.00  0.00    -0.495 OA
ATOM     13  C10 UNL     1     144.746 136.077  98.533  0.00  0.00    +0.079 C 
ATOM     14  C11 UNL     1     145.370 133.309  98.660  0.00  0.00    +0.001 A 
ATOM     15  N2  UNL     1     143.291 129.428 101.008  0.00  0.00    -0.248 N 
ATOM     16  C12 UNL     1     142.657 130.597 101.388  0.00  0.00    +0.330 A 
ATOM     17  O3  UNL     1     143.258 131.579 101.827  0.00  0.00    -0.246 OA
ATOM     18  N3  UNL     1     141.308 130.667 101.210  0.00  0.00    -0.307 N 
ATOM     19  C13 UNL     1     140.564 129.684 100.569  0.00  0.00    +0.056 A 
ATOM     20  C14 UNL     1     139.182 129.824 100.434  0.00  0.00    -0.038 A 
ATOM     21  C15 UNL     1     138.454 128.840  99.762  0.00  0.00    -0.060 A 
ATOM     22  C16 UNL     1     139.103 127.727  99.223  0.00  0.00    -0.061 A 
ATOM     23  C17 UNL     1     140.486 127.595  99.356  0.00  0.00    -0.047 A 
ATOM     24  C18 UNL     1     141.213 128.579 100.035  0.00  0.00    +0.063 A 
ATOM     25  C19 UNL     1     142.677 128.478 100.192  0.00  0.00    +0.265 A 
ATOM     26  O4  UNL     1     143.268 127.585  99.594  0.00  0.00    -0.267 OA
ATOM     27  H   UNL     1     144.598 131.621 100.349  0.00  0.00    +0.000 HD
ATOM     28  H   UNL     1     140.834 131.458 101.555  0.00  0.00    +0.000 HD
ENDROOT
TORSDOF 0
ENDMDL
MODEL 2
REMARK VINA RESULT:    -5.434      4.145      8.494
REMARK INTER + INTRA:          -5.434
REMARK INTER:                  -5.434
REMARK INTRA:                   0.000
REMARK UNBOUND:                 0.000
REMARK  Name = /home/vital/Documents/PhD_2021/Malaria_codes/scripts/../data/pdbqt_ligands/ligand_111_temp.pdb
REMARK                            x       y       z     vdW  Elec       q    Type
REMARK                         _______ _______ _______ _____ _____    ______ ____
ROOT
ATOM      1  C1  UNL     1     144.522 128.925 100.525  0.00  0.00    -0.063 C 
ATOM      2  C2  UNL     1     143.885 128.649 101.879  0.00  0.00    -0.026 C 
ATOM      3  C3  UNL     1     143.117 127.313 101.916  0.00  0.00    +0.118 C 
ATOM      4  C4  UNL     1     142.562 126.993 103.327  0.00  0.00    +0.240 C 
ATOM      5  O1  UNL     1     142.679 127.777 104.266  0.00  0.00    -0.273 OA
ATOM      6  N1  UNL     1     142.038 125.708 103.414  0.00  0.00    -0.284 N 
ATOM      7  C5  UNL     1     141.405 125.106 104.521  0.00  0.00    +0.037 A 
ATOM      8  C6  UNL     1     141.083 125.786 105.696  0.00  0.00    -0.040 A 
ATOM      9  C7  UNL     1     140.444 125.118 106.742  0.00  0.00    -0.057 A 
ATOM     10  C8  UNL     1     140.123 123.767 106.617  0.00  0.00    -0.020 A 
ATOM     11  C9  UNL     1     140.436 123.073 105.448  0.00  0.00    +0.122 A 
ATOM     12  O2  UNL     1     140.066 121.755 105.452  0.00  0.00    -0.495 OA
ATOM     13  C10 UNL     1     140.409 120.985 104.308  0.00  0.00    +0.079 C 
ATOM     14  C11 UNL     1     141.074 123.745 104.403  0.00  0.00    +0.001 A 
ATOM     15  N2  UNL     1     142.056 127.159 100.899  0.00  0.00    -0.248 N 
ATOM     16  C12 UNL     1     141.913 125.916 100.311  0.00  0.00    +0.330 A 
ATOM     17  O3  UNL     1     142.548 124.922 100.671  0.00  0.00    -0.246 OA
ATOM     18  N3  UNL     1     140.983 125.789  99.324  0.00  0.00    -0.307 N 
ATOM     19  C13 UNL     1     140.102 126.802  98.963  0.00  0.00    +0.056 A 
ATOM     20  C14 UNL     1     139.183 126.599  97.933  0.00  0.00    -0.038 A 
ATOM     21  C15 UNL     1     138.286 127.617  97.601  0.00  0.00    -0.060 A 
ATOM     22  C16 UNL     1     138.304 128.827  98.299  0.00  0.00    -0.061 A 
ATOM     23  C17 UNL     1     139.222 129.022  99.332  0.00  0.00    -0.047 A 
ATOM     24  C18 UNL     1     140.123 128.003  99.658  0.00  0.00    +0.063 A 
ATOM     25  C19 UNL     1     141.106 128.169 100.747  0.00  0.00    +0.265 A 
ATOM     26  O4  UNL     1     141.026 129.165 101.458  0.00  0.00    -0.267 OA
ATOM     27  H   UNL     1     142.119 125.151 102.606  0.00  0.00    +0.000 HD
ATOM     28  H   UNL     1     140.932 124.933  98.840  0.00  0.00    +0.000 HD
ENDROOT
TORSDOF 0
ENDMDL
MODEL 3
REMARK VINA RESULT:    -5.402      3.848      7.194
REMARK INTER + INTRA:          -5.402
REMARK INTER:                  -5.402
REMARK INTRA:                   0.000
REMARK UNBOUND:                 0.000
REMARK  Name = /home/vital/Documents/PhD_2021/Malaria_codes/scripts/../data/pdbqt_ligands/ligand_111_temp.pdb
REMARK                            x       y       z     vdW  Elec       q    Type
REMARK                         _______ _______ _______ _____ _____    ______ ____
ROOT
ATOM      1  C1  UNL     1     138.360 128.635 101.034  0.00  0.00    -0.063 C 
ATOM      2  C2  UNL     1     138.411 128.547  99.515  0.00  0.00    -0.026 C 
ATOM      3  C3  UNL     1     139.664 127.811  99.001  0.00  0.00    +0.118 C 
ATOM      4  C4  UNL     1     139.653 127.636  97.462  0.00  0.00    +0.240 C 
ATOM      5  O1  UNL     1     138.763 128.108  96.759  0.00  0.00    -0.273 OA
ATOM      6  N1  UNL     1     140.678 126.810  97.013  0.00  0.00    -0.284 N 
ATOM      7  C5  UNL     1     140.999 126.478  95.681  0.00  0.00    +0.037 A 
ATOM      8  C6  UNL     1     140.391 127.058  94.567  0.00  0.00    -0.040 A 
ATOM      9  C7  UNL     1     140.777 126.682  93.280  0.00  0.00    -0.057 A 
ATOM     10  C8  UNL     1     141.774 125.725  93.100  0.00  0.00    -0.020 A 
ATOM     11  C9  UNL     1     142.395 125.137  94.202  0.00  0.00    +0.122 A 
ATOM     12  O2  UNL     1     143.356 124.215  93.889  0.00  0.00    -0.495 OA
ATOM     13  C10 UNL     1     143.984 123.544  94.973  0.00  0.00    +0.079 C 
ATOM     14  C11 UNL     1     142.007 125.517  95.489  0.00  0.00    +0.001 A 
ATOM     15  N2  UNL     1     140.958 128.371  99.446  0.00  0.00    -0.248 N 
ATOM     16  C12 UNL     1     141.961 127.475  99.770  0.00  0.00    +0.330 A 
ATOM     17  O3  UNL     1     141.859 126.258  99.602  0.00  0.00    -0.246 OA
ATOM     18  N3  UNL     1     143.131 127.985 100.246  0.00  0.00    -0.307 N 
ATOM     19  C13 UNL     1     143.406 129.346 100.312  0.00  0.00    +0.056 A 
ATOM     20  C14 UNL     1     144.626 129.792 100.823  0.00  0.00    -0.038 A 
ATOM     21  C15 UNL     1     144.898 131.161 100.857  0.00  0.00    -0.060 A 
ATOM     22  C16 UNL     1     143.959 132.078 100.377  0.00  0.00    -0.061 A 
ATOM     23  C17 UNL     1     142.743 131.626  99.863  0.00  0.00    -0.047 A 
ATOM     24  C18 UNL     1     142.471 130.254  99.835  0.00  0.00    +0.063 A 
ATOM     25  C19 UNL     1     141.199 129.736  99.295  0.00  0.00    +0.265 A 
ATOM     26  O4  UNL     1     140.440 130.521  98.738  0.00  0.00    -0.267 OA
ATOM     27  H   UNL     1     141.247 126.409  97.708  0.00  0.00    +0.000 HD
ATOM     28  H   UNL     1     143.819 127.355 100.560  0.00  0.00    +0.000 HD
ENDROOT
TORSDOF 0
ENDMDL
MODEL 4
REMARK VINA RESULT:    -5.198      2.561      4.562
REMARK INTER + INTRA:          -5.198
REMARK INTER:                  -5.198
REMARK INTRA:                   0.000
REMARK UNBOUND:                 0.000
REMARK  Name = /home/vital/Documents/PhD_2021/Malaria_codes/scripts/../data/pdbqt_ligands/ligand_111_temp.pdb
REMARK                            x       y       z     vdW  Elec       q    Type
REMARK                         _______ _______ _______ _____ _____    ______ ____
ROOT
ATOM      1  C1  UNL     1     138.336 128.664 100.574  0.00  0.00    -0.063 C 
ATOM      2  C2  UNL     1     139.274 129.862 100.567  0.00  0.00    -0.026 C 
ATOM      3  C3  UNL     1     140.320 129.796  99.437  0.00  0.00    +0.118 C 
ATOM      4  C4  UNL     1     141.201 131.069  99.376  0.00  0.00    +0.240 C 
ATOM      5  O1  UNL     1     141.095 131.975 100.198  0.00  0.00    -0.273 OA
ATOM      6  N1  UNL     1     142.013 131.101  98.246  0.00  0.00    -0.284 N 
ATOM      7  C5  UNL     1     142.972 132.074  97.900  0.00  0.00    +0.037 A 
ATOM      8  C6  UNL     1     143.355 133.121  98.738  0.00  0.00    -0.040 A 
ATOM      9  C7  UNL     1     144.324 134.036  98.323  0.00  0.00    -0.057 A 
ATOM     10  C8  UNL     1     144.915 133.907  97.067  0.00  0.00    -0.020 A 
ATOM     11  C9  UNL     1     144.546 132.865  96.217  0.00  0.00    +0.122 A 
ATOM     12  O2  UNL     1     145.201 132.850  95.016  0.00  0.00    -0.495 OA
ATOM     13  C10 UNL     1     144.826 131.841  94.088  0.00  0.00    +0.079 C 
ATOM     14  C11 UNL     1     143.577 131.950  96.637  0.00  0.00    +0.001 A 
ATOM     15  N2  UNL     1     141.166 128.584  99.422  0.00  0.00    -0.248 N 
ATOM     16  C12 UNL     1     141.472 128.036  98.189  0.00  0.00    +0.330 A 
ATOM     17  O3  UNL     1     141.167 128.568  97.120  0.00  0.00    -0.246 OA
ATOM     18  N3  UNL     1     142.193 126.880  98.176  0.00  0.00    -0.307 N 
ATOM     19  C13 UNL     1     142.729 126.294  99.316  0.00  0.00    +0.056 A 
ATOM     20  C14 UNL     1     143.448 125.103  99.222  0.00  0.00    -0.038 A 
ATOM     21  C15 UNL     1     144.004 124.542 100.375  0.00  0.00    -0.060 A 
ATOM     22  C16 UNL     1     143.847 125.172 101.611  0.00  0.00    -0.061 A 
ATOM     23  C17 UNL     1     143.130 126.366 101.699  0.00  0.00    -0.047 A 
ATOM     24  C18 UNL     1     142.570 126.923 100.544  0.00  0.00    +0.063 A 
ATOM     25  C19 UNL     1     141.810 128.187 100.594  0.00  0.00    +0.265 A 
ATOM     26  O4  UNL     1     141.798 128.819 101.645  0.00  0.00    -0.267 OA
ATOM     27  H   UNL     1     141.904 130.355  97.613  0.00  0.00    +0.000 HD
ATOM     28  H   UNL     1     142.343 126.436  97.310  0.00  0.00    +0.000 HD
ENDROOT
TORSDOF 0
ENDMDL
MODEL 5
REMARK VINA RESULT:    -5.079      4.140      8.369
REMARK INTER + INTRA:          -5.079
REMARK INTER:                  -5.079
REMARK INTRA:                   0.000
REMARK UNBOUND:                 0.000
REMARK  Name = /home/vital/Documents/PhD_2021/Malaria_codes/scripts/../data/pdbqt_ligands/ligand_111_temp.pdb
REMARK                            x       y       z     vdW  Elec       q    Type
REMARK                         _______ _______ _______ _____ _____    ______ ____
ROOT
ATOM      1  C1  UNL     1     145.464 126.742 100.206  0.00  0.00    -0.063 C 
ATOM      2  C2  UNL     1     145.107 126.650 101.683  0.00  0.00    -0.026 C 
ATOM      3  C3  UNL     1     143.648 126.212 101.918  0.00  0.00    +0.118 C 
ATOM      4  C4  UNL     1     143.327 126.021 103.421  0.00  0.00    +0.240 C 
ATOM      5  O1  UNL     1     144.149 126.271 104.300  0.00  0.00    -0.273 OA
ATOM      6  N1  UNL     1     142.078 125.445 103.630  0.00  0.00    -0.284 N 
ATOM      7  C5  UNL     1     141.444 125.179 104.861  0.00  0.00    +0.037 A 
ATOM      8  C6  UNL     1     141.943 125.593 106.097  0.00  0.00    -0.040 A 
ATOM      9  C7  UNL     1     141.245 125.299 107.270  0.00  0.00    -0.057 A 
ATOM     10  C8  UNL     1     140.045 124.592 107.212  0.00  0.00    -0.020 A 
ATOM     11  C9  UNL     1     139.532 124.173 105.985  0.00  0.00    +0.122 A 
ATOM     12  O2  UNL     1     138.348 123.491 106.066  0.00  0.00    -0.495 OA
ATOM     13  C10 UNL     1     137.806 122.993 104.850  0.00  0.00    +0.079 C 
ATOM     14  C11 UNL     1     140.232 124.471 104.813  0.00  0.00    +0.001 A 
ATOM     15  N2  UNL     1     142.619 127.057 101.276  0.00  0.00    -0.248 N 
ATOM     16  C12 UNL     1     141.523 126.417 100.725  0.00  0.00    +0.330 A 
ATOM     17  O3  UNL     1     141.319 125.206 100.843  0.00  0.00    -0.246 OA
ATOM     18  N3  UNL     1     140.607 127.185 100.072  0.00  0.00    -0.307 N 
ATOM     19  C13 UNL     1     140.657 128.573 100.031  0.00  0.00    +0.056 A 
ATOM     20  C14 UNL     1     139.687 129.291  99.331  0.00  0.00    -0.038 A 
ATOM     21  C15 UNL     1     139.736 130.687  99.323  0.00  0.00    -0.060 A 
ATOM     22  C16 UNL     1     140.745 131.360 100.015  0.00  0.00    -0.061 A 
ATOM     23  C17 UNL     1     141.711 130.638 100.718  0.00  0.00    -0.047 A 
ATOM     24  C18 UNL     1     141.662 129.239 100.720  0.00  0.00    +0.063 A 
ATOM     25  C19 UNL     1     142.662 128.439 101.454  0.00  0.00    +0.265 A 
ATOM     26  O4  UNL     1     143.456 129.025 102.183  0.00  0.00    -0.267 OA
ATOM     27  H   UNL     1     141.577 125.192 102.822  0.00  0.00    +0.000 HD
ATOM     28  H   UNL     1     139.869 126.732  99.604  0.00  0.00    +0.000 HD
ENDROOT
TORSDOF 0
ENDMDL
MODEL 6
REMARK VINA RESULT:    -5.002      4.368      5.550
REMARK INTER + INTRA:          -5.002
REMARK INTER:                  -5.002
REMARK INTRA:                   0.000
REMARK UNBOUND:                 0.000
REMARK  Name = /home/vital/Documents/PhD_2021/Malaria_codes/scripts/../data/pdbqt_ligands/ligand_111_temp.pdb
REMARK                            x       y       z     vdW  Elec       q    Type
REMARK                         _______ _______ _______ _____ _____    ______ ____
ROOT
ATOM      1  C1  UNL     1     142.297 124.484  99.200  0.00  0.00    -0.063 C 
ATOM      2  C2  UNL     1     141.795 124.788  97.795  0.00  0.00    -0.026 C 
ATOM      3  C3  UNL     1     142.128 126.222  97.340  0.00  0.00    +0.118 C 
ATOM      4  C4  UNL     1     141.705 126.486  95.873  0.00  0.00    +0.240 C 
ATOM      5  O1  UNL     1     141.108 125.644  95.206  0.00  0.00    -0.273 OA
ATOM      6  N1  UNL     1     142.172 127.706  95.395  0.00  0.00    -0.284 N 
ATOM      7  C5  UNL     1     141.932 128.288  94.134  0.00  0.00    +0.037 A 
ATOM      8  C6  UNL     1     141.047 127.764  93.191  0.00  0.00    -0.040 A 
ATOM      9  C7  UNL     1     140.857 128.411  91.969  0.00  0.00    -0.057 A 
ATOM     10  C8  UNL     1     141.550 129.587  91.684  0.00  0.00    -0.020 A 
ATOM     11  C9  UNL     1     142.437 130.126  92.616  0.00  0.00    +0.122 A 
ATOM     12  O2  UNL     1     143.051 131.281  92.216  0.00  0.00    -0.495 OA
ATOM     13  C10 UNL     1     144.006 131.847  93.104  0.00  0.00    +0.079 C 
ATOM     14  C11 UNL     1     142.623 129.477  93.840  0.00  0.00    +0.001 A 
ATOM     15  N2  UNL     1     141.632 127.301  98.219  0.00  0.00    -0.248 N 
ATOM     16  C12 UNL     1     142.460 128.392  98.417  0.00  0.00    +0.330 A 
ATOM     17  O3  UNL     1     143.525 128.549  97.816  0.00  0.00    -0.246 OA
ATOM     18  N3  UNL     1     142.036 129.355  99.282  0.00  0.00    -0.307 N 
ATOM     19  C13 UNL     1     140.781 129.355  99.879  0.00  0.00    +0.056 A 
ATOM     20  C14 UNL     1     140.423 130.373 100.764  0.00  0.00    -0.038 A 
ATOM     21  C15 UNL     1     139.148 130.373 101.333  0.00  0.00    -0.060 A 
ATOM     22  C16 UNL     1     138.235 129.365 101.015  0.00  0.00    -0.061 A 
ATOM     23  C17 UNL     1     138.596 128.352 100.125  0.00  0.00    -0.047 A 
ATOM     24  C18 UNL     1     139.876 128.351  99.561  0.00  0.00    +0.063 A 
ATOM     25  C19 UNL     1     140.294 127.301  98.612  0.00  0.00    +0.265 A 
ATOM     26  O4  UNL     1     139.451 126.504  98.216  0.00  0.00    -0.267 OA
ATOM     27  H   UNL     1     142.738 128.224  96.011  0.00  0.00    +0.000 HD
ATOM     28  H   UNL     1     142.653 130.092  99.496  0.00  0.00    +0.000 HD
ENDROOT
TORSDOF 0
ENDMDL
MODEL 7
REMARK VINA RESULT:    -4.903      3.850      5.014
REMARK INTER + INTRA:          -4.903
REMARK INTER:                  -4.903
REMARK INTRA:                   0.000
REMARK UNBOUND:                 0.000
REMARK  Name = /home/vital/Documents/PhD_2021/Malaria_codes/scripts/../data/pdbqt_ligands/ligand_111_temp.pdb
REMARK                            x       y       z     vdW  Elec       q    Type
REMARK                         _______ _______ _______ _____ _____    ______ ____
ROOT
ATOM      1  C1  UNL     1     141.354 124.627  95.854  0.00  0.00    -0.063 C 
ATOM      2  C2  UNL     1     141.310 125.841  94.936  0.00  0.00    -0.026 C 
ATOM      3  C3  UNL     1     142.085 127.046  95.503  0.00  0.00    +0.118 C 
ATOM      4  C4  UNL     1     142.121 128.239  94.516  0.00  0.00    +0.240 C 
ATOM      5  O1  UNL     1     141.526 128.214  93.441  0.00  0.00    -0.273 OA
ATOM      6  N1  UNL     1     142.975 129.254  94.936  0.00  0.00    -0.284 N 
ATOM      7  C5  UNL     1     143.208 130.498  94.317  0.00  0.00    +0.037 A 
ATOM      8  C6  UNL     1     142.490 130.966  93.217  0.00  0.00    -0.040 A 
ATOM      9  C7  UNL     1     142.776 132.218  92.671  0.00  0.00    -0.057 A 
ATOM     10  C8  UNL     1     143.782 133.010  93.224  0.00  0.00    -0.020 A 
ATOM     11  C9  UNL     1     144.509 132.559  94.326  0.00  0.00    +0.122 A 
ATOM     12  O2  UNL     1     145.465 133.429  94.772  0.00  0.00    -0.495 OA
ATOM     13  C10 UNL     1     146.273 132.999  95.860  0.00  0.00    +0.079 C 
ATOM     14  C11 UNL     1     144.218 131.305  94.871  0.00  0.00    +0.001 A 
ATOM     15  N2  UNL     1     141.661 127.502  96.844  0.00  0.00    -0.248 N 
ATOM     16  C12 UNL     1     142.651 127.904  97.723  0.00  0.00    +0.330 A 
ATOM     17  O3  UNL     1     143.838 128.000  97.404  0.00  0.00    -0.246 OA
ATOM     18  N3  UNL     1     142.269 128.258  98.982  0.00  0.00    -0.307 N 
ATOM     19  C13 UNL     1     140.943 128.346  99.387  0.00  0.00    +0.056 A 
ATOM     20  C14 UNL     1     140.632 128.706 100.699  0.00  0.00    -0.038 A 
ATOM     21  C15 UNL     1     139.293 128.818 101.083  0.00  0.00    -0.060 A 
ATOM     22  C16 UNL     1     138.274 128.577 100.160  0.00  0.00    -0.061 A 
ATOM     23  C17 UNL     1     138.590 128.222  98.848  0.00  0.00    -0.047 A 
ATOM     24  C18 UNL     1     139.932 128.105  98.467  0.00  0.00    +0.063 A 
ATOM     25  C19 UNL     1     140.308 127.737  97.088  0.00  0.00    +0.265 A 
ATOM     26  O4  UNL     1     139.424 127.673  96.240  0.00  0.00    -0.267 OA
ATOM     27  H   UNL     1     143.476 129.082  95.766  0.00  0.00    +0.000 HD
ATOM     28  H   UNL     1     142.972 128.463  99.640  0.00  0.00    +0.000 HD
ENDROOT
TORSDOF 0
ENDMDL
MODEL 8
REMARK VINA RESULT:    -4.821      2.668      6.327
REMARK INTER + INTRA:          -4.821
REMARK INTER:                  -4.821
REMARK INTRA:                   0.000
REMARK UNBOUND:                 0.000
REMARK  Name = /home/vital/Documents/PhD_2021/Malaria_codes/scripts/../data/pdbqt_ligands/ligand_111_temp.pdb
REMARK                            x       y       z     vdW  Elec       q    Type
REMARK                         _______ _______ _______ _____ _____    ______ ____
ROOT
ATOM      1  C1  UNL     1     144.998 131.069  98.158  0.00  0.00    -0.063 C 
ATOM      2  C2  UNL     1     145.538 131.157  99.579  0.00  0.00    -0.026 C 
ATOM      3  C3  UNL     1     145.334 129.854 100.376  0.00  0.00    +0.118 C 
ATOM      4  C4  UNL     1     145.979 129.919 101.783  0.00  0.00    +0.240 C 
ATOM      5  O1  UNL     1     146.520 130.938 102.205  0.00  0.00    -0.273 OA
ATOM      6  N1  UNL     1     145.967 128.689 102.432  0.00  0.00    -0.284 N 
ATOM      7  C5  UNL     1     146.417 128.396 103.736  0.00  0.00    +0.037 A 
ATOM      8  C6  UNL     1     146.835 129.363 104.649  0.00  0.00    -0.040 A 
ATOM      9  C7  UNL     1     147.254 128.989 105.927  0.00  0.00    -0.057 A 
ATOM     10  C8  UNL     1     147.254 127.645 106.298  0.00  0.00    -0.020 A 
ATOM     11  C9  UNL     1     146.836 126.665 105.398  0.00  0.00    +0.122 A 
ATOM     12  O2  UNL     1     146.883 125.387 105.885  0.00  0.00    -0.495 OA
ATOM     13  C10 UNL     1     146.520 124.342 104.993  0.00  0.00    +0.079 C 
ATOM     14  C11 UNL     1     146.416 127.044 104.120  0.00  0.00    +0.001 A 
ATOM     15  N2  UNL     1     143.938 129.378 100.473  0.00  0.00    -0.248 N 
ATOM     16  C12 UNL     1     143.723 128.014 100.383  0.00  0.00    +0.330 A 
ATOM     17  O3  UNL     1     144.637 127.188 100.339  0.00  0.00    -0.246 OA
ATOM     18  N3  UNL     1     142.432 127.578 100.402  0.00  0.00    -0.307 N 
ATOM     19  C13 UNL     1     141.342 128.412 100.619  0.00  0.00    +0.056 A 
ATOM     20  C14 UNL     1     140.047 127.891 100.613  0.00  0.00    -0.038 A 
ATOM     21  C15 UNL     1     138.964 128.737 100.861  0.00  0.00    -0.060 A 
ATOM     22  C16 UNL     1     139.175 130.093 101.119  0.00  0.00    -0.061 A 
ATOM     23  C17 UNL     1     140.472 130.608 101.129  0.00  0.00    -0.047 A 
ATOM     24  C18 UNL     1     141.555 129.759 100.875  0.00  0.00    +0.063 A 
ATOM     25  C19 UNL     1     142.942 130.264 100.881  0.00  0.00    +0.265 A 
ATOM     26  O4  UNL     1     143.141 131.415 101.254  0.00  0.00    -0.267 OA
ATOM     27  H   UNL     1     145.602 127.932 101.920  0.00  0.00    +0.000 HD
ATOM     28  H   UNL     1     142.263 126.620 100.253  0.00  0.00    +0.000 HD
ENDROOT
TORSDOF 0
ENDMDL
MODEL 9
REMARK VINA RESULT:    -4.819      3.586      4.038
REMARK INTER + INTRA:          -4.819
REMARK INTER:                  -4.819
REMARK INTRA:                   0.000
REMARK UNBOUND:                 0.000
REMARK  Name = /home/vital/Documents/PhD_2021/Malaria_codes/scripts/../data/pdbqt_ligands/ligand_111_temp.pdb
REMARK                            x       y       z     vdW  Elec       q    Type
REMARK                         _______ _______ _______ _____ _____    ______ ____
ROOT
ATOM      1  C1  UNL     1     145.412 131.505 101.064  0.00  0.00    -0.063 C 
ATOM      2  C2  UNL     1     145.681 130.803  99.740  0.00  0.00    -0.026 C 
ATOM      3  C3  UNL     1     144.595 131.087  98.683  0.00  0.00    +0.118 C 
ATOM      4  C4  UNL     1     144.932 130.453  97.310  0.00  0.00    +0.240 C 
ATOM      5  O1  UNL     1     145.926 129.751  97.143  0.00  0.00    -0.273 OA
ATOM      6  N1  UNL     1     144.060 130.863  96.306  0.00  0.00    -0.284 N 
ATOM      7  C5  UNL     1     144.037 130.446  94.960  0.00  0.00    +0.037 A 
ATOM      8  C6  UNL     1     144.836 129.423  94.449  0.00  0.00    -0.040 A 
ATOM      9  C7  UNL     1     144.741 129.063  93.104  0.00  0.00    -0.057 A 
ATOM     10  C8  UNL     1     143.846 129.724  92.263  0.00  0.00    -0.020 A 
ATOM     11  C9  UNL     1     143.039 130.748  92.758  0.00  0.00    +0.122 A 
ATOM     12  O2  UNL     1     142.204 131.313  91.833  0.00  0.00    -0.495 OA
ATOM     13  C10 UNL     1     141.397 132.398  92.269  0.00  0.00    +0.079 C 
ATOM     14  C11 UNL     1     143.134 131.104  94.106  0.00  0.00    +0.001 A 
ATOM     15  N2  UNL     1     143.214 130.744  99.082  0.00  0.00    -0.248 N 
ATOM     16  C12 UNL     1     142.206 131.609  98.693  0.00  0.00    +0.330 A 
ATOM     17  O3  UNL     1     142.395 132.574  97.949  0.00  0.00    -0.246 OA
ATOM     18  N3  UNL     1     140.941 131.334  99.118  0.00  0.00    -0.307 N 
ATOM     19  C13 UNL     1     140.598 130.181  99.815  0.00  0.00    +0.056 A 
ATOM     20  C14 UNL     1     139.280 129.975 100.226  0.00  0.00    -0.038 A 
ATOM     21  C15 UNL     1     138.947 128.799 100.901  0.00  0.00    -0.060 A 
ATOM     22  C16 UNL     1     139.922 127.833 101.158  0.00  0.00    -0.061 A 
ATOM     23  C17 UNL     1     141.237 128.042 100.741  0.00  0.00    -0.047 A 
ATOM     24  C18 UNL     1     141.570 129.224 100.069  0.00  0.00    +0.063 A 
ATOM     25  C19 UNL     1     142.948 129.480  99.607  0.00  0.00    +0.265 A 
ATOM     26  O4  UNL     1     143.771 128.574  99.696  0.00  0.00    -0.267 OA
ATOM     27  H   UNL     1     143.378 131.522  96.568  0.00  0.00    +0.000 HD
ATOM     28  H   UNL     1     140.232 131.987  98.920  0.00  0.00    +0.000 HD
ENDROOT
TORSDOF 0
ENDMDL
