MODEL 1
REMARK VINA RESULT:    -4.962      0.000      0.000
REMARK INTER + INTRA:          -4.962
REMARK INTER:                  -4.962
REMARK INTRA:                   0.000
REMARK UNBOUND:                 0.000
REMARK  Name = /home/vital/Documents/PhD_2021/Malaria_codes/scripts/../data/pdbqt_ligands/ligand_204_temp.pdb
REMARK                            x       y       z     vdW  Elec       q    Type
REMARK                         _______ _______ _______ _____ _____    ______ ____
ROOT
ATOM      1  C1  UNL     1     142.012 133.182  99.163  0.00  0.00    +0.080 C 
ATOM      2  O1  UNL     1     141.473 131.899  99.458  0.00  0.00    -0.479 OA
ATOM      3  C2  UNL     1     142.191 131.198 100.414  0.00  0.00    +0.226 A 
ATOM      4  N1  UNL     1     143.266 131.792 100.971  0.00  0.00    -0.201 NA
ATOM      5  C3  UNL     1     143.916 131.064 101.882  0.00  0.00    +0.120 A 
ATOM      6  N2  UNL     1     143.593 129.828 102.281  0.00  0.00    -0.240 NA
ATOM      7  C4  UNL     1     142.505 129.266 101.701  0.00  0.00    +0.053 A 
ATOM      8  C5  UNL     1     142.164 127.881 102.176  0.00  0.00    -0.022 C 
ATOM      9  C6  UNL     1     141.742 129.918 100.732  0.00  0.00    +0.065 A 
ATOM     10  C7  UNL     1     140.562 129.313 100.100  0.00  0.00    -0.011 A 
ATOM     11  C8  UNL     1     139.268 129.702 100.482  0.00  0.00    -0.051 A 
ATOM     12  C9  UNL     1     138.147 129.129  99.881  0.00  0.00    -0.026 A 
ATOM     13  C10 UNL     1     138.314 128.159  98.898  0.00  0.00    +0.129 A 
ATOM     14  F1  UNL     1     137.225 127.629  98.322  0.00  0.00    -0.205 F 
ATOM     15  C11 UNL     1     139.584 127.736  98.499  0.00  0.00    +0.014 A 
ATOM     16  C12 UNL     1     139.709 126.711  97.408  0.00  0.00    +0.072 C 
ATOM     17  O2  UNL     1     140.963 126.042  97.472  0.00  0.00    -0.390 OA
ATOM     18  C13 UNL     1     140.703 128.335  99.100  0.00  0.00    -0.046 A 
ATOM     19  H   UNL     1     141.680 126.686  97.361  0.00  0.00    +0.000 HD
ENDROOT
TORSDOF 0
ENDMDL
MODEL 2
REMARK VINA RESULT:    -4.943      3.348      5.760
REMARK INTER + INTRA:          -4.943
REMARK INTER:                  -4.943
REMARK INTRA:                   0.000
REMARK UNBOUND:                 0.000
REMARK  Name = /home/vital/Documents/PhD_2021/Malaria_codes/scripts/../data/pdbqt_ligands/ligand_204_temp.pdb
REMARK                            x       y       z     vdW  Elec       q    Type
REMARK                         _______ _______ _______ _____ _____    ______ ____
ROOT
ATOM      1  C1  UNL     1     141.319 127.460  96.032  0.00  0.00    +0.080 C 
ATOM      2  O1  UNL     1     141.460 128.329  97.150  0.00  0.00    -0.479 OA
ATOM      3  C2  UNL     1     140.354 128.347  97.986  0.00  0.00    +0.226 A 
ATOM      4  N1  UNL     1     139.310 127.546  97.686  0.00  0.00    -0.201 NA
ATOM      5  C3  UNL     1     138.276 127.612  98.527  0.00  0.00    +0.120 A 
ATOM      6  N2  UNL     1     138.194 128.384  99.618  0.00  0.00    -0.240 NA
ATOM      7  C4  UNL     1     139.263 129.172  99.888  0.00  0.00    +0.053 A 
ATOM      8  C5  UNL     1     139.143 130.020 101.124  0.00  0.00    -0.022 C 
ATOM      9  C6  UNL     1     140.404 129.201  99.086  0.00  0.00    +0.065 A 
ATOM     10  C7  UNL     1     141.565 130.053  99.374  0.00  0.00    -0.011 A 
ATOM     11  C8  UNL     1     142.733 129.507  99.930  0.00  0.00    -0.051 A 
ATOM     12  C9  UNL     1     143.835 130.316 100.202  0.00  0.00    -0.026 A 
ATOM     13  C10 UNL     1     143.775 131.678  99.925  0.00  0.00    +0.129 A 
ATOM     14  F1  UNL     1     144.851 132.438 100.181  0.00  0.00    -0.205 F 
ATOM     15  C11 UNL     1     142.628 132.262  99.383  0.00  0.00    +0.014 A 
ATOM     16  C12 UNL     1     142.628 133.730  99.069  0.00  0.00    +0.072 C 
ATOM     17  O2  UNL     1     141.302 134.244  99.016  0.00  0.00    -0.390 OA
ATOM     18  C13 UNL     1     141.532 131.432  99.097  0.00  0.00    -0.046 A 
ATOM     19  H   UNL     1     140.806 133.790  98.318  0.00  0.00    +0.000 HD
ENDROOT
TORSDOF 0
ENDMDL
MODEL 3
REMARK VINA RESULT:    -4.688      3.471      5.893
REMARK INTER + INTRA:          -4.688
REMARK INTER:                  -4.688
REMARK INTRA:                   0.000
REMARK UNBOUND:                 0.000
REMARK  Name = /home/vital/Documents/PhD_2021/Malaria_codes/scripts/../data/pdbqt_ligands/ligand_204_temp.pdb
REMARK                            x       y       z     vdW  Elec       q    Type
REMARK                         _______ _______ _______ _____ _____    ______ ____
ROOT
ATOM      1  C1  UNL     1     141.372 125.003  97.809  0.00  0.00    +0.080 C 
ATOM      2  O1  UNL     1     141.287 125.915  98.898  0.00  0.00    -0.479 OA
ATOM      3  C2  UNL     1     140.146 126.702  98.880  0.00  0.00    +0.226 A 
ATOM      4  N1  UNL     1     139.251 126.510  97.890  0.00  0.00    -0.201 NA
ATOM      5  C3  UNL     1     138.176 127.301  97.926  0.00  0.00    +0.120 A 
ATOM      6  N2  UNL     1     137.919 128.241  98.843  0.00  0.00    -0.240 NA
ATOM      7  C4  UNL     1     138.840 128.402  99.824  0.00  0.00    +0.053 A 
ATOM      8  C5  UNL     1     138.519 129.460 100.843  0.00  0.00    -0.022 C 
ATOM      9  C6  UNL     1     140.009 127.644  99.897  0.00  0.00    +0.065 A 
ATOM     10  C7  UNL     1     141.011 127.815 100.958  0.00  0.00    -0.011 A 
ATOM     11  C8  UNL     1     141.094 126.899 102.018  0.00  0.00    -0.051 A 
ATOM     12  C9  UNL     1     142.046 127.062 103.024  0.00  0.00    -0.026 A 
ATOM     13  C10 UNL     1     142.918 128.145 102.978  0.00  0.00    +0.129 A 
ATOM     14  F1  UNL     1     143.836 128.276 103.948  0.00  0.00    -0.205 F 
ATOM     15  C11 UNL     1     142.859 129.085 101.947  0.00  0.00    +0.014 A 
ATOM     16  C12 UNL     1     143.846 130.217 101.927  0.00  0.00    +0.072 C 
ATOM     17  O2  UNL     1     143.359 131.310 101.157  0.00  0.00    -0.390 OA
ATOM     18  C13 UNL     1     141.907 128.899 100.932  0.00  0.00    -0.046 A 
ATOM     19  H   UNL     1     143.214 131.023 100.242  0.00  0.00    +0.000 HD
ENDROOT
TORSDOF 0
ENDMDL
MODEL 4
REMARK VINA RESULT:    -4.648      1.487      1.868
REMARK INTER + INTRA:          -4.648
REMARK INTER:                  -4.648
REMARK INTRA:                   0.000
REMARK UNBOUND:                 0.000
REMARK  Name = /home/vital/Documents/PhD_2021/Malaria_codes/scripts/../data/pdbqt_ligands/ligand_204_temp.pdb
REMARK                            x       y       z     vdW  Elec       q    Type
REMARK                         _______ _______ _______ _____ _____    ______ ____
ROOT
ATOM      1  C1  UNL     1     143.937 131.158 100.339  0.00  0.00    +0.080 C 
ATOM      2  O1  UNL     1     142.862 130.235 100.476  0.00  0.00    -0.479 OA
ATOM      3  C2  UNL     1     143.035 129.327 101.509  0.00  0.00    +0.226 A 
ATOM      4  N1  UNL     1     144.143 129.426 102.271  0.00  0.00    -0.201 NA
ATOM      5  C3  UNL     1     144.252 128.520 103.246  0.00  0.00    +0.120 A 
ATOM      6  N2  UNL     1     143.371 127.552 103.525  0.00  0.00    -0.240 NA
ATOM      7  C4  UNL     1     142.269 127.487 102.740  0.00  0.00    +0.053 A 
ATOM      8  C5  UNL     1     141.296 126.393 103.083  0.00  0.00    -0.022 C 
ATOM      9  C6  UNL     1     142.038 128.369 101.684  0.00  0.00    +0.065 A 
ATOM     10  C7  UNL     1     140.845 128.302 100.830  0.00  0.00    -0.011 A 
ATOM     11  C8  UNL     1     139.792 129.215 100.998  0.00  0.00    -0.051 A 
ATOM     12  C9  UNL     1     138.661 129.152 100.186  0.00  0.00    -0.026 A 
ATOM     13  C10 UNL     1     138.573 128.172  99.202  0.00  0.00    +0.129 A 
ATOM     14  F1  UNL     1     137.482 128.137  98.422  0.00  0.00    -0.205 F 
ATOM     15  C11 UNL     1     139.593 127.238  99.011  0.00  0.00    +0.014 A 
ATOM     16  C12 UNL     1     139.464 126.223  97.912  0.00  0.00    +0.072 C 
ATOM     17  O2  UNL     1     140.284 125.087  98.162  0.00  0.00    -0.390 OA
ATOM     18  C13 UNL     1     140.734 127.324  99.824  0.00  0.00    -0.046 A 
ATOM     19  H   UNL     1     141.213 125.363  98.207  0.00  0.00    +0.000 HD
ENDROOT
TORSDOF 0
ENDMDL
MODEL 5
REMARK VINA RESULT:    -4.189      2.372      3.841
REMARK INTER + INTRA:          -4.189
REMARK INTER:                  -4.189
REMARK INTRA:                   0.000
REMARK UNBOUND:                 0.000
REMARK  Name = /home/vital/Documents/PhD_2021/Malaria_codes/scripts/../data/pdbqt_ligands/ligand_204_temp.pdb
REMARK                            x       y       z     vdW  Elec       q    Type
REMARK                         _______ _______ _______ _____ _____    ______ ____
ROOT
ATOM      1  C1  UNL     1     145.979 128.104 100.639  0.00  0.00    +0.080 C 
ATOM      2  O1  UNL     1     144.720 128.555 100.153  0.00  0.00    -0.479 OA
ATOM      3  C2  UNL     1     144.691 129.907  99.849  0.00  0.00    +0.226 A 
ATOM      4  N1  UNL     1     145.823 130.624 100.007  0.00  0.00    -0.201 NA
ATOM      5  C3  UNL     1     145.729 131.920  99.700  0.00  0.00    +0.120 A 
ATOM      6  N2  UNL     1     144.633 132.548  99.256  0.00  0.00    -0.240 NA
ATOM      7  C4  UNL     1     143.517 131.794  99.107  0.00  0.00    +0.053 A 
ATOM      8  C5  UNL     1     142.307 132.527  98.600  0.00  0.00    -0.022 C 
ATOM      9  C6  UNL     1     143.481 130.430  99.398  0.00  0.00    +0.065 A 
ATOM     10  C7  UNL     1     142.274 129.608  99.239  0.00  0.00    -0.011 A 
ATOM     11  C8  UNL     1     142.139 128.740  98.143  0.00  0.00    -0.051 A 
ATOM     12  C9  UNL     1     140.993 127.959  97.993  0.00  0.00    -0.026 A 
ATOM     13  C10 UNL     1     139.973 128.045  98.936  0.00  0.00    +0.129 A 
ATOM     14  F1  UNL     1     138.885 127.276  98.781  0.00  0.00    -0.205 F 
ATOM     15  C11 UNL     1     140.064 128.905 100.032  0.00  0.00    +0.014 A 
ATOM     16  C12 UNL     1     138.950 128.933 101.039  0.00  0.00    +0.072 C 
ATOM     17  O2  UNL     1     138.947 130.155 101.768  0.00  0.00    -0.390 OA
ATOM     18  C13 UNL     1     141.231 129.672 100.180  0.00  0.00    -0.046 A 
ATOM     19  H   UNL     1     139.785 130.249 102.247  0.00  0.00    +0.000 HD
ENDROOT
TORSDOF 0
ENDMDL
MODEL 6
REMARK VINA RESULT:    -4.093      2.778      3.465
REMARK INTER + INTRA:          -4.093
REMARK INTER:                  -4.093
REMARK INTRA:                   0.000
REMARK UNBOUND:                 0.000
REMARK  Name = /home/vital/Documents/PhD_2021/Malaria_codes/scripts/../data/pdbqt_ligands/ligand_204_temp.pdb
REMARK                            x       y       z     vdW  Elec       q    Type
REMARK                         _______ _______ _______ _____ _____    ______ ____
ROOT
ATOM      1  C1  UNL     1     143.161 128.983  95.637  0.00  0.00    +0.080 C 
ATOM      2  O1  UNL     1     142.640 129.258  96.933  0.00  0.00    -0.479 OA
ATOM      3  C2  UNL     1     143.486 130.020  97.724  0.00  0.00    +0.226 A 
ATOM      4  N1  UNL     1     144.656 130.436  97.197  0.00  0.00    -0.201 NA
ATOM      5  C3  UNL     1     145.426 131.162  98.010  0.00  0.00    +0.120 A 
ATOM      6  N2  UNL     1     145.137 131.508  99.270  0.00  0.00    -0.240 NA
ATOM      7  C4  UNL     1     143.951 131.074  99.763  0.00  0.00    +0.053 A 
ATOM      8  C5  UNL     1     143.653 131.485 101.179  0.00  0.00    -0.022 C 
ATOM      9  C6  UNL     1     143.058 130.303  99.020  0.00  0.00    +0.065 A 
ATOM     10  C7  UNL     1     141.772 129.831  99.549  0.00  0.00    -0.011 A 
ATOM     11  C8  UNL     1     140.571 130.454  99.175  0.00  0.00    -0.051 A 
ATOM     12  C9  UNL     1     139.351 130.005  99.677  0.00  0.00    -0.026 A 
ATOM     13  C10 UNL     1     139.323 128.932 100.562  0.00  0.00    +0.129 A 
ATOM     14  F1  UNL     1     138.139 128.505 101.023  0.00  0.00    -0.205 F 
ATOM     15  C11 UNL     1     140.497 128.292 100.968  0.00  0.00    +0.014 A 
ATOM     16  C12 UNL     1     140.409 127.116 101.898  0.00  0.00    +0.072 C 
ATOM     17  O2  UNL     1     141.636 126.914 102.589  0.00  0.00    -0.390 OA
ATOM     18  C13 UNL     1     141.717 128.744 100.441  0.00  0.00    -0.046 A 
ATOM     19  H   UNL     1     142.343 126.737 101.949  0.00  0.00    +0.000 HD
ENDROOT
TORSDOF 0
ENDMDL
MODEL 7
REMARK VINA RESULT:    -3.970     14.666     16.245
REMARK INTER + INTRA:          -3.970
REMARK INTER:                  -3.970
REMARK INTRA:                   0.000
REMARK UNBOUND:                 0.000
REMARK  Name = /home/vital/Documents/PhD_2021/Malaria_codes/scripts/../data/pdbqt_ligands/ligand_204_temp.pdb
REMARK                            x       y       z     vdW  Elec       q    Type
REMARK                         _______ _______ _______ _____ _____    ______ ____
ROOT
ATOM      1  C1  UNL     1     130.362 125.020  87.133  0.00  0.00    +0.080 C 
ATOM      2  O1  UNL     1     131.491 124.161  87.251  0.00  0.00    -0.479 OA
ATOM      3  C2  UNL     1     131.426 123.299  88.334  0.00  0.00    +0.226 A 
ATOM      4  N1  UNL     1     130.328 123.335  89.117  0.00  0.00    -0.201 NA
ATOM      5  C3  UNL     1     130.327 122.482  90.144  0.00  0.00    +0.120 A 
ATOM      6  N2  UNL     1     131.300 121.614  90.450  0.00  0.00    -0.240 NA
ATOM      7  C4  UNL     1     132.385 121.605  89.638  0.00  0.00    +0.053 A 
ATOM      8  C5  UNL     1     133.455 120.614  90.003  0.00  0.00    -0.022 C 
ATOM      9  C6  UNL     1     132.512 122.449  88.535  0.00  0.00    +0.065 A 
ATOM     10  C7  UNL     1     133.686 122.444  87.652  0.00  0.00    -0.011 A 
ATOM     11  C8  UNL     1     133.629 121.832  86.389  0.00  0.00    -0.051 A 
ATOM     12  C9  UNL     1     134.744 121.829  85.551  0.00  0.00    -0.026 A 
ATOM     13  C10 UNL     1     135.925 122.432  85.973  0.00  0.00    +0.129 A 
ATOM     14  F1  UNL     1     136.981 122.430  85.147  0.00  0.00    -0.205 F 
ATOM     15  C11 UNL     1     136.025 123.040  87.227  0.00  0.00    +0.014 A 
ATOM     16  C12 UNL     1     137.312 123.707  87.619  0.00  0.00    +0.072 C 
ATOM     17  O2  UNL     1     137.424 123.816  89.033  0.00  0.00    -0.390 OA
ATOM     18  C13 UNL     1     134.890 123.052  88.053  0.00  0.00    -0.046 A 
ATOM     19  H   UNL     1     136.693 124.352  89.376  0.00  0.00    +0.000 HD
ENDROOT
TORSDOF 0
ENDMDL
MODEL 8
REMARK VINA RESULT:    -3.872      2.862      4.114
REMARK INTER + INTRA:          -3.872
REMARK INTER:                  -3.872
REMARK INTRA:                   0.000
REMARK UNBOUND:                 0.000
REMARK  Name = /home/vital/Documents/PhD_2021/Malaria_codes/scripts/../data/pdbqt_ligands/ligand_204_temp.pdb
REMARK                            x       y       z     vdW  Elec       q    Type
REMARK                         _______ _______ _______ _____ _____    ______ ____
ROOT
ATOM      1  C1  UNL     1     145.731 130.066  98.603  0.00  0.00    +0.080 C 
ATOM      2  O1  UNL     1     144.514 129.568  99.148  0.00  0.00    -0.479 OA
ATOM      3  C2  UNL     1     143.542 130.541  99.325  0.00  0.00    +0.226 A 
ATOM      4  N1  UNL     1     143.824 131.804  98.946  0.00  0.00    -0.201 NA
ATOM      5  C3  UNL     1     142.849 132.694  99.144  0.00  0.00    +0.120 A 
ATOM      6  N2  UNL     1     141.644 132.440  99.670  0.00  0.00    -0.240 NA
ATOM      7  C4  UNL     1     141.397 131.158 100.034  0.00  0.00    +0.053 A 
ATOM      8  C5  UNL     1     140.033 130.905 100.613  0.00  0.00    -0.022 C 
ATOM      9  C6  UNL     1     142.333 130.135  99.886  0.00  0.00    +0.065 A 
ATOM     10  C7  UNL     1     142.071 128.745 100.279  0.00  0.00    -0.011 A 
ATOM     11  C8  UNL     1     141.780 127.769  99.312  0.00  0.00    -0.051 A 
ATOM     12  C9  UNL     1     141.532 126.449  99.687  0.00  0.00    -0.026 A 
ATOM     13  C10 UNL     1     141.568 126.097 101.032  0.00  0.00    +0.129 A 
ATOM     14  F1  UNL     1     141.340 124.820 101.372  0.00  0.00    -0.205 F 
ATOM     15  C11 UNL     1     141.841 127.040 102.026  0.00  0.00    +0.014 A 
ATOM     16  C12 UNL     1     141.903 126.600 103.460  0.00  0.00    +0.072 C 
ATOM     17  O2  UNL     1     141.686 127.694 104.343  0.00  0.00    -0.390 OA
ATOM     18  C13 UNL     1     142.107 128.362 101.633  0.00  0.00    -0.046 A 
ATOM     19  H   UNL     1     142.375 128.363 104.206  0.00  0.00    +0.000 HD
ENDROOT
TORSDOF 0
ENDMDL
MODEL 9
REMARK VINA RESULT:    -3.841      3.407      4.812
REMARK INTER + INTRA:          -3.841
REMARK INTER:                  -3.841
REMARK INTRA:                   0.000
REMARK UNBOUND:                 0.000
REMARK  Name = /home/vital/Documents/PhD_2021/Malaria_codes/scripts/../data/pdbqt_ligands/ligand_204_temp.pdb
REMARK                            x       y       z     vdW  Elec       q    Type
REMARK                         _______ _______ _______ _____ _____    ______ ____
ROOT
ATOM      1  C1  UNL     1     144.951 129.912 100.872  0.00  0.00    +0.080 C 
ATOM      2  O1  UNL     1     143.859 129.031 101.107  0.00  0.00    -0.479 OA
ATOM      3  C2  UNL     1     142.621 129.590 100.830  0.00  0.00    +0.226 A 
ATOM      4  N1  UNL     1     142.580 130.851 100.352  0.00  0.00    -0.201 NA
ATOM      5  C3  UNL     1     141.359 131.333 100.108  0.00  0.00    +0.120 A 
ATOM      6  N2  UNL     1     140.203 130.681 100.289  0.00  0.00    -0.240 NA
ATOM      7  C4  UNL     1     140.286 129.416 100.767  0.00  0.00    +0.053 A 
ATOM      8  C5  UNL     1     138.972 128.709 100.951  0.00  0.00    -0.022 C 
ATOM      9  C6  UNL     1     141.500 128.798 101.067  0.00  0.00    +0.065 A 
ATOM     10  C7  UNL     1     141.595 127.427 101.585  0.00  0.00    -0.011 A 
ATOM     11  C8  UNL     1     141.982 126.370 100.746  0.00  0.00    -0.051 A 
ATOM     12  C9  UNL     1     142.073 125.068 101.239  0.00  0.00    -0.026 A 
ATOM     13  C10 UNL     1     141.773 124.815 102.573  0.00  0.00    +0.129 A 
ATOM     14  F1  UNL     1     141.880 123.559 103.031  0.00  0.00    -0.205 F 
ATOM     15  C11 UNL     1     141.373 125.837 103.437  0.00  0.00    +0.014 A 
ATOM     16  C12 UNL     1     141.094 125.515 104.877  0.00  0.00    +0.072 C 
ATOM     17  O2  UNL     1     140.248 126.494 105.469  0.00  0.00    -0.390 OA
ATOM     18  C13 UNL     1     141.302 127.145 102.932  0.00  0.00    -0.046 A 
ATOM     19  H   UNL     1     140.682 127.361 105.434  0.00  0.00    +0.000 HD
ENDROOT
TORSDOF 0
ENDMDL
