MODEL 1
REMARK VINA RESULT:    -4.961      0.000      0.000
REMARK INTER + INTRA:          -4.961
REMARK INTER:                  -4.961
REMARK INTRA:                   0.000
REMARK UNBOUND:                 0.000
REMARK  Name = /home/vital/Documents/PhD_2021/Malaria_codes/scripts/../data/pdbqt_ligands/ligand_279_temp.pdb
REMARK                            x       y       z     vdW  Elec       q    Type
REMARK                         _______ _______ _______ _____ _____    ______ ____
ROOT
ATOM      1  C   UNL     1     139.113 121.054  98.946  0.00  0.00    +0.079 C 
ATOM      2  O   UNL     1     139.857 122.015  99.684  0.00  0.00    -0.495 OA
ATOM      3  C   UNL     1     140.504 122.981  98.964  0.00  0.00    +0.120 A 
ATOM      4  C   UNL     1     140.503 123.111  97.577  0.00  0.00    -0.019 A 
ATOM      5  C   UNL     1     141.211 124.154  96.974  0.00  0.00    -0.040 A 
ATOM      6  C   UNL     1     141.923 125.074  97.749  0.00  0.00    +0.046 A 
ATOM      7 CL   UNL     1     142.780 126.323  96.917  0.00  0.00    -0.083 Cl
ATOM      8  C   UNL     1     141.937 124.961  99.147  0.00  0.00    -0.012 A 
ATOM      9  C   UNL     1     142.679 125.933 100.039  0.00  0.00    +0.026 C 
ATOM     10  N   UNL     1     142.031 127.245 100.122  0.00  0.00    -0.296 N 
ATOM     11  C   UNL     1     140.778 127.244 100.885  0.00  0.00    +0.012 C 
ATOM     12  C   UNL     1     140.068 128.630 100.883  0.00  0.00    +0.012 C 
ATOM     13  N   UNL     1     140.921 129.814 100.625  0.00  0.00    -0.296 N 
ATOM     14  C   UNL     1     140.968 130.104  99.177  0.00  0.00    +0.024 C 
ATOM     15  C   UNL     1     141.718 131.376  98.838  0.00  0.00    -0.033 A 
ATOM     16  C   UNL     1     141.312 132.609  99.374  0.00  0.00    -0.054 A 
ATOM     17  C   UNL     1     141.999 133.783  99.058  0.00  0.00    -0.020 A 
ATOM     18  C   UNL     1     143.093 133.724  98.201  0.00  0.00    +0.117 A 
ATOM     19  O   UNL     1     143.793 134.846  97.866  0.00  0.00    -0.507 OA
ATOM     20  C   UNL     1     143.509 132.515  97.658  0.00  0.00    -0.020 A 
ATOM     21  C   UNL     1     142.823 131.341  97.974  0.00  0.00    -0.054 A 
ATOM     22  C   UNL     1     142.265 129.548 101.178  0.00  0.00    +0.012 C 
ATOM     23  C   UNL     1     142.958 128.261 100.657  0.00  0.00    +0.012 C 
ATOM     24  C   UNL     1     141.219 123.903  99.737  0.00  0.00    -0.014 A 
ATOM     25  H   UNL     1     141.781 127.485  99.163  0.00  0.00    +0.000 HD
ATOM     26  H   UNL     1     140.536 130.640 101.081  0.00  0.00    +0.000 HD
ATOM     27  H   UNL     1     143.539 135.678  98.214  0.00  0.00    +0.000 HD
ENDROOT
TORSDOF 0
ENDMDL
MODEL 2
REMARK VINA RESULT:    -4.671     13.687     15.393
REMARK INTER + INTRA:          -4.671
REMARK INTER:                  -4.671
REMARK INTRA:                   0.000
REMARK UNBOUND:                 0.000
REMARK  Name = /home/vital/Documents/PhD_2021/Malaria_codes/scripts/../data/pdbqt_ligands/ligand_279_temp.pdb
REMARK                            x       y       z     vdW  Elec       q    Type
REMARK                         _______ _______ _______ _____ _____    ______ ____
ROOT
ATOM      1  C   UNL     1     142.833 124.671  85.750  0.00  0.00    +0.079 C 
ATOM      2  O   UNL     1     141.504 124.584  85.250  0.00  0.00    -0.495 OA
ATOM      3  C   UNL     1     140.640 123.771  85.929  0.00  0.00    +0.120 A 
ATOM      4  C   UNL     1     140.939 123.019  87.063  0.00  0.00    -0.019 A 
ATOM      5  C   UNL     1     139.951 122.229  87.657  0.00  0.00    -0.040 A 
ATOM      6  C   UNL     1     138.660 122.183  87.125  0.00  0.00    +0.046 A 
ATOM      7 CL   UNL     1     137.506 121.169  87.917  0.00  0.00    -0.083 Cl
ATOM      8  C   UNL     1     138.337 122.934  85.984  0.00  0.00    -0.012 A 
ATOM      9  C   UNL     1     136.954 122.936  85.370  0.00  0.00    +0.026 C 
ATOM     10  N   UNL     1     135.972 123.674  86.169  0.00  0.00    -0.296 N 
ATOM     11  C   UNL     1     136.163 125.129  86.152  0.00  0.00    +0.012 C 
ATOM     12  C   UNL     1     135.162 125.882  87.077  0.00  0.00    +0.012 C 
ATOM     13  N   UNL     1     133.896 125.180  87.396  0.00  0.00    -0.296 N 
ATOM     14  C   UNL     1     134.055 124.375  88.625  0.00  0.00    +0.024 C 
ATOM     15  C   UNL     1     132.768 123.725  89.093  0.00  0.00    -0.033 A 
ATOM     16  C   UNL     1     131.642 124.506  89.395  0.00  0.00    -0.054 A 
ATOM     17  C   UNL     1     130.458 123.909  89.832  0.00  0.00    -0.020 A 
ATOM     18  C   UNL     1     130.402 122.526  89.970  0.00  0.00    +0.117 A 
ATOM     19  O   UNL     1     129.266 121.901  90.394  0.00  0.00    -0.507 OA
ATOM     20  C   UNL     1     131.506 121.735  89.680  0.00  0.00    -0.020 A 
ATOM     21  C   UNL     1     132.690 122.332  89.242  0.00  0.00    -0.054 A 
ATOM     22  C   UNL     1     133.520 124.348  86.235  0.00  0.00    +0.012 C 
ATOM     23  C   UNL     1     134.594 123.332  85.767  0.00  0.00    +0.012 C 
ATOM     24  C   UNL     1     139.346 123.722  85.398  0.00  0.00    -0.014 A 
ATOM     25  H   UNL     1     136.128 123.378  87.133  0.00  0.00    +0.000 HD
ATOM     26  H   UNL     1     133.150 125.851  87.576  0.00  0.00    +0.000 HD
ATOM     27  H   UNL     1     128.503 122.404  90.598  0.00  0.00    +0.000 HD
ENDROOT
TORSDOF 0
ENDMDL
MODEL 3
REMARK VINA RESULT:    -4.630      4.288      8.481
REMARK INTER + INTRA:          -4.630
REMARK INTER:                  -4.630
REMARK INTRA:                   0.000
REMARK UNBOUND:                 0.000
REMARK  Name = /home/vital/Documents/PhD_2021/Malaria_codes/scripts/../data/pdbqt_ligands/ligand_279_temp.pdb
REMARK                            x       y       z     vdW  Elec       q    Type
REMARK                         _______ _______ _______ _____ _____    ______ ____
ROOT
ATOM      1  C   UNL     1     144.695 129.995  96.639  0.00  0.00    +0.079 C 
ATOM      2  O   UNL     1     144.763 129.790  98.045  0.00  0.00    -0.495 OA
ATOM      3  C   UNL     1     143.584 129.539  98.691  0.00  0.00    +0.120 A 
ATOM      4  C   UNL     1     142.324 129.467  98.101  0.00  0.00    -0.019 A 
ATOM      5  C   UNL     1     141.200 129.201  98.887  0.00  0.00    -0.040 A 
ATOM      6  C   UNL     1     141.325 129.004 100.265  0.00  0.00    +0.046 A 
ATOM      7 CL   UNL     1     139.879 128.692 101.161  0.00  0.00    -0.083 Cl
ATOM      8  C   UNL     1     142.585 129.071 100.879  0.00  0.00    -0.012 A 
ATOM      9  C   UNL     1     142.785 128.855 102.363  0.00  0.00    +0.026 C 
ATOM     10  N   UNL     1     142.632 127.453 102.764  0.00  0.00    -0.296 N 
ATOM     11  C   UNL     1     143.728 126.584 102.321  0.00  0.00    +0.012 C 
ATOM     12  C   UNL     1     143.498 125.087 102.685  0.00  0.00    +0.012 C 
ATOM     13  N   UNL     1     142.579 124.812 103.815  0.00  0.00    -0.296 N 
ATOM     14  C   UNL     1     141.196 124.656 103.321  0.00  0.00    +0.024 C 
ATOM     15  C   UNL     1     140.211 124.246 104.399  0.00  0.00    -0.033 A 
ATOM     16  C   UNL     1     140.401 123.060 105.126  0.00  0.00    -0.054 A 
ATOM     17  C   UNL     1     139.492 122.678 106.114  0.00  0.00    -0.020 A 
ATOM     18  C   UNL     1     138.388 123.484 106.374  0.00  0.00    +0.117 A 
ATOM     19  O   UNL     1     137.475 123.149 107.331  0.00  0.00    -0.507 OA
ATOM     20  C   UNL     1     138.180 124.660 105.664  0.00  0.00    -0.020 A 
ATOM     21  C   UNL     1     139.089 125.042 104.676  0.00  0.00    -0.054 A 
ATOM     22  C   UNL     1     142.698 125.915 104.790  0.00  0.00    +0.012 C 
ATOM     23  C   UNL     1     142.441 127.336 104.223  0.00  0.00    +0.012 C 
ATOM     24  C   UNL     1     143.705 129.343 100.070  0.00  0.00    -0.014 A 
ATOM     25  H   UNL     1     141.795 127.123 102.285  0.00  0.00    +0.000 HD
ATOM     26  H   UNL     1     142.830 123.937 104.275  0.00  0.00    +0.000 HD
ATOM     27  H   UNL     1     137.585 122.364 107.829  0.00  0.00    +0.000 HD
ENDROOT
TORSDOF 0
ENDMDL
MODEL 4
REMARK VINA RESULT:    -4.586     11.531     14.571
REMARK INTER + INTRA:          -4.586
REMARK INTER:                  -4.586
REMARK INTRA:                   0.000
REMARK UNBOUND:                 0.000
REMARK  Name = /home/vital/Documents/PhD_2021/Malaria_codes/scripts/../data/pdbqt_ligands/ligand_279_temp.pdb
REMARK                            x       y       z     vdW  Elec       q    Type
REMARK                         _______ _______ _______ _____ _____    ______ ____
ROOT
ATOM      1  C   UNL     1     143.098 125.971  87.778  0.00  0.00    +0.079 C 
ATOM      2  O   UNL     1     141.983 125.385  87.117  0.00  0.00    -0.495 OA
ATOM      3  C   UNL     1     141.102 124.685  87.894  0.00  0.00    +0.120 A 
ATOM      4  C   UNL     1     141.196 124.490  89.270  0.00  0.00    -0.019 A 
ATOM      5  C   UNL     1     140.217 123.749  89.938  0.00  0.00    -0.040 A 
ATOM      6  C   UNL     1     139.139 123.199  89.239  0.00  0.00    +0.046 A 
ATOM      7 CL   UNL     1     137.983 122.287  90.145  0.00  0.00    -0.083 Cl
ATOM      8  C   UNL     1     139.026 123.384  87.853  0.00  0.00    -0.012 A 
ATOM      9  C   UNL     1     137.876 122.823  87.044  0.00  0.00    +0.026 C 
ATOM     10  N   UNL     1     136.615 123.533  87.271  0.00  0.00    -0.296 N 
ATOM     11  C   UNL     1     136.579 124.883  86.697  0.00  0.00    +0.012 C 
ATOM     12  C   UNL     1     135.262 125.646  87.027  0.00  0.00    +0.012 C 
ATOM     13  N   UNL     1     134.080 124.818  87.362  0.00  0.00    -0.296 N 
ATOM     14  C   UNL     1     134.023 124.575  88.818  0.00  0.00    +0.024 C 
ATOM     15  C   UNL     1     132.772 123.841  89.260  0.00  0.00    -0.033 A 
ATOM     16  C   UNL     1     131.500 124.375  88.999  0.00  0.00    -0.054 A 
ATOM     17  C   UNL     1     130.348 123.703  89.411  0.00  0.00    -0.020 A 
ATOM     18  C   UNL     1     130.468 122.495  90.090  0.00  0.00    +0.117 A 
ATOM     19  O   UNL     1     129.370 121.805  90.510  0.00  0.00    -0.507 OA
ATOM     20  C   UNL     1     131.718 121.951  90.361  0.00  0.00    -0.020 A 
ATOM     21  C   UNL     1     132.870 122.622  89.948  0.00  0.00    -0.054 A 
ATOM     22  C   UNL     1     134.162 123.559  86.595  0.00  0.00    +0.012 C 
ATOM     23  C   UNL     1     135.465 122.740  86.793  0.00  0.00    +0.012 C 
ATOM     24  C   UNL     1     140.023 124.131  87.197  0.00  0.00    -0.014 A 
ATOM     25  H   UNL     1     136.548 123.652  88.282  0.00  0.00    +0.000 HD
ATOM     26  H   UNL     1     133.219 125.302  87.108  0.00  0.00    +0.000 HD
ATOM     27  H   UNL     1     128.512 122.142  90.344  0.00  0.00    +0.000 HD
ENDROOT
TORSDOF 0
ENDMDL
MODEL 5
REMARK VINA RESULT:    -4.424      5.370      6.908
REMARK INTER + INTRA:          -4.424
REMARK INTER:                  -4.424
REMARK INTRA:                   0.000
REMARK UNBOUND:                 0.000
REMARK  Name = /home/vital/Documents/PhD_2021/Malaria_codes/scripts/../data/pdbqt_ligands/ligand_279_temp.pdb
REMARK                            x       y       z     vdW  Elec       q    Type
REMARK                         _______ _______ _______ _____ _____    ______ ____
ROOT
ATOM      1  C   UNL     1     145.745 124.375 109.507  0.00  0.00    +0.079 C 
ATOM      2  O   UNL     1     145.746 124.306 108.086  0.00  0.00    -0.495 OA
ATOM      3  C   UNL     1     144.545 124.486 107.457  0.00  0.00    +0.120 A 
ATOM      4  C   UNL     1     143.322 124.731 108.078  0.00  0.00    -0.019 A 
ATOM      5  C   UNL     1     142.169 124.898 107.306  0.00  0.00    -0.040 A 
ATOM      6  C   UNL     1     142.228 124.823 105.912  0.00  0.00    +0.046 A 
ATOM      7 CL   UNL     1     140.751 125.029 105.038  0.00  0.00    -0.083 Cl
ATOM      8  C   UNL     1     143.450 124.579 105.267  0.00  0.00    -0.012 A 
ATOM      9  C   UNL     1     143.579 124.500 103.761  0.00  0.00    +0.026 C 
ATOM     10  N   UNL     1     143.461 125.805 103.106  0.00  0.00    -0.296 N 
ATOM     11  C   UNL     1     144.612 126.688 103.324  0.00  0.00    +0.012 C 
ATOM     12  C   UNL     1     144.422 128.098 102.691  0.00  0.00    +0.012 C 
ATOM     13  N   UNL     1     143.457 128.198 101.571  0.00  0.00    -0.296 N 
ATOM     14  C   UNL     1     142.109 128.512 102.087  0.00  0.00    +0.024 C 
ATOM     15  C   UNL     1     141.085 128.757 100.995  0.00  0.00    -0.033 A 
ATOM     16  C   UNL     1     141.283 129.774 100.047  0.00  0.00    -0.054 A 
ATOM     17  C   UNL     1     140.338 130.005  99.045  0.00  0.00    -0.020 A 
ATOM     18  C   UNL     1     139.191 129.219  98.994  0.00  0.00    +0.117 A 
ATOM     19  O   UNL     1     138.242 129.410  98.033  0.00  0.00    -0.507 OA
ATOM     20  C   UNL     1     138.975 128.211  99.925  0.00  0.00    -0.020 A 
ATOM     21  C   UNL     1     139.920 127.980 100.927  0.00  0.00    -0.054 A 
ATOM     22  C   UNL     1     143.479 126.926 100.822  0.00  0.00    +0.012 C 
ATOM     23  C   UNL     1     143.198 125.652 101.662  0.00  0.00    +0.012 C 
ATOM     24  C   UNL     1     144.600 124.411 106.062  0.00  0.00    -0.014 A 
ATOM     25  H   UNL     1     142.664 126.261 103.550  0.00  0.00    +0.000 HD
ATOM     26  H   UNL     1     143.717 128.956 100.940  0.00  0.00    +0.000 HD
ATOM     27  H   UNL     1     138.356 130.081  97.389  0.00  0.00    +0.000 HD
ENDROOT
TORSDOF 0
ENDMDL
MODEL 6
REMARK VINA RESULT:    -4.283     10.580     13.934
REMARK INTER + INTRA:          -4.283
REMARK INTER:                  -4.283
REMARK INTRA:                   0.000
REMARK UNBOUND:                 0.000
REMARK  Name = /home/vital/Documents/PhD_2021/Malaria_codes/scripts/../data/pdbqt_ligands/ligand_279_temp.pdb
REMARK                            x       y       z     vdW  Elec       q    Type
REMARK                         _______ _______ _______ _____ _____    ______ ____
ROOT
ATOM      1  C   UNL     1     141.483 124.960  94.240  0.00  0.00    +0.079 C 
ATOM      2  O   UNL     1     141.050 125.071  92.890  0.00  0.00    -0.495 OA
ATOM      3  C   UNL     1     140.271 124.058  92.405  0.00  0.00    +0.120 A 
ATOM      4  C   UNL     1     139.863 122.927  93.109  0.00  0.00    -0.019 A 
ATOM      5  C   UNL     1     139.062 121.968  92.483  0.00  0.00    -0.040 A 
ATOM      6  C   UNL     1     138.662 122.131  91.154  0.00  0.00    +0.046 A 
ATOM      7 CL   UNL     1     137.682 120.888  90.458  0.00  0.00    -0.083 Cl
ATOM      8  C   UNL     1     139.061 123.263  90.428  0.00  0.00    -0.012 A 
ATOM      9  C   UNL     1     138.650 123.501  88.991  0.00  0.00    +0.026 C 
ATOM     10  N   UNL     1     137.239 123.873  88.852  0.00  0.00    -0.296 N 
ATOM     11  C   UNL     1     136.927 125.222  89.338  0.00  0.00    +0.012 C 
ATOM     12  C   UNL     1     135.409 125.558  89.259  0.00  0.00    +0.012 C 
ATOM     13  N   UNL     1     134.608 124.786  88.280  0.00  0.00    -0.296 N 
ATOM     14  C   UNL     1     134.061 123.570  88.914  0.00  0.00    +0.024 C 
ATOM     15  C   UNL     1     133.123 122.788  88.015  0.00  0.00    -0.033 A 
ATOM     16  C   UNL     1     131.970 123.391  87.489  0.00  0.00    -0.054 A 
ATOM     17  C   UNL     1     131.102 122.671  86.666  0.00  0.00    -0.020 A 
ATOM     18  C   UNL     1     131.388 121.341  86.371  0.00  0.00    +0.117 A 
ATOM     19  O   UNL     1     130.568 120.600  85.571  0.00  0.00    -0.507 OA
ATOM     20  C   UNL     1     132.522 120.725  86.884  0.00  0.00    -0.020 A 
ATOM     21  C   UNL     1     133.390 121.445  87.707  0.00  0.00    -0.054 A 
ATOM     22  C   UNL     1     135.469 124.467  87.123  0.00  0.00    +0.012 C 
ATOM     23  C   UNL     1     136.782 123.711  87.458  0.00  0.00    +0.012 C 
ATOM     24  C   UNL     1     139.870 124.217  91.074  0.00  0.00    -0.014 A 
ATOM     25  H   UNL     1     136.727 123.228  89.454  0.00  0.00    +0.000 HD
ATOM     26  H   UNL     1     133.812 125.335  87.956  0.00  0.00    +0.000 HD
ATOM     27  H   UNL     1     129.795 120.985  85.208  0.00  0.00    +0.000 HD
ENDROOT
TORSDOF 0
ENDMDL
MODEL 7
REMARK VINA RESULT:    -4.162     10.652     13.132
REMARK INTER + INTRA:          -4.162
REMARK INTER:                  -4.162
REMARK INTRA:                   0.000
REMARK UNBOUND:                 0.000
REMARK  Name = /home/vital/Documents/PhD_2021/Malaria_codes/scripts/../data/pdbqt_ligands/ligand_279_temp.pdb
REMARK                            x       y       z     vdW  Elec       q    Type
REMARK                         _______ _______ _______ _____ _____    ______ ____
ROOT
ATOM      1  C   UNL     1     131.214 120.788  85.234  0.00  0.00    +0.079 C 
ATOM      2  O   UNL     1     132.628 120.942  85.226  0.00  0.00    -0.495 OA
ATOM      3  C   UNL     1     133.138 122.008  85.914  0.00  0.00    +0.120 A 
ATOM      4  C   UNL     1     132.402 122.957  86.621  0.00  0.00    -0.019 A 
ATOM      5  C   UNL     1     133.060 123.998  87.282  0.00  0.00    -0.040 A 
ATOM      6  C   UNL     1     134.453 124.099  87.244  0.00  0.00    +0.046 A 
ATOM      7 CL   UNL     1     135.180 125.426  88.080  0.00  0.00    -0.083 Cl
ATOM      8  C   UNL     1     135.212 123.153  86.538  0.00  0.00    -0.012 A 
ATOM      9  C   UNL     1     136.723 123.202  86.472  0.00  0.00    +0.026 C 
ATOM     10  N   UNL     1     137.366 122.822  87.733  0.00  0.00    -0.296 N 
ATOM     11  C   UNL     1     137.261 121.392  88.047  0.00  0.00    +0.012 C 
ATOM     12  C   UNL     1     137.876 121.031  89.432  0.00  0.00    +0.012 C 
ATOM     13  N   UNL     1     138.897 121.961  89.969  0.00  0.00    -0.296 N 
ATOM     14  C   UNL     1     138.254 123.004  90.794  0.00  0.00    +0.024 C 
ATOM     15  C   UNL     1     139.242 123.923  91.486  0.00  0.00    -0.033 A 
ATOM     16  C   UNL     1     140.207 123.404  92.364  0.00  0.00    -0.054 A 
ATOM     17  C   UNL     1     141.113 124.250  93.005  0.00  0.00    -0.020 A 
ATOM     18  C   UNL     1     141.051 125.620  92.771  0.00  0.00    +0.117 A 
ATOM     19  O   UNL     1     141.917 126.483  93.377  0.00  0.00    -0.507 OA
ATOM     20  C   UNL     1     140.102 126.154  91.909  0.00  0.00    -0.020 A 
ATOM     21  C   UNL     1     139.196 125.308  91.267  0.00  0.00    -0.054 A 
ATOM     22  C   UNL     1     139.643 122.539  88.832  0.00  0.00    +0.012 C 
ATOM     23  C   UNL     1     138.778 123.252  87.760  0.00  0.00    +0.012 C 
ATOM     24  C   UNL     1     134.532 122.113  85.877  0.00  0.00    -0.014 A 
ATOM     25  H   UNL     1     136.848 123.313  88.461  0.00  0.00    +0.000 HD
ATOM     26  H   UNL     1     139.551 121.466  90.573  0.00  0.00    +0.000 HD
ATOM     27  H   UNL     1     142.570 126.157  93.964  0.00  0.00    +0.000 HD
ENDROOT
TORSDOF 0
ENDMDL
MODEL 8
REMARK VINA RESULT:    -3.975     11.755     15.067
REMARK INTER + INTRA:          -3.975
REMARK INTER:                  -3.975
REMARK INTRA:                   0.000
REMARK UNBOUND:                 0.000
REMARK  Name = /home/vital/Documents/PhD_2021/Malaria_codes/scripts/../data/pdbqt_ligands/ligand_279_temp.pdb
REMARK                            x       y       z     vdW  Elec       q    Type
REMARK                         _______ _______ _______ _____ _____    ______ ____
ROOT
ATOM      1  C   UNL     1     142.902 128.474  86.511  0.00  0.00    +0.079 C 
ATOM      2  O   UNL     1     142.294 127.193  86.395  0.00  0.00    -0.495 OA
ATOM      3  C   UNL     1     141.295 126.901  87.283  0.00  0.00    +0.120 A 
ATOM      4  C   UNL     1     140.819 127.739  88.288  0.00  0.00    -0.019 A 
ATOM      5  C   UNL     1     139.787 127.306  89.126  0.00  0.00    -0.040 A 
ATOM      6  C   UNL     1     139.223 126.038  88.965  0.00  0.00    +0.046 A 
ATOM      7 CL   UNL     1     137.960 125.582  90.054  0.00  0.00    -0.083 Cl
ATOM      8  C   UNL     1     139.688 125.179  87.957  0.00  0.00    -0.012 A 
ATOM      9  C   UNL     1     139.109 123.800  87.727  0.00  0.00    +0.026 C 
ATOM     10  N   UNL     1     137.773 123.832  87.124  0.00  0.00    -0.296 N 
ATOM     11  C   UNL     1     137.763 124.252  85.719  0.00  0.00    +0.012 C 
ATOM     12  C   UNL     1     136.326 124.361  85.130  0.00  0.00    +0.012 C 
ATOM     13  N   UNL     1     135.271 123.566  85.801  0.00  0.00    -0.296 N 
ATOM     14  C   UNL     1     134.634 124.361  86.870  0.00  0.00    +0.024 C 
ATOM     15  C   UNL     1     133.457 123.665  87.524  0.00  0.00    -0.033 A 
ATOM     16  C   UNL     1     132.351 123.261  86.758  0.00  0.00    -0.054 A 
ATOM     17  C   UNL     1     131.264 122.624  87.360  0.00  0.00    -0.020 A 
ATOM     18  C   UNL     1     131.281 122.395  88.732  0.00  0.00    +0.117 A 
ATOM     19  O   UNL     1     130.240 121.777  89.361  0.00  0.00    -0.507 OA
ATOM     20  C   UNL     1     132.363 122.790  89.508  0.00  0.00    -0.020 A 
ATOM     21  C   UNL     1     133.451 123.426  88.906  0.00  0.00    -0.054 A 
ATOM     22  C   UNL     1     135.884 122.328  86.324  0.00  0.00    +0.012 C 
ATOM     23  C   UNL     1     137.091 122.532  87.276  0.00  0.00    +0.012 C 
ATOM     24  C   UNL     1     140.730 125.631  87.125  0.00  0.00    -0.014 A 
ATOM     25  H   UNL     1     137.260 124.547  87.639  0.00  0.00    +0.000 HD
ATOM     26  H   UNL     1     134.536 123.315  85.140  0.00  0.00    +0.000 HD
ATOM     27  H   UNL     1     129.494 121.497  88.867  0.00  0.00    +0.000 HD
ENDROOT
TORSDOF 0
ENDMDL
MODEL 9
REMARK VINA RESULT:    -3.868     11.739     13.436
REMARK INTER + INTRA:          -3.868
REMARK INTER:                  -3.868
REMARK INTRA:                   0.000
REMARK UNBOUND:                 0.000
REMARK  Name = /home/vital/Documents/PhD_2021/Malaria_codes/scripts/../data/pdbqt_ligands/ligand_279_temp.pdb
REMARK                            x       y       z     vdW  Elec       q    Type
REMARK                         _______ _______ _______ _____ _____    ______ ____
ROOT
ATOM      1  C   UNL     1     131.370 120.636  85.921  0.00  0.00    +0.079 C 
ATOM      2  O   UNL     1     132.739 120.935  85.679  0.00  0.00    -0.495 OA
ATOM      3  C   UNL     1     133.113 122.246  85.784  0.00  0.00    +0.120 A 
ATOM      4  C   UNL     1     132.279 123.315  86.106  0.00  0.00    -0.019 A 
ATOM      5  C   UNL     1     132.801 124.609  86.180  0.00  0.00    -0.040 A 
ATOM      6  C   UNL     1     134.157 124.846  85.935  0.00  0.00    +0.046 A 
ATOM      7 CL   UNL     1     134.713 126.479  86.037  0.00  0.00    -0.083 Cl
ATOM      8  C   UNL     1     135.014 123.783  85.611  0.00  0.00    -0.012 A 
ATOM      9  C   UNL     1     136.492 123.974  85.349  0.00  0.00    +0.026 C 
ATOM     10  N   UNL     1     137.258 124.260  86.565  0.00  0.00    -0.296 N 
ATOM     11  C   UNL     1     137.398 123.110  87.465  0.00  0.00    +0.012 C 
ATOM     12  C   UNL     1     138.141 123.464  88.787  0.00  0.00    +0.012 C 
ATOM     13  N   UNL     1     139.032 124.648  88.753  0.00  0.00    -0.296 N 
ATOM     14  C   UNL     1     138.282 125.863  89.130  0.00  0.00    +0.024 C 
ATOM     15  C   UNL     1     139.150 127.100  89.243  0.00  0.00    -0.033 A 
ATOM     16  C   UNL     1     140.234 127.133  90.135  0.00  0.00    -0.054 A 
ATOM     17  C   UNL     1     141.031 128.274  90.244  0.00  0.00    -0.020 A 
ATOM     18  C   UNL     1     140.741 129.387  89.461  0.00  0.00    +0.117 A 
ATOM     19  O   UNL     1     141.493 130.522  89.536  0.00  0.00    -0.507 OA
ATOM     20  C   UNL     1     139.671 129.376  88.575  0.00  0.00    -0.020 A 
ATOM     21  C   UNL     1     138.875 128.235  88.466  0.00  0.00    -0.054 A 
ATOM     22  C   UNL     1     139.611 124.754  87.398  0.00  0.00    +0.012 C 
ATOM     23  C   UNL     1     138.584 124.821  86.237  0.00  0.00    +0.012 C 
ATOM     24  C   UNL     1     134.469 122.486  85.539  0.00  0.00    -0.014 A 
ATOM     25  H   UNL     1     136.712 124.956  87.073  0.00  0.00    +0.000 HD
ATOM     26  H   UNL     1     139.790 124.546  89.427  0.00  0.00    +0.000 HD
ATOM     27  H   UNL     1     142.222 130.564  90.123  0.00  0.00    +0.000 HD
ENDROOT
TORSDOF 0
ENDMDL
