MODEL 1
REMARK VINA RESULT:    -5.079      0.000      0.000
REMARK INTER + INTRA:          -5.079
REMARK INTER:                  -5.079
REMARK INTRA:                   0.000
REMARK UNBOUND:                 0.000
REMARK  Name = /home/vital/Documents/PhD_2021/Malaria_codes/scripts/../data/pdbqt_ligands/ligand_405_temp.pdb
REMARK                            x       y       z     vdW  Elec       q    Type
REMARK                         _______ _______ _______ _____ _____    ______ ____
ROOT
ATOM      1  C1  UNL     1     143.148 123.915 109.468  0.00  0.00    -0.063 C 
ATOM      2  C2  UNL     1     141.777 124.579 109.562  0.00  0.00    -0.047 C 
ATOM      3  C3  UNL     1     140.746 123.604 110.130  0.00  0.00    -0.063 C 
ATOM      4  C4  UNL     1     141.320 125.257 108.253  0.00  0.00    -0.051 C 
ATOM      5  C5  UNL     1     140.699 124.391 107.153  0.00  0.00    -0.053 C 
ATOM      6  C6  UNL     1     141.606 123.465 106.333  0.00  0.00    -0.050 C 
ATOM      7  C7  UNL     1     142.617 124.075 105.322  0.00  0.00    -0.041 C 
ATOM      8  C8  UNL     1     143.917 124.488 106.015  0.00  0.00    -0.062 C 
ATOM      9  C9  UNL     1     141.970 125.133 104.388  0.00  0.00    -0.033 C 
ATOM     10  C10 UNL     1     142.093 126.621 104.808  0.00  0.00    -0.049 C 
ATOM     11  C11 UNL     1     141.983 127.449 103.512  0.00  0.00    -0.049 C 
ATOM     12  C12 UNL     1     141.664 126.419 102.433  0.00  0.00    -0.032 C 
ATOM     13  C13 UNL     1     141.922 126.784 100.968  0.00  0.00    -0.031 C 
ATOM     14  C14 UNL     1     141.177 128.071 100.578  0.00  0.00    -0.031 C 
ATOM     15  C15 UNL     1     140.882 128.205  99.116  0.00  0.00    -0.084 C 
ATOM     16  C16 UNL     1     141.111 127.255  98.190  0.00  0.00    -0.065 C 
ATOM     17  C17 UNL     1     140.578 127.453  96.786  0.00  0.00    -0.005 C 
ATOM     18  C18 UNL     1     141.238 126.570  95.726  0.00  0.00    +0.062 C 
ATOM     19  O1  UNL     1     140.532 126.766  94.491  0.00  0.00    -0.374 OA
ATOM     20  C19 UNL     1     141.255 126.294  93.346  0.00  0.00    +0.071 C 
ATOM     21  C20 UNL     1     140.413 126.598  92.110  0.00  0.00    +0.068 C 
ATOM     22  O2  UNL     1     140.196 128.004  92.010  0.00  0.00    -0.393 OA
ATOM     23  C21 UNL     1     141.224 125.088  96.128  0.00  0.00    -0.026 C 
ATOM     24  C22 UNL     1     141.123 124.826  97.638  0.00  0.00    -0.041 C 
ATOM     25  C23 UNL     1     141.766 125.914  98.536  0.00  0.00    -0.008 C 
ATOM     26  C24 UNL     1     143.285 125.991  98.248  0.00  0.00    -0.056 C 
ATOM     27  C25 UNL     1     141.496 125.589 100.058  0.00  0.00    -0.029 C 
ATOM     28  C26 UNL     1     142.088 124.238 100.541  0.00  0.00    -0.049 C 
ATOM     29  C27 UNL     1     141.906 123.980 102.048  0.00  0.00    -0.047 C 
ATOM     30  C28 UNL     1     142.422 125.155 102.895  0.00  0.00    -0.026 C 
ATOM     31  C29 UNL     1     143.958 125.262 102.756  0.00  0.00    -0.059 C 
ATOM     32  H   UNL     1     139.729 128.317  92.800  0.00  0.00    +0.000 HD
ENDROOT
TORSDOF 0
ENDMDL
MODEL 2
REMARK VINA RESULT:    -5.075      1.172      1.284
REMARK INTER + INTRA:          -5.075
REMARK INTER:                  -5.075
REMARK INTRA:                   0.000
REMARK UNBOUND:                 0.000
REMARK  Name = /home/vital/Documents/PhD_2021/Malaria_codes/scripts/../data/pdbqt_ligands/ligand_405_temp.pdb
REMARK                            x       y       z     vdW  Elec       q    Type
REMARK                         _______ _______ _______ _____ _____    ______ ____
ROOT
ATOM      1  C1  UNL     1     142.496 122.234 109.747  0.00  0.00    -0.063 C 
ATOM      2  C2  UNL     1     141.048 122.708 109.843  0.00  0.00    -0.047 C 
ATOM      3  C3  UNL     1     140.116 121.531 110.130  0.00  0.00    -0.063 C 
ATOM      4  C4  UNL     1     140.592 123.570 108.646  0.00  0.00    -0.051 C 
ATOM      5  C5  UNL     1     140.158 122.868 107.356  0.00  0.00    -0.053 C 
ATOM      6  C6  UNL     1     141.226 122.226 106.461  0.00  0.00    -0.050 C 
ATOM      7  C7  UNL     1     142.213 123.130 105.671  0.00  0.00    -0.041 C 
ATOM      8  C8  UNL     1     143.403 123.547 106.538  0.00  0.00    -0.062 C 
ATOM      9  C9  UNL     1     141.496 124.268 104.895  0.00  0.00    -0.033 C 
ATOM     10  C10 UNL     1     141.401 125.652 105.591  0.00  0.00    -0.049 C 
ATOM     11  C11 UNL     1     141.268 126.697 104.465  0.00  0.00    -0.049 C 
ATOM     12  C12 UNL     1     141.153 125.865 103.192  0.00  0.00    -0.032 C 
ATOM     13  C13 UNL     1     141.455 126.533 101.846  0.00  0.00    -0.031 C 
ATOM     14  C14 UNL     1     140.578 127.778 101.637  0.00  0.00    -0.031 C 
ATOM     15  C15 UNL     1     140.361 128.158 100.205  0.00  0.00    -0.084 C 
ATOM     16  C16 UNL     1     140.767 127.437  99.143  0.00  0.00    -0.065 C 
ATOM     17  C17 UNL     1     140.303 127.840  97.759  0.00  0.00    -0.005 C 
ATOM     18  C18 UNL     1     141.137 127.260  96.615  0.00  0.00    +0.062 C 
ATOM     19  O1  UNL     1     140.492 127.609  95.381  0.00  0.00    -0.374 OA
ATOM     20  C19 UNL     1     141.340 127.453  94.235  0.00  0.00    +0.071 C 
ATOM     21  C20 UNL     1     140.546 127.892  93.009  0.00  0.00    +0.068 C 
ATOM     22  O2  UNL     1     140.158 129.257  93.150  0.00  0.00    -0.393 OA
ATOM     23  C21 UNL     1     141.287 125.736  96.735  0.00  0.00    -0.026 C 
ATOM     24  C22 UNL     1     141.125 125.178  98.157  0.00  0.00    -0.041 C 
ATOM     25  C23 UNL     1     141.565 126.138  99.292  0.00  0.00    -0.008 C 
ATOM     26  C24 UNL     1     143.077 126.441  99.155  0.00  0.00    -0.056 C 
ATOM     27  C25 UNL     1     141.243 125.496 100.699  0.00  0.00    -0.029 C 
ATOM     28  C26 UNL     1     141.972 124.153 100.974  0.00  0.00    -0.049 C 
ATOM     29  C27 UNL     1     141.728 123.590 102.387  0.00  0.00    -0.047 C 
ATOM     30  C28 UNL     1     142.035 124.630 103.477  0.00  0.00    -0.026 C 
ATOM     31  C29 UNL     1     143.551 124.936 103.493  0.00  0.00    -0.059 C 
ATOM     32  H   UNL     1     139.605 129.356  93.942  0.00  0.00    +0.000 HD
ENDROOT
TORSDOF 0
ENDMDL
MODEL 3
REMARK VINA RESULT:    -4.955      3.119      3.554
REMARK INTER + INTRA:          -4.955
REMARK INTER:                  -4.955
REMARK INTRA:                   0.000
REMARK UNBOUND:                 0.000
REMARK  Name = /home/vital/Documents/PhD_2021/Malaria_codes/scripts/../data/pdbqt_ligands/ligand_405_temp.pdb
REMARK                            x       y       z     vdW  Elec       q    Type
REMARK                         _______ _______ _______ _____ _____    ______ ____
ROOT
ATOM      1  C1  UNL     1     140.879 122.028 107.681  0.00  0.00    -0.063 C 
ATOM      2  C2  UNL     1     139.956 123.181 108.065  0.00  0.00    -0.047 C 
ATOM      3  C3  UNL     1     138.499 122.719 108.085  0.00  0.00    -0.063 C 
ATOM      4  C4  UNL     1     140.179 124.463 107.235  0.00  0.00    -0.051 C 
ATOM      5  C5  UNL     1     139.538 124.563 105.847  0.00  0.00    -0.053 C 
ATOM      6  C6  UNL     1     140.125 123.738 104.695  0.00  0.00    -0.050 C 
ATOM      7  C7  UNL     1     141.516 124.113 104.111  0.00  0.00    -0.041 C 
ATOM      8  C8  UNL     1     142.650 123.495 104.932  0.00  0.00    -0.062 C 
ATOM      9  C9  UNL     1     141.645 125.627 103.790  0.00  0.00    -0.033 C 
ATOM     10  C10 UNL     1     142.294 126.530 104.872  0.00  0.00    -0.049 C 
ATOM     11  C11 UNL     1     142.878 127.748 104.129  0.00  0.00    -0.049 C 
ATOM     12  C12 UNL     1     142.423 127.562 102.686  0.00  0.00    -0.032 C 
ATOM     13  C13 UNL     1     143.168 128.312 101.577  0.00  0.00    -0.031 C 
ATOM     14  C14 UNL     1     143.177 129.826 101.842  0.00  0.00    -0.031 C 
ATOM     15  C15 UNL     1     143.342 130.675 100.619  0.00  0.00    -0.084 C 
ATOM     16  C16 UNL     1     143.358 130.215  99.354  0.00  0.00    -0.065 C 
ATOM     17  C17 UNL     1     143.329 131.207  98.210  0.00  0.00    -0.005 C 
ATOM     18  C18 UNL     1     143.782 130.638  96.864  0.00  0.00    +0.062 C 
ATOM     19  O1  UNL     1     143.561 131.645  95.865  0.00  0.00    -0.374 OA
ATOM     20  C19 UNL     1     144.266 131.394  94.643  0.00  0.00    +0.071 C 
ATOM     21  C20 UNL     1     143.975 132.552  93.693  0.00  0.00    +0.068 C 
ATOM     22  O2  UNL     1     144.421 133.775  94.276  0.00  0.00    -0.393 OA
ATOM     23  C21 UNL     1     143.027 129.349  96.508  0.00  0.00    -0.026 C 
ATOM     24  C22 UNL     1     142.452 128.580  97.707  0.00  0.00    -0.041 C 
ATOM     25  C23 UNL     1     143.258 128.722  99.023  0.00  0.00    -0.008 C 
ATOM     26  C24 UNL     1     144.679 128.140  98.825  0.00  0.00    -0.056 C 
ATOM     27  C25 UNL     1     142.506 127.985 100.201  0.00  0.00    -0.029 C 
ATOM     28  C26 UNL     1     142.313 126.460  99.986  0.00  0.00    -0.049 C 
ATOM     29  C27 UNL     1     141.670 125.737 101.183  0.00  0.00    -0.047 C 
ATOM     30  C28 UNL     1     142.416 126.029 102.495  0.00  0.00    -0.026 C 
ATOM     31  C29 UNL     1     143.828 125.401 102.441  0.00  0.00    -0.059 C 
ATOM     32  H   UNL     1     143.956 133.923  95.114  0.00  0.00    +0.000 HD
ENDROOT
TORSDOF 0
ENDMDL
MODEL 4
REMARK VINA RESULT:    -4.946     10.876     15.136
REMARK INTER + INTRA:          -4.946
REMARK INTER:                  -4.946
REMARK INTRA:                   0.000
REMARK UNBOUND:                 0.000
REMARK  Name = /home/vital/Documents/PhD_2021/Malaria_codes/scripts/../data/pdbqt_ligands/ligand_405_temp.pdb
REMARK                            x       y       z     vdW  Elec       q    Type
REMARK                         _______ _______ _______ _____ _____    ______ ____
ROOT
ATOM      1  C1  UNL     1     133.256 120.600  85.394  0.00  0.00    -0.063 C 
ATOM      2  C2  UNL     1     132.566 120.758  86.746  0.00  0.00    -0.047 C 
ATOM      3  C3  UNL     1     131.157 121.323  86.567  0.00  0.00    -0.063 C 
ATOM      4  C4  UNL     1     133.404 121.526  87.790  0.00  0.00    -0.051 C 
ATOM      5  C5  UNL     1     133.414 123.057  87.745  0.00  0.00    -0.053 C 
ATOM      6  C6  UNL     1     134.192 123.764  86.629  0.00  0.00    -0.050 C 
ATOM      7  C7  UNL     1     135.746 123.726  86.631  0.00  0.00    -0.041 C 
ATOM      8  C8  UNL     1     136.273 122.444  85.981  0.00  0.00    -0.062 C 
ATOM      9  C9  UNL     1     136.355 124.098  88.010  0.00  0.00    -0.033 C 
ATOM     10  C10 UNL     1     136.717 122.930  88.966  0.00  0.00    -0.049 C 
ATOM     11  C11 UNL     1     137.824 123.458  89.898  0.00  0.00    -0.049 C 
ATOM     12  C12 UNL     1     137.952 124.933  89.534  0.00  0.00    -0.032 C 
ATOM     13  C13 UNL     1     139.234 125.679  89.917  0.00  0.00    -0.031 C 
ATOM     14  C14 UNL     1     139.503 125.576  91.428  0.00  0.00    -0.031 C 
ATOM     15  C15 UNL     1     140.342 126.681  91.991  0.00  0.00    -0.084 C 
ATOM     16  C16 UNL     1     140.748 127.769  91.309  0.00  0.00    -0.065 C 
ATOM     17  C17 UNL     1     141.419 128.900  92.061  0.00  0.00    -0.005 C 
ATOM     18  C18 UNL     1     142.217 129.862  91.179  0.00  0.00    +0.062 C 
ATOM     19  O1  UNL     1     142.664 130.947  92.007  0.00  0.00    -0.374 OA
ATOM     20  C19 UNL     1     143.714 131.719  91.410  0.00  0.00    +0.071 C 
ATOM     21  C20 UNL     1     144.115 132.804  92.405  0.00  0.00    +0.068 C 
ATOM     22  O2  UNL     1     144.574 132.201  93.614  0.00  0.00    -0.393 OA
ATOM     23  C21 UNL     1     141.380 130.388  90.004  0.00  0.00    -0.026 C 
ATOM     24  C22 UNL     1     140.207 129.487  89.589  0.00  0.00    -0.041 C 
ATOM     25  C23 UNL     1     140.430 127.971  89.824  0.00  0.00    -0.008 C 
ATOM     26  C24 UNL     1     141.625 127.486  88.969  0.00  0.00    -0.056 C 
ATOM     27  C25 UNL     1     139.117 127.169  89.467  0.00  0.00    -0.029 C 
ATOM     28  C26 UNL     1     138.663 127.305  87.989  0.00  0.00    -0.049 C 
ATOM     29  C27 UNL     1     137.442 126.439  87.629  0.00  0.00    -0.047 C 
ATOM     30  C28 UNL     1     137.651 124.967  88.019  0.00  0.00    -0.026 C 
ATOM     31  C29 UNL     1     138.769 124.350  87.147  0.00  0.00    -0.059 C 
ATOM     32  H   UNL     1     143.864 131.662  93.996  0.00  0.00    +0.000 HD
ENDROOT
TORSDOF 0
ENDMDL
MODEL 5
REMARK VINA RESULT:    -4.780      4.082      5.219
REMARK INTER + INTRA:          -4.780
REMARK INTER:                  -4.780
REMARK INTRA:                   0.000
REMARK UNBOUND:                 0.000
REMARK  Name = /home/vital/Documents/PhD_2021/Malaria_codes/scripts/../data/pdbqt_ligands/ligand_405_temp.pdb
REMARK                            x       y       z     vdW  Elec       q    Type
REMARK                         _______ _______ _______ _____ _____    ______ ____
ROOT
ATOM      1  C1  UNL     1     139.189 121.349 106.587  0.00  0.00    -0.063 C 
ATOM      2  C2  UNL     1     139.599 122.278 107.726  0.00  0.00    -0.047 C 
ATOM      3  C3  UNL     1     138.373 122.724 108.522  0.00  0.00    -0.063 C 
ATOM      4  C4  UNL     1     140.499 123.451 107.283  0.00  0.00    -0.051 C 
ATOM      5  C5  UNL     1     139.845 124.688 106.661  0.00  0.00    -0.053 C 
ATOM      6  C6  UNL     1     139.290 124.600 105.234  0.00  0.00    -0.050 C 
ATOM      7  C7  UNL     1     140.271 124.480 104.034  0.00  0.00    -0.041 C 
ATOM      8  C8  UNL     1     140.692 123.028 103.800  0.00  0.00    -0.062 C 
ATOM      9  C9  UNL     1     141.416 125.528 104.086  0.00  0.00    -0.033 C 
ATOM     10  C10 UNL     1     142.760 125.081 104.721  0.00  0.00    -0.049 C 
ATOM     11  C11 UNL     1     143.852 125.978 104.106  0.00  0.00    -0.049 C 
ATOM     12  C12 UNL     1     143.080 126.983 103.258  0.00  0.00    -0.032 C 
ATOM     13  C13 UNL     1     143.824 127.740 102.153  0.00  0.00    -0.031 C 
ATOM     14  C14 UNL     1     145.041 128.489 102.720  0.00  0.00    -0.031 C 
ATOM     15  C15 UNL     1     145.482 129.670 101.911  0.00  0.00    -0.084 C 
ATOM     16  C16 UNL     1     144.830 130.160 100.840  0.00  0.00    -0.065 C 
ATOM     17  C17 UNL     1     145.282 131.478 100.244  0.00  0.00    -0.005 C 
ATOM     18  C18 UNL     1     144.792 131.731  98.817  0.00  0.00    +0.062 C 
ATOM     19  O1  UNL     1     145.176 133.066  98.452  0.00  0.00    -0.374 OA
ATOM     20  C19 UNL     1     145.109 133.307  97.041  0.00  0.00    +0.071 C 
ATOM     21  C20 UNL     1     145.575 134.739  96.793  0.00  0.00    +0.068 C 
ATOM     22  O2  UNL     1     146.916 134.895  97.257  0.00  0.00    -0.393 OA
ATOM     23  C21 UNL     1     143.272 131.552  98.696  0.00  0.00    -0.026 C 
ATOM     24  C22 UNL     1     142.638 130.642  99.759  0.00  0.00    -0.041 C 
ATOM     25  C23 UNL     1     143.559 129.511 100.286  0.00  0.00    -0.008 C 
ATOM     26  C24 UNL     1     143.928 128.561  99.121  0.00  0.00    -0.056 C 
ATOM     27  C25 UNL     1     142.837 128.723 101.449  0.00  0.00    -0.029 C 
ATOM     28  C26 UNL     1     141.512 128.030 101.030  0.00  0.00    -0.049 C 
ATOM     29  C27 UNL     1     140.871 127.183 102.145  0.00  0.00    -0.047 C 
ATOM     30  C28 UNL     1     141.868 126.176 102.741  0.00  0.00    -0.026 C 
ATOM     31  C29 UNL     1     142.233 125.114 101.679  0.00  0.00    -0.059 C 
ATOM     32  H   UNL     1     146.953 134.705  98.208  0.00  0.00    +0.000 HD
ENDROOT
TORSDOF 0
ENDMDL
MODEL 6
REMARK VINA RESULT:    -4.745     14.082     16.846
REMARK INTER + INTRA:          -4.745
REMARK INTER:                  -4.745
REMARK INTRA:                   0.000
REMARK UNBOUND:                 0.000
REMARK  Name = /home/vital/Documents/PhD_2021/Malaria_codes/scripts/../data/pdbqt_ligands/ligand_405_temp.pdb
REMARK                            x       y       z     vdW  Elec       q    Type
REMARK                         _______ _______ _______ _____ _____    ______ ____
ROOT
ATOM      1  C1  UNL     1     133.315 121.571  85.655  0.00  0.00    -0.063 C 
ATOM      2  C2  UNL     1     132.697 122.040  86.969  0.00  0.00    -0.047 C 
ATOM      3  C3  UNL     1     131.201 122.302  86.794  0.00  0.00    -0.063 C 
ATOM      4  C4  UNL     1     133.449 123.214  87.630  0.00  0.00    -0.051 C 
ATOM      5  C5  UNL     1     133.181 124.637  87.129  0.00  0.00    -0.053 C 
ATOM      6  C6  UNL     1     133.746 125.066  85.769  0.00  0.00    -0.050 C 
ATOM      7  C7  UNL     1     135.279 125.264  85.601  0.00  0.00    -0.041 C 
ATOM      8  C8  UNL     1     135.984 123.938  85.308  0.00  0.00    -0.062 C 
ATOM      9  C9  UNL     1     135.899 126.139  86.725  0.00  0.00    -0.033 C 
ATOM     10  C10 UNL     1     136.524 125.399  87.937  0.00  0.00    -0.049 C 
ATOM     11  C11 UNL     1     137.577 126.355  88.533  0.00  0.00    -0.049 C 
ATOM     12  C12 UNL     1     137.414 127.642  87.732  0.00  0.00    -0.032 C 
ATOM     13  C13 UNL     1     138.564 128.654  87.723  0.00  0.00    -0.031 C 
ATOM     14  C14 UNL     1     138.944 129.073  89.153  0.00  0.00    -0.031 C 
ATOM     15  C15 UNL     1     139.605 130.413  89.258  0.00  0.00    -0.084 C 
ATOM     16  C16 UNL     1     139.764 131.278  88.239  0.00  0.00    -0.065 C 
ATOM     17  C17 UNL     1     140.269 132.676  88.535  0.00  0.00    -0.005 C 
ATOM     18  C18 UNL     1     140.823 133.421  87.319  0.00  0.00    +0.062 C 
ATOM     19  O1  UNL     1     141.120 134.765  87.727  0.00  0.00    -0.374 OA
ATOM     20  C19 UNL     1     141.974 135.460  86.807  0.00  0.00    +0.071 C 
ATOM     21  C20 UNL     1     142.237 136.850  87.379  0.00  0.00    +0.068 C 
ATOM     22  O2  UNL     1     142.874 136.734  88.650  0.00  0.00    -0.393 OA
ATOM     23  C21 UNL     1     139.831 133.418  86.147  0.00  0.00    -0.026 C 
ATOM     24  C22 UNL     1     138.815 132.266  86.159  0.00  0.00    -0.041 C 
ATOM     25  C23 UNL     1     139.321 130.954  86.810  0.00  0.00    -0.008 C 
ATOM     26  C24 UNL     1     140.526 130.409  86.005  0.00  0.00    -0.056 C 
ATOM     27  C25 UNL     1     138.153 129.891  86.864  0.00  0.00    -0.029 C 
ATOM     28  C26 UNL     1     137.588 129.485  85.477  0.00  0.00    -0.049 C 
ATOM     29  C27 UNL     1     136.521 128.377  85.537  0.00  0.00    -0.047 C 
ATOM     30  C28 UNL     1     137.015 127.151  86.323  0.00  0.00    -0.026 C 
ATOM     31  C29 UNL     1     138.168 126.468  85.551  0.00  0.00    -0.059 C 
ATOM     32  H   UNL     1     142.298 136.242  89.257  0.00  0.00    +0.000 HD
ENDROOT
TORSDOF 0
ENDMDL
MODEL 7
REMARK VINA RESULT:    -4.544     12.579     15.095
REMARK INTER + INTRA:          -4.544
REMARK INTER:                  -4.544
REMARK INTRA:                   0.000
REMARK UNBOUND:                 0.000
REMARK  Name = /home/vital/Documents/PhD_2021/Malaria_codes/scripts/../data/pdbqt_ligands/ligand_405_temp.pdb
REMARK                            x       y       z     vdW  Elec       q    Type
REMARK                         _______ _______ _______ _____ _____    ______ ____
ROOT
ATOM      1  C1  UNL     1     134.646 122.461  87.092  0.00  0.00    -0.063 C 
ATOM      2  C2  UNL     1     134.510 122.514  88.610  0.00  0.00    -0.047 C 
ATOM      3  C3  UNL     1     133.053 122.746  89.011  0.00  0.00    -0.063 C 
ATOM      4  C4  UNL     1     135.493 123.487  89.294  0.00  0.00    -0.051 C 
ATOM      5  C5  UNL     1     135.150 124.979  89.325  0.00  0.00    -0.053 C 
ATOM      6  C6  UNL     1     135.267 125.798  88.034  0.00  0.00    -0.050 C 
ATOM      7  C7  UNL     1     136.671 126.104  87.441  0.00  0.00    -0.041 C 
ATOM      8  C8  UNL     1     137.176 124.947  86.577  0.00  0.00    -0.062 C 
ATOM      9  C9  UNL     1     137.664 126.655  88.501  0.00  0.00    -0.033 C 
ATOM     10  C10 UNL     1     138.610 125.633  89.186  0.00  0.00    -0.049 C 
ATOM     11  C11 UNL     1     139.845 126.428  89.652  0.00  0.00    -0.049 C 
ATOM     12  C12 UNL     1     139.498 127.880  89.341  0.00  0.00    -0.032 C 
ATOM     13  C13 UNL     1     140.632 128.905  89.244  0.00  0.00    -0.031 C 
ATOM     14  C14 UNL     1     141.474 128.921  90.530  0.00  0.00    -0.031 C 
ATOM     15  C15 UNL     1     142.201 130.206  90.786  0.00  0.00    -0.084 C 
ATOM     16  C16 UNL     1     142.067 131.329  90.057  0.00  0.00    -0.065 C 
ATOM     17  C17 UNL     1     142.709 132.609  90.552  0.00  0.00    -0.005 C 
ATOM     18  C18 UNL     1     142.878 133.689  89.482  0.00  0.00    +0.062 C 
ATOM     19  O1  UNL     1     143.359 134.877  90.131  0.00  0.00    -0.374 OA
ATOM     20  C19 UNL     1     143.903 135.839  89.218  0.00  0.00    +0.071 C 
ATOM     21  C20 UNL     1     144.407 137.023  90.038  0.00  0.00    +0.068 C 
ATOM     22  O2  UNL     1     145.414 136.583  90.949  0.00  0.00    -0.393 OA
ATOM     23  C21 UNL     1     141.562 133.972  88.743  0.00  0.00    -0.026 C 
ATOM     24  C22 UNL     1     140.547 132.819  88.761  0.00  0.00    -0.041 C 
ATOM     25  C23 UNL     1     141.169 131.400  88.817  0.00  0.00    -0.008 C 
ATOM     26  C24 UNL     1     142.020 131.158  87.547  0.00  0.00    -0.056 C 
ATOM     27  C25 UNL     1     140.029 130.314  88.948  0.00  0.00    -0.029 C 
ATOM     28  C26 UNL     1     139.026 130.289  87.763  0.00  0.00    -0.049 C 
ATOM     29  C27 UNL     1     137.982 129.162  87.853  0.00  0.00    -0.047 C 
ATOM     30  C28 UNL     1     138.640 127.788  88.059  0.00  0.00    -0.026 C 
ATOM     31  C29 UNL     1     139.445 127.402  86.797  0.00  0.00    -0.059 C 
ATOM     32  H   UNL     1     145.041 135.915  91.545  0.00  0.00    +0.000 HD
ENDROOT
TORSDOF 0
ENDMDL
MODEL 8
REMARK VINA RESULT:    -4.515     10.090     14.592
REMARK INTER + INTRA:          -4.515
REMARK INTER:                  -4.515
REMARK INTRA:                   0.000
REMARK UNBOUND:                 0.000
REMARK  Name = /home/vital/Documents/PhD_2021/Malaria_codes/scripts/../data/pdbqt_ligands/ligand_405_temp.pdb
REMARK                            x       y       z     vdW  Elec       q    Type
REMARK                         _______ _______ _______ _____ _____    ______ ____
ROOT
ATOM      1  C1  UNL     1     134.743 121.601  85.320  0.00  0.00    -0.063 C 
ATOM      2  C2  UNL     1     133.847 121.813  86.537  0.00  0.00    -0.047 C 
ATOM      3  C3  UNL     1     132.522 122.453  86.124  0.00  0.00    -0.063 C 
ATOM      4  C4  UNL     1     134.541 122.544  87.705  0.00  0.00    -0.051 C 
ATOM      5  C5  UNL     1     134.646 124.072  87.659  0.00  0.00    -0.053 C 
ATOM      6  C6  UNL     1     135.638 124.722  86.687  0.00  0.00    -0.050 C 
ATOM      7  C7  UNL     1     137.165 124.597  86.949  0.00  0.00    -0.041 C 
ATOM      8  C8  UNL     1     137.719 123.281  86.399  0.00  0.00    -0.062 C 
ATOM      9  C9  UNL     1     137.556 124.951  88.409  0.00  0.00    -0.033 C 
ATOM     10  C10 UNL     1     137.686 123.776  89.414  0.00  0.00    -0.049 C 
ATOM     11  C11 UNL     1     138.651 124.252  90.518  0.00  0.00    -0.049 C 
ATOM     12  C12 UNL     1     138.921 125.714  90.177  0.00  0.00    -0.032 C 
ATOM     13  C13 UNL     1     140.161 126.391  90.768  0.00  0.00    -0.031 C 
ATOM     14  C14 UNL     1     140.169 126.291  92.302  0.00  0.00    -0.031 C 
ATOM     15  C15 UNL     1     140.963 127.354  92.995  0.00  0.00    -0.084 C 
ATOM     16  C16 UNL     1     141.538 128.409  92.388  0.00  0.00    -0.065 C 
ATOM     17  C17 UNL     1     142.138 129.510  93.239  0.00  0.00    -0.005 C 
ATOM     18  C18 UNL     1     143.125 130.416  92.501  0.00  0.00    +0.062 C 
ATOM     19  O1  UNL     1     143.489 131.484  93.390  0.00  0.00    -0.374 OA
ATOM     20  C19 UNL     1     144.665 132.190  92.975  0.00  0.00    +0.071 C 
ATOM     21  C20 UNL     1     144.956 133.262  94.021  0.00  0.00    +0.068 C 
ATOM     22  O2  UNL     1     145.172 132.649  95.291  0.00  0.00    -0.393 OA
ATOM     23  C21 UNL     1     142.526 130.974  91.202  0.00  0.00    -0.026 C 
ATOM     24  C22 UNL     1     141.390 130.135  90.598  0.00  0.00    -0.041 C 
ATOM     25  C23 UNL     1     141.485 128.612  90.871  0.00  0.00    -0.008 C 
ATOM     26  C24 UNL     1     142.776 128.051  90.228  0.00  0.00    -0.056 C 
ATOM     27  C25 UNL     1     140.206 127.880  90.301  0.00  0.00    -0.029 C 
ATOM     28  C26 UNL     1     140.014 128.024  88.767  0.00  0.00    -0.049 C 
ATOM     29  C27 UNL     1     138.822 127.223  88.210  0.00  0.00    -0.047 C 
ATOM     30  C28 UNL     1     138.879 125.746  88.633  0.00  0.00    -0.026 C 
ATOM     31  C29 UNL     1     140.090 125.059  87.961  0.00  0.00    -0.059 C 
ATOM     32  H   UNL     1     144.379 132.154  95.551  0.00  0.00    +0.000 HD
ENDROOT
TORSDOF 0
ENDMDL
