MODEL 1
REMARK VINA RESULT:    -4.937      0.000      0.000
REMARK INTER + INTRA:          -4.937
REMARK INTER:                  -4.937
REMARK INTRA:                   0.000
REMARK UNBOUND:                 0.000
REMARK  Name = /home/vital/Documents/PhD_2021/Malaria_codes/scripts/../data/pdbqt_ligands/ligand_253_temp.pdb
REMARK                            x       y       z     vdW  Elec       q    Type
REMARK                         _______ _______ _______ _____ _____    ______ ____
ROOT
ATOM      1  C   UNL     1     143.526 128.060 101.593  0.00  0.00    -0.046 C 
ATOM      2  C   UNL     1     142.110 128.373 102.094  0.00  0.00    +0.030 C 
ATOM      3  N   UNL     1     141.806 127.719 103.373  0.00  0.00    -0.306 N 
ATOM      4  C   UNL     1     141.794 126.259 103.340  0.00  0.00    +0.023 C 
ATOM      5  C   UNL     1     141.472 125.702 104.710  0.00  0.00    -0.012 A 
ATOM      6  C   UNL     1     140.122 125.471 105.041  0.00  0.00    -0.056 A 
ATOM      7  C   UNL     1     139.763 124.975 106.296  0.00  0.00    -0.058 A 
ATOM      8  C   UNL     1     140.745 124.707 107.245  0.00  0.00    -0.019 A 
ATOM      9  C   UNL     1     142.086 124.939 106.937  0.00  0.00    +0.135 A 
ATOM     10  O   UNL     1     143.044 124.674 107.880  0.00  0.00    -0.505 OA
ATOM     11  C   UNL     1     142.458 125.438 105.679  0.00  0.00    +0.087 A 
ATOM     12 CL   UNL     1     144.137 125.721 105.345  0.00  0.00    -0.079 Cl
ATOM     13  C   UNL     1     140.998 128.185 101.068  0.00  0.00    -0.031 A 
ATOM     14  C   UNL     1     139.836 128.971 101.171  0.00  0.00    -0.056 A 
ATOM     15  C   UNL     1     138.783 128.820 100.266  0.00  0.00    -0.043 A 
ATOM     16  C   UNL     1     138.877 127.876  99.248  0.00  0.00    +0.041 A 
ATOM     17 CL   UNL     1     137.580 127.685  98.135  0.00  0.00    -0.084 Cl
ATOM     18  C   UNL     1     140.014 127.083  99.130  0.00  0.00    -0.043 A 
ATOM     19  C   UNL     1     141.069 127.234 100.037  0.00  0.00    -0.056 A 
ATOM     20  H   UNL     1     140.886 128.035 103.679  0.00  0.00    +0.000 HD
ATOM     21  H   UNL     1     142.560 127.980 104.009  0.00  0.00    +0.000 HD
ATOM     22  H   UNL     1     142.795 124.340 108.720  0.00  0.00    +0.000 HD
ENDROOT
TORSDOF 0
ENDMDL
MODEL 2
REMARK VINA RESULT:    -4.780      3.554      6.728
REMARK INTER + INTRA:          -4.780
REMARK INTER:                  -4.780
REMARK INTRA:                   0.000
REMARK UNBOUND:                 0.000
REMARK  Name = /home/vital/Documents/PhD_2021/Malaria_codes/scripts/../data/pdbqt_ligands/ligand_253_temp.pdb
REMARK                            x       y       z     vdW  Elec       q    Type
REMARK                         _______ _______ _______ _____ _____    ______ ____
ROOT
ATOM      1  C   UNL     1     144.076 126.243 103.158  0.00  0.00    -0.046 C 
ATOM      2  C   UNL     1     142.724 125.650 102.738  0.00  0.00    +0.030 C 
ATOM      3  N   UNL     1     142.014 126.495 101.769  0.00  0.00    -0.306 N 
ATOM      4  C   UNL     1     141.621 127.813 102.259  0.00  0.00    +0.023 C 
ATOM      5  C   UNL     1     140.901 128.587 101.176  0.00  0.00    -0.012 A 
ATOM      6  C   UNL     1     139.501 128.465 101.081  0.00  0.00    -0.056 A 
ATOM      7  C   UNL     1     138.786 129.141 100.090  0.00  0.00    -0.058 A 
ATOM      8  C   UNL     1     139.456 129.946  99.173  0.00  0.00    -0.019 A 
ATOM      9  C   UNL     1     140.844 130.070  99.247  0.00  0.00    +0.135 A 
ATOM     10  O   UNL     1     141.494 130.862  98.339  0.00  0.00    -0.505 OA
ATOM     11  C   UNL     1     141.574 129.394 100.239  0.00  0.00    +0.087 A 
ATOM     12 CL   UNL     1     143.299 129.570 100.285  0.00  0.00    -0.079 Cl
ATOM     13  C   UNL     1     141.825 125.201 103.884  0.00  0.00    -0.031 A 
ATOM     14  C   UNL     1     140.916 124.149 103.665  0.00  0.00    -0.056 A 
ATOM     15  C   UNL     1     140.058 123.717 104.679  0.00  0.00    -0.043 A 
ATOM     16  C   UNL     1     140.096 124.335 105.925  0.00  0.00    +0.041 A 
ATOM     17 CL   UNL     1     139.038 123.806 107.175  0.00  0.00    -0.084 Cl
ATOM     18  C   UNL     1     140.982 125.381 106.164  0.00  0.00    -0.043 A 
ATOM     19  C   UNL     1     141.841 125.814 105.148  0.00  0.00    -0.056 A 
ATOM     20  H   UNL     1     141.169 126.001 101.480  0.00  0.00    +0.000 HD
ATOM     21  H   UNL     1     142.671 126.662 101.007  0.00  0.00    +0.000 HD
ATOM     22  H   UNL     1     141.006 131.313  97.677  0.00  0.00    +0.000 HD
ENDROOT
TORSDOF 0
ENDMDL
MODEL 3
REMARK VINA RESULT:    -4.727      4.820      6.868
REMARK INTER + INTRA:          -4.727
REMARK INTER:                  -4.727
REMARK INTRA:                   0.000
REMARK UNBOUND:                 0.000
REMARK  Name = /home/vital/Documents/PhD_2021/Malaria_codes/scripts/../data/pdbqt_ligands/ligand_253_temp.pdb
REMARK                            x       y       z     vdW  Elec       q    Type
REMARK                         _______ _______ _______ _____ _____    ______ ____
ROOT
ATOM      1  C   UNL     1     143.752 126.188  96.279  0.00  0.00    -0.046 C 
ATOM      2  C   UNL     1     142.666 127.152  95.783  0.00  0.00    +0.030 C 
ATOM      3  N   UNL     1     141.823 127.661  96.873  0.00  0.00    -0.306 N 
ATOM      4  C   UNL     1     141.030 126.653  97.571  0.00  0.00    +0.023 C 
ATOM      5  C   UNL     1     140.207 127.294  98.667  0.00  0.00    -0.012 A 
ATOM      6  C   UNL     1     138.913 127.755  98.353  0.00  0.00    -0.056 A 
ATOM      7  C   UNL     1     138.115 128.371  99.319  0.00  0.00    -0.058 A 
ATOM      8  C   UNL     1     138.597 128.545 100.614  0.00  0.00    -0.019 A 
ATOM      9  C   UNL     1     139.879 128.103 100.939  0.00  0.00    +0.135 A 
ATOM     10  O   UNL     1     140.344 128.280 102.215  0.00  0.00    -0.505 OA
ATOM     11  C   UNL     1     140.691 127.482  99.975  0.00  0.00    +0.087 A 
ATOM     12 CL   UNL     1     142.284 126.959 100.423  0.00  0.00    -0.079 Cl
ATOM     13  C   UNL     1     141.846 126.656  94.598  0.00  0.00    -0.031 A 
ATOM     14  C   UNL     1     141.299 127.597  93.707  0.00  0.00    -0.056 A 
ATOM     15  C   UNL     1     140.523 127.190  92.618  0.00  0.00    -0.043 A 
ATOM     16  C   UNL     1     140.282 125.836  92.410  0.00  0.00    +0.041 A 
ATOM     17 CL   UNL     1     139.324 125.333  91.072  0.00  0.00    -0.084 Cl
ATOM     18  C   UNL     1     140.808 124.887  93.281  0.00  0.00    -0.043 A 
ATOM     19  C   UNL     1     141.584 125.295  94.371  0.00  0.00    -0.056 A 
ATOM     20  H   UNL     1     141.181 128.349  96.479  0.00  0.00    +0.000 HD
ATOM     21  H   UNL     1     142.463 128.047  97.567  0.00  0.00    +0.000 HD
ATOM     22  H   UNL     1     139.802 128.694 102.858  0.00  0.00    +0.000 HD
ENDROOT
TORSDOF 0
ENDMDL
MODEL 4
REMARK VINA RESULT:    -4.623      5.296      8.102
REMARK INTER + INTRA:          -4.623
REMARK INTER:                  -4.623
REMARK INTRA:                   0.000
REMARK UNBOUND:                 0.000
REMARK  Name = /home/vital/Documents/PhD_2021/Malaria_codes/scripts/../data/pdbqt_ligands/ligand_253_temp.pdb
REMARK                            x       y       z     vdW  Elec       q    Type
REMARK                         _______ _______ _______ _____ _____    ______ ____
ROOT
ATOM      1  C   UNL     1     139.481 130.321 100.957  0.00  0.00    -0.046 C 
ATOM      2  C   UNL     1     140.883 129.705 101.056  0.00  0.00    +0.030 C 
ATOM      3  N   UNL     1     141.924 130.576 100.494  0.00  0.00    -0.306 N 
ATOM      4  C   UNL     1     141.814 130.837  99.061  0.00  0.00    +0.023 C 
ATOM      5  C   UNL     1     142.936 131.743  98.601  0.00  0.00    -0.012 A 
ATOM      6  C   UNL     1     144.138 131.154  98.163  0.00  0.00    -0.056 A 
ATOM      7  C   UNL     1     145.213 131.939  97.744  0.00  0.00    -0.058 A 
ATOM      8  C   UNL     1     145.110 133.328  97.762  0.00  0.00    -0.019 A 
ATOM      9  C   UNL     1     143.930 133.928  98.203  0.00  0.00    +0.135 A 
ATOM     10  O   UNL     1     143.840 135.294  98.218  0.00  0.00    -0.505 OA
ATOM     11  C   UNL     1     142.842 133.147  98.627  0.00  0.00    +0.087 A 
ATOM     12 CL   UNL     1     141.399 133.938  99.176  0.00  0.00    -0.079 Cl
ATOM     13  C   UNL     1     141.000 128.268 100.560  0.00  0.00    -0.031 A 
ATOM     14  C   UNL     1     141.978 127.430 101.126  0.00  0.00    -0.056 A 
ATOM     15  C   UNL     1     142.136 126.112 100.689  0.00  0.00    -0.043 A 
ATOM     16  C   UNL     1     141.319 125.618  99.677  0.00  0.00    +0.041 A 
ATOM     17 CL   UNL     1     141.514 123.996  99.135  0.00  0.00    -0.084 Cl
ATOM     18  C   UNL     1     140.349 126.430  99.098  0.00  0.00    -0.043 A 
ATOM     19  C   UNL     1     140.192 127.749  99.535  0.00  0.00    -0.056 A 
ATOM     20  H   UNL     1     142.829 130.138 100.666  0.00  0.00    +0.000 HD
ATOM     21  H   UNL     1     141.813 131.480 100.954  0.00  0.00    +0.000 HD
ATOM     22  H   UNL     1     144.566 135.815  97.935  0.00  0.00    +0.000 HD
ENDROOT
TORSDOF 0
ENDMDL
MODEL 5
REMARK VINA RESULT:    -4.528      2.415      2.965
REMARK INTER + INTRA:          -4.528
REMARK INTER:                  -4.528
REMARK INTRA:                   0.000
REMARK UNBOUND:                 0.000
REMARK  Name = /home/vital/Documents/PhD_2021/Malaria_codes/scripts/../data/pdbqt_ligands/ligand_253_temp.pdb
REMARK                            x       y       z     vdW  Elec       q    Type
REMARK                         _______ _______ _______ _____ _____    ______ ____
ROOT
ATOM      1  C   UNL     1     143.189 130.760 100.283  0.00  0.00    -0.046 C 
ATOM      2  C   UNL     1     142.058 130.135 101.110  0.00  0.00    +0.030 C 
ATOM      3  N   UNL     1     142.559 129.271 102.187  0.00  0.00    -0.306 N 
ATOM      4  C   UNL     1     143.294 128.088 101.748  0.00  0.00    +0.023 C 
ATOM      5  C   UNL     1     143.757 127.280 102.941  0.00  0.00    -0.012 A 
ATOM      6  C   UNL     1     142.907 126.275 103.443  0.00  0.00    -0.056 A 
ATOM      7  C   UNL     1     143.274 125.511 104.553  0.00  0.00    -0.058 A 
ATOM      8  C   UNL     1     144.493 125.740 105.185  0.00  0.00    -0.019 A 
ATOM      9  C   UNL     1     145.342 126.738 104.707  0.00  0.00    +0.135 A 
ATOM     10  O   UNL     1     146.538 126.957 105.337  0.00  0.00    -0.505 OA
ATOM     11  C   UNL     1     144.984 127.514 103.592  0.00  0.00    +0.087 A 
ATOM     12 CL   UNL     1     146.068 128.750 103.040  0.00  0.00    -0.079 Cl
ATOM     13  C   UNL     1     140.949 129.471 100.303  0.00  0.00    -0.031 A 
ATOM     14  C   UNL     1     139.650 129.425 100.841  0.00  0.00    -0.056 A 
ATOM     15  C   UNL     1     138.605 128.810 100.146  0.00  0.00    -0.043 A 
ATOM     16  C   UNL     1     138.849 128.229  98.905  0.00  0.00    +0.041 A 
ATOM     17 CL   UNL     1     137.565 127.468  98.049  0.00  0.00    -0.084 Cl
ATOM     18  C   UNL     1     140.127 128.258  98.356  0.00  0.00    -0.043 A 
ATOM     19  C   UNL     1     141.172 128.874  99.052  0.00  0.00    -0.056 A 
ATOM     20  H   UNL     1     141.759 128.958 102.738  0.00  0.00    +0.000 HD
ATOM     21  H   UNL     1     143.223 129.836 102.716  0.00  0.00    +0.000 HD
ATOM     22  H   UNL     1     146.778 126.439 106.081  0.00  0.00    +0.000 HD
ENDROOT
TORSDOF 0
ENDMDL
MODEL 6
REMARK VINA RESULT:    -4.490      6.689      9.352
REMARK INTER + INTRA:          -4.490
REMARK INTER:                  -4.490
REMARK INTRA:                   0.000
REMARK UNBOUND:                 0.000
REMARK  Name = /home/vital/Documents/PhD_2021/Malaria_codes/scripts/../data/pdbqt_ligands/ligand_253_temp.pdb
REMARK                            x       y       z     vdW  Elec       q    Type
REMARK                         _______ _______ _______ _____ _____    ______ ____
ROOT
ATOM      1  C   UNL     1     143.118 131.169 100.784  0.00  0.00    -0.046 C 
ATOM      2  C   UNL     1     143.040 130.223  99.578  0.00  0.00    +0.030 C 
ATOM      3  N   UNL     1     143.685 130.781  98.382  0.00  0.00    -0.306 N 
ATOM      4  C   UNL     1     143.070 131.994  97.849  0.00  0.00    +0.023 C 
ATOM      5  C   UNL     1     143.819 132.472  96.624  0.00  0.00    -0.012 A 
ATOM      6  C   UNL     1     143.414 131.995  95.361  0.00  0.00    -0.056 A 
ATOM      7  C   UNL     1     144.079 132.387  94.198  0.00  0.00    -0.058 A 
ATOM      8  C   UNL     1     145.164 133.257  94.274  0.00  0.00    -0.019 A 
ATOM      9  C   UNL     1     145.583 133.730  95.517  0.00  0.00    +0.135 A 
ATOM     10  O   UNL     1     146.653 134.584  95.581  0.00  0.00    -0.505 OA
ATOM     11  C   UNL     1     144.923 133.342  96.694  0.00  0.00    +0.087 A 
ATOM     12 CL   UNL     1     145.488 133.949  98.218  0.00  0.00    -0.079 Cl
ATOM     13  C   UNL     1     141.656 129.658  99.281  0.00  0.00    -0.031 A 
ATOM     14  C   UNL     1     141.554 128.398  98.664  0.00  0.00    -0.056 A 
ATOM     15  C   UNL     1     140.307 127.849  98.354  0.00  0.00    -0.043 A 
ATOM     16  C   UNL     1     139.147 128.556  98.654  0.00  0.00    +0.041 A 
ATOM     17 CL   UNL     1     137.611 127.883  98.270  0.00  0.00    -0.084 Cl
ATOM     18  C   UNL     1     139.224 129.806  99.259  0.00  0.00    -0.043 A 
ATOM     19  C   UNL     1     140.472 130.356  99.569  0.00  0.00    -0.056 A 
ATOM     20  H   UNL     1     143.662 130.070  97.651  0.00  0.00    +0.000 HD
ATOM     21  H   UNL     1     144.628 131.045  98.667  0.00  0.00    +0.000 HD
ATOM     22  H   UNL     1     147.093 134.843  94.795  0.00  0.00    +0.000 HD
ENDROOT
TORSDOF 0
ENDMDL
MODEL 7
REMARK VINA RESULT:    -4.147     16.629     17.904
REMARK INTER + INTRA:          -4.147
REMARK INTER:                  -4.147
REMARK INTRA:                   0.000
REMARK UNBOUND:                 0.000
REMARK  Name = /home/vital/Documents/PhD_2021/Malaria_codes/scripts/../data/pdbqt_ligands/ligand_253_temp.pdb
REMARK                            x       y       z     vdW  Elec       q    Type
REMARK                         _______ _______ _______ _____ _____    ______ ____
ROOT
ATOM      1  C   UNL     1     133.425 125.714  85.130  0.00  0.00    -0.046 C 
ATOM      2  C   UNL     1     134.091 124.366  85.435  0.00  0.00    +0.030 C 
ATOM      3  N   UNL     1     133.421 123.638  86.521  0.00  0.00    -0.306 N 
ATOM      4  C   UNL     1     133.459 124.291  87.827  0.00  0.00    +0.023 C 
ATOM      5  C   UNL     1     132.738 123.450  88.859  0.00  0.00    -0.012 A 
ATOM      6  C   UNL     1     133.478 122.491  89.579  0.00  0.00    -0.056 A 
ATOM      7  C   UNL     1     132.863 121.675  90.530  0.00  0.00    -0.058 A 
ATOM      8  C   UNL     1     131.498 121.797  90.775  0.00  0.00    -0.019 A 
ATOM      9  C   UNL     1     130.749 122.735  90.064  0.00  0.00    +0.135 A 
ATOM     10  O   UNL     1     129.406 122.845  90.312  0.00  0.00    -0.505 OA
ATOM     11  C   UNL     1     131.357 123.561  89.104  0.00  0.00    +0.087 A 
ATOM     12 CL   UNL     1     130.383 124.705  88.237  0.00  0.00    -0.079 Cl
ATOM     13  C   UNL     1     135.604 124.411  85.616  0.00  0.00    -0.031 A 
ATOM     14  C   UNL     1     136.363 123.272  85.292  0.00  0.00    -0.056 A 
ATOM     15  C   UNL     1     137.750 123.260  85.460  0.00  0.00    -0.043 A 
ATOM     16  C   UNL     1     138.395 124.388  85.958  0.00  0.00    +0.041 A 
ATOM     17 CL   UNL     1     140.102 124.375  86.169  0.00  0.00    -0.084 Cl
ATOM     18  C   UNL     1     137.664 125.525  86.290  0.00  0.00    -0.043 A 
ATOM     19  C   UNL     1     136.276 125.536  86.122  0.00  0.00    -0.056 A 
ATOM     20  H   UNL     1     133.867 122.726  86.612  0.00  0.00    +0.000 HD
ATOM     21  H   UNL     1     132.436 123.588  86.259  0.00  0.00    +0.000 HD
ATOM     22  H   UNL     1     129.002 122.294  90.953  0.00  0.00    +0.000 HD
ENDROOT
TORSDOF 0
ENDMDL
MODEL 8
REMARK VINA RESULT:    -4.061      5.686      7.519
REMARK INTER + INTRA:          -4.061
REMARK INTER:                  -4.061
REMARK INTRA:                   0.000
REMARK UNBOUND:                 0.000
REMARK  Name = /home/vital/Documents/PhD_2021/Malaria_codes/scripts/../data/pdbqt_ligands/ligand_253_temp.pdb
REMARK                            x       y       z     vdW  Elec       q    Type
REMARK                         _______ _______ _______ _____ _____    ______ ____
ROOT
ATOM      1  C   UNL     1     146.443 130.210  99.606  0.00  0.00    -0.046 C 
ATOM      2  C   UNL     1     145.526 131.438  99.539  0.00  0.00    +0.030 C 
ATOM      3  N   UNL     1     144.146 131.134  99.938  0.00  0.00    -0.306 N 
ATOM      4  C   UNL     1     143.440 130.189  99.077  0.00  0.00    +0.023 C 
ATOM      5  C   UNL     1     142.035 129.955  99.588  0.00  0.00    -0.012 A 
ATOM      6  C   UNL     1     141.002 130.791  99.119  0.00  0.00    -0.056 A 
ATOM      7  C   UNL     1     139.690 130.634  99.569  0.00  0.00    -0.058 A 
ATOM      8  C   UNL     1     139.386 129.645 100.500  0.00  0.00    -0.019 A 
ATOM      9  C   UNL     1     140.399 128.816 100.983  0.00  0.00    +0.135 A 
ATOM     10  O   UNL     1     140.089 127.847 101.901  0.00  0.00    -0.505 OA
ATOM     11  C   UNL     1     141.722 128.964 100.538  0.00  0.00    +0.087 A 
ATOM     12 CL   UNL     1     142.950 127.917 101.174  0.00  0.00    -0.079 Cl
ATOM     13  C   UNL     1     145.592 132.231  98.238  0.00  0.00    -0.031 A 
ATOM     14  C   UNL     1     145.318 133.611  98.268  0.00  0.00    -0.056 A 
ATOM     15  C   UNL     1     145.347 134.375  97.098  0.00  0.00    -0.043 A 
ATOM     16  C   UNL     1     145.646 133.766  95.883  0.00  0.00    +0.041 A 
ATOM     17 CL   UNL     1     145.678 134.703  94.441  0.00  0.00    -0.084 Cl
ATOM     18  C   UNL     1     145.914 132.401  95.829  0.00  0.00    -0.043 A 
ATOM     19  C   UNL     1     145.885 131.637  97.000  0.00  0.00    -0.056 A 
ATOM     20  H   UNL     1     143.619 132.008  99.944  0.00  0.00    +0.000 HD
ATOM     21  H   UNL     1     144.209 130.689 100.853  0.00  0.00    +0.000 HD
ATOM     22  H   UNL     1     139.205 127.748 102.197  0.00  0.00    +0.000 HD
ENDROOT
TORSDOF 0
ENDMDL
MODEL 9
REMARK VINA RESULT:    -3.914      5.528      6.719
REMARK INTER + INTRA:          -3.914
REMARK INTER:                  -3.914
REMARK INTRA:                   0.000
REMARK UNBOUND:                 0.000
REMARK  Name = /home/vital/Documents/PhD_2021/Malaria_codes/scripts/../data/pdbqt_ligands/ligand_253_temp.pdb
REMARK                            x       y       z     vdW  Elec       q    Type
REMARK                         _______ _______ _______ _____ _____    ______ ____
ROOT
ATOM      1  C   UNL     1     139.035 127.622  98.266  0.00  0.00    -0.046 C 
ATOM      2  C   UNL     1     140.286 126.746  98.417  0.00  0.00    +0.030 C 
ATOM      3  N   UNL     1     141.342 127.401  99.200  0.00  0.00    -0.306 N 
ATOM      4  C   UNL     1     141.898 128.614  98.607  0.00  0.00    +0.023 C 
ATOM      5  C   UNL     1     142.971 129.196  99.501  0.00  0.00    -0.012 A 
ATOM      6  C   UNL     1     144.303 128.776  99.313  0.00  0.00    -0.056 A 
ATOM      7  C   UNL     1     145.332 129.265 100.120  0.00  0.00    -0.058 A 
ATOM      8  C   UNL     1     145.050 130.176 101.134  0.00  0.00    -0.019 A 
ATOM      9  C   UNL     1     143.735 130.595 101.340  0.00  0.00    +0.135 A 
ATOM     10  O   UNL     1     143.468 131.491 102.341  0.00  0.00    -0.505 OA
ATOM     11  C   UNL     1     142.692 130.110 100.535  0.00  0.00    +0.087 A 
ATOM     12 CL   UNL     1     141.071 130.651 100.836  0.00  0.00    -0.079 Cl
ATOM     13  C   UNL     1     140.816 126.138  97.124  0.00  0.00    -0.031 A 
ATOM     14  C   UNL     1     141.505 124.912  97.180  0.00  0.00    -0.056 A 
ATOM     15  C   UNL     1     142.026 124.326  96.024  0.00  0.00    -0.043 A 
ATOM     16  C   UNL     1     141.867 124.962  94.796  0.00  0.00    +0.041 A 
ATOM     17 CL   UNL     1     142.511 124.244  93.371  0.00  0.00    -0.084 Cl
ATOM     18  C   UNL     1     141.194 126.177  94.717  0.00  0.00    -0.043 A 
ATOM     19  C   UNL     1     140.673 126.764  95.875  0.00  0.00    -0.056 A 
ATOM     20  H   UNL     1     142.103 126.734  99.323  0.00  0.00    +0.000 HD
ATOM     21  H   UNL     1     140.905 127.690 100.075  0.00  0.00    +0.000 HD
ATOM     22  H   UNL     1     144.165 131.815 102.878  0.00  0.00    +0.000 HD
ENDROOT
TORSDOF 0
ENDMDL
