MODEL 1
REMARK VINA RESULT:    -5.535      0.000      0.000
REMARK INTER + INTRA:          -5.535
REMARK INTER:                  -5.535
REMARK INTRA:                   0.000
REMARK UNBOUND:                 0.000
REMARK  Name = /home/vital/Documents/PhD_2021/Malaria_codes/scripts/../data/pdbqt_ligands/ligand_380_temp.pdb
REMARK                            x       y       z     vdW  Elec       q    Type
REMARK                         _______ _______ _______ _____ _____    ______ ____
ROOT
ATOM      1  C1  UNL     1     139.178 125.497  90.795  0.00  0.00    +0.036 C 
ATOM      2  O1  UNL     1     140.094 126.514  90.410  0.00  0.00    -0.383 OA
ATOM      3  C2  UNL     1     141.120 126.742  91.373  0.00  0.00    +0.052 C 
ATOM      4  C3  UNL     1     140.620 127.619  92.513  0.00  0.00    +0.010 C 
ATOM      5  C4  UNL     1     141.794 128.144  93.324  0.00  0.00    +0.034 C 
ATOM      6  N1  UNL     1     142.297 127.565  94.373  0.00  0.00    -0.272 NA
ATOM      7  C5  UNL     1     141.640 126.371  94.908  0.00  0.00    +0.102 C 
ATOM      8  N2  UNL     1     142.233 125.890  96.158  0.00  0.00    -0.322 N 
ATOM      9  C6  UNL     1     141.503 126.186  97.333  0.00  0.00    +0.072 A 
ATOM     10  C7  UNL     1     141.602 125.328  98.433  0.00  0.00    -0.037 A 
ATOM     11  C8  UNL     1     141.134 125.727  99.701  0.00  0.00    -0.055 A 
ATOM     12  C9  UNL     1     140.440 126.937  99.857  0.00  0.00    -0.022 A 
ATOM     13  C10 UNL     1     140.111 127.660  98.706  0.00  0.00    +0.088 A 
ATOM     14 CL1  UNL     1     139.012 129.000  98.707  0.00  0.00    -0.079 Cl
ATOM     15  C11 UNL     1     140.881 127.420  97.570  0.00  0.00    +0.160 A 
ATOM     16  O2  UNL     1     141.390 128.549  96.938  0.00  0.00    -0.484 OA
ATOM     17  C12 UNL     1     142.639 128.897  97.606  0.00  0.00    +0.118 C 
ATOM     18  C13 UNL     1     142.524 130.238  98.315  0.00  0.00    +0.028 C 
ATOM     19  C14 UNL     1     142.344 130.408  99.646  0.00  0.00    +0.049 C 
ATOM     20 CL2  UNL     1     142.237 131.972 100.382  0.00  0.00    -0.083 Cl
ATOM     21  C15 UNL     1     142.146 129.261 100.540  0.00  0.00    -0.047 C 
ATOM     22  C16 UNL     1     140.967 129.023 101.156  0.00  0.00    -0.078 C 
ATOM     23  C17 UNL     1     140.355 127.617 101.227  0.00  0.00    -0.008 C 
ATOM     24  C18 UNL     1     142.587 131.361  97.334  0.00  0.00    +0.058 C 
ATOM     25  N3  UNL     1     143.096 131.119  96.171  0.00  0.00    -0.156 NA
ATOM     26  N4  UNL     1     142.882 132.088  95.205  0.00  0.00    -0.142 NA
ATOM     27  C19 UNL     1     142.883 131.512  94.040  0.00  0.00    +0.104 C 
ATOM     28  N5  UNL     1     143.101 130.178  93.806  0.00  0.00    -0.328 N 
ATOM     29  C20 UNL     1     142.465 129.416  92.758  0.00  0.00    +0.048 C 
ATOM     30  H   UNL     1     143.083 125.394  96.179  0.00  0.00    +0.000 HD
ATOM     31  H   UNL     1     143.735 129.707  94.394  0.00  0.00    +0.000 HD
ENDROOT
TORSDOF 0
ENDMDL
MODEL 2
REMARK VINA RESULT:    -4.933      5.790      7.536
REMARK INTER + INTRA:          -4.933
REMARK INTER:                  -4.933
REMARK INTRA:                   0.000
REMARK UNBOUND:                 0.000
REMARK  Name = /home/vital/Documents/PhD_2021/Malaria_codes/scripts/../data/pdbqt_ligands/ligand_380_temp.pdb
REMARK                            x       y       z     vdW  Elec       q    Type
REMARK                         _______ _______ _______ _____ _____    ______ ____
ROOT
ATOM      1  C1  UNL     1     145.521 133.379  96.705  0.00  0.00    +0.036 C 
ATOM      2  O1  UNL     1     144.171 133.622  97.080  0.00  0.00    -0.383 OA
ATOM      3  C2  UNL     1     143.887 133.257  98.430  0.00  0.00    +0.052 C 
ATOM      4  C3  UNL     1     143.657 131.757  98.558  0.00  0.00    +0.010 C 
ATOM      5  C4  UNL     1     143.011 131.439  99.896  0.00  0.00    +0.034 C 
ATOM      6  N1  UNL     1     143.654 131.143 100.986  0.00  0.00    -0.272 NA
ATOM      7  C5  UNL     1     145.108 130.988 100.932  0.00  0.00    +0.102 C 
ATOM      8  N2  UNL     1     145.695 130.535 102.195  0.00  0.00    -0.322 N 
ATOM      9  C6  UNL     1     146.070 129.173 102.240  0.00  0.00    +0.072 A 
ATOM     10  C7  UNL     1     147.123 128.780 103.072  0.00  0.00    -0.037 A 
ATOM     11  C8  UNL     1     147.340 127.420 103.367  0.00  0.00    -0.055 A 
ATOM     12  C9  UNL     1     146.587 126.422 102.727  0.00  0.00    -0.022 A 
ATOM     13  C10 UNL     1     145.721 126.809 101.699  0.00  0.00    +0.088 A 
ATOM     14 CL1  UNL     1     144.958 125.684 100.625  0.00  0.00    -0.079 Cl
ATOM     15  C11 UNL     1     145.294 128.135 101.701  0.00  0.00    +0.160 A 
ATOM     16  O2  UNL     1     143.921 128.326 101.590  0.00  0.00    -0.484 OA
ATOM     17  C12 UNL     1     143.358 128.233 102.932  0.00  0.00    +0.118 C 
ATOM     18  C13 UNL     1     142.446 127.022 103.059  0.00  0.00    +0.028 C 
ATOM     19  C14 UNL     1     142.775 125.852 103.654  0.00  0.00    +0.049 C 
ATOM     20 CL2  UNL     1     141.672 124.521 103.770  0.00  0.00    -0.083 Cl
ATOM     21  C15 UNL     1     144.128 125.614 104.169  0.00  0.00    -0.047 C 
ATOM     22  C16 UNL     1     144.966 124.715 103.605  0.00  0.00    -0.078 C 
ATOM     23  C17 UNL     1     146.446 125.031 103.350  0.00  0.00    -0.008 C 
ATOM     24  C18 UNL     1     141.137 127.275 102.388  0.00  0.00    +0.058 C 
ATOM     25  N3  UNL     1     140.801 128.502 102.164  0.00  0.00    -0.156 NA
ATOM     26  N4  UNL     1     139.734 128.688 101.301  0.00  0.00    -0.142 NA
ATOM     27  C19 UNL     1     139.878 129.838 100.713  0.00  0.00    +0.104 C 
ATOM     28  N5  UNL     1     140.893 130.733 100.942  0.00  0.00    -0.328 N 
ATOM     29  C20 UNL     1     141.473 131.589  99.934  0.00  0.00    +0.048 C 
ATOM     30  H   UNL     1     145.819 131.140 102.962  0.00  0.00    +0.000 HD
ATOM     31  H   UNL     1     141.250 130.796 101.857  0.00  0.00    +0.000 HD
ENDROOT
TORSDOF 0
ENDMDL
MODEL 3
REMARK VINA RESULT:    -4.713      6.306      9.161
REMARK INTER + INTRA:          -4.713
REMARK INTER:                  -4.713
REMARK INTRA:                   0.000
REMARK UNBOUND:                 0.000
REMARK  Name = /home/vital/Documents/PhD_2021/Malaria_codes/scripts/../data/pdbqt_ligands/ligand_380_temp.pdb
REMARK                            x       y       z     vdW  Elec       q    Type
REMARK                         _______ _______ _______ _____ _____    ______ ____
ROOT
ATOM      1  C1  UNL     1     138.429 138.465  87.333  0.00  0.00    +0.036 C 
ATOM      2  O1  UNL     1     139.744 139.007  87.362  0.00  0.00    -0.383 OA
ATOM      3  C2  UNL     1     140.765 138.011  87.347  0.00  0.00    +0.052 C 
ATOM      4  C3  UNL     1     140.975 137.418  88.733  0.00  0.00    +0.010 C 
ATOM      5  C4  UNL     1     142.282 136.642  88.778  0.00  0.00    +0.034 C 
ATOM      6  N1  UNL     1     142.407 135.372  88.530  0.00  0.00    -0.272 NA
ATOM      7  C5  UNL     1     141.203 134.574  88.293  0.00  0.00    +0.102 C 
ATOM      8  N2  UNL     1     141.472 133.142  88.148  0.00  0.00    -0.322 N 
ATOM      9  C6  UNL     1     141.152 132.345  89.272  0.00  0.00    +0.072 A 
ATOM     10  C7  UNL     1     140.791 131.007  89.081  0.00  0.00    -0.037 A 
ATOM     11  C8  UNL     1     140.748 130.111  90.167  0.00  0.00    -0.055 A 
ATOM     12  C9  UNL     1     140.937 130.571  91.480  0.00  0.00    -0.022 A 
ATOM     13  C10 UNL     1     141.030 131.951  91.686  0.00  0.00    +0.088 A 
ATOM     14 CL1  UNL     1     140.964 132.684  93.254  0.00  0.00    -0.079 Cl
ATOM     15  C11 UNL     1     141.418 132.726  90.595  0.00  0.00    +0.160 A 
ATOM     16  O2  UNL     1     142.459 133.618  90.830  0.00  0.00    -0.484 OA
ATOM     17  C12 UNL     1     143.708 132.888  90.646  0.00  0.00    +0.118 C 
ATOM     18  C13 UNL     1     144.474 132.779  91.955  0.00  0.00    +0.028 C 
ATOM     19  C14 UNL     1     144.527 131.679  92.743  0.00  0.00    +0.049 C 
ATOM     20 CL2  UNL     1     145.436 131.630  94.217  0.00  0.00    -0.083 Cl
ATOM     21  C15 UNL     1     143.741 130.481  92.430  0.00  0.00    -0.047 C 
ATOM     22  C16 UNL     1     142.704 130.079  93.197  0.00  0.00    -0.078 C 
ATOM     23  C17 UNL     1     141.375 129.609  92.588  0.00  0.00    -0.008 C 
ATOM     24  C18 UNL     1     145.132 134.076  92.292  0.00  0.00    +0.058 C 
ATOM     25  N3  UNL     1     145.309 134.929  91.337  0.00  0.00    -0.156 NA
ATOM     26  N4  UNL     1     145.655 136.211  91.730  0.00  0.00    -0.142 NA
ATOM     27  C19 UNL     1     145.227 137.044  90.829  0.00  0.00    +0.104 C 
ATOM     28  N5  UNL     1     144.580 136.706  89.667  0.00  0.00    -0.328 N 
ATOM     29  C20 UNL     1     143.542 137.495  89.048  0.00  0.00    +0.048 C 
ATOM     30  H   UNL     1     141.850 132.759  87.323  0.00  0.00    +0.000 HD
ATOM     31  H   UNL     1     144.842 135.866  89.225  0.00  0.00    +0.000 HD
ENDROOT
TORSDOF 0
ENDMDL
MODEL 4
REMARK VINA RESULT:    -4.706      5.571      7.682
REMARK INTER + INTRA:          -4.706
REMARK INTER:                  -4.706
REMARK INTRA:                   0.000
REMARK UNBOUND:                 0.000
REMARK  Name = /home/vital/Documents/PhD_2021/Malaria_codes/scripts/../data/pdbqt_ligands/ligand_380_temp.pdb
REMARK                            x       y       z     vdW  Elec       q    Type
REMARK                         _______ _______ _______ _____ _____    ______ ____
ROOT
ATOM      1  C1  UNL     1     140.635 121.876 101.855  0.00  0.00    +0.036 C 
ATOM      2  O1  UNL     1     141.678 121.993 102.814  0.00  0.00    -0.383 OA
ATOM      3  C2  UNL     1     141.846 123.321 103.306  0.00  0.00    +0.052 C 
ATOM      4  C3  UNL     1     142.645 124.173 102.328  0.00  0.00    +0.010 C 
ATOM      5  C4  UNL     1     143.120 125.446 103.009  0.00  0.00    +0.034 C 
ATOM      6  N1  UNL     1     142.475 126.574 103.020  0.00  0.00    -0.272 NA
ATOM      7  C5  UNL     1     141.246 126.696 102.233  0.00  0.00    +0.102 C 
ATOM      8  N2  UNL     1     140.686 128.050 102.232  0.00  0.00    -0.322 N 
ATOM      9  C6  UNL     1     140.902 128.798 101.051  0.00  0.00    +0.072 A 
ATOM     10  C7  UNL     1     139.975 129.778 100.684  0.00  0.00    -0.037 A 
ATOM     11  C8  UNL     1     140.288 130.731  99.695  0.00  0.00    -0.055 A 
ATOM     12  C9  UNL     1     141.484 130.635  98.964  0.00  0.00    -0.022 A 
ATOM     13  C10 UNL     1     142.280 129.500  99.152  0.00  0.00    +0.088 A 
ATOM     14 CL1  UNL     1     143.612 129.094  98.122  0.00  0.00    -0.079 Cl
ATOM     15  C11 UNL     1     142.117 128.808 100.349  0.00  0.00    +0.160 A 
ATOM     16  O2  UNL     1     143.286 128.530 101.048  0.00  0.00    -0.484 OA
ATOM     17  C12 UNL     1     143.593 129.698 101.865  0.00  0.00    +0.118 C 
ATOM     18  C13 UNL     1     144.885 130.360 101.409  0.00  0.00    +0.028 C 
ATOM     19  C14 UNL     1     144.966 131.483 100.657  0.00  0.00    +0.049 C 
ATOM     20 CL2  UNL     1     146.479 132.185 100.188  0.00  0.00    -0.083 Cl
ATOM     21  C15 UNL     1     143.763 132.131 100.124  0.00  0.00    -0.047 C 
ATOM     22  C16 UNL     1     143.481 132.151  98.802  0.00  0.00    -0.078 C 
ATOM     23  C17 UNL     1     142.072 131.865  98.266  0.00  0.00    -0.008 C 
ATOM     24  C18 UNL     1     146.069 129.572 101.860  0.00  0.00    +0.058 C 
ATOM     25  N3  UNL     1     145.906 128.741 102.835  0.00  0.00    -0.156 NA
ATOM     26  N4  UNL     1     146.936 127.837 103.036  0.00  0.00    -0.142 NA
ATOM     27  C19 UNL     1     146.437 126.760 103.567  0.00  0.00    +0.104 C 
ATOM     28  N5  UNL     1     145.122 126.569 103.907  0.00  0.00    -0.328 N 
ATOM     29  C20 UNL     1     144.428 125.307 103.821  0.00  0.00    +0.048 C 
ATOM     30  H   UNL     1     140.192 128.414 103.002  0.00  0.00    +0.000 HD
ATOM     31  H   UNL     1     144.616 127.348 104.233  0.00  0.00    +0.000 HD
ENDROOT
TORSDOF 0
ENDMDL
MODEL 5
REMARK VINA RESULT:    -4.595      9.259     12.076
REMARK INTER + INTRA:          -4.595
REMARK INTER:                  -4.595
REMARK INTRA:                   0.000
REMARK UNBOUND:                 0.000
REMARK  Name = /home/vital/Documents/PhD_2021/Malaria_codes/scripts/../data/pdbqt_ligands/ligand_380_temp.pdb
REMARK                            x       y       z     vdW  Elec       q    Type
REMARK                         _______ _______ _______ _____ _____    ______ ____
ROOT
ATOM      1  C1  UNL     1     136.520 131.535  86.163  0.00  0.00    +0.036 C 
ATOM      2  O1  UNL     1     137.817 131.009  86.417  0.00  0.00    -0.383 OA
ATOM      3  C2  UNL     1     137.915 129.608  86.166  0.00  0.00    +0.052 C 
ATOM      4  C3  UNL     1     137.355 128.800  87.329  0.00  0.00    +0.010 C 
ATOM      5  C4  UNL     1     137.788 127.347  87.214  0.00  0.00    +0.034 C 
ATOM      6  N1  UNL     1     137.115 126.411  86.613  0.00  0.00    -0.272 NA
ATOM      7  C5  UNL     1     135.783 126.719  86.091  0.00  0.00    +0.102 C 
ATOM      8  N2  UNL     1     135.085 125.550  85.549  0.00  0.00    -0.322 N 
ATOM      9  C6  UNL     1     134.071 125.010  86.373  0.00  0.00    +0.072 A 
ATOM     10  C7  UNL     1     132.989 124.350  85.783  0.00  0.00    -0.037 A 
ATOM     11  C8  UNL     1     132.120 123.555  86.556  0.00  0.00    -0.055 A 
ATOM     12  C9  UNL     1     132.243 123.517  87.955  0.00  0.00    -0.022 A 
ATOM     13  C10 UNL     1     133.155 124.389  88.558  0.00  0.00    +0.088 A 
ATOM     14 CL1  UNL     1     133.209 124.673  90.266  0.00  0.00    -0.079 Cl
ATOM     15  C11 UNL     1     134.196 124.861  87.763  0.00  0.00    +0.160 A 
ATOM     16  O2  UNL     1     135.472 124.732  88.301  0.00  0.00    -0.484 OA
ATOM     17  C12 UNL     1     135.948 123.392  87.978  0.00  0.00    +0.118 C 
ATOM     18  C13 UNL     1     136.121 122.556  89.237  0.00  0.00    +0.028 C 
ATOM     19  C14 UNL     1     135.261 121.606  89.672  0.00  0.00    +0.049 C 
ATOM     20 CL2  UNL     1     135.537 120.685  91.113  0.00  0.00    -0.083 Cl
ATOM     21  C15 UNL     1     133.990 121.357  88.982  0.00  0.00    -0.047 C 
ATOM     22  C16 UNL     1     132.796 121.652  89.544  0.00  0.00    -0.078 C 
ATOM     23  C17 UNL     1     131.675 122.342  88.755  0.00  0.00    -0.008 C 
ATOM     24  C18 UNL     1     137.358 122.958  89.971  0.00  0.00    +0.058 C 
ATOM     25  N3  UNL     1     138.264 123.606  89.317  0.00  0.00    -0.156 NA
ATOM     26  N4  UNL     1     139.252 124.201  90.084  0.00  0.00    -0.142 NA
ATOM     27  C19 UNL     1     139.695 125.242  89.444  0.00  0.00    +0.104 C 
ATOM     28  N5  UNL     1     139.283 125.655  88.202  0.00  0.00    -0.328 N 
ATOM     29  C20 UNL     1     139.189 127.034  87.786  0.00  0.00    +0.048 C 
ATOM     30  H   UNL     1     135.307 125.167  84.670  0.00  0.00    +0.000 HD
ATOM     31  H   UNL     1     139.034 124.962  87.548  0.00  0.00    +0.000 HD
ENDROOT
TORSDOF 0
ENDMDL
MODEL 6
REMARK VINA RESULT:    -4.571      2.118      2.469
REMARK INTER + INTRA:          -4.571
REMARK INTER:                  -4.571
REMARK INTRA:                   0.000
REMARK UNBOUND:                 0.000
REMARK  Name = /home/vital/Documents/PhD_2021/Malaria_codes/scripts/../data/pdbqt_ligands/ligand_380_temp.pdb
REMARK                            x       y       z     vdW  Elec       q    Type
REMARK                         _______ _______ _______ _____ _____    ______ ____
ROOT
ATOM      1  C1  UNL     1     140.623 130.348  90.467  0.00  0.00    +0.036 C 
ATOM      2  O1  UNL     1     141.951 130.834  90.623  0.00  0.00    -0.383 OA
ATOM      3  C2  UNL     1     142.689 130.144  91.630  0.00  0.00    +0.052 C 
ATOM      4  C3  UNL     1     142.334 130.656  93.020  0.00  0.00    +0.010 C 
ATOM      5  C4  UNL     1     143.366 130.183  94.031  0.00  0.00    +0.034 C 
ATOM      6  N1  UNL     1     143.285 129.088  94.727  0.00  0.00    -0.272 NA
ATOM      7  C5  UNL     1     142.068 128.280  94.636  0.00  0.00    +0.102 C 
ATOM      8  N2  UNL     1     142.054 127.142  95.560  0.00  0.00    -0.322 N 
ATOM      9  C6  UNL     1     141.244 127.300  96.708  0.00  0.00    +0.072 A 
ATOM     10  C7  UNL     1     140.679 126.169  97.307  0.00  0.00    -0.037 A 
ATOM     11  C8  UNL     1     140.116 126.242  98.596  0.00  0.00    -0.055 A 
ATOM     12  C9  UNL     1     139.990 127.478  99.251  0.00  0.00    -0.022 A 
ATOM     13  C10 UNL     1     140.311 128.637  98.536  0.00  0.00    +0.088 A 
ATOM     14 CL1  UNL     1     139.929 130.232  99.093  0.00  0.00    -0.079 Cl
ATOM     15  C11 UNL     1     141.169 128.488  97.450  0.00  0.00    +0.160 A 
ATOM     16  O2  UNL     1     142.255 129.356  97.417  0.00  0.00    -0.484 OA
ATOM     17  C12 UNL     1     143.314 128.760  98.225  0.00  0.00    +0.118 C 
ATOM     18  C13 UNL     1     143.603 129.605  99.456  0.00  0.00    +0.028 C 
ATOM     19  C14 UNL     1     143.175 129.332 100.711  0.00  0.00    +0.049 C 
ATOM     20 CL2  UNL     1     143.559 130.338 102.068  0.00  0.00    -0.083 Cl
ATOM     21  C15 UNL     1     142.284 128.198 100.982  0.00  0.00    -0.047 C 
ATOM     22  C16 UNL     1     141.001 128.368 101.372  0.00  0.00    -0.078 C 
ATOM     23  C17 UNL     1     139.853 127.543 100.775  0.00  0.00    -0.008 C 
ATOM     24  C18 UNL     1     144.389 130.819  99.090  0.00  0.00    +0.058 C 
ATOM     25  N3  UNL     1     145.028 130.810  97.967  0.00  0.00    -0.156 NA
ATOM     26  N4  UNL     1     145.505 132.035  97.534  0.00  0.00    -0.142 NA
ATOM     27  C19 UNL     1     145.562 132.017  96.236  0.00  0.00    +0.104 C 
ATOM     28  N5  UNL     1     145.242 130.949  95.435  0.00  0.00    -0.328 N 
ATOM     29  C20 UNL     1     144.637 131.058  94.129  0.00  0.00    +0.048 C 
ATOM     30  H   UNL     1     142.574 126.323  95.392  0.00  0.00    +0.000 HD
ATOM     31  H   UNL     1     145.439 130.047  95.775  0.00  0.00    +0.000 HD
ENDROOT
TORSDOF 0
ENDMDL
MODEL 7
REMARK VINA RESULT:    -4.354      2.530      3.969
REMARK INTER + INTRA:          -4.354
REMARK INTER:                  -4.354
REMARK INTRA:                   0.000
REMARK UNBOUND:                 0.000
REMARK  Name = /home/vital/Documents/PhD_2021/Malaria_codes/scripts/../data/pdbqt_ligands/ligand_380_temp.pdb
REMARK                            x       y       z     vdW  Elec       q    Type
REMARK                         _______ _______ _______ _____ _____    ______ ____
ROOT
ATOM      1  C1  UNL     1     142.141 132.340  90.567  0.00  0.00    +0.036 C 
ATOM      2  O1  UNL     1     142.835 133.146  91.511  0.00  0.00    -0.383 OA
ATOM      3  C2  UNL     1     143.511 132.387  92.511  0.00  0.00    +0.052 C 
ATOM      4  C3  UNL     1     142.550 131.932  93.601  0.00  0.00    +0.010 C 
ATOM      5  C4  UNL     1     143.326 131.451  94.817  0.00  0.00    +0.034 C 
ATOM      6  N1  UNL     1     143.696 130.223  95.031  0.00  0.00    -0.272 NA
ATOM      7  C5  UNL     1     143.254 129.179  94.105  0.00  0.00    +0.102 C 
ATOM      8  N2  UNL     1     143.635 127.828  94.526  0.00  0.00    -0.322 N 
ATOM      9  C6  UNL     1     142.597 127.049  95.087  0.00  0.00    +0.072 A 
ATOM     10  C7  UNL     1     142.645 125.656  94.964  0.00  0.00    -0.037 A 
ATOM     11  C8  UNL     1     141.805 124.835  95.741  0.00  0.00    -0.055 A 
ATOM     12  C9  UNL     1     140.811 125.400  96.557  0.00  0.00    -0.022 A 
ATOM     13  C10 UNL     1     140.593 126.779  96.469  0.00  0.00    +0.088 A 
ATOM     14 CL1  UNL     1     139.224 127.571  97.175  0.00  0.00    -0.079 Cl
ATOM     15  C11 UNL     1     141.645 127.553  95.985  0.00  0.00    +0.160 A 
ATOM     16  O2  UNL     1     141.988 128.655  96.760  0.00  0.00    -0.484 OA
ATOM     17  C12 UNL     1     142.913 128.194  97.789  0.00  0.00    +0.118 C 
ATOM     18  C13 UNL     1     142.298 128.324  99.175  0.00  0.00    +0.028 C 
ATOM     19  C14 UNL     1     141.771 127.307  99.896  0.00  0.00    +0.049 C 
ATOM     20 CL2  UNL     1     141.100 127.535 101.477  0.00  0.00    -0.083 Cl
ATOM     21  C15 UNL     1     141.663 125.954  99.339  0.00  0.00    -0.047 C 
ATOM     22  C16 UNL     1     140.471 125.389  99.046  0.00  0.00    -0.078 C 
ATOM     23  C17 UNL     1     140.235 124.617  97.740  0.00  0.00    -0.008 C 
ATOM     24  C18 UNL     1     142.306 129.747  99.624  0.00  0.00    +0.058 C 
ATOM     25  N3  UNL     1     143.120 130.561  99.038  0.00  0.00    -0.156 NA
ATOM     26  N4  UNL     1     142.904 131.908  99.277  0.00  0.00    -0.142 NA
ATOM     27  C19 UNL     1     143.327 132.580  98.247  0.00  0.00    +0.104 C 
ATOM     28  N5  UNL     1     143.924 132.046  97.133  0.00  0.00    -0.328 N 
ATOM     29  C20 UNL     1     143.769 132.564  95.794  0.00  0.00    +0.048 C 
ATOM     30  H   UNL     1     144.553 127.487  94.425  0.00  0.00    +0.000 HD
ATOM     31  H   UNL     1     144.498 131.256  97.255  0.00  0.00    +0.000 HD
ENDROOT
TORSDOF 0
ENDMDL
MODEL 8
REMARK VINA RESULT:    -4.093      4.339      7.533
REMARK INTER + INTRA:          -4.093
REMARK INTER:                  -4.093
REMARK INTRA:                   0.000
REMARK UNBOUND:                 0.000
REMARK  Name = /home/vital/Documents/PhD_2021/Malaria_codes/scripts/../data/pdbqt_ligands/ligand_380_temp.pdb
REMARK                            x       y       z     vdW  Elec       q    Type
REMARK                         _______ _______ _______ _____ _____    ______ ____
ROOT
ATOM      1  C1  UNL     1     139.886 126.434  86.270  0.00  0.00    +0.036 C 
ATOM      2  O1  UNL     1     139.510 125.821  87.497  0.00  0.00    -0.383 OA
ATOM      3  C2  UNL     1     139.310 126.757  88.555  0.00  0.00    +0.052 C 
ATOM      4  C3  UNL     1     140.637 127.183  89.170  0.00  0.00    +0.010 C 
ATOM      5  C4  UNL     1     140.397 127.878  90.501  0.00  0.00    +0.034 C 
ATOM      6  N1  UNL     1     140.241 129.159  90.658  0.00  0.00    -0.272 NA
ATOM      7  C5  UNL     1     140.410 130.042  89.503  0.00  0.00    +0.102 C 
ATOM      8  N2  UNL     1     140.328 131.465  89.840  0.00  0.00    -0.322 N 
ATOM      9  C6  UNL     1     141.564 132.151  89.892  0.00  0.00    +0.072 A 
ATOM     10  C7  UNL     1     141.600 133.519  89.603  0.00  0.00    -0.037 A 
ATOM     11  C8  UNL     1     142.733 134.293  89.920  0.00  0.00    -0.055 A 
ATOM     12  C9  UNL     1     143.900 133.683  90.409  0.00  0.00    -0.022 A 
ATOM     13  C10 UNL     1     143.947 132.285  90.442  0.00  0.00    +0.088 A 
ATOM     14 CL1  UNL     1     145.402 131.390  90.731  0.00  0.00    -0.079 Cl
ATOM     15  C11 UNL     1     142.727 131.614  90.465  0.00  0.00    +0.160 A 
ATOM     16  O2  UNL     1     142.590 130.647  91.455  0.00  0.00    -0.484 OA
ATOM     17  C12 UNL     1     142.143 131.325  92.667  0.00  0.00    +0.118 C 
ATOM     18  C13 UNL     1     143.202 131.249  93.756  0.00  0.00    +0.028 C 
ATOM     19  C14 UNL     1     144.043 132.252  94.103  0.00  0.00    +0.049 C 
ATOM     20 CL2  UNL     1     145.215 132.092  95.368  0.00  0.00    -0.083 Cl
ATOM     21  C15 UNL     1     144.063 133.518  93.362  0.00  0.00    -0.047 C 
ATOM     22  C16 UNL     1     145.114 133.890  92.599  0.00  0.00    -0.078 C 
ATOM     23  C17 UNL     1     144.931 134.493  91.200  0.00  0.00    -0.008 C 
ATOM     24  C18 UNL     1     143.229 129.889  94.372  0.00  0.00    +0.058 C 
ATOM     25  N3  UNL     1     142.189 129.138  94.223  0.00  0.00    -0.156 NA
ATOM     26  N4  UNL     1     142.356 127.804  94.555  0.00  0.00    -0.142 NA
ATOM     27  C19 UNL     1     141.532 127.098  93.839  0.00  0.00    +0.104 C 
ATOM     28  N5  UNL     1     140.624 127.595  92.939  0.00  0.00    -0.328 N 
ATOM     29  C20 UNL     1     140.239 126.934  91.714  0.00  0.00    +0.048 C 
ATOM     30  H   UNL     1     139.471 131.914  90.018  0.00  0.00    +0.000 HD
ATOM     31  H   UNL     1     140.205 128.462  93.142  0.00  0.00    +0.000 HD
ENDROOT
TORSDOF 0
ENDMDL
MODEL 9
REMARK VINA RESULT:    -3.892      3.175      7.972
REMARK INTER + INTRA:          -3.892
REMARK INTER:                  -3.892
REMARK INTRA:                   0.000
REMARK UNBOUND:                 0.000
REMARK  Name = /home/vital/Documents/PhD_2021/Malaria_codes/scripts/../data/pdbqt_ligands/ligand_380_temp.pdb
REMARK                            x       y       z     vdW  Elec       q    Type
REMARK                         _______ _______ _______ _____ _____    ______ ____
ROOT
ATOM      1  C1  UNL     1     142.335 130.600 101.130  0.00  0.00    +0.036 C 
ATOM      2  O1  UNL     1     142.183 129.230 100.776  0.00  0.00    -0.383 OA
ATOM      3  C2  UNL     1     142.922 128.863  99.613  0.00  0.00    +0.052 C 
ATOM      4  C3  UNL     1     142.190 129.276  98.343  0.00  0.00    +0.010 C 
ATOM      5  C4  UNL     1     142.794 128.572  97.139  0.00  0.00    +0.034 C 
ATOM      6  N1  UNL     1     143.752 129.045  96.398  0.00  0.00    -0.272 NA
ATOM      7  C5  UNL     1     144.236 130.403  96.647  0.00  0.00    +0.102 C 
ATOM      8  N2  UNL     1     145.226 130.858  95.668  0.00  0.00    -0.322 N 
ATOM      9  C6  UNL     1     144.748 131.762  94.691  0.00  0.00    +0.072 A 
ATOM     10  C7  UNL     1     145.630 132.690  94.128  0.00  0.00    -0.037 A 
ATOM     11  C8  UNL     1     145.280 133.402  92.964  0.00  0.00    -0.055 A 
ATOM     12  C9  UNL     1     143.988 133.295  92.423  0.00  0.00    -0.022 A 
ATOM     13  C10 UNL     1     143.031 132.574  93.145  0.00  0.00    +0.088 A 
ATOM     14 CL1  UNL     1     141.340 132.600  92.769  0.00  0.00    -0.079 Cl
ATOM     15  C11 UNL     1     143.506 131.631  94.053  0.00  0.00    +0.160 A 
ATOM     16  O2  UNL     1     142.946 130.362  93.952  0.00  0.00    -0.484 OA
ATOM     17  C12 UNL     1     143.697 129.635  92.935  0.00  0.00    +0.118 C 
ATOM     18  C13 UNL     1     142.823 129.323  91.729  0.00  0.00    +0.028 C 
ATOM     19  C14 UNL     1     142.843 129.993  90.553  0.00  0.00    +0.049 C 
ATOM     20 CL2  UNL     1     141.823 129.566  89.219  0.00  0.00    -0.083 Cl
ATOM     21  C15 UNL     1     143.681 131.182  90.369  0.00  0.00    -0.047 C 
ATOM     22  C16 UNL     1     143.155 132.419  90.221  0.00  0.00    -0.078 C 
ATOM     23  C17 UNL     1     143.727 133.640  90.954  0.00  0.00    -0.008 C 
ATOM     24  C18 UNL     1     141.891 128.197  92.031  0.00  0.00    +0.058 C 
ATOM     25  N3  UNL     1     142.181 127.421  93.022  0.00  0.00    -0.156 NA
ATOM     26  N4  UNL     1     141.168 126.576  93.444  0.00  0.00    -0.142 NA
ATOM     27  C19 UNL     1     141.340 126.330  94.709  0.00  0.00    +0.104 C 
ATOM     28  N5  UNL     1     142.374 126.796  95.482  0.00  0.00    -0.328 N 
ATOM     29  C20 UNL     1     142.260 127.145  96.878  0.00  0.00    +0.048 C 
ATOM     30  H   UNL     1     146.162 130.554  95.689  0.00  0.00    +0.000 HD
ATOM     31  H   UNL     1     143.255 126.898  95.055  0.00  0.00    +0.000 HD
ENDROOT
TORSDOF 0
ENDMDL
