MODEL 1
REMARK VINA RESULT:    -5.313      0.000      0.000
REMARK INTER + INTRA:          -5.313
REMARK INTER:                  -5.313
REMARK INTRA:                   0.000
REMARK UNBOUND:                 0.000
REMARK  Name = /home/vital/Documents/PhD_2021/Malaria_codes/scripts/../data/pdbqt_ligands/ligand_305_temp.pdb
REMARK                            x       y       z     vdW  Elec       q    Type
REMARK                         _______ _______ _______ _____ _____    ______ ____
ROOT
ATOM      1  C   UNL     1     144.294 133.416  93.163  0.00  0.00    -0.101 C 
ATOM      2  C   UNL     1     144.031 132.241  93.750  0.00  0.00    -0.075 C 
ATOM      3  C   UNL     1     143.178 132.074  94.970  0.00  0.00    +0.039 C 
ATOM      4  N   UNL     1     143.940 131.399  96.019  0.00  0.00    -0.197 NA
ATOM      5  O   UNL     1     143.017 131.279  97.143  0.00  0.00    -0.298 OA
ATOM      6  C   UNL     1     143.658 131.821  98.307  0.00  0.00    +0.082 C 
ATOM      7  C   UNL     1     142.667 131.788  99.477  0.00  0.00    +0.022 C 
ATOM      8  N   UNL     1     142.379 130.410  99.892  0.00  0.00    -0.302 N 
ATOM      9  C   UNL     1     141.301 130.326 100.880  0.00  0.00    +0.073 C 
ATOM     10  C   UNL     1     141.329 128.868 101.556  0.00  0.00    +0.055 C 
ATOM     11  C   UNL     1     142.638 128.399 102.136  0.00  0.00    +0.063 C 
ATOM     12 CL   UNL     1     143.431 127.314 100.977  0.00  0.00    -0.119 Cl
ATOM     13  N   UNL     1     140.255 128.104 101.680  0.00  0.00    -0.253 NA
ATOM     14  C   UNL     1     139.092 128.656 101.065  0.00  0.00    +0.064 A 
ATOM     15  C   UNL     1     138.789 128.163  99.793  0.00  0.00    -0.036 A 
ATOM     16  C   UNL     1     138.964 129.031  98.714  0.00  0.00    -0.059 A 
ATOM     17  C   UNL     1     139.575 130.258  98.980  0.00  0.00    -0.057 A 
ATOM     18  C   UNL     1     139.848 130.564 100.323  0.00  0.00    -0.023 A 
ATOM     19  C   UNL     1     138.969 130.014 101.233  0.00  0.00    -0.031 A 
ATOM     20  H   UNL     1     144.755 131.952  96.281  0.00  0.00    +0.000 HD
ATOM     21  H   UNL     1     143.224 130.009 100.298  0.00  0.00    +0.000 HD
ATOM     22  H   UNL     1     142.075 129.898  99.063  0.00  0.00    +0.000 HD
ENDROOT
TORSDOF 0
ENDMDL
MODEL 2
REMARK VINA RESULT:    -4.867      4.033      6.516
REMARK INTER + INTRA:          -4.867
REMARK INTER:                  -4.867
REMARK INTRA:                   0.000
REMARK UNBOUND:                 0.000
REMARK  Name = /home/vital/Documents/PhD_2021/Malaria_codes/scripts/../data/pdbqt_ligands/ligand_305_temp.pdb
REMARK                            x       y       z     vdW  Elec       q    Type
REMARK                         _______ _______ _______ _____ _____    ______ ____
ROOT
ATOM      1  C   UNL     1     137.193 120.898  96.286  0.00  0.00    -0.101 C 
ATOM      2  C   UNL     1     137.686 121.496  97.379  0.00  0.00    -0.075 C 
ATOM      3  C   UNL     1     137.939 122.968  97.499  0.00  0.00    +0.039 C 
ATOM      4  N   UNL     1     139.340 123.203  97.845  0.00  0.00    -0.197 NA
ATOM      5  O   UNL     1     139.469 124.653  97.947  0.00  0.00    -0.298 OA
ATOM      6  C   UNL     1     140.564 125.064  97.116  0.00  0.00    +0.082 C 
ATOM      7  C   UNL     1     140.654 126.595  97.140  0.00  0.00    +0.022 C 
ATOM      8  N   UNL     1     141.064 127.084  98.462  0.00  0.00    -0.302 N 
ATOM      9  C   UNL     1     140.984 128.541  98.581  0.00  0.00    +0.073 C 
ATOM     10  C   UNL     1     141.811 129.003  99.880  0.00  0.00    +0.055 C 
ATOM     11  C   UNL     1     143.234 128.523 100.002  0.00  0.00    +0.063 C 
ATOM     12 CL   UNL     1     143.284 127.127 101.096  0.00  0.00    -0.119 Cl
ATOM     13  N   UNL     1     141.324 129.824 100.798  0.00  0.00    -0.253 NA
ATOM     14  C   UNL     1     139.960 130.178 100.575  0.00  0.00    +0.064 A 
ATOM     15  C   UNL     1     139.019 129.456 101.314  0.00  0.00    -0.036 A 
ATOM     16  C   UNL     1     138.211 128.559 100.615  0.00  0.00    -0.059 A 
ATOM     17  C   UNL     1     138.519 128.343  99.271  0.00  0.00    -0.057 A 
ATOM     18  C   UNL     1     139.532 129.135  98.707  0.00  0.00    -0.023 A 
ATOM     19  C   UNL     1     139.653 130.395  99.253  0.00  0.00    -0.031 A 
ATOM     20  H   UNL     1     139.954 122.839  97.117  0.00  0.00    +0.000 HD
ATOM     21  H   UNL     1     142.028 126.796  98.631  0.00  0.00    +0.000 HD
ATOM     22  H   UNL     1     140.423 126.685  99.149  0.00  0.00    +0.000 HD
ENDROOT
TORSDOF 0
ENDMDL
MODEL 3
REMARK VINA RESULT:    -4.554      3.681      3.878
REMARK INTER + INTRA:          -4.554
REMARK INTER:                  -4.554
REMARK INTRA:                   0.000
REMARK UNBOUND:                 0.000
REMARK  Name = /home/vital/Documents/PhD_2021/Malaria_codes/scripts/../data/pdbqt_ligands/ligand_305_temp.pdb
REMARK                            x       y       z     vdW  Elec       q    Type
REMARK                         _______ _______ _______ _____ _____    ______ ____
ROOT
ATOM      1  C   UNL     1     140.633 126.568  90.951  0.00  0.00    -0.101 C 
ATOM      2  C   UNL     1     140.330 126.096  92.168  0.00  0.00    -0.075 C 
ATOM      3  C   UNL     1     140.322 126.918  93.420  0.00  0.00    +0.039 C 
ATOM      4  N   UNL     1     141.221 126.326  94.408  0.00  0.00    -0.197 NA
ATOM      5  O   UNL     1     141.126 127.193  95.578  0.00  0.00    -0.298 OA
ATOM      6  C   UNL     1     142.454 127.578  95.958  0.00  0.00    +0.082 C 
ATOM      7  C   UNL     1     142.366 128.564  97.130  0.00  0.00    +0.022 C 
ATOM      8  N   UNL     1     141.872 127.904  98.345  0.00  0.00    -0.302 N 
ATOM      9  C   UNL     1     141.598 128.845  99.433  0.00  0.00    +0.073 C 
ATOM     10  C   UNL     1     141.454 128.023 100.807  0.00  0.00    +0.055 C 
ATOM     11  C   UNL     1     142.573 127.080 101.170  0.00  0.00    +0.063 C 
ATOM     12 CL   UNL     1     142.103 125.427 100.727  0.00  0.00    -0.119 Cl
ATOM     13  N   UNL     1     140.445 128.185 101.649  0.00  0.00    -0.253 NA
ATOM     14  C   UNL     1     139.446 129.084 101.171  0.00  0.00    +0.064 A 
ATOM     15  C   UNL     1     138.325 128.488 100.587  0.00  0.00    -0.036 A 
ATOM     16  C   UNL     1     138.173 128.630  99.207  0.00  0.00    -0.059 A 
ATOM     17  C   UNL     1     139.231 129.214  98.509  0.00  0.00    -0.057 A 
ATOM     18  C   UNL     1     140.300 129.720  99.266  0.00  0.00    -0.023 A 
ATOM     19  C   UNL     1     139.956 130.181 100.519  0.00  0.00    -0.031 A 
ATOM     20  H   UNL     1     142.177 126.305  94.054  0.00  0.00    +0.000 HD
ATOM     21  H   UNL     1     142.574 127.236  98.662  0.00  0.00    +0.000 HD
ATOM     22  H   UNL     1     140.991 127.446  98.108  0.00  0.00    +0.000 HD
ENDROOT
TORSDOF 0
ENDMDL
MODEL 4
REMARK VINA RESULT:    -4.469      4.325      8.140
REMARK INTER + INTRA:          -4.469
REMARK INTER:                  -4.469
REMARK INTRA:                   0.000
REMARK UNBOUND:                 0.000
REMARK  Name = /home/vital/Documents/PhD_2021/Malaria_codes/scripts/../data/pdbqt_ligands/ligand_305_temp.pdb
REMARK                            x       y       z     vdW  Elec       q    Type
REMARK                         _______ _______ _______ _____ _____    ______ ____
ROOT
ATOM      1  C   UNL     1     139.405 122.800 107.277  0.00  0.00    -0.101 C 
ATOM      2  C   UNL     1     138.896 123.580 106.314  0.00  0.00    -0.075 C 
ATOM      3  C   UNL     1     139.683 124.135 105.166  0.00  0.00    +0.039 C 
ATOM      4  N   UNL     1     139.574 125.592 105.150  0.00  0.00    -0.197 NA
ATOM      5  O   UNL     1     140.360 126.019 103.997  0.00  0.00    -0.298 OA
ATOM      6  C   UNL     1     141.294 127.015 104.437  0.00  0.00    +0.082 C 
ATOM      7  C   UNL     1     142.191 127.408 103.256  0.00  0.00    +0.022 C 
ATOM      8  N   UNL     1     141.430 128.125 102.226  0.00  0.00    -0.302 N 
ATOM      9  C   UNL     1     142.204 128.355 101.003  0.00  0.00    +0.073 C 
ATOM     10  C   UNL     1     141.454 129.466 100.115  0.00  0.00    +0.055 C 
ATOM     11  C   UNL     1     141.098 130.767 100.789  0.00  0.00    +0.063 C 
ATOM     12 CL   UNL     1     139.388 130.727 101.261  0.00  0.00    -0.119 Cl
ATOM     13  N   UNL     1     141.198 129.313  98.825  0.00  0.00    -0.253 NA
ATOM     14  C   UNL     1     141.561 128.029  98.323  0.00  0.00    +0.064 A 
ATOM     15  C   UNL     1     140.518 127.104  98.217  0.00  0.00    -0.036 A 
ATOM     16  C   UNL     1     140.527 126.028  99.105  0.00  0.00    -0.059 A 
ATOM     17  C   UNL     1     141.482 126.054 100.123  0.00  0.00    -0.057 A 
ATOM     18  C   UNL     1     142.428 127.091 100.092  0.00  0.00    -0.023 A 
ATOM     19  C   UNL     1     142.744 127.550  98.831  0.00  0.00    -0.031 A 
ATOM     20  H   UNL     1     139.953 125.989 106.009  0.00  0.00    +0.000 HD
ATOM     21  H   UNL     1     141.143 129.028 102.603  0.00  0.00    +0.000 HD
ATOM     22  H   UNL     1     140.629 127.545 101.976  0.00  0.00    +0.000 HD
ENDROOT
TORSDOF 0
ENDMDL
MODEL 5
REMARK VINA RESULT:    -4.386      3.703      7.634
REMARK INTER + INTRA:          -4.386
REMARK INTER:                  -4.386
REMARK INTRA:                   0.000
REMARK UNBOUND:                 0.000
REMARK  Name = /home/vital/Documents/PhD_2021/Malaria_codes/scripts/../data/pdbqt_ligands/ligand_305_temp.pdb
REMARK                            x       y       z     vdW  Elec       q    Type
REMARK                         _______ _______ _______ _____ _____    ______ ____
ROOT
ATOM      1  C   UNL     1     141.045 123.983 107.885  0.00  0.00    -0.101 C 
ATOM      2  C   UNL     1     141.081 125.232 107.399  0.00  0.00    -0.075 C 
ATOM      3  C   UNL     1     140.880 125.587 105.958  0.00  0.00    +0.039 C 
ATOM      4  N   UNL     1     142.038 126.332 105.466  0.00  0.00    -0.197 NA
ATOM      5  O   UNL     1     141.733 126.634 104.071  0.00  0.00    -0.298 OA
ATOM      6  C   UNL     1     142.835 126.191 103.267  0.00  0.00    +0.082 C 
ATOM      7  C   UNL     1     142.490 126.416 101.789  0.00  0.00    +0.022 C 
ATOM      8  N   UNL     1     142.423 127.848 101.470  0.00  0.00    -0.302 N 
ATOM      9  C   UNL     1     141.917 128.107 100.120  0.00  0.00    +0.073 C 
ATOM     10  C   UNL     1     142.252 129.629  99.725  0.00  0.00    +0.055 C 
ATOM     11  C   UNL     1     143.682 130.084  99.868  0.00  0.00    +0.063 C 
ATOM     12 CL   UNL     1     143.856 130.980 101.390  0.00  0.00    -0.119 Cl
ATOM     13  N   UNL     1     141.354 130.465  99.226  0.00  0.00    -0.253 NA
ATOM     14  C   UNL     1     140.039 129.916  99.169  0.00  0.00    +0.064 A 
ATOM     15  C   UNL     1     139.187 130.277 100.217  0.00  0.00    -0.036 A 
ATOM     16  C   UNL     1     138.849 129.282 101.135  0.00  0.00    -0.059 A 
ATOM     17  C   UNL     1     139.513 128.061 101.021  0.00  0.00    -0.057 A 
ATOM     18  C   UNL     1     140.371 127.894  99.921  0.00  0.00    -0.023 A 
ATOM     19  C   UNL     1     140.006 128.595  98.791  0.00  0.00    -0.031 A 
ATOM     20  H   UNL     1     142.883 125.766 105.533  0.00  0.00    +0.000 HD
ATOM     21  H   UNL     1     143.361 128.242 101.547  0.00  0.00    +0.000 HD
ATOM     22  H   UNL     1     141.774 128.279 102.129  0.00  0.00    +0.000 HD
ENDROOT
TORSDOF 0
ENDMDL
MODEL 6
REMARK VINA RESULT:    -4.377      3.768      7.374
REMARK INTER + INTRA:          -4.377
REMARK INTER:                  -4.377
REMARK INTRA:                   0.000
REMARK UNBOUND:                 0.000
REMARK  Name = /home/vital/Documents/PhD_2021/Malaria_codes/scripts/../data/pdbqt_ligands/ligand_305_temp.pdb
REMARK                            x       y       z     vdW  Elec       q    Type
REMARK                         _______ _______ _______ _____ _____    ______ ____
ROOT
ATOM      1  C   UNL     1     141.388 125.557 107.285  0.00  0.00    -0.101 C 
ATOM      2  C   UNL     1     140.802 126.209 106.272  0.00  0.00    -0.075 C 
ATOM      3  C   UNL     1     141.338 126.263 104.874  0.00  0.00    +0.039 C 
ATOM      4  N   UNL     1     141.524 127.655 104.468  0.00  0.00    -0.197 NA
ATOM      5  O   UNL     1     142.032 127.589 103.102  0.00  0.00    -0.298 OA
ATOM      6  C   UNL     1     143.231 128.373 103.033  0.00  0.00    +0.082 C 
ATOM      7  C   UNL     1     143.829 128.239 101.627  0.00  0.00    +0.022 C 
ATOM      8  N   UNL     1     142.975 128.883 100.622  0.00  0.00    -0.302 N 
ATOM      9  C   UNL     1     143.413 128.620  99.249  0.00  0.00    +0.073 C 
ATOM     10  C   UNL     1     142.686 129.661  98.264  0.00  0.00    +0.055 C 
ATOM     11  C   UNL     1     142.798 131.127  98.600  0.00  0.00    +0.063 C 
ATOM     12 CL   UNL     1     141.312 131.649  99.417  0.00  0.00    -0.119 Cl
ATOM     13  N   UNL     1     142.061 129.298  97.154  0.00  0.00    -0.253 NA
ATOM     14  C   UNL     1     142.006 127.885  96.972  0.00  0.00    +0.064 A 
ATOM     15  C   UNL     1     140.811 127.271  97.356  0.00  0.00    -0.036 A 
ATOM     16  C   UNL     1     140.847 126.458  98.490  0.00  0.00    -0.059 A 
ATOM     17  C   UNL     1     142.030 126.456  99.231  0.00  0.00    -0.057 A 
ATOM     18  C   UNL     1     143.120 127.171  98.708  0.00  0.00    -0.023 A 
ATOM     19  C   UNL     1     143.163 127.235  97.331  0.00  0.00    -0.031 A 
ATOM     20  H   UNL     1     142.196 128.119 105.079  0.00  0.00    +0.000 HD
ATOM     21  H   UNL     1     142.989 129.891 100.780  0.00  0.00    +0.000 HD
ATOM     22  H   UNL     1     142.036 128.496 100.723  0.00  0.00    +0.000 HD
ENDROOT
TORSDOF 0
ENDMDL
MODEL 7
REMARK VINA RESULT:    -4.318      2.502      3.455
REMARK INTER + INTRA:          -4.318
REMARK INTER:                  -4.318
REMARK INTRA:                   0.000
REMARK UNBOUND:                 0.000
REMARK  Name = /home/vital/Documents/PhD_2021/Malaria_codes/scripts/../data/pdbqt_ligands/ligand_305_temp.pdb
REMARK                            x       y       z     vdW  Elec       q    Type
REMARK                         _______ _______ _______ _____ _____    ______ ____
ROOT
ATOM      1  C   UNL     1     142.263 133.063  90.408  0.00  0.00    -0.101 C 
ATOM      2  C   UNL     1     141.572 132.479  91.397  0.00  0.00    -0.075 C 
ATOM      3  C   UNL     1     142.029 132.404  92.822  0.00  0.00    +0.039 C 
ATOM      4  N   UNL     1     142.075 131.008  93.254  0.00  0.00    -0.197 NA
ATOM      5  O   UNL     1     142.516 131.054  94.644  0.00  0.00    -0.298 OA
ATOM      6  C   UNL     1     143.640 130.173  94.786  0.00  0.00    +0.082 C 
ATOM      7  C   UNL     1     144.173 130.280  96.220  0.00  0.00    +0.022 C 
ATOM      8  N   UNL     1     143.217 129.726  97.186  0.00  0.00    -0.302 N 
ATOM      9  C   UNL     1     143.605 129.975  98.577  0.00  0.00    +0.073 C 
ATOM     10  C   UNL     1     142.743 129.014  99.535  0.00  0.00    +0.055 C 
ATOM     11  C   UNL     1     142.748 127.539  99.223  0.00  0.00    +0.063 C 
ATOM     12 CL   UNL     1     141.267 127.130  98.336  0.00  0.00    -0.119 Cl
ATOM     13  N   UNL     1     142.095 129.447 100.605  0.00  0.00    -0.253 NA
ATOM     14  C   UNL     1     142.150 130.863 100.768  0.00  0.00    +0.064 A 
ATOM     15  C   UNL     1     141.033 131.568 100.313  0.00  0.00    -0.036 A 
ATOM     16  C   UNL     1     141.196 132.356  99.173  0.00  0.00    -0.059 A 
ATOM     17  C   UNL     1     142.411 132.247  98.495  0.00  0.00    -0.057 A 
ATOM     18  C   UNL     1     143.408 131.452  99.084  0.00  0.00    -0.023 A 
ATOM     19  C   UNL     1     143.375 131.408 100.462  0.00  0.00    -0.031 A 
ATOM     20  H   UNL     1     142.736 130.479  92.685  0.00  0.00    +0.000 HD
ATOM     21  H   UNL     1     143.155 128.719  97.041  0.00  0.00    +0.000 HD
ATOM     22  H   UNL     1     142.321 130.189  97.031  0.00  0.00    +0.000 HD
ENDROOT
TORSDOF 0
ENDMDL
MODEL 8
REMARK VINA RESULT:    -4.306      3.668      4.607
REMARK INTER + INTRA:          -4.306
REMARK INTER:                  -4.306
REMARK INTRA:                   0.000
REMARK UNBOUND:                 0.000
REMARK  Name = /home/vital/Documents/PhD_2021/Malaria_codes/scripts/../data/pdbqt_ligands/ligand_305_temp.pdb
REMARK                            x       y       z     vdW  Elec       q    Type
REMARK                         _______ _______ _______ _____ _____    ______ ____
ROOT
ATOM      1  C   UNL     1     141.249 126.617  90.912  0.00  0.00    -0.101 C 
ATOM      2  C   UNL     1     140.620 127.355  91.838  0.00  0.00    -0.075 C 
ATOM      3  C   UNL     1     141.222 127.770  93.145  0.00  0.00    +0.039 C 
ATOM      4  N   UNL     1     140.379 127.308  94.247  0.00  0.00    -0.197 NA
ATOM      5  O   UNL     1     141.048 127.773  95.458  0.00  0.00    -0.298 OA
ATOM      6  C   UNL     1     141.215 126.650  96.335  0.00  0.00    +0.082 C 
ATOM      7  C   UNL     1     141.999 127.103  97.573  0.00  0.00    +0.022 C 
ATOM      8  N   UNL     1     141.208 128.027  98.395  0.00  0.00    -0.302 N 
ATOM      9  C   UNL     1     141.983 128.626  99.484  0.00  0.00    +0.073 C 
ATOM     10  C   UNL     1     140.967 129.286 100.541  0.00  0.00    +0.055 C 
ATOM     11  C   UNL     1     139.859 128.415 101.075  0.00  0.00    +0.063 C 
ATOM     12 CL   UNL     1     138.363 128.772 100.189  0.00  0.00    -0.119 Cl
ATOM     13  N   UNL     1     141.100 130.520 101.003  0.00  0.00    -0.253 NA
ATOM     14  C   UNL     1     142.170 131.241 100.396  0.00  0.00    +0.064 A 
ATOM     15  C   UNL     1     141.806 132.108  99.362  0.00  0.00    -0.036 A 
ATOM     16  C   UNL     1     142.188 131.753  98.068  0.00  0.00    -0.059 A 
ATOM     17  C   UNL     1     142.758 130.490  97.899  0.00  0.00    -0.057 A 
ATOM     18  C   UNL     1     143.012 129.737  99.057  0.00  0.00    -0.023 A 
ATOM     19  C   UNL     1     143.296 130.483 100.181  0.00  0.00    -0.031 A 
ATOM     20  H   UNL     1     140.311 126.291  94.243  0.00  0.00    +0.000 HD
ATOM     21  H   UNL     1     140.424 127.514  98.797  0.00  0.00    +0.000 HD
ATOM     22  H   UNL     1     140.896 128.786  97.789  0.00  0.00    +0.000 HD
ENDROOT
TORSDOF 0
ENDMDL
MODEL 9
REMARK VINA RESULT:    -4.136      2.363      2.643
REMARK INTER + INTRA:          -4.136
REMARK INTER:                  -4.136
REMARK INTRA:                   0.000
REMARK UNBOUND:                 0.000
REMARK  Name = /home/vital/Documents/PhD_2021/Malaria_codes/scripts/../data/pdbqt_ligands/ligand_305_temp.pdb
REMARK                            x       y       z     vdW  Elec       q    Type
REMARK                         _______ _______ _______ _____ _____    ______ ____
ROOT
ATOM      1  C   UNL     1     143.362 132.726  91.463  0.00  0.00    -0.101 C 
ATOM      2  C   UNL     1     142.488 131.937  92.104  0.00  0.00    -0.075 C 
ATOM      3  C   UNL     1     142.502 131.679  93.580  0.00  0.00    +0.039 C 
ATOM      4  N   UNL     1     142.599 130.242  93.830  0.00  0.00    -0.197 NA
ATOM      5  O   UNL     1     142.593 130.107  95.283  0.00  0.00    -0.298 OA
ATOM      6  C   UNL     1     143.727 129.315  95.663  0.00  0.00    +0.082 C 
ATOM      7  C   UNL     1     143.787 129.242  97.194  0.00  0.00    +0.022 C 
ATOM      8  N   UNL     1     142.666 128.463  97.734  0.00  0.00    -0.302 N 
ATOM      9  C   UNL     1     142.582 128.523  99.195  0.00  0.00    +0.073 C 
ATOM     10  C   UNL     1     141.606 127.353  99.707  0.00  0.00    +0.055 C 
ATOM     11  C   UNL     1     141.897 125.951  99.235  0.00  0.00    +0.063 C 
ATOM     12 CL   UNL     1     140.818 125.560  97.882  0.00  0.00    -0.119 Cl
ATOM     13  N   UNL     1     140.615 127.555 100.563  0.00  0.00    -0.253 NA
ATOM     14  C   UNL     1     140.434 128.927 100.906  0.00  0.00    +0.064 A 
ATOM     15  C   UNL     1     139.422 129.596 100.212  0.00  0.00    -0.036 A 
ATOM     16  C   UNL     1     139.815 130.564  99.286  0.00  0.00    -0.059 A 
ATOM     17  C   UNL     1     141.181 130.667  99.019  0.00  0.00    -0.057 A 
ATOM     18  C   UNL     1     142.050 129.879  99.791  0.00  0.00    -0.023 A 
ATOM     19  C   UNL     1     141.611 129.617 101.071  0.00  0.00    -0.031 A 
ATOM     20  H   UNL     1     143.464 129.868  93.439  0.00  0.00    +0.000 HD
ATOM     21  H   UNL     1     142.782 127.489  97.455  0.00  0.00    +0.000 HD
ATOM     22  H   UNL     1     141.805 128.865  97.361  0.00  0.00    +0.000 HD
ENDROOT
TORSDOF 0
ENDMDL
