MODEL 1
REMARK VINA RESULT:    -5.237      0.000      0.000
REMARK INTER + INTRA:          -5.237
REMARK INTER:                  -5.237
REMARK INTRA:                   0.000
REMARK UNBOUND:                 0.000
REMARK  Name = /home/vital/Documents/PhD_2021/Malaria_codes/scripts/../data/pdbqt_ligands/ligand_219_temp.pdb
REMARK                            x       y       z     vdW  Elec       q    Type
REMARK                         _______ _______ _______ _____ _____    ______ ____
ROOT
ATOM      1  O1  UNL     1     145.658 131.491  97.475  0.00  0.00    -0.393 OA
ATOM      2  C1  UNL     1     145.048 130.994  98.623  0.00  0.00    +0.060 C 
ATOM      3  C2  UNL     1     144.038 129.910  98.222  0.00  0.00    +0.034 C 
ATOM      4  N1  UNL     1     143.345 129.314  99.238  0.00  0.00    -0.326 N 
ATOM      5  C3  UNL     1     142.655 128.721 100.251  0.00  0.00    +0.130 A 
ATOM      6  N2  UNL     1     143.054 127.982 101.292  0.00  0.00    -0.213 NA
ATOM      7  C4  UNL     1     142.263 127.439 102.225  0.00  0.00    +0.155 A 
ATOM      8  P1  UNL     1     143.068 126.468 103.547  0.00  0.00    -0.018 P 
ATOM      9  C5  UNL     1     141.836 125.821 104.715  0.00  0.00    -0.018 A 
ATOM     10  C6  UNL     1     142.257 125.639 106.038  0.00  0.00    -0.054 A 
ATOM     11  C7  UNL     1     141.340 125.147 106.937  0.00  0.00    -0.060 A 
ATOM     12  C8  UNL     1     140.041 124.825 106.609  0.00  0.00    -0.043 A 
ATOM     13  C9  UNL     1     139.626 125.003 105.305  0.00  0.00    +0.042 A 
ATOM     14 CL1  UNL     1     138.004 124.626 104.798  0.00  0.00    -0.084 Cl
ATOM     15  C10 UNL     1     140.535 125.503 104.365  0.00  0.00    -0.036 A 
ATOM     16  N3  UNL     1     140.951 127.640 102.125  0.00  0.00    -0.228 NA
ATOM     17  C11 UNL     1     140.410 128.358 101.137  0.00  0.00    +0.077 A 
ATOM     18  C12 UNL     1     139.030 128.519 101.119  0.00  0.00    -0.036 A 
ATOM     19  C13 UNL     1     138.517 129.285 100.067  0.00  0.00    -0.060 A 
ATOM     20  C14 UNL     1     139.317 129.837  99.118  0.00  0.00    -0.061 A 
ATOM     21  C15 UNL     1     140.678 129.640  99.192  0.00  0.00    -0.049 A 
ATOM     22  C16 UNL     1     141.243 128.898 100.202  0.00  0.00    +0.040 A 
ATOM     23  H   UNL     1     146.298 132.177  97.719  0.00  0.00    +0.000 HD
ATOM     24  H   UNL     1     142.673 128.996  98.593  0.00  0.00    +0.000 HD
ATOM     25  H   UNL     1     143.955 127.279 104.227  0.00  0.00    +0.000 HD
ENDROOT
TORSDOF 0
ENDMDL
MODEL 2
REMARK VINA RESULT:    -5.001      5.132      6.878
REMARK INTER + INTRA:          -5.001
REMARK INTER:                  -5.001
REMARK INTRA:                   0.000
REMARK UNBOUND:                 0.000
REMARK  Name = /home/vital/Documents/PhD_2021/Malaria_codes/scripts/../data/pdbqt_ligands/ligand_219_temp.pdb
REMARK                            x       y       z     vdW  Elec       q    Type
REMARK                         _______ _______ _______ _____ _____    ______ ____
ROOT
ATOM      1  O1  UNL     1     146.422 137.804  98.376  0.00  0.00    -0.393 OA
ATOM      2  C1  UNL     1     145.395 136.864  98.334  0.00  0.00    +0.060 C 
ATOM      3  C2  UNL     1     145.997 135.479  98.059  0.00  0.00    +0.034 C 
ATOM      4  N1  UNL     1     145.119 134.435  97.984  0.00  0.00    -0.326 N 
ATOM      5  C3  UNL     1     144.244 133.395  97.911  0.00  0.00    +0.130 A 
ATOM      6  N2  UNL     1     143.405 132.866  98.808  0.00  0.00    -0.213 NA
ATOM      7  C4  UNL     1     142.593 131.820  98.612  0.00  0.00    +0.155 A 
ATOM      8  P1  UNL     1     141.545 131.297 100.014  0.00  0.00    -0.018 P 
ATOM      9  C5  UNL     1     140.514 129.873  99.552  0.00  0.00    -0.018 A 
ATOM     10  C6  UNL     1     139.278 129.755 100.199  0.00  0.00    -0.054 A 
ATOM     11  C7  UNL     1     138.484 128.682  99.866  0.00  0.00    -0.060 A 
ATOM     12  C8  UNL     1     138.838 127.725  98.940  0.00  0.00    -0.043 A 
ATOM     13  C9  UNL     1     140.057 127.840  98.303  0.00  0.00    +0.042 A 
ATOM     14 CL1  UNL     1     140.587 126.681  97.119  0.00  0.00    -0.084 Cl
ATOM     15  C10 UNL     1     140.887 128.922  98.619  0.00  0.00    -0.036 A 
ATOM     16  N3  UNL     1     142.608 131.235  97.417  0.00  0.00    -0.228 NA
ATOM     17  C11 UNL     1     143.396 131.655  96.423  0.00  0.00    +0.077 A 
ATOM     18  C12 UNL     1     143.337 130.986  95.207  0.00  0.00    -0.036 A 
ATOM     19  C13 UNL     1     144.177 131.472  94.200  0.00  0.00    -0.060 A 
ATOM     20  C14 UNL     1     145.002 132.532  94.396  0.00  0.00    -0.061 A 
ATOM     21  C15 UNL     1     145.014 133.154  95.625  0.00  0.00    -0.049 A 
ATOM     22  C16 UNL     1     144.211 132.724  96.655  0.00  0.00    +0.040 A 
ATOM     23  H   UNL     1     146.050 138.682  98.549  0.00  0.00    +0.000 HD
ATOM     24  H   UNL     1     145.799 133.897  97.518  0.00  0.00    +0.000 HD
ATOM     25  H   UNL     1     140.728 132.346 100.384  0.00  0.00    +0.000 HD
ENDROOT
TORSDOF 0
ENDMDL
MODEL 3
REMARK VINA RESULT:    -4.981      4.475      5.913
REMARK INTER + INTRA:          -4.981
REMARK INTER:                  -4.981
REMARK INTRA:                   0.000
REMARK UNBOUND:                 0.000
REMARK  Name = /home/vital/Documents/PhD_2021/Malaria_codes/scripts/../data/pdbqt_ligands/ligand_219_temp.pdb
REMARK                            x       y       z     vdW  Elec       q    Type
REMARK                         _______ _______ _______ _____ _____    ______ ____
ROOT
ATOM      1  O1  UNL     1     143.996 135.188  98.217  0.00  0.00    -0.393 OA
ATOM      2  C1  UNL     1     143.936 133.797  98.232  0.00  0.00    +0.060 C 
ATOM      3  C2  UNL     1     142.477 133.360  98.038  0.00  0.00    +0.034 C 
ATOM      4  N1  UNL     1     142.239 132.014  98.030  0.00  0.00    -0.326 N 
ATOM      5  C3  UNL     1     142.002 130.673  98.022  0.00  0.00    +0.130 A 
ATOM      6  N2  UNL     1     142.417 129.697  97.208  0.00  0.00    -0.213 NA
ATOM      7  C4  UNL     1     142.098 128.400  97.302  0.00  0.00    +0.155 A 
ATOM      8  P1  UNL     1     142.803 127.270  96.052  0.00  0.00    -0.018 P 
ATOM      9  C5  UNL     1     142.263 125.560  96.350  0.00  0.00    -0.018 A 
ATOM     10  C6  UNL     1     143.141 124.545  95.952  0.00  0.00    -0.054 A 
ATOM     11  C7  UNL     1     142.749 123.244  96.166  0.00  0.00    -0.060 A 
ATOM     12  C8  UNL     1     141.550 122.889  96.744  0.00  0.00    -0.043 A 
ATOM     13  C9  UNL     1     140.683 123.890  97.134  0.00  0.00    +0.042 A 
ATOM     14 CL1  UNL     1     139.148 123.538  97.873  0.00  0.00    -0.084 Cl
ATOM     15  C10 UNL     1     141.053 125.225  96.931  0.00  0.00    -0.036 A 
ATOM     16  N3  UNL     1     141.291 128.026  98.292  0.00  0.00    -0.228 NA
ATOM     17  C11 UNL     1     140.800 128.893  99.182  0.00  0.00    +0.077 A 
ATOM     18  C12 UNL     1     139.971 128.409 100.186  0.00  0.00    -0.036 A 
ATOM     19  C13 UNL     1     139.490 129.358 101.094  0.00  0.00    -0.060 A 
ATOM     20  C14 UNL     1     139.811 130.674 101.001  0.00  0.00    -0.061 A 
ATOM     21  C15 UNL     1     140.638 131.092  99.981  0.00  0.00    -0.049 A 
ATOM     22  C16 UNL     1     141.144 130.208  99.059  0.00  0.00    +0.040 A 
ATOM     23  H   UNL     1     144.915 135.473  98.339  0.00  0.00    +0.000 HD
ATOM     24  H   UNL     1     141.285 132.182  98.208  0.00  0.00    +0.000 HD
ATOM     25  H   UNL     1     144.181 127.327  96.116  0.00  0.00    +0.000 HD
ENDROOT
TORSDOF 0
ENDMDL
MODEL 4
REMARK VINA RESULT:    -4.817      2.037      2.398
REMARK INTER + INTRA:          -4.817
REMARK INTER:                  -4.817
REMARK INTRA:                   0.000
REMARK UNBOUND:                 0.000
REMARK  Name = /home/vital/Documents/PhD_2021/Malaria_codes/scripts/../data/pdbqt_ligands/ligand_219_temp.pdb
REMARK                            x       y       z     vdW  Elec       q    Type
REMARK                         _______ _______ _______ _____ _____    ______ ____
ROOT
ATOM      1  O1  UNL     1     144.156 134.653  97.566  0.00  0.00    -0.393 OA
ATOM      2  C1  UNL     1     144.008 133.754  98.619  0.00  0.00    +0.060 C 
ATOM      3  C2  UNL     1     143.406 132.449  98.080  0.00  0.00    +0.034 C 
ATOM      4  N1  UNL     1     143.192 131.452  98.990  0.00  0.00    -0.326 N 
ATOM      5  C3  UNL     1     142.980 130.460  99.897  0.00  0.00    +0.130 A 
ATOM      6  N2  UNL     1     143.817 129.767 100.677  0.00  0.00    -0.213 NA
ATOM      7  C4  UNL     1     143.478 128.793 101.531  0.00  0.00    +0.155 A 
ATOM      8  P1  UNL     1     144.825 128.004 102.481  0.00  0.00    -0.018 P 
ATOM      9  C5  UNL     1     144.168 126.718 103.585  0.00  0.00    -0.018 A 
ATOM     10  C6  UNL     1     144.877 126.484 104.769  0.00  0.00    -0.054 A 
ATOM     11  C7  UNL     1     144.398 125.511 105.616  0.00  0.00    -0.060 A 
ATOM     12  C8  UNL     1     143.270 124.763 105.364  0.00  0.00    -0.043 A 
ATOM     13  C9  UNL     1     142.572 124.993 104.196  0.00  0.00    +0.042 A 
ATOM     14 CL1  UNL     1     141.136 124.096 103.794  0.00  0.00    -0.084 Cl
ATOM     15  C10 UNL     1     143.033 125.976 103.313  0.00  0.00    -0.036 A 
ATOM     16  N3  UNL     1     142.191 128.467 101.627  0.00  0.00    -0.228 NA
ATOM     17  C11 UNL     1     141.243 129.075 100.909  0.00  0.00    +0.077 A 
ATOM     18  C12 UNL     1     139.925 128.671 101.081  0.00  0.00    -0.036 A 
ATOM     19  C13 UNL     1     138.972 129.345 100.310  0.00  0.00    -0.060 A 
ATOM     20  C14 UNL     1     139.313 130.332  99.442  0.00  0.00    -0.061 A 
ATOM     21  C15 UNL     1     140.638 130.687  99.316  0.00  0.00    -0.049 A 
ATOM     22  C16 UNL     1     141.621 130.063 100.048  0.00  0.00    +0.040 A 
ATOM     23  H   UNL     1     144.535 135.481  97.899  0.00  0.00    +0.000 HD
ATOM     24  H   UNL     1     142.571 131.014  98.365  0.00  0.00    +0.000 HD
ATOM     25  H   UNL     1     145.468 128.964 103.236  0.00  0.00    +0.000 HD
ENDROOT
TORSDOF 0
ENDMDL
MODEL 5
REMARK VINA RESULT:    -4.595      5.476      8.053
REMARK INTER + INTRA:          -4.595
REMARK INTER:                  -4.595
REMARK INTRA:                   0.000
REMARK UNBOUND:                 0.000
REMARK  Name = /home/vital/Documents/PhD_2021/Malaria_codes/scripts/../data/pdbqt_ligands/ligand_219_temp.pdb
REMARK                            x       y       z     vdW  Elec       q    Type
REMARK                         _______ _______ _______ _____ _____    ______ ____
ROOT
ATOM      1  O1  UNL     1     143.611 131.708 102.311  0.00  0.00    -0.393 OA
ATOM      2  C1  UNL     1     143.538 130.706 101.346  0.00  0.00    +0.060 C 
ATOM      3  C2  UNL     1     142.466 131.085 100.315  0.00  0.00    +0.034 C 
ATOM      4  N1  UNL     1     142.263 130.202  99.291  0.00  0.00    -0.326 N 
ATOM      5  C3  UNL     1     142.062 129.322  98.272  0.00  0.00    +0.130 A 
ATOM      6  N2  UNL     1     142.865 128.884  97.297  0.00  0.00    -0.213 NA
ATOM      7  C4  UNL     1     142.538 128.013  96.334  0.00  0.00    +0.155 A 
ATOM      8  P1  UNL     1     143.831 127.583  95.117  0.00  0.00    -0.018 P 
ATOM      9  C5  UNL     1     143.200 126.389  93.901  0.00  0.00    -0.018 A 
ATOM     10  C6  UNL     1     144.134 125.506  93.344  0.00  0.00    -0.054 A 
ATOM     11  C7  UNL     1     143.676 124.596  92.419  0.00  0.00    -0.060 A 
ATOM     12  C8  UNL     1     142.363 124.509  92.014  0.00  0.00    -0.043 A 
ATOM     13  C9  UNL     1     141.443 125.380  92.562  0.00  0.00    +0.042 A 
ATOM     14 CL1  UNL     1     139.763 125.342  92.112  0.00  0.00    -0.084 Cl
ATOM     15  C10 UNL     1     141.876 126.317  93.507  0.00  0.00    -0.036 A 
ATOM     16  N3  UNL     1     141.300 127.525  96.329  0.00  0.00    -0.228 NA
ATOM     17  C11 UNL     1     140.389 127.873  97.242  0.00  0.00    +0.077 A 
ATOM     18  C12 UNL     1     139.123 127.306  97.160  0.00  0.00    -0.036 A 
ATOM     19  C13 UNL     1     138.211 127.700  98.145  0.00  0.00    -0.060 A 
ATOM     20  C14 UNL     1     138.540 128.583  99.122  0.00  0.00    -0.061 A 
ATOM     21  C15 UNL     1     139.812 129.110  99.149  0.00  0.00    -0.049 A 
ATOM     22  C16 UNL     1     140.754 128.762  98.210  0.00  0.00    +0.040 A 
ATOM     23  H   UNL     1     144.286 131.476 102.967  0.00  0.00    +0.000 HD
ATOM     24  H   UNL     1     141.389 130.615  99.108  0.00  0.00    +0.000 HD
ATOM     25  H   UNL     1     144.908 127.029  95.779  0.00  0.00    +0.000 HD
ENDROOT
TORSDOF 0
ENDMDL
MODEL 6
REMARK VINA RESULT:    -4.571      4.157      7.587
REMARK INTER + INTRA:          -4.571
REMARK INTER:                  -4.571
REMARK INTRA:                   0.000
REMARK UNBOUND:                 0.000
REMARK  Name = /home/vital/Documents/PhD_2021/Malaria_codes/scripts/../data/pdbqt_ligands/ligand_219_temp.pdb
REMARK                            x       y       z     vdW  Elec       q    Type
REMARK                         _______ _______ _______ _____ _____    ______ ____
ROOT
ATOM      1  O1  UNL     1     141.300 123.508 104.004  0.00  0.00    -0.393 OA
ATOM      2  C1  UNL     1     141.821 124.444 103.115  0.00  0.00    +0.060 C 
ATOM      3  C2  UNL     1     141.226 125.822 103.436  0.00  0.00    +0.034 C 
ATOM      4  N1  UNL     1     141.635 126.863 102.649  0.00  0.00    -0.326 N 
ATOM      5  C3  UNL     1     142.043 127.898 101.865  0.00  0.00    +0.130 A 
ATOM      6  N2  UNL     1     143.245 128.449 101.665  0.00  0.00    -0.213 NA
ATOM      7  C4  UNL     1     143.516 129.488 100.865  0.00  0.00    +0.155 A 
ATOM      8  P1  UNL     1     145.252 130.047 100.774  0.00  0.00    -0.018 P 
ATOM      9  C5  UNL     1     145.418 131.456  99.638  0.00  0.00    -0.018 A 
ATOM     10  C6  UNL     1     146.644 131.588  98.975  0.00  0.00    -0.054 A 
ATOM     11  C7  UNL     1     146.791 132.650  98.113  0.00  0.00    -0.060 A 
ATOM     12  C8  UNL     1     145.806 133.582  97.870  0.00  0.00    -0.043 A 
ATOM     13  C9  UNL     1     144.598 133.452  98.524  0.00  0.00    +0.042 A 
ATOM     14 CL1  UNL     1     143.296 134.580  98.279  0.00  0.00    -0.084 Cl
ATOM     15  C10 UNL     1     144.416 132.382  99.407  0.00  0.00    -0.036 A 
ATOM     16  N3  UNL     1     142.506 130.040 100.197  0.00  0.00    -0.228 NA
ATOM     17  C11 UNL     1     141.251 129.595 100.299  0.00  0.00    +0.077 A 
ATOM     18  C12 UNL     1     140.262 130.231  99.557  0.00  0.00    -0.036 A 
ATOM     19  C13 UNL     1     138.968 129.719  99.696  0.00  0.00    -0.060 A 
ATOM     20  C14 UNL     1     138.691 128.666 100.507  0.00  0.00    -0.061 A 
ATOM     21  C15 UNL     1     139.715 128.079 101.217  0.00  0.00    -0.049 A 
ATOM     22  C16 UNL     1     141.008 128.534 101.122  0.00  0.00    +0.040 A 
ATOM     23  H   UNL     1     141.671 122.634 103.808  0.00  0.00    +0.000 HD
ATOM     24  H   UNL     1     140.856 127.389 102.941  0.00  0.00    +0.000 HD
ATOM     25  H   UNL     1     146.039 129.007 100.323  0.00  0.00    +0.000 HD
ENDROOT
TORSDOF 0
ENDMDL
MODEL 7
REMARK VINA RESULT:    -4.551      4.382      8.035
REMARK INTER + INTRA:          -4.551
REMARK INTER:                  -4.551
REMARK INTRA:                   0.000
REMARK UNBOUND:                 0.000
REMARK  Name = /home/vital/Documents/PhD_2021/Malaria_codes/scripts/../data/pdbqt_ligands/ligand_219_temp.pdb
REMARK                            x       y       z     vdW  Elec       q    Type
REMARK                         _______ _______ _______ _____ _____    ______ ____
ROOT
ATOM      1  O1  UNL     1     138.801 122.868 106.774  0.00  0.00    -0.393 OA
ATOM      2  C1  UNL     1     139.138 124.054 106.126  0.00  0.00    +0.060 C 
ATOM      3  C2  UNL     1     140.336 123.794 105.202  0.00  0.00    +0.034 C 
ATOM      4  N1  UNL     1     140.799 124.862 104.486  0.00  0.00    -0.326 N 
ATOM      5  C3  UNL     1     141.259 125.927 103.774  0.00  0.00    +0.130 A 
ATOM      6  N2  UNL     1     140.687 126.692 102.839  0.00  0.00    -0.213 NA
ATOM      7  C4  UNL     1     141.260 127.717 102.196  0.00  0.00    +0.155 A 
ATOM      8  P1  UNL     1     140.250 128.600 100.955  0.00  0.00    -0.018 P 
ATOM      9  C5  UNL     1     141.196 129.955 100.200  0.00  0.00    -0.018 A 
ATOM     10  C6  UNL     1     140.463 131.064  99.760  0.00  0.00    -0.054 A 
ATOM     11  C7  UNL     1     141.161 132.100  99.182  0.00  0.00    -0.060 A 
ATOM     12  C8  UNL     1     142.528 132.104  99.014  0.00  0.00    -0.043 A 
ATOM     13  C9  UNL     1     143.250 131.010  99.446  0.00  0.00    +0.042 A 
ATOM     14 CL1  UNL     1     144.980 130.927  99.276  0.00  0.00    -0.084 Cl
ATOM     15  C10 UNL     1     142.570 129.940 100.039  0.00  0.00    -0.036 A 
ATOM     16  N3  UNL     1     142.520 128.019 102.501  0.00  0.00    -0.228 NA
ATOM     17  C11 UNL     1     143.217 127.340 103.417  0.00  0.00    +0.077 A 
ATOM     18  C12 UNL     1     144.525 127.733 103.674  0.00  0.00    -0.036 A 
ATOM     19  C13 UNL     1     145.206 126.994 104.646  0.00  0.00    -0.060 A 
ATOM     20  C14 UNL     1     144.628 125.953 105.299  0.00  0.00    -0.061 A 
ATOM     21  C15 UNL     1     143.327 125.613 104.999  0.00  0.00    -0.049 A 
ATOM     22  C16 UNL     1     142.604 126.302 104.054  0.00  0.00    +0.040 A 
ATOM     23  H   UNL     1     138.045 123.024 107.361  0.00  0.00    +0.000 HD
ATOM     24  H   UNL     1     141.649 124.391 104.334  0.00  0.00    +0.000 HD
ATOM     25  H   UNL     1     139.129 129.118 101.570  0.00  0.00    +0.000 HD
ENDROOT
TORSDOF 0
ENDMDL
MODEL 8
REMARK VINA RESULT:    -4.417      5.382      7.648
REMARK INTER + INTRA:          -4.417
REMARK INTER:                  -4.417
REMARK INTRA:                   0.000
REMARK UNBOUND:                 0.000
REMARK  Name = /home/vital/Documents/PhD_2021/Malaria_codes/scripts/../data/pdbqt_ligands/ligand_219_temp.pdb
REMARK                            x       y       z     vdW  Elec       q    Type
REMARK                         _______ _______ _______ _____ _____    ______ ____
ROOT
ATOM      1  O1  UNL     1     141.328 125.853 105.849  0.00  0.00    -0.393 OA
ATOM      2  C1  UNL     1     141.040 125.619 104.507  0.00  0.00    +0.060 C 
ATOM      3  C2  UNL     1     141.614 126.768 103.666  0.00  0.00    +0.034 C 
ATOM      4  N1  UNL     1     141.416 126.695 102.316  0.00  0.00    -0.326 N 
ATOM      5  C3  UNL     1     141.220 126.622 100.971  0.00  0.00    +0.130 A 
ATOM      6  N2  UNL     1     141.622 125.734 100.056  0.00  0.00    -0.213 NA
ATOM      7  C4  UNL     1     141.368 125.782  98.742  0.00  0.00    +0.155 A 
ATOM      8  P1  UNL     1     142.040 124.434  97.707  0.00  0.00    -0.018 P 
ATOM      9  C5  UNL     1     141.586 124.672  95.964  0.00  0.00    -0.018 A 
ATOM     10  C6  UNL     1     141.442 123.515  95.188  0.00  0.00    -0.054 A 
ATOM     11  C7  UNL     1     141.102 123.674  93.864  0.00  0.00    -0.060 A 
ATOM     12  C8  UNL     1     140.898 124.898  93.267  0.00  0.00    -0.043 A 
ATOM     13  C9  UNL     1     141.041 126.039  94.031  0.00  0.00    +0.042 A 
ATOM     14 CL1  UNL     1     140.802 127.627  93.362  0.00  0.00    -0.084 Cl
ATOM     15  C10 UNL     1     141.386 125.911  95.381  0.00  0.00    -0.036 A 
ATOM     16  N3  UNL     1     140.649 126.803  98.283  0.00  0.00    -0.228 NA
ATOM     17  C11 UNL     1     140.180 127.766  99.082  0.00  0.00    +0.077 A 
ATOM     18  C12 UNL     1     139.433 128.790  98.513  0.00  0.00    -0.036 A 
ATOM     19  C13 UNL     1     138.961 129.767  99.395  0.00  0.00    -0.060 A 
ATOM     20  C14 UNL     1     139.218 129.721 100.728  0.00  0.00    -0.061 A 
ATOM     21  C15 UNL     1     139.965 128.679 101.231  0.00  0.00    -0.049 A 
ATOM     22  C16 UNL     1     140.456 127.688 100.415  0.00  0.00    +0.040 A 
ATOM     23  H   UNL     1     140.969 125.131 106.388  0.00  0.00    +0.000 HD
ATOM     24  H   UNL     1     141.608 127.657 102.236  0.00  0.00    +0.000 HD
ATOM     25  H   UNL     1     141.532 123.229  98.147  0.00  0.00    +0.000 HD
ENDROOT
TORSDOF 0
ENDMDL
MODEL 9
REMARK VINA RESULT:    -4.113      2.151      2.263
REMARK INTER + INTRA:          -4.113
REMARK INTER:                  -4.113
REMARK INTRA:                   0.000
REMARK UNBOUND:                 0.000
REMARK  Name = /home/vital/Documents/PhD_2021/Malaria_codes/scripts/../data/pdbqt_ligands/ligand_219_temp.pdb
REMARK                            x       y       z     vdW  Elec       q    Type
REMARK                         _______ _______ _______ _____ _____    ______ ____
ROOT
ATOM      1  O1  UNL     1     142.820 133.851  98.229  0.00  0.00    -0.393 OA
ATOM      2  C1  UNL     1     142.350 132.844  99.068  0.00  0.00    +0.060 C 
ATOM      3  C2  UNL     1     142.955 131.504  98.626  0.00  0.00    +0.034 C 
ATOM      4  N1  UNL     1     142.593 130.402  99.348  0.00  0.00    -0.326 N 
ATOM      5  C3  UNL     1     142.232 129.305 100.069  0.00  0.00    +0.130 A 
ATOM      6  N2  UNL     1     142.413 128.978 101.353  0.00  0.00    -0.213 NA
ATOM      7  C4  UNL     1     142.014 127.846 101.945  0.00  0.00    +0.155 A 
ATOM      8  P1  UNL     1     142.392 127.650 103.721  0.00  0.00    -0.018 P 
ATOM      9  C5  UNL     1     141.768 126.059 104.342  0.00  0.00    -0.018 A 
ATOM     10  C6  UNL     1     141.396 126.014 105.691  0.00  0.00    -0.054 A 
ATOM     11  C7  UNL     1     140.924 124.818 106.181  0.00  0.00    -0.060 A 
ATOM     12  C8  UNL     1     140.800 123.674 105.423  0.00  0.00    -0.043 A 
ATOM     13  C9  UNL     1     141.169 123.719 104.094  0.00  0.00    +0.042 A 
ATOM     14 CL1  UNL     1     141.046 122.324 103.060  0.00  0.00    -0.084 Cl
ATOM     15  C10 UNL     1     141.652 124.921 103.565  0.00  0.00    -0.036 A 
ATOM     16  N3  UNL     1     141.375 126.945 101.202  0.00  0.00    -0.228 NA
ATOM     17  C11 UNL     1     141.123 127.136  99.904  0.00  0.00    +0.077 A 
ATOM     18  C12 UNL     1     140.443 126.142  99.211  0.00  0.00    -0.036 A 
ATOM     19  C13 UNL     1     140.200 126.396  97.858  0.00  0.00    -0.060 A 
ATOM     20  C14 UNL     1     140.604 127.543  97.254  0.00  0.00    -0.061 A 
ATOM     21  C15 UNL     1     141.274 128.491  97.996  0.00  0.00    -0.049 A 
ATOM     22  C16 UNL     1     141.543 128.301  99.331  0.00  0.00    +0.040 A 
ATOM     23  H   UNL     1     142.442 134.701  98.501  0.00  0.00    +0.000 HD
ATOM     24  H   UNL     1     142.888 129.821  98.611  0.00  0.00    +0.000 HD
ATOM     25  H   UNL     1     141.798 128.676 104.427  0.00  0.00    +0.000 HD
ENDROOT
TORSDOF 0
ENDMDL
