MODEL 1
REMARK VINA RESULT:    -5.145      0.000      0.000
REMARK INTER + INTRA:          -5.145
REMARK INTER:                  -5.145
REMARK INTRA:                   0.000
REMARK UNBOUND:                 0.000
REMARK  Name = /home/vital/Documents/PhD_2021/Malaria_codes/scripts/../data/pdbqt_ligands/ligand_182_temp.pdb
REMARK                            x       y       z     vdW  Elec       q    Type
REMARK                         _______ _______ _______ _____ _____    ______ ____
ROOT
ATOM      1  N   UNL     1     142.268 128.184 103.112  0.00  0.00    -0.310 N 
ATOM      2  C   UNL     1     142.471 128.689 101.773  0.00  0.00    +0.106 C 
ATOM      3  N   UNL     1     142.839 130.078 101.982  0.00  0.00    -0.180 NA
ATOM      4  O   UNL     1     143.565 130.487 100.778  0.00  0.00    -0.297 OA
ATOM      5  C   UNL     1     142.969 131.684 100.270  0.00  0.00    +0.082 C 
ATOM      6  C   UNL     1     143.731 132.149  99.022  0.00  0.00    +0.022 C 
ATOM      7  N   UNL     1     145.047 132.711  99.359  0.00  0.00    -0.303 N 
ATOM      8  C   UNL     1     145.741 133.104  98.122  0.00  0.00    +0.059 C 
ATOM      9  C   UNL     1     147.223 133.985  98.546  0.00  0.00    -0.021 C 
ATOM     10  C   UNL     1     146.383 134.758  98.037  0.00  0.00    -0.125 C 
ATOM     11  C   UNL     1     145.218 134.716  97.585  0.00  0.00    -0.021 C 
ATOM     12  C   UNL     1     141.215 128.530 100.931  0.00  0.00    -0.013 A 
ATOM     13  C   UNL     1     140.073 129.320 101.149  0.00  0.00    -0.054 A 
ATOM     14  C   UNL     1     138.927 129.158 100.366  0.00  0.00    -0.042 A 
ATOM     15  C   UNL     1     138.901 128.194  99.356  0.00  0.00    +0.059 A 
ATOM     16 CL   UNL     1     137.460 128.058  98.413  0.00  0.00    -0.082 Cl
ATOM     17  C   UNL     1     140.024 127.392  99.132  0.00  0.00    +0.060 A 
ATOM     18 CL   UNL     1     140.061 126.180  97.899  0.00  0.00    -0.082 Cl
ATOM     19  C   UNL     1     141.172 127.559  99.916  0.00  0.00    -0.036 A 
ATOM     20  H   UNL     1     143.123 128.303 103.654  0.00  0.00    +0.000 HD
ATOM     21  H   UNL     1     142.028 127.193 103.069  0.00  0.00    +0.000 HD
ATOM     22  H   UNL     1     141.509 128.699 103.558  0.00  0.00    +0.000 HD
ATOM     23  H   UNL     1     143.436 130.166 102.803  0.00  0.00    +0.000 HD
ATOM     24  H   UNL     1     145.601 132.010  99.852  0.00  0.00    +0.000 HD
ATOM     25  H   UNL     1     144.926 133.529  99.957  0.00  0.00    +0.000 HD
ENDROOT
TORSDOF 0
ENDMDL
MODEL 2
REMARK VINA RESULT:    -5.059      2.895      3.452
REMARK INTER + INTRA:          -5.059
REMARK INTER:                  -5.059
REMARK INTRA:                   0.000
REMARK UNBOUND:                 0.000
REMARK  Name = /home/vital/Documents/PhD_2021/Malaria_codes/scripts/../data/pdbqt_ligands/ligand_182_temp.pdb
REMARK                            x       y       z     vdW  Elec       q    Type
REMARK                         _______ _______ _______ _____ _____    ______ ____
ROOT
ATOM      1  N   UNL     1     144.195 131.481 101.829  0.00  0.00    -0.310 N 
ATOM      2  C   UNL     1     143.779 131.045 100.515  0.00  0.00    +0.106 C 
ATOM      3  N   UNL     1     143.798 132.264  99.728  0.00  0.00    -0.180 NA
ATOM      4  O   UNL     1     143.924 131.839  98.332  0.00  0.00    -0.297 OA
ATOM      5  C   UNL     1     142.884 132.459  97.570  0.00  0.00    +0.082 C 
ATOM      6  C   UNL     1     143.012 132.052  96.097  0.00  0.00    +0.022 C 
ATOM      7  N   UNL     1     144.154 132.706  95.442  0.00  0.00    -0.303 N 
ATOM      8  C   UNL     1     144.244 132.247  94.046  0.00  0.00    +0.059 C 
ATOM      9  C   UNL     1     145.477 133.207  93.202  0.00  0.00    -0.021 C 
ATOM     10  C   UNL     1     144.335 133.493  92.782  0.00  0.00    -0.125 C 
ATOM     11  C   UNL     1     143.146 133.176  93.000  0.00  0.00    -0.021 C 
ATOM     12  C   UNL     1     142.407 130.393 100.564  0.00  0.00    -0.013 A 
ATOM     13  C   UNL     1     141.238 131.143 100.780  0.00  0.00    -0.054 A 
ATOM     14  C   UNL     1     139.985 130.525 100.824  0.00  0.00    -0.042 A 
ATOM     15  C   UNL     1     139.881 129.142 100.660  0.00  0.00    +0.059 A 
ATOM     16 CL   UNL     1     138.302 128.445 100.706  0.00  0.00    -0.082 Cl
ATOM     17  C   UNL     1     141.035 128.379 100.454  0.00  0.00    +0.060 A 
ATOM     18 CL   UNL     1     140.980 126.663 100.244  0.00  0.00    -0.082 Cl
ATOM     19  C   UNL     1     142.288 129.002 100.408  0.00  0.00    -0.036 A 
ATOM     20  H   UNL     1     145.117 131.914 101.768  0.00  0.00    +0.000 HD
ATOM     21  H   UNL     1     144.239 130.677 102.456  0.00  0.00    +0.000 HD
ATOM     22  H   UNL     1     143.525 132.159 102.191  0.00  0.00    +0.000 HD
ATOM     23  H   UNL     1     144.592 132.847  99.994  0.00  0.00    +0.000 HD
ATOM     24  H   UNL     1     145.014 132.465  95.936  0.00  0.00    +0.000 HD
ATOM     25  H   UNL     1     144.025 133.718  95.461  0.00  0.00    +0.000 HD
ENDROOT
TORSDOF 0
ENDMDL
MODEL 3
REMARK VINA RESULT:    -4.604      5.192      7.153
REMARK INTER + INTRA:          -4.604
REMARK INTER:                  -4.604
REMARK INTRA:                   0.000
REMARK UNBOUND:                 0.000
REMARK  Name = /home/vital/Documents/PhD_2021/Malaria_codes/scripts/../data/pdbqt_ligands/ligand_182_temp.pdb
REMARK                            x       y       z     vdW  Elec       q    Type
REMARK                         _______ _______ _______ _____ _____    ______ ____
ROOT
ATOM      1  N   UNL     1     138.330 128.604 100.178  0.00  0.00    -0.310 N 
ATOM      2  C   UNL     1     139.163 128.920  99.039  0.00  0.00    +0.106 C 
ATOM      3  N   UNL     1     139.412 127.627  98.427  0.00  0.00    -0.180 NA
ATOM      4  O   UNL     1     139.761 127.903  97.032  0.00  0.00    -0.297 OA
ATOM      5  C   UNL     1     140.998 127.250  96.733  0.00  0.00    +0.082 C 
ATOM      6  C   UNL     1     141.370 127.500  95.265  0.00  0.00    +0.022 C 
ATOM      7  N   UNL     1     140.516 126.738  94.343  0.00  0.00    -0.303 N 
ATOM      8  C   UNL     1     140.898 127.049  92.956  0.00  0.00    +0.059 C 
ATOM      9  C   UNL     1     140.022 125.961  91.859  0.00  0.00    -0.021 C 
ATOM     10  C   UNL     1     141.240 125.678  91.878  0.00  0.00    -0.125 C 
ATOM     11  C   UNL     1     142.286 126.063  92.444  0.00  0.00    -0.021 C 
ATOM     12  C   UNL     1     140.437 129.626  99.470  0.00  0.00    -0.013 A 
ATOM     13  C   UNL     1     141.468 128.948 100.144  0.00  0.00    -0.054 A 
ATOM     14  C   UNL     1     142.631 129.616 100.535  0.00  0.00    -0.042 A 
ATOM     15  C   UNL     1     142.781 130.978 100.266  0.00  0.00    +0.059 A 
ATOM     16 CL   UNL     1     144.251 131.737 100.759  0.00  0.00    -0.082 Cl
ATOM     17  C   UNL     1     141.761 131.671  99.606  0.00  0.00    +0.060 A 
ATOM     18 CL   UNL     1     141.879 133.357  99.240  0.00  0.00    -0.082 Cl
ATOM     19  C   UNL     1     140.598 130.998  99.213  0.00  0.00    -0.036 A 
ATOM     20  H   UNL     1     137.484 128.132  99.861  0.00  0.00    +0.000 HD
ATOM     21  H   UNL     1     138.077 129.466 100.663  0.00  0.00    +0.000 HD
ATOM     22  H   UNL     1     138.842 127.993 100.814  0.00  0.00    +0.000 HD
ATOM     23  H   UNL     1     138.577 127.045  98.476  0.00  0.00    +0.000 HD
ATOM     24  H   UNL     1     139.540 126.994  94.493  0.00  0.00    +0.000 HD
ATOM     25  H   UNL     1     140.634 125.740  94.514  0.00  0.00    +0.000 HD
ENDROOT
TORSDOF 0
ENDMDL
MODEL 4
REMARK VINA RESULT:    -4.448      2.001      2.387
REMARK INTER + INTRA:          -4.448
REMARK INTER:                  -4.448
REMARK INTRA:                   0.000
REMARK UNBOUND:                 0.000
REMARK  Name = /home/vital/Documents/PhD_2021/Malaria_codes/scripts/../data/pdbqt_ligands/ligand_182_temp.pdb
REMARK                            x       y       z     vdW  Elec       q    Type
REMARK                         _______ _______ _______ _____ _____    ______ ____
ROOT
ATOM      1  N   UNL     1     139.294 130.536 101.725  0.00  0.00    -0.310 N 
ATOM      2  C   UNL     1     140.534 130.428 100.990  0.00  0.00    +0.106 C 
ATOM      3  N   UNL     1     140.562 131.637 100.186  0.00  0.00    -0.180 NA
ATOM      4  O   UNL     1     141.970 131.864  99.852  0.00  0.00    -0.297 OA
ATOM      5  C   UNL     1     142.082 132.025  98.435  0.00  0.00    +0.082 C 
ATOM      6  C   UNL     1     143.546 132.294  98.062  0.00  0.00    +0.022 C 
ATOM      7  N   UNL     1     143.974 133.646  98.449  0.00  0.00    -0.303 N 
ATOM      8  C   UNL     1     145.392 133.827  98.099  0.00  0.00    +0.059 C 
ATOM      9  C   UNL     1     145.837 135.527  98.358  0.00  0.00    -0.021 C 
ATOM     10  C   UNL     1     145.818 135.260  97.138  0.00  0.00    -0.125 C 
ATOM     11  C   UNL     1     145.570 134.288  96.391  0.00  0.00    -0.021 C 
ATOM     12  C   UNL     1     140.565 129.161 100.153  0.00  0.00    -0.013 A 
ATOM     13  C   UNL     1     139.771 129.012  99.003  0.00  0.00    -0.054 A 
ATOM     14  C   UNL     1     139.812 127.837  98.248  0.00  0.00    -0.042 A 
ATOM     15  C   UNL     1     140.645 126.785  98.635  0.00  0.00    +0.059 A 
ATOM     16 CL   UNL     1     140.662 125.369  97.646  0.00  0.00    -0.082 Cl
ATOM     17  C   UNL     1     141.434 126.911  99.782  0.00  0.00    +0.060 A 
ATOM     18 CL   UNL     1     142.487 125.649 100.320  0.00  0.00    -0.082 Cl
ATOM     19  C   UNL     1     141.393 128.091 100.535  0.00  0.00    -0.036 A 
ATOM     20  H   UNL     1     139.298 131.394 102.277  0.00  0.00    +0.000 HD
ATOM     21  H   UNL     1     139.196 129.733 102.347  0.00  0.00    +0.000 HD
ATOM     22  H   UNL     1     138.511 130.558 101.072  0.00  0.00    +0.000 HD
ATOM     23  H   UNL     1     140.193 132.425 100.717  0.00  0.00    +0.000 HD
ATOM     24  H   UNL     1     143.853 133.766  99.455  0.00  0.00    +0.000 HD
ATOM     25  H   UNL     1     143.409 134.337  97.956  0.00  0.00    +0.000 HD
ENDROOT
TORSDOF 0
ENDMDL
MODEL 5
REMARK VINA RESULT:    -4.223      5.159      9.164
REMARK INTER + INTRA:          -4.223
REMARK INTER:                  -4.223
REMARK INTRA:                   0.000
REMARK UNBOUND:                 0.000
REMARK  Name = /home/vital/Documents/PhD_2021/Malaria_codes/scripts/../data/pdbqt_ligands/ligand_182_temp.pdb
REMARK                            x       y       z     vdW  Elec       q    Type
REMARK                         _______ _______ _______ _____ _____    ______ ____
ROOT
ATOM      1  N   UNL     1     143.435 128.276 103.114  0.00  0.00    -0.310 N 
ATOM      2  C   UNL     1     142.156 127.609 103.218  0.00  0.00    +0.106 C 
ATOM      3  N   UNL     1     142.453 126.417 103.991  0.00  0.00    -0.180 NA
ATOM      4  O   UNL     1     141.183 125.996 104.587  0.00  0.00    -0.297 OA
ATOM      5  C   UNL     1     140.966 124.618 104.272  0.00  0.00    +0.082 C 
ATOM      6  C   UNL     1     139.653 124.145 104.910  0.00  0.00    +0.022 C 
ATOM      7  N   UNL     1     139.770 124.000 106.368  0.00  0.00    -0.303 N 
ATOM      8  C   UNL     1     138.472 123.581 106.922  0.00  0.00    +0.059 C 
ATOM      9  C   UNL     1     138.679 123.189 108.641  0.00  0.00    -0.021 C 
ATOM     10  C   UNL     1     138.459 122.152 107.978  0.00  0.00    -0.125 C 
ATOM     11  C   UNL     1     138.263 121.820 106.789  0.00  0.00    -0.021 C 
ATOM     12  C   UNL     1     141.587 127.297 101.844  0.00  0.00    -0.013 A 
ATOM     13  C   UNL     1     142.139 126.297 101.024  0.00  0.00    -0.054 A 
ATOM     14  C   UNL     1     141.603 126.026  99.763  0.00  0.00    -0.042 A 
ATOM     15  C   UNL     1     140.509 126.758  99.295  0.00  0.00    +0.059 A 
ATOM     16 CL   UNL     1     139.884 126.359  97.735  0.00  0.00    -0.082 Cl
ATOM     17  C   UNL     1     139.955 127.763 100.093  0.00  0.00    +0.060 A 
ATOM     18 CL   UNL     1     138.601 128.708  99.577  0.00  0.00    -0.082 Cl
ATOM     19  C   UNL     1     140.492 128.030 101.358  0.00  0.00    -0.036 A 
ATOM     20  H   UNL     1     143.793 128.473 104.048  0.00  0.00    +0.000 HD
ATOM     21  H   UNL     1     143.320 129.151 102.602  0.00  0.00    +0.000 HD
ATOM     22  H   UNL     1     144.092 127.674 102.618  0.00  0.00    +0.000 HD
ATOM     23  H   UNL     1     143.134 126.627 104.721  0.00  0.00    +0.000 HD
ATOM     24  H   UNL     1     140.043 124.893 106.778  0.00  0.00    +0.000 HD
ATOM     25  H   UNL     1     140.477 123.297 106.585  0.00  0.00    +0.000 HD
ENDROOT
TORSDOF 0
ENDMDL
MODEL 6
REMARK VINA RESULT:    -4.021      3.962      6.626
REMARK INTER + INTRA:          -4.021
REMARK INTER:                  -4.021
REMARK INTRA:                   0.000
REMARK UNBOUND:                 0.000
REMARK  Name = /home/vital/Documents/PhD_2021/Malaria_codes/scripts/../data/pdbqt_ligands/ligand_182_temp.pdb
REMARK                            x       y       z     vdW  Elec       q    Type
REMARK                         _______ _______ _______ _____ _____    ______ ____
ROOT
ATOM      1  N   UNL     1     139.255 127.677  99.030  0.00  0.00    -0.310 N 
ATOM      2  C   UNL     1     140.603 127.899  99.503  0.00  0.00    +0.106 C 
ATOM      3  N   UNL     1     140.563 127.441 100.880  0.00  0.00    -0.180 NA
ATOM      4  O   UNL     1     141.947 127.127 101.240  0.00  0.00    -0.297 OA
ATOM      5  C   UNL     1     142.272 127.819 102.450  0.00  0.00    +0.082 C 
ATOM      6  C   UNL     1     143.710 127.482 102.864  0.00  0.00    +0.022 C 
ATOM      7  N   UNL     1     143.828 126.111 103.382  0.00  0.00    -0.303 N 
ATOM      8  C   UNL     1     145.233 125.839 103.726  0.00  0.00    +0.059 C 
ATOM      9  C   UNL     1     145.330 124.274 104.558  0.00  0.00    -0.021 C 
ATOM     10  C   UNL     1     145.566 125.208 105.354  0.00  0.00    -0.125 C 
ATOM     11  C   UNL     1     145.621 126.457 105.348  0.00  0.00    -0.021 C 
ATOM     12  C   UNL     1     140.994 129.362  99.377  0.00  0.00    -0.013 A 
ATOM     13  C   UNL     1     140.446 130.350 100.213  0.00  0.00    -0.054 A 
ATOM     14  C   UNL     1     140.817 131.690 100.080  0.00  0.00    -0.042 A 
ATOM     15  C   UNL     1     141.738 132.068  99.100  0.00  0.00    +0.059 A 
ATOM     16 CL   UNL     1     142.166 133.738  99.002  0.00  0.00    -0.082 Cl
ATOM     17  C   UNL     1     142.285 131.100  98.253  0.00  0.00    +0.060 A 
ATOM     18 CL   UNL     1     143.430 131.496  97.018  0.00  0.00    -0.082 Cl
ATOM     19  C   UNL     1     141.914 129.757  98.390  0.00  0.00    -0.036 A 
ATOM     20  H   UNL     1     139.019 126.690  99.126  0.00  0.00    +0.000 HD
ATOM     21  H   UNL     1     139.191 127.948  98.048  0.00  0.00    +0.000 HD
ATOM     22  H   UNL     1     138.605 128.237  99.581  0.00  0.00    +0.000 HD
ATOM     23  H   UNL     1     139.978 126.610 100.961  0.00  0.00    +0.000 HD
ATOM     24  H   UNL     1     143.518 125.450 102.669  0.00  0.00    +0.000 HD
ATOM     25  H   UNL     1     143.247 126.010 104.214  0.00  0.00    +0.000 HD
ENDROOT
TORSDOF 0
ENDMDL
MODEL 7
REMARK VINA RESULT:    -3.929      3.720      6.753
REMARK INTER + INTRA:          -3.929
REMARK INTER:                  -3.929
REMARK INTRA:                   0.000
REMARK UNBOUND:                 0.000
REMARK  Name = /home/vital/Documents/PhD_2021/Malaria_codes/scripts/../data/pdbqt_ligands/ligand_182_temp.pdb
REMARK                            x       y       z     vdW  Elec       q    Type
REMARK                         _______ _______ _______ _____ _____    ______ ____
ROOT
ATOM      1  N   UNL     1     143.601 131.557 101.187  0.00  0.00    -0.310 N 
ATOM      2  C   UNL     1     143.196 130.311 101.797  0.00  0.00    +0.106 C 
ATOM      3  N   UNL     1     144.451 129.626 102.045  0.00  0.00    -0.180 NA
ATOM      4  O   UNL     1     144.178 128.657 103.109  0.00  0.00    -0.297 OA
ATOM      5  C   UNL     1     144.623 127.368 102.678  0.00  0.00    +0.082 C 
ATOM      6  C   UNL     1     144.374 126.340 103.790  0.00  0.00    +0.022 C 
ATOM      7  N   UNL     1     145.306 126.506 104.913  0.00  0.00    -0.303 N 
ATOM      8  C   UNL     1     144.992 125.518 105.958  0.00  0.00    +0.059 C 
ATOM      9  C   UNL     1     146.257 125.573 107.203  0.00  0.00    -0.021 C 
ATOM     10  C   UNL     1     146.328 124.508 106.553  0.00  0.00    -0.125 C 
ATOM     11  C   UNL     1     145.748 123.950 105.596  0.00  0.00    -0.021 C 
ATOM     12  C   UNL     1     142.266 129.531 100.883  0.00  0.00    -0.013 A 
ATOM     13  C   UNL     1     142.731 128.906  99.712  0.00  0.00    -0.054 A 
ATOM     14  C   UNL     1     141.860 128.195  98.883  0.00  0.00    -0.042 A 
ATOM     15  C   UNL     1     140.505 128.103  99.206  0.00  0.00    +0.059 A 
ATOM     16 CL   UNL     1     139.487 127.194  98.148  0.00  0.00    -0.082 Cl
ATOM     17  C   UNL     1     140.023 128.727 100.361  0.00  0.00    +0.060 A 
ATOM     18 CL   UNL     1     138.357 128.655 100.821  0.00  0.00    -0.082 Cl
ATOM     19  C   UNL     1     140.898 129.437 101.191  0.00  0.00    -0.036 A 
ATOM     20  H   UNL     1     144.223 132.060 101.820  0.00  0.00    +0.000 HD
ATOM     21  H   UNL     1     142.776 132.127 100.998  0.00  0.00    +0.000 HD
ATOM     22  H   UNL     1     144.090 131.365 100.313  0.00  0.00    +0.000 HD
ATOM     23  H   UNL     1     145.165 130.290 102.345  0.00  0.00    +0.000 HD
ATOM     24  H   UNL     1     145.214 127.447 105.296  0.00  0.00    +0.000 HD
ATOM     25  H   UNL     1     146.262 126.366 104.587  0.00  0.00    +0.000 HD
ENDROOT
TORSDOF 0
ENDMDL
MODEL 8
REMARK VINA RESULT:    -3.813      4.605      8.444
REMARK INTER + INTRA:          -3.813
REMARK INTER:                  -3.813
REMARK INTRA:                   0.000
REMARK UNBOUND:                 0.000
REMARK  Name = /home/vital/Documents/PhD_2021/Malaria_codes/scripts/../data/pdbqt_ligands/ligand_182_temp.pdb
REMARK                            x       y       z     vdW  Elec       q    Type
REMARK                         _______ _______ _______ _____ _____    ______ ____
ROOT
ATOM      1  N   UNL     1     144.213 127.278 100.852  0.00  0.00    -0.310 N 
ATOM      2  C   UNL     1     142.946 127.149 101.536  0.00  0.00    +0.106 C 
ATOM      3  N   UNL     1     143.043 125.862 102.199  0.00  0.00    -0.180 NA
ATOM      4  O   UNL     1     142.083 125.905 103.304  0.00  0.00    -0.297 OA
ATOM      5  C   UNL     1     141.233 124.758 103.216  0.00  0.00    +0.082 C 
ATOM      6  C   UNL     1     140.236 124.765 104.382  0.00  0.00    +0.022 C 
ATOM      7  N   UNL     1     140.881 124.435 105.660  0.00  0.00    -0.303 N 
ATOM      8  C   UNL     1     139.882 124.495 106.740  0.00  0.00    +0.059 C 
ATOM      9  C   UNL     1     140.613 123.877 108.236  0.00  0.00    -0.021 C 
ATOM     10  C   UNL     1     139.750 123.080 107.808  0.00  0.00    -0.125 C 
ATOM     11  C   UNL     1     138.964 122.975 106.841  0.00  0.00    -0.021 C 
ATOM     12  C   UNL     1     141.785 127.225 100.558  0.00  0.00    -0.013 A 
ATOM     13  C   UNL     1     141.504 126.181  99.660  0.00  0.00    -0.054 A 
ATOM     14  C   UNL     1     140.433 126.271  98.766  0.00  0.00    -0.042 A 
ATOM     15  C   UNL     1     139.629 127.412  98.750  0.00  0.00    +0.059 A 
ATOM     16 CL   UNL     1     138.311 127.450  97.634  0.00  0.00    -0.082 Cl
ATOM     17  C   UNL     1     139.901 128.465  99.629  0.00  0.00    +0.060 A 
ATOM     18 CL   UNL     1     138.947 129.908  99.663  0.00  0.00    -0.082 Cl
ATOM     19  C   UNL     1     140.972 128.371 100.525  0.00  0.00    -0.036 A 
ATOM     20  H   UNL     1     144.973 127.223 101.530  0.00  0.00    +0.000 HD
ATOM     21  H   UNL     1     144.250 128.177 100.372  0.00  0.00    +0.000 HD
ATOM     22  H   UNL     1     144.310 126.524 100.172  0.00  0.00    +0.000 HD
ATOM     23  H   UNL     1     143.987 125.716 102.555  0.00  0.00    +0.000 HD
ATOM     24  H   UNL     1     141.626 125.106 105.848  0.00  0.00    +0.000 HD
ATOM     25  H   UNL     1     141.275 123.496 105.611  0.00  0.00    +0.000 HD
ENDROOT
TORSDOF 0
ENDMDL
