MODEL 1
REMARK VINA RESULT:    -5.451      0.000      0.000
REMARK INTER + INTRA:          -5.451
REMARK INTER:                  -5.451
REMARK INTRA:                   0.000
REMARK UNBOUND:                 0.000
REMARK  Name = /home/vital/Documents/PhD_2021/Malaria_codes/scripts/../data/pdbqt_ligands/ligand_209_temp.pdb
REMARK                            x       y       z     vdW  Elec       q    Type
REMARK                         _______ _______ _______ _____ _____    ______ ____
ROOT
ATOM      1  C1  UNL     1     140.931 143.987 104.617  0.00  0.00    +0.070 C 
ATOM      2  S1  UNL     1     142.266 142.856 104.268  0.00  0.00    +0.027 S 
ATOM      3  O1  UNL     1     143.509 143.599 104.268  0.00  0.00    -0.158 OA
ATOM      4  O2  UNL     1     142.074 141.683 105.090  0.00  0.00    -0.158 OA
ATOM      5  N1  UNL     1     141.931 142.394 102.686  0.00  0.00    -0.192 NA
ATOM      6  C2  UNL     1     142.233 143.364 101.610  0.00  0.00    +0.045 C 
ATOM      7  C3  UNL     1     141.623 142.844 100.299  0.00  0.00    +0.087 C 
ATOM      8  O3  UNL     1     140.202 142.741 100.508  0.00  0.00    -0.389 OA
ATOM      9  C4  UNL     1     141.946 143.803  99.150  0.00  0.00    +0.051 C 
ATOM     10  N2  UNL     1     141.514 143.277  97.860  0.00  0.00    -0.337 N 
ATOM     11  C5  UNL     1     140.315 143.589  97.246  0.00  0.00    +0.050 A 
ATOM     12  C6  UNL     1     139.263 144.434  97.638  0.00  0.00    -0.038 A 
ATOM     13  C7  UNL     1     138.156 144.551  96.792  0.00  0.00    -0.060 A 
ATOM     14  C8  UNL     1     138.093 143.845  95.595  0.00  0.00    -0.061 A 
ATOM     15  C9  UNL     1     139.143 143.002  95.215  0.00  0.00    -0.052 A 
ATOM     16  C10 UNL     1     140.273 142.868  96.050  0.00  0.00    +0.008 A 
ATOM     17  C11 UNL     1     141.480 142.106  95.960  0.00  0.00    +0.008 A 
ATOM     18  C12 UNL     1     141.989 141.201  95.002  0.00  0.00    -0.052 A 
ATOM     19  C13 UNL     1     143.231 140.594  95.212  0.00  0.00    -0.061 A 
ATOM     20  C14 UNL     1     143.968 140.880  96.355  0.00  0.00    -0.060 A 
ATOM     21  C15 UNL     1     143.490 141.777  97.317  0.00  0.00    -0.038 A 
ATOM     22  C16 UNL     1     142.238 142.379  97.099  0.00  0.00    +0.050 A 
ATOM     23  H   UNL     1     140.935 142.181 102.635  0.00  0.00    +0.000 HD
ATOM     24  H   UNL     1     139.846 143.611 100.747  0.00  0.00    +0.000 HD
ENDROOT
TORSDOF 0
ENDMDL
MODEL 2
REMARK VINA RESULT:    -5.342      4.342     10.401
REMARK INTER + INTRA:          -5.342
REMARK INTER:                  -5.342
REMARK INTRA:                   0.000
REMARK UNBOUND:                 0.000
REMARK  Name = /home/vital/Documents/PhD_2021/Malaria_codes/scripts/../data/pdbqt_ligands/ligand_209_temp.pdb
REMARK                            x       y       z     vdW  Elec       q    Type
REMARK                         _______ _______ _______ _____ _____    ______ ____
ROOT
ATOM      1  C1  UNL     1     142.857 142.825 100.737  0.00  0.00    +0.070 C 
ATOM      2  S1  UNL     1     141.485 143.955 100.890  0.00  0.00    +0.027 S 
ATOM      3  O1  UNL     1     142.010 145.289 101.091  0.00  0.00    -0.158 OA
ATOM      4  O2  UNL     1     140.545 143.651  99.835  0.00  0.00    -0.158 OA
ATOM      5  N1  UNL     1     140.772 143.449 102.327  0.00  0.00    -0.192 NA
ATOM      6  C2  UNL     1     141.448 143.814 103.592  0.00  0.00    +0.045 C 
ATOM      7  C3  UNL     1     140.776 143.047 104.742  0.00  0.00    +0.087 C 
ATOM      8  O3  UNL     1     140.940 141.644 104.464  0.00  0.00    -0.389 OA
ATOM      9  C4  UNL     1     141.422 143.427 106.078  0.00  0.00    +0.051 C 
ATOM     10  N2  UNL     1     140.721 142.836 107.213  0.00  0.00    -0.337 N 
ATOM     11  C5  UNL     1     141.087 141.656 107.834  0.00  0.00    +0.050 A 
ATOM     12  C6  UNL     1     142.148 140.767 107.588  0.00  0.00    -0.038 A 
ATOM     13  C7  UNL     1     142.263 139.634 108.399  0.00  0.00    -0.060 A 
ATOM     14  C8  UNL     1     141.349 139.387 109.418  0.00  0.00    -0.061 A 
ATOM     15  C9  UNL     1     140.294 140.275 109.653  0.00  0.00    -0.052 A 
ATOM     16  C10 UNL     1     140.156 141.429 108.850  0.00  0.00    +0.008 A 
ATOM     17  C11 UNL     1     139.212 142.503 108.823  0.00  0.00    +0.008 A 
ATOM     18  C12 UNL     1     138.065 142.809 109.589  0.00  0.00    -0.052 A 
ATOM     19  C13 UNL     1     137.327 143.961 109.302  0.00  0.00    -0.061 A 
ATOM     20  C14 UNL     1     137.718 144.808 108.272  0.00  0.00    -0.060 A 
ATOM     21  C15 UNL     1     138.853 144.532 107.502  0.00  0.00    -0.038 A 
ATOM     22  C16 UNL     1     139.587 143.369 107.794  0.00  0.00    +0.050 A 
ATOM     23  H   UNL     1     140.712 142.431 102.296  0.00  0.00    +0.000 HD
ATOM     24  H   UNL     1     141.885 141.435 104.399  0.00  0.00    +0.000 HD
ENDROOT
TORSDOF 0
ENDMDL
MODEL 3
REMARK VINA RESULT:    -5.185     13.780     15.542
REMARK INTER + INTRA:          -5.185
REMARK INTER:                  -5.185
REMARK INTRA:                   0.000
REMARK UNBOUND:                 0.000
REMARK  Name = /home/vital/Documents/PhD_2021/Malaria_codes/scripts/../data/pdbqt_ligands/ligand_209_temp.pdb
REMARK                            x       y       z     vdW  Elec       q    Type
REMARK                         _______ _______ _______ _____ _____    ______ ____
ROOT
ATOM      1  C1  UNL     1     142.003 124.191  93.942  0.00  0.00    +0.070 C 
ATOM      2  S1  UNL     1     142.878 125.588  93.261  0.00  0.00    +0.027 S 
ATOM      3  O1  UNL     1     144.292 125.418  93.525  0.00  0.00    -0.158 OA
ATOM      4  O2  UNL     1     142.369 125.818  91.928  0.00  0.00    -0.158 OA
ATOM      5  N1  UNL     1     142.315 126.854  94.215  0.00  0.00    -0.192 NA
ATOM      6  C2  UNL     1     142.847 126.963  95.591  0.00  0.00    +0.045 C 
ATOM      7  C3  UNL     1     142.022 128.015  96.351  0.00  0.00    +0.087 C 
ATOM      8  O3  UNL     1     140.660 127.549  96.366  0.00  0.00    -0.389 OA
ATOM      9  C4  UNL     1     142.566 128.187  97.772  0.00  0.00    +0.051 C 
ATOM     10  N2  UNL     1     141.908 129.279  98.481  0.00  0.00    -0.337 N 
ATOM     11  C5  UNL     1     140.839 129.124  99.344  0.00  0.00    +0.050 A 
ATOM     12  C6  UNL     1     140.142 127.977  99.763  0.00  0.00    -0.038 A 
ATOM     13  C7  UNL     1     139.082 128.138 100.660  0.00  0.00    -0.060 A 
ATOM     14  C8  UNL     1     138.721 129.399 101.123  0.00  0.00    -0.061 A 
ATOM     15  C9  UNL     1     139.417 130.535 100.696  0.00  0.00    -0.052 A 
ATOM     16  C10 UNL     1     140.493 130.401  99.792  0.00  0.00    +0.008 A 
ATOM     17  C11 UNL     1     141.382 131.334  99.172  0.00  0.00    +0.008 A 
ATOM     18  C12 UNL     1     141.511 132.740  99.233  0.00  0.00    -0.052 A 
ATOM     19  C13 UNL     1     142.502 133.378  98.480  0.00  0.00    -0.061 A 
ATOM     20  C14 UNL     1     143.360 132.637  97.677  0.00  0.00    -0.060 A 
ATOM     21  C15 UNL     1     143.258 131.243  97.603  0.00  0.00    -0.038 A 
ATOM     22  C16 UNL     1     142.256 130.611  98.360  0.00  0.00    +0.050 A 
ATOM     23  H   UNL     1     141.302 126.756  94.286  0.00  0.00    +0.000 HD
ATOM     24  H   UNL     1     140.619 126.683  96.799  0.00  0.00    +0.000 HD
ENDROOT
TORSDOF 0
ENDMDL
MODEL 4
REMARK VINA RESULT:    -4.820      1.045      1.537
REMARK INTER + INTRA:          -4.820
REMARK INTER:                  -4.820
REMARK INTRA:                   0.000
REMARK UNBOUND:                 0.000
REMARK  Name = /home/vital/Documents/PhD_2021/Malaria_codes/scripts/../data/pdbqt_ligands/ligand_209_temp.pdb
REMARK                            x       y       z     vdW  Elec       q    Type
REMARK                         _______ _______ _______ _____ _____    ______ ____
ROOT
ATOM      1  C1  UNL     1     139.688 144.273 104.301  0.00  0.00    +0.070 C 
ATOM      2  S1  UNL     1     141.158 143.291 104.541  0.00  0.00    +0.027 S 
ATOM      3  O1  UNL     1     142.273 144.183 104.781  0.00  0.00    -0.158 OA
ATOM      4  O2  UNL     1     140.825 142.218 105.451  0.00  0.00    -0.158 OA
ATOM      5  N1  UNL     1     141.364 142.589 103.027  0.00  0.00    -0.192 NA
ATOM      6  C2  UNL     1     141.895 143.445 101.942  0.00  0.00    +0.045 C 
ATOM      7  C3  UNL     1     141.761 142.685 100.613  0.00  0.00    +0.087 C 
ATOM      8  O3  UNL     1     140.359 142.426 100.416  0.00  0.00    -0.389 OA
ATOM      9  C4  UNL     1     142.338 143.522  99.467  0.00  0.00    +0.051 C 
ATOM     10  N2  UNL     1     142.367 142.783  98.210  0.00  0.00    -0.337 N 
ATOM     11  C5  UNL     1     141.391 142.855  97.233  0.00  0.00    +0.050 A 
ATOM     12  C6  UNL     1     140.201 143.600  97.162  0.00  0.00    -0.038 A 
ATOM     13  C7  UNL     1     139.400 143.461  96.025  0.00  0.00    -0.060 A 
ATOM     14  C8  UNL     1     139.766 142.605  94.991  0.00  0.00    -0.061 A 
ATOM     15  C9  UNL     1     140.950 141.864  95.073  0.00  0.00    -0.052 A 
ATOM     16  C10 UNL     1     141.778 141.987  96.209  0.00  0.00    +0.008 A 
ATOM     17  C11 UNL     1     143.015 141.383  96.597  0.00  0.00    +0.008 A 
ATOM     18  C12 UNL     1     143.868 140.437  95.987  0.00  0.00    -0.052 A 
ATOM     19  C13 UNL     1     145.034 140.029  96.642  0.00  0.00    -0.061 A 
ATOM     20  C14 UNL     1     145.359 140.553  97.888  0.00  0.00    -0.060 A 
ATOM     21  C15 UNL     1     144.535 141.496  98.512  0.00  0.00    -0.038 A 
ATOM     22  C16 UNL     1     143.363 141.897  97.847  0.00  0.00    +0.050 A 
ATOM     23  H   UNL     1     140.452 142.244 102.724  0.00  0.00    +0.000 HD
ATOM     24  H   UNL     1     139.874 143.265 100.398  0.00  0.00    +0.000 HD
ENDROOT
TORSDOF 0
ENDMDL
MODEL 5
REMARK VINA RESULT:    -4.705     14.864     16.249
REMARK INTER + INTRA:          -4.705
REMARK INTER:                  -4.705
REMARK INTRA:                   0.000
REMARK UNBOUND:                 0.000
REMARK  Name = /home/vital/Documents/PhD_2021/Malaria_codes/scripts/../data/pdbqt_ligands/ligand_209_temp.pdb
REMARK                            x       y       z     vdW  Elec       q    Type
REMARK                         _______ _______ _______ _____ _____    ______ ____
ROOT
ATOM      1  C1  UNL     1     142.060 123.590 106.515  0.00  0.00    +0.070 C 
ATOM      2  S1  UNL     1     140.384 123.725 105.917  0.00  0.00    +0.027 S 
ATOM      3  O1  UNL     1     140.137 122.636 104.996  0.00  0.00    -0.158 OA
ATOM      4  O2  UNL     1     139.530 123.975 107.056  0.00  0.00    -0.158 OA
ATOM      5  N1  UNL     1     140.439 125.156 105.036  0.00  0.00    -0.192 NA
ATOM      6  C2  UNL     1     141.099 125.120 103.712  0.00  0.00    +0.045 C 
ATOM      7  C3  UNL     1     141.257 126.562 103.206  0.00  0.00    +0.087 C 
ATOM      8  O3  UNL     1     142.077 127.256 104.165  0.00  0.00    -0.389 OA
ATOM      9  C4  UNL     1     141.903 126.567 101.817  0.00  0.00    +0.051 C 
ATOM     10  N2  UNL     1     141.939 127.905 101.235  0.00  0.00    -0.337 N 
ATOM     11  C5  UNL     1     143.023 128.759 101.298  0.00  0.00    +0.050 A 
ATOM     12  C6  UNL     1     144.296 128.606 101.875  0.00  0.00    -0.038 A 
ATOM     13  C7  UNL     1     145.200 129.667 101.776  0.00  0.00    -0.060 A 
ATOM     14  C8  UNL     1     144.850 130.848 101.129  0.00  0.00    -0.061 A 
ATOM     15  C9  UNL     1     143.580 130.994 100.562  0.00  0.00    -0.052 A 
ATOM     16  C10 UNL     1     142.648 129.937 100.646  0.00  0.00    +0.008 A 
ATOM     17  C11 UNL     1     141.303 129.771 100.190  0.00  0.00    +0.008 A 
ATOM     18  C12 UNL     1     140.404 130.605  99.489  0.00  0.00    -0.052 A 
ATOM     19  C13 UNL     1     139.117 130.145  99.192  0.00  0.00    -0.061 A 
ATOM     20  C14 UNL     1     138.720 128.871  99.581  0.00  0.00    -0.060 A 
ATOM     21  C15 UNL     1     139.592 128.022 100.271  0.00  0.00    -0.038 A 
ATOM     22  C16 UNL     1     140.882 128.495 100.568  0.00  0.00    +0.050 A 
ATOM     23  H   UNL     1     140.932 125.846 105.604  0.00  0.00    +0.000 HD
ATOM     24  H   UNL     1     142.934 126.809 104.242  0.00  0.00    +0.000 HD
ENDROOT
TORSDOF 0
ENDMDL
MODEL 6
REMARK VINA RESULT:    -4.691     12.910     14.834
REMARK INTER + INTRA:          -4.691
REMARK INTER:                  -4.691
REMARK INTRA:                   0.000
REMARK UNBOUND:                 0.000
REMARK  Name = /home/vital/Documents/PhD_2021/Malaria_codes/scripts/../data/pdbqt_ligands/ligand_209_temp.pdb
REMARK                            x       y       z     vdW  Elec       q    Type
REMARK                         _______ _______ _______ _____ _____    ______ ____
ROOT
ATOM      1  C1  UNL     1     146.385 131.722  94.069  0.00  0.00    +0.070 C 
ATOM      2  S1  UNL     1     145.684 132.982  95.120  0.00  0.00    +0.027 S 
ATOM      3  O1  UNL     1     146.607 133.241  96.205  0.00  0.00    -0.158 OA
ATOM      4  O2  UNL     1     145.188 134.039  94.267  0.00  0.00    -0.158 OA
ATOM      5  N1  UNL     1     144.335 132.203  95.752  0.00  0.00    -0.192 NA
ATOM      6  C2  UNL     1     144.560 131.193  96.809  0.00  0.00    +0.045 C 
ATOM      7  C3  UNL     1     143.243 130.440  97.053  0.00  0.00    +0.087 C 
ATOM      8  O3  UNL     1     142.885 129.806  95.812  0.00  0.00    -0.389 OA
ATOM      9  C4  UNL     1     143.423 129.409  98.172  0.00  0.00    +0.051 C 
ATOM     10  N2  UNL     1     142.163 128.773  98.539  0.00  0.00    -0.337 N 
ATOM     11  C5  UNL     1     141.722 127.560  98.044  0.00  0.00    +0.050 A 
ATOM     12  C6  UNL     1     142.305 126.659  97.136  0.00  0.00    -0.038 A 
ATOM     13  C7  UNL     1     141.606 125.491  96.821  0.00  0.00    -0.060 A 
ATOM     14  C8  UNL     1     140.362 125.227  97.385  0.00  0.00    -0.061 A 
ATOM     15  C9  UNL     1     139.787 126.131  98.284  0.00  0.00    -0.052 A 
ATOM     16  C10 UNL     1     140.473 127.318  98.621  0.00  0.00    +0.008 A 
ATOM     17  C11 UNL     1     140.169 128.422  99.477  0.00  0.00    +0.008 A 
ATOM     18  C12 UNL     1     139.066 128.738 100.302  0.00  0.00    -0.052 A 
ATOM     19  C13 UNL     1     139.063 129.933 101.028  0.00  0.00    -0.061 A 
ATOM     20  C14 UNL     1     140.138 130.809 100.944  0.00  0.00    -0.060 A 
ATOM     21  C15 UNL     1     141.245 130.518 100.139  0.00  0.00    -0.038 A 
ATOM     22  C16 UNL     1     141.238 129.316  99.410  0.00  0.00    +0.050 A 
ATOM     23  H   UNL     1     143.862 131.734  94.978  0.00  0.00    +0.000 HD
ATOM     24  H   UNL     1     143.595 129.204  95.539  0.00  0.00    +0.000 HD
ENDROOT
TORSDOF 0
ENDMDL
MODEL 7
REMARK VINA RESULT:    -4.638     18.954     20.379
REMARK INTER + INTRA:          -4.638
REMARK INTER:                  -4.638
REMARK INTRA:                   0.000
REMARK UNBOUND:                 0.000
REMARK  Name = /home/vital/Documents/PhD_2021/Malaria_codes/scripts/../data/pdbqt_ligands/ligand_209_temp.pdb
REMARK                            x       y       z     vdW  Elec       q    Type
REMARK                         _______ _______ _______ _____ _____    ______ ____
ROOT
ATOM      1  C1  UNL     1     140.818 127.154 100.252  0.00  0.00    +0.070 C 
ATOM      2  S1  UNL     1     141.916 127.878 101.457  0.00  0.00    +0.027 S 
ATOM      3  O1  UNL     1     143.230 127.291 101.293  0.00  0.00    -0.158 OA
ATOM      4  O2  UNL     1     141.708 129.309 101.438  0.00  0.00    -0.158 OA
ATOM      5  N1  UNL     1     141.269 127.318 102.905  0.00  0.00    -0.192 NA
ATOM      6  C2  UNL     1     141.516 125.905 103.264  0.00  0.00    +0.045 C 
ATOM      7  C3  UNL     1     140.636 125.548 104.473  0.00  0.00    +0.087 C 
ATOM      8  O3  UNL     1     139.268 125.739 104.067  0.00  0.00    -0.389 OA
ATOM      9  C4  UNL     1     140.891 124.100 104.902  0.00  0.00    +0.051 C 
ATOM     10  N2  UNL     1     140.187 123.762 106.134  0.00  0.00    -0.337 N 
ATOM     11  C5  UNL     1     138.957 123.135 106.190  0.00  0.00    +0.050 A 
ATOM     12  C6  UNL     1     138.104 122.671 105.173  0.00  0.00    -0.038 A 
ATOM     13  C7  UNL     1     136.899 122.067 105.545  0.00  0.00    -0.060 A 
ATOM     14  C8  UNL     1     136.548 121.934 106.884  0.00  0.00    -0.061 A 
ATOM     15  C9  UNL     1     137.400 122.403 107.889  0.00  0.00    -0.052 A 
ATOM     16  C10 UNL     1     138.624 123.015 107.541  0.00  0.00    +0.008 A 
ATOM     17  C11 UNL     1     139.688 123.592 108.303  0.00  0.00    +0.008 A 
ATOM     18  C12 UNL     1     139.909 123.766 109.687  0.00  0.00    -0.052 A 
ATOM     19  C13 UNL     1     141.078 124.394 110.130  0.00  0.00    -0.061 A 
ATOM     20  C14 UNL     1     142.023 124.844 109.215  0.00  0.00    -0.060 A 
ATOM     21  C15 UNL     1     141.832 124.678 107.839  0.00  0.00    -0.038 A 
ATOM     22  C16 UNL     1     140.652 124.050 107.404  0.00  0.00    +0.050 A 
ATOM     23  H   UNL     1     140.258 127.449 102.858  0.00  0.00    +0.000 HD
ATOM     24  H   UNL     1     139.074 125.172 103.305  0.00  0.00    +0.000 HD
ENDROOT
TORSDOF 0
ENDMDL
MODEL 8
REMARK VINA RESULT:    -4.600     17.173     18.623
REMARK INTER + INTRA:          -4.600
REMARK INTER:                  -4.600
REMARK INTRA:                   0.000
REMARK UNBOUND:                 0.000
REMARK  Name = /home/vital/Documents/PhD_2021/Malaria_codes/scripts/../data/pdbqt_ligands/ligand_209_temp.pdb
REMARK                            x       y       z     vdW  Elec       q    Type
REMARK                         _______ _______ _______ _____ _____    ______ ____
ROOT
ATOM      1  C1  UNL     1     141.082 129.801 100.314  0.00  0.00    +0.070 C 
ATOM      2  S1  UNL     1     142.730 130.167 100.892  0.00  0.00    +0.027 S 
ATOM      3  O1  UNL     1     143.679 129.509 100.019  0.00  0.00    -0.158 OA
ATOM      4  O2  UNL     1     142.795 131.585 101.166  0.00  0.00    -0.158 OA
ATOM      5  N1  UNL     1     142.761 129.388 102.382  0.00  0.00    -0.192 NA
ATOM      6  C2  UNL     1     142.894 127.914 102.382  0.00  0.00    +0.045 C 
ATOM      7  C3  UNL     1     142.647 127.402 103.810  0.00  0.00    +0.087 C 
ATOM      8  O3  UNL     1     141.309 127.793 104.171  0.00  0.00    -0.389 OA
ATOM      9  C4  UNL     1     142.814 125.881 103.862  0.00  0.00    +0.051 C 
ATOM     10  N2  UNL     1     142.734 125.367 105.225  0.00  0.00    -0.337 N 
ATOM     11  C5  UNL     1     141.589 124.855 105.805  0.00  0.00    +0.050 A 
ATOM     12  C6  UNL     1     140.288 124.683 105.300  0.00  0.00    -0.038 A 
ATOM     13  C7  UNL     1     139.319 124.127 106.141  0.00  0.00    -0.060 A 
ATOM     14  C8  UNL     1     139.630 123.760 107.445  0.00  0.00    -0.061 A 
ATOM     15  C9  UNL     1     140.926 123.940 107.942  0.00  0.00    -0.052 A 
ATOM     16  C10 UNL     1     141.924 124.496 107.113  0.00  0.00    +0.008 A 
ATOM     17  C11 UNL     1     143.305 124.811 107.309  0.00  0.00    +0.008 A 
ATOM     18  C12 UNL     1     144.184 124.682 108.407  0.00  0.00    -0.052 A 
ATOM     19  C13 UNL     1     145.513 125.101 108.284  0.00  0.00    -0.061 A 
ATOM     20  C14 UNL     1     145.972 125.639 107.088  0.00  0.00    -0.060 A 
ATOM     21  C15 UNL     1     145.124 125.771 105.983  0.00  0.00    -0.038 A 
ATOM     22  C16 UNL     1     143.789 125.351 106.117  0.00  0.00    +0.050 A 
ATOM     23  H   UNL     1     141.890 129.616 102.864  0.00  0.00    +0.000 HD
ATOM     24  H   UNL     1     140.679 127.410 103.541  0.00  0.00    +0.000 HD
ENDROOT
TORSDOF 0
ENDMDL
MODEL 9
REMARK VINA RESULT:    -4.556     16.991     18.574
REMARK INTER + INTRA:          -4.556
REMARK INTER:                  -4.556
REMARK INTRA:                   0.000
REMARK UNBOUND:                 0.000
REMARK  Name = /home/vital/Documents/PhD_2021/Malaria_codes/scripts/../data/pdbqt_ligands/ligand_209_temp.pdb
REMARK                            x       y       z     vdW  Elec       q    Type
REMARK                         _______ _______ _______ _____ _____    ______ ____
ROOT
ATOM      1  C1  UNL     1     138.870 129.073 101.001  0.00  0.00    +0.070 C 
ATOM      2  S1  UNL     1     140.548 129.295 100.437  0.00  0.00    +0.027 S 
ATOM      3  O1  UNL     1     140.800 128.354  99.366  0.00  0.00    -0.158 OA
ATOM      4  O2  UNL     1     140.774 130.714 100.280  0.00  0.00    -0.158 OA
ATOM      5  N1  UNL     1     141.437 128.813 101.781  0.00  0.00    -0.192 NA
ATOM      6  C2  UNL     1     141.531 127.362 102.055  0.00  0.00    +0.045 C 
ATOM      7  C3  UNL     1     142.161 127.168 103.443  0.00  0.00    +0.087 C 
ATOM      8  O3  UNL     1     141.291 127.811 104.393  0.00  0.00    -0.389 OA
ATOM      9  C4  UNL     1     142.312 125.675 103.750  0.00  0.00    +0.051 C 
ATOM     10  N2  UNL     1     143.039 125.443 104.993  0.00  0.00    -0.337 N 
ATOM     11  C5  UNL     1     142.445 125.221 106.221  0.00  0.00    +0.050 A 
ATOM     12  C6  UNL     1     141.093 125.150 106.600  0.00  0.00    -0.038 A 
ATOM     13  C7  UNL     1     140.794 124.910 107.944  0.00  0.00    -0.060 A 
ATOM     14  C8  UNL     1     141.806 124.751 108.885  0.00  0.00    -0.061 A 
ATOM     15  C9  UNL     1     143.149 124.829 108.501  0.00  0.00    -0.052 A 
ATOM     16  C10 UNL     1     143.479 125.068 107.149  0.00  0.00    +0.008 A 
ATOM     17  C11 UNL     1     144.716 125.208 106.447  0.00  0.00    +0.008 A 
ATOM     18  C12 UNL     1     146.071 125.160 106.846  0.00  0.00    -0.052 A 
ATOM     19  C13 UNL     1     147.080 125.350 105.897  0.00  0.00    -0.061 A 
ATOM     20  C14 UNL     1     146.758 125.580 104.565  0.00  0.00    -0.060 A 
ATOM     21  C15 UNL     1     145.425 125.627 104.142  0.00  0.00    -0.038 A 
ATOM     22  C16 UNL     1     144.417 125.439 105.103  0.00  0.00    +0.050 A 
ATOM     23  H   UNL     1     141.015 129.252 102.600  0.00  0.00    +0.000 HD
ATOM     24  H   UNL     1     140.408 127.413 104.343  0.00  0.00    +0.000 HD
ENDROOT
TORSDOF 0
ENDMDL
