MODEL 1
REMARK VINA RESULT:    -4.419      0.000      0.000
REMARK INTER + INTRA:          -4.419
REMARK INTER:                  -4.419
REMARK INTRA:                   0.000
REMARK UNBOUND:                 0.000
REMARK  Name = /home/vital/Documents/PhD_2021/Malaria_codes/scripts/../data/pdbqt_ligands/ligand_205_temp.pdb
REMARK                            x       y       z     vdW  Elec       q    Type
REMARK                         _______ _______ _______ _____ _____    ______ ____
ROOT
ATOM      1  C1  UNL     1     142.529 131.951 100.160  0.00  0.00    +0.036 C 
ATOM      2  O1  UNL     1     143.663 131.372 100.797  0.00  0.00    -0.383 OA
ATOM      3  C2  UNL     1     143.820 129.974 100.555  0.00  0.00    +0.049 C 
ATOM      4  C3  UNL     1     143.285 129.141 101.720  0.00  0.00    -0.014 C 
ATOM      5  C4  UNL     1     141.812 128.777 101.552  0.00  0.00    +0.014 C 
ATOM      6  N1  UNL     1     141.322 127.974 102.656  0.00  0.00    -0.315 N 
ATOM      7  C5  UNL     1     141.557 126.618 102.740  0.00  0.00    +0.213 C 
ATOM      8  O2  UNL     1     142.200 125.991 101.907  0.00  0.00    -0.276 OA
ATOM      9  C6  UNL     1     140.949 125.998 103.981  0.00  0.00    +0.027 C 
ATOM     10  C7  UNL     1     141.149 124.481 104.027  0.00  0.00    -0.010 C 
ATOM     11  C8  UNL     1     140.612 123.867 105.317  0.00  0.00    +0.090 C 
ATOM     12  O3  UNL     1     139.219 124.180 105.427  0.00  0.00    -0.490 OA
ATOM     13  C9  UNL     1     138.556 123.344 106.285  0.00  0.00    +0.139 A 
ATOM     14  C10 UNL     1     138.903 123.289 107.640  0.00  0.00    -0.017 A 
ATOM     15  C11 UNL     1     138.186 122.460 108.505  0.00  0.00    -0.040 A 
ATOM     16  C12 UNL     1     137.119 121.704 108.016  0.00  0.00    +0.043 A 
ATOM     17 CL1  UNL     1     136.246 120.677 109.084  0.00  0.00    -0.083 Cl
ATOM     18  C13 UNL     1     136.750 121.775 106.673  0.00  0.00    -0.021 A 
ATOM     19  C14 UNL     1     137.468 122.600 105.806  0.00  0.00    +0.084 A 
ATOM     20 CL2  UNL     1     136.997 122.663 104.143  0.00  0.00    -0.080 Cl
ATOM     21  H   UNL     1     140.802 128.412 103.369  0.00  0.00    +0.000 HD
ENDROOT
TORSDOF 0
ENDMDL
MODEL 2
REMARK VINA RESULT:    -4.235     16.864     17.894
REMARK INTER + INTRA:          -4.235
REMARK INTER:                  -4.235
REMARK INTRA:                   0.000
REMARK UNBOUND:                 0.000
REMARK  Name = /home/vital/Documents/PhD_2021/Malaria_codes/scripts/../data/pdbqt_ligands/ligand_205_temp.pdb
REMARK                            x       y       z     vdW  Elec       q    Type
REMARK                         _______ _______ _______ _____ _____    ______ ____
ROOT
ATOM      1  C1  UNL     1     141.378 141.862  93.862  0.00  0.00    +0.036 C 
ATOM      2  O1  UNL     1     140.352 142.773  94.238  0.00  0.00    -0.383 OA
ATOM      3  C2  UNL     1     140.785 143.814  95.114  0.00  0.00    +0.049 C 
ATOM      4  C3  UNL     1     140.438 143.501  96.570  0.00  0.00    -0.014 C 
ATOM      5  C4  UNL     1     141.551 142.740  97.286  0.00  0.00    +0.014 C 
ATOM      6  N1  UNL     1     141.216 142.463  98.670  0.00  0.00    -0.315 N 
ATOM      7  C5  UNL     1     141.344 143.412  99.661  0.00  0.00    +0.213 C 
ATOM      8  O2  UNL     1     141.738 144.554  99.458  0.00  0.00    -0.276 OA
ATOM      9  C6  UNL     1     140.932 142.891 101.023  0.00  0.00    +0.027 C 
ATOM     10  C7  UNL     1     141.152 143.926 102.129  0.00  0.00    -0.010 C 
ATOM     11  C8  UNL     1     140.659 143.433 103.486  0.00  0.00    +0.090 C 
ATOM     12  O3  UNL     1     141.345 142.219 103.809  0.00  0.00    -0.490 OA
ATOM     13  C9  UNL     1     141.309 141.931 105.147  0.00  0.00    +0.139 A 
ATOM     14  C10 UNL     1     140.089 141.704 105.797  0.00  0.00    -0.017 A 
ATOM     15  C11 UNL     1     140.079 141.371 107.153  0.00  0.00    -0.040 A 
ATOM     16  C12 UNL     1     141.283 141.254 107.848  0.00  0.00    +0.043 A 
ATOM     17 CL1  UNL     1     141.263 140.853 109.520  0.00  0.00    -0.083 Cl
ATOM     18  C13 UNL     1     142.503 141.451 107.201  0.00  0.00    -0.021 A 
ATOM     19  C14 UNL     1     142.516 141.787 105.847  0.00  0.00    +0.084 A 
ATOM     20 CL2  UNL     1     144.041 142.037 105.070  0.00  0.00    -0.080 Cl
ATOM     21  H   UNL     1     140.885 141.567  98.909  0.00  0.00    +0.000 HD
ENDROOT
TORSDOF 0
ENDMDL
MODEL 3
REMARK VINA RESULT:    -4.215      1.360      1.586
REMARK INTER + INTRA:          -4.215
REMARK INTER:                  -4.215
REMARK INTRA:                   0.000
REMARK UNBOUND:                 0.000
REMARK  Name = /home/vital/Documents/PhD_2021/Malaria_codes/scripts/../data/pdbqt_ligands/ligand_205_temp.pdb
REMARK                            x       y       z     vdW  Elec       q    Type
REMARK                         _______ _______ _______ _____ _____    ______ ____
ROOT
ATOM      1  C1  UNL     1     141.810 132.511  99.151  0.00  0.00    +0.036 C 
ATOM      2  O1  UNL     1     143.034 131.801  99.305  0.00  0.00    -0.383 OA
ATOM      3  C2  UNL     1     142.932 130.399  99.059  0.00  0.00    +0.049 C 
ATOM      4  C3  UNL     1     142.814 129.608 100.362  0.00  0.00    -0.014 C 
ATOM      5  C4  UNL     1     141.365 129.411 100.798  0.00  0.00    +0.014 C 
ATOM      6  N1  UNL     1     141.267 128.646 102.027  0.00  0.00    -0.315 N 
ATOM      7  C5  UNL     1     141.370 127.272 102.049  0.00  0.00    +0.213 C 
ATOM      8  O2  UNL     1     141.560 126.592 101.047  0.00  0.00    -0.276 OA
ATOM      9  C6  UNL     1     141.238 126.700 103.445  0.00  0.00    +0.027 C 
ATOM     10  C7  UNL     1     141.276 125.170 103.449  0.00  0.00    -0.010 C 
ATOM     11  C8  UNL     1     141.229 124.596 104.863  0.00  0.00    +0.090 C 
ATOM     12  O3  UNL     1     140.035 125.057 105.504  0.00  0.00    -0.490 OA
ATOM     13  C9  UNL     1     139.679 124.283 106.576  0.00  0.00    +0.139 A 
ATOM     14  C10 UNL     1     140.524 124.166 107.686  0.00  0.00    -0.017 A 
ATOM     15  C11 UNL     1     140.122 123.406 108.786  0.00  0.00    -0.040 A 
ATOM     16  C12 UNL     1     138.875 122.779 108.777  0.00  0.00    +0.043 A 
ATOM     17 CL1  UNL     1     138.389 121.835 110.130  0.00  0.00    -0.083 Cl
ATOM     18  C13 UNL     1     138.016 122.913 107.686  0.00  0.00    -0.021 A 
ATOM     19  C14 UNL     1     138.417 123.670 106.585  0.00  0.00    +0.084 A 
ATOM     20 CL2  UNL     1     137.338 123.813 105.241  0.00  0.00    -0.080 Cl
ATOM     21  H   UNL     1     141.121 129.126 102.875  0.00  0.00    +0.000 HD
ENDROOT
TORSDOF 0
ENDMDL
MODEL 4
REMARK VINA RESULT:    -4.167      4.572     10.089
REMARK INTER + INTRA:          -4.167
REMARK INTER:                  -4.167
REMARK INTRA:                   0.000
REMARK UNBOUND:                 0.000
REMARK  Name = /home/vital/Documents/PhD_2021/Malaria_codes/scripts/../data/pdbqt_ligands/ligand_205_temp.pdb
REMARK                            x       y       z     vdW  Elec       q    Type
REMARK                         _______ _______ _______ _____ _____    ______ ____
ROOT
ATOM      1  C1  UNL     1     140.068 122.751 109.150  0.00  0.00    +0.036 C 
ATOM      2  O1  UNL     1     139.223 122.388 108.064  0.00  0.00    -0.383 OA
ATOM      3  C2  UNL     1     139.910 122.188 106.829  0.00  0.00    +0.049 C 
ATOM      4  C3  UNL     1     139.810 123.418 105.926  0.00  0.00    -0.014 C 
ATOM      5  C4  UNL     1     140.956 124.402 106.148  0.00  0.00    +0.014 C 
ATOM      6  N1  UNL     1     140.857 125.556 105.275  0.00  0.00    -0.315 N 
ATOM      7  C5  UNL     1     141.259 125.518 103.957  0.00  0.00    +0.213 C 
ATOM      8  O2  UNL     1     141.717 124.517 103.418  0.00  0.00    -0.276 OA
ATOM      9  C6  UNL     1     141.056 126.841 103.248  0.00  0.00    +0.027 C 
ATOM     10  C7  UNL     1     141.577 126.812 101.809  0.00  0.00    -0.010 C 
ATOM     11  C8  UNL     1     141.297 128.116 101.068  0.00  0.00    +0.090 C 
ATOM     12  O3  UNL     1     141.909 129.192 101.787  0.00  0.00    -0.490 OA
ATOM     13  C9  UNL     1     142.093 130.307 101.015  0.00  0.00    +0.139 A 
ATOM     14  C10 UNL     1     140.998 130.978 100.456  0.00  0.00    -0.017 A 
ATOM     15  C11 UNL     1     141.206 132.137  99.706  0.00  0.00    -0.040 A 
ATOM     16  C12 UNL     1     142.501 132.628  99.531  0.00  0.00    +0.043 A 
ATOM     17 CL1  UNL     1     142.752 134.050  98.598  0.00  0.00    -0.083 Cl
ATOM     18  C13 UNL     1     143.594 131.980 100.108  0.00  0.00    -0.021 A 
ATOM     19  C14 UNL     1     143.389 130.820 100.855  0.00  0.00    +0.084 A 
ATOM     20 CL2  UNL     1     144.761 130.031 101.552  0.00  0.00    -0.080 Cl
ATOM     21  H   UNL     1     140.490 126.395 105.636  0.00  0.00    +0.000 HD
ENDROOT
TORSDOF 0
ENDMDL
MODEL 5
REMARK VINA RESULT:    -4.018     14.610     16.246
REMARK INTER + INTRA:          -4.018
REMARK INTER:                  -4.018
REMARK INTRA:                   0.000
REMARK UNBOUND:                 0.000
REMARK  Name = /home/vital/Documents/PhD_2021/Malaria_codes/scripts/../data/pdbqt_ligands/ligand_205_temp.pdb
REMARK                            x       y       z     vdW  Elec       q    Type
REMARK                         _______ _______ _______ _____ _____    ______ ____
ROOT
ATOM      1  C1  UNL     1     142.197 129.890  92.080  0.00  0.00    +0.036 C 
ATOM      2  O1  UNL     1     141.838 129.028  93.154  0.00  0.00    -0.383 OA
ATOM      3  C2  UNL     1     141.999 127.638  92.868  0.00  0.00    +0.049 C 
ATOM      4  C3  UNL     1     140.670 126.990  92.479  0.00  0.00    -0.014 C 
ATOM      5  C4  UNL     1     140.411 127.041  90.975  0.00  0.00    +0.014 C 
ATOM      6  N1  UNL     1     139.155 126.409  90.619  0.00  0.00    -0.315 N 
ATOM      7  C5  UNL     1     139.026 125.041  90.507  0.00  0.00    +0.213 C 
ATOM      8  O2  UNL     1     139.946 124.257  90.706  0.00  0.00    -0.276 OA
ATOM      9  C6  UNL     1     137.622 124.618  90.126  0.00  0.00    +0.027 C 
ATOM     10  C7  UNL     1     137.508 123.105  89.929  0.00  0.00    -0.010 C 
ATOM     11  C8  UNL     1     136.076 122.669  89.629  0.00  0.00    +0.090 C 
ATOM     12  O3  UNL     1     135.626 123.351  88.453  0.00  0.00    -0.490 OA
ATOM     13  C9  UNL     1     134.559 122.733  87.860  0.00  0.00    +0.139 A 
ATOM     14  C10 UNL     1     133.344 122.594  88.542  0.00  0.00    -0.017 A 
ATOM     15  C11 UNL     1     132.255 121.998  87.902  0.00  0.00    -0.040 A 
ATOM     16  C12 UNL     1     132.381 121.558  86.584  0.00  0.00    +0.043 A 
ATOM     17 CL1  UNL     1     131.040 120.816  85.805  0.00  0.00    -0.083 Cl
ATOM     18  C13 UNL     1     133.579 121.719  85.889  0.00  0.00    -0.021 A 
ATOM     19  C14 UNL     1     134.669 122.311  86.527  0.00  0.00    +0.084 A 
ATOM     20 CL2  UNL     1     136.147 122.490  85.647  0.00  0.00    -0.080 Cl
ATOM     21  H   UNL     1     138.368 126.977  90.450  0.00  0.00    +0.000 HD
ENDROOT
TORSDOF 0
ENDMDL
MODEL 6
REMARK VINA RESULT:    -4.012      4.085      9.939
REMARK INTER + INTRA:          -4.012
REMARK INTER:                  -4.012
REMARK INTRA:                   0.000
REMARK UNBOUND:                 0.000
REMARK  Name = /home/vital/Documents/PhD_2021/Malaria_codes/scripts/../data/pdbqt_ligands/ligand_205_temp.pdb
REMARK                            x       y       z     vdW  Elec       q    Type
REMARK                         _______ _______ _______ _____ _____    ______ ____
ROOT
ATOM      1  C1  UNL     1     138.293 120.688 106.739  0.00  0.00    +0.036 C 
ATOM      2  O1  UNL     1     139.686 120.805 107.007  0.00  0.00    -0.383 OA
ATOM      3  C2  UNL     1     140.092 122.106 107.434  0.00  0.00    +0.049 C 
ATOM      4  C3  UNL     1     140.689 122.913 106.281  0.00  0.00    -0.014 C 
ATOM      5  C4  UNL     1     139.639 123.731 105.533  0.00  0.00    +0.014 C 
ATOM      6  N1  UNL     1     140.221 124.503 104.453  0.00  0.00    -0.315 N 
ATOM      7  C5  UNL     1     140.872 125.699 104.671  0.00  0.00    +0.213 C 
ATOM      8  O2  UNL     1     141.018 126.196 105.781  0.00  0.00    -0.276 OA
ATOM      9  C6  UNL     1     141.396 126.319 103.392  0.00  0.00    +0.027 C 
ATOM     10  C7  UNL     1     142.047 127.682 103.635  0.00  0.00    -0.010 C 
ATOM     11  C8  UNL     1     142.650 128.268 102.360  0.00  0.00    +0.090 C 
ATOM     12  O3  UNL     1     141.616 128.388 101.378  0.00  0.00    -0.490 OA
ATOM     13  C9  UNL     1     141.932 129.275 100.384  0.00  0.00    +0.139 A 
ATOM     14  C10 UNL     1     143.036 129.053  99.552  0.00  0.00    -0.017 A 
ATOM     15  C11 UNL     1     143.315 129.950  98.519  0.00  0.00    -0.040 A 
ATOM     16  C12 UNL     1     142.484 131.052  98.313  0.00  0.00    +0.043 A 
ATOM     17 CL1  UNL     1     142.839 132.158  97.044  0.00  0.00    -0.083 Cl
ATOM     18  C13 UNL     1     141.367 131.264  99.120  0.00  0.00    -0.021 A 
ATOM     19  C14 UNL     1     141.088 130.372 100.155  0.00  0.00    +0.084 A 
ATOM     20 CL2  UNL     1     139.702 130.663 101.148  0.00  0.00    -0.080 Cl
ATOM     21  H   UNL     1     140.149 124.162 103.532  0.00  0.00    +0.000 HD
ENDROOT
TORSDOF 0
ENDMDL
MODEL 7
REMARK VINA RESULT:    -3.806     15.519     17.291
REMARK INTER + INTRA:          -3.806
REMARK INTER:                  -3.806
REMARK INTRA:                   0.000
REMARK UNBOUND:                 0.000
REMARK  Name = /home/vital/Documents/PhD_2021/Malaria_codes/scripts/../data/pdbqt_ligands/ligand_205_temp.pdb
REMARK                            x       y       z     vdW  Elec       q    Type
REMARK                         _______ _______ _______ _____ _____    ______ ____
ROOT
ATOM      1  C1  UNL     1     142.589 130.963  88.685  0.00  0.00    +0.036 C 
ATOM      2  O1  UNL     1     141.763 131.015  89.843  0.00  0.00    -0.383 OA
ATOM      3  C2  UNL     1     141.578 129.754  90.487  0.00  0.00    +0.049 C 
ATOM      4  C3  UNL     1     140.244 129.118  90.097  0.00  0.00    -0.014 C 
ATOM      5  C4  UNL     1     140.360 128.221  88.868  0.00  0.00    +0.014 C 
ATOM      6  N1  UNL     1     139.091 127.611  88.519  0.00  0.00    -0.315 N 
ATOM      7  C5  UNL     1     138.603 126.501  89.176  0.00  0.00    +0.213 C 
ATOM      8  O2  UNL     1     139.187 125.952  90.101  0.00  0.00    -0.276 OA
ATOM      9  C6  UNL     1     137.261 126.049  88.636  0.00  0.00    +0.027 C 
ATOM     10  C7  UNL     1     136.765 124.772  89.319  0.00  0.00    -0.010 C 
ATOM     11  C8  UNL     1     135.376 124.364  88.836  0.00  0.00    +0.090 C 
ATOM     12  O3  UNL     1     135.421 124.174  87.418  0.00  0.00    -0.490 OA
ATOM     13  C9  UNL     1     134.385 123.410  86.954  0.00  0.00    +0.139 A 
ATOM     14  C10 UNL     1     133.059 123.836  87.102  0.00  0.00    -0.017 A 
ATOM     15  C11 UNL     1     132.020 123.060  86.584  0.00  0.00    -0.040 A 
ATOM     16  C12 UNL     1     132.310 121.873  85.910  0.00  0.00    +0.043 A 
ATOM     17 CL1  UNL     1     131.026 120.916  85.282  0.00  0.00    -0.083 Cl
ATOM     18  C13 UNL     1     133.630 121.456  85.734  0.00  0.00    -0.021 A 
ATOM     19  C14 UNL     1     134.669 122.228  86.253  0.00  0.00    +0.084 A 
ATOM     20 CL2  UNL     1     136.296 121.685  86.030  0.00  0.00    -0.080 Cl
ATOM     21  H   UNL     1     138.560 128.003  87.788  0.00  0.00    +0.000 HD
ENDROOT
TORSDOF 0
ENDMDL
MODEL 8
REMARK VINA RESULT:    -3.791     16.032     19.041
REMARK INTER + INTRA:          -3.791
REMARK INTER:                  -3.791
REMARK INTRA:                   0.000
REMARK UNBOUND:                 0.000
REMARK  Name = /home/vital/Documents/PhD_2021/Malaria_codes/scripts/../data/pdbqt_ligands/ligand_205_temp.pdb
REMARK                            x       y       z     vdW  Elec       q    Type
REMARK                         _______ _______ _______ _____ _____    ______ ____
ROOT
ATOM      1  C1  UNL     1     131.533 120.924  86.865  0.00  0.00    +0.036 C 
ATOM      2  O1  UNL     1     131.593 121.685  85.663  0.00  0.00    -0.383 OA
ATOM      3  C2  UNL     1     132.909 121.833  85.130  0.00  0.00    +0.049 C 
ATOM      4  C3  UNL     1     133.515 123.186  85.503  0.00  0.00    -0.014 C 
ATOM      5  C4  UNL     1     134.294 123.137  86.815  0.00  0.00    +0.014 C 
ATOM      6  N1  UNL     1     134.877 124.423  87.149  0.00  0.00    -0.315 N 
ATOM      7  C5  UNL     1     136.045 124.873  86.573  0.00  0.00    +0.213 C 
ATOM      8  O2  UNL     1     136.674 124.238  85.735  0.00  0.00    -0.276 OA
ATOM      9  C6  UNL     1     136.454 126.241  87.078  0.00  0.00    +0.027 C 
ATOM     10  C7  UNL     1     137.792 126.698  86.490  0.00  0.00    -0.010 C 
ATOM     11  C8  UNL     1     138.162 128.111  86.932  0.00  0.00    +0.090 C 
ATOM     12  O3  UNL     1     138.219 128.144  88.362  0.00  0.00    -0.490 OA
ATOM     13  C9  UNL     1     138.944 129.203  88.838  0.00  0.00    +0.139 A 
ATOM     14  C10 UNL     1     138.542 130.519  88.579  0.00  0.00    -0.017 A 
ATOM     15  C11 UNL     1     139.273 131.584  89.109  0.00  0.00    -0.040 A 
ATOM     16  C12 UNL     1     140.391 131.330  89.906  0.00  0.00    +0.043 A 
ATOM     17 CL1  UNL     1     141.293 132.645  90.548  0.00  0.00    -0.083 Cl
ATOM     18  C13 UNL     1     140.782 130.022  90.191  0.00  0.00    -0.021 A 
ATOM     19  C14 UNL     1     140.055 128.956  89.659  0.00  0.00    +0.084 A 
ATOM     20 CL2  UNL     1     140.565 127.343  90.020  0.00  0.00    -0.080 Cl
ATOM     21  H   UNL     1     134.422 124.993  87.811  0.00  0.00    +0.000 HD
ENDROOT
TORSDOF 0
ENDMDL
MODEL 9
REMARK VINA RESULT:    -3.579     15.534     18.203
REMARK INTER + INTRA:          -3.579
REMARK INTER:                  -3.579
REMARK INTRA:                   0.000
REMARK UNBOUND:                 0.000
REMARK  Name = /home/vital/Documents/PhD_2021/Malaria_codes/scripts/../data/pdbqt_ligands/ligand_205_temp.pdb
REMARK                            x       y       z     vdW  Elec       q    Type
REMARK                         _______ _______ _______ _____ _____    ______ ____
ROOT
ATOM      1  C1  UNL     1     131.616 122.685  88.697  0.00  0.00    +0.036 C 
ATOM      2  O1  UNL     1     131.878 123.121  87.368  0.00  0.00    -0.383 OA
ATOM      3  C2  UNL     1     133.241 122.984  86.965  0.00  0.00    +0.049 C 
ATOM      4  C3  UNL     1     133.996 124.308  87.084  0.00  0.00    -0.014 C 
ATOM      5  C4  UNL     1     134.651 124.488  88.451  0.00  0.00    +0.014 C 
ATOM      6  N1  UNL     1     135.376 125.741  88.544  0.00  0.00    -0.315 N 
ATOM      7  C5  UNL     1     136.639 125.901  88.014  0.00  0.00    +0.213 C 
ATOM      8  O2  UNL     1     137.240 125.014  87.421  0.00  0.00    -0.276 OA
ATOM      9  C6  UNL     1     137.190 127.295  88.234  0.00  0.00    +0.027 C 
ATOM     10  C7  UNL     1     138.621 127.439  87.712  0.00  0.00    -0.010 C 
ATOM     11  C8  UNL     1     139.146 128.865  87.856  0.00  0.00    +0.090 C 
ATOM     12  O3  UNL     1     139.091 129.236  89.238  0.00  0.00    -0.490 OA
ATOM     13  C9  UNL     1     139.914 130.288  89.536  0.00  0.00    +0.139 A 
ATOM     14  C10 UNL     1     139.719 131.539  88.938  0.00  0.00    -0.017 A 
ATOM     15  C11 UNL     1     140.545 132.610  89.289  0.00  0.00    -0.040 A 
ATOM     16  C12 UNL     1     141.548 132.429  90.242  0.00  0.00    +0.043 A 
ATOM     17 CL1  UNL     1     142.568 133.748  90.662  0.00  0.00    -0.083 Cl
ATOM     18  C13 UNL     1     141.730 131.193  90.862  0.00  0.00    -0.021 A 
ATOM     19  C14 UNL     1     140.908 130.121  90.511  0.00  0.00    +0.084 A 
ATOM     20 CL2  UNL     1     141.160 128.596  91.287  0.00  0.00    -0.080 Cl
ATOM     21  H   UNL     1     134.952 126.503  89.002  0.00  0.00    +0.000 HD
ENDROOT
TORSDOF 0
ENDMDL
