MODEL 1
REMARK VINA RESULT:    -5.385      0.000      0.000
REMARK INTER + INTRA:          -5.385
REMARK INTER:                  -5.385
REMARK INTRA:                   0.000
REMARK UNBOUND:                 0.000
REMARK  Name = /home/vital/Documents/PhD_2021/Malaria_codes/scripts/../data/pdbqt_ligands/ligand_445_temp.pdb
REMARK                            x       y       z     vdW  Elec       q    Type
REMARK                         _______ _______ _______ _____ _____    ______ ____
ROOT
ATOM      1  C   UNL     1     143.353 124.702 107.228  0.00  0.00    -0.038 C 
ATOM      2  C   UNL     1     142.958 125.388 105.949  0.00  0.00    -0.020 A 
ATOM      3  C   UNL     1     141.629 125.803 105.784  0.00  0.00    -0.056 A 
ATOM      4  C   UNL     1     141.215 126.436 104.607  0.00  0.00    -0.049 A 
ATOM      5  C   UNL     1     142.124 126.685 103.570  0.00  0.00    +0.039 A 
ATOM      6  C   UNL     1     141.625 127.345 102.331  0.00  0.00    +0.249 C 
ATOM      7  O   UNL     1     140.436 127.251 102.049  0.00  0.00    -0.270 OA
ATOM      8  N   UNL     1     142.569 128.077 101.623  0.00  0.00    -0.266 N 
ATOM      9  C   UNL     1     142.217 128.788 100.479  0.00  0.00    +0.133 A 
ATOM     10  C   UNL     1     142.706 130.017 100.101  0.00  0.00    +0.026 A 
ATOM     11  C   UNL     1     141.900 130.425  99.037  0.00  0.00    +0.079 A 
ATOM     12  N   UNL     1     140.985 129.527  98.694  0.00  0.00    -0.168 NA
ATOM     13  N   UNL     1     141.291 128.434  99.473  0.00  0.00    -0.218 N 
ATOM     14  C   UNL     1     140.816 127.152  99.061  0.00  0.00    +0.068 A 
ATOM     15  C   UNL     1     141.480 125.971  99.423  0.00  0.00    -0.035 A 
ATOM     16  C   UNL     1     141.004 124.733  98.979  0.00  0.00    -0.041 A 
ATOM     17  C   UNL     1     139.876 124.671  98.163  0.00  0.00    +0.041 A 
ATOM     18 CL   UNL     1     139.298 123.145  97.620  0.00  0.00    -0.084 Cl
ATOM     19  C   UNL     1     139.224 125.838  97.776  0.00  0.00    -0.041 A 
ATOM     20  C   UNL     1     139.696 127.078  98.215  0.00  0.00    -0.035 A 
ATOM     21  C   UNL     1     142.106 131.774  98.475  0.00  0.00    +0.038 C 
ATOM     22  S   UNL     1     143.502 132.463  99.500  0.00  0.00    -0.150 S 
ATOM     23  C   UNL     1     143.701 130.980 100.597  0.00  0.00    +0.024 C 
ATOM     24  C   UNL     1     143.454 126.279 103.711  0.00  0.00    -0.019 A 
ATOM     25  C   UNL     1     143.860 125.647 104.899  0.00  0.00    +0.130 A 
ATOM     26  N   UNL     1     145.266 125.262 104.998  0.00  0.00    +0.057 N 
ATOM     27  O   UNL     1     145.761 124.691 104.016  0.00  0.00    -0.126 OA
ATOM     28  O   UNL     1     145.873 125.567 106.032  0.00  0.00    -0.126 OA
ATOM     29  H   UNL     1     143.503 128.094 101.936  0.00  0.00    +0.000 HD
ENDROOT
TORSDOF 0
ENDMDL
MODEL 2
REMARK VINA RESULT:    -5.319      3.253      7.263
REMARK INTER + INTRA:          -5.319
REMARK INTER:                  -5.319
REMARK INTRA:                   0.000
REMARK UNBOUND:                 0.000
REMARK  Name = /home/vital/Documents/PhD_2021/Malaria_codes/scripts/../data/pdbqt_ligands/ligand_445_temp.pdb
REMARK                            x       y       z     vdW  Elec       q    Type
REMARK                         _______ _______ _______ _____ _____    ______ ____
ROOT
ATOM      1  C   UNL     1     138.910 127.649  97.645  0.00  0.00    -0.038 C 
ATOM      2  C   UNL     1     139.753 127.253  98.826  0.00  0.00    -0.020 A 
ATOM      3  C   UNL     1     140.402 126.010  98.811  0.00  0.00    -0.056 A 
ATOM      4  C   UNL     1     141.188 125.596  99.892  0.00  0.00    -0.049 A 
ATOM      5  C   UNL     1     141.359 126.422 101.010  0.00  0.00    +0.039 A 
ATOM      6  C   UNL     1     142.191 125.924 102.141  0.00  0.00    +0.249 C 
ATOM      7  O   UNL     1     142.326 124.715 102.288  0.00  0.00    -0.270 OA
ATOM      8  N   UNL     1     142.805 126.906 102.908  0.00  0.00    -0.266 N 
ATOM      9  C   UNL     1     143.654 126.570 103.958  0.00  0.00    +0.133 A 
ATOM     10  C   UNL     1     144.807 127.229 104.316  0.00  0.00    +0.026 A 
ATOM     11  C   UNL     1     145.430 126.404 105.253  0.00  0.00    +0.079 A 
ATOM     12  N   UNL     1     144.733 125.312 105.541  0.00  0.00    -0.168 NA
ATOM     13  N   UNL     1     143.545 125.497 104.870  0.00  0.00    -0.218 N 
ATOM     14  C   UNL     1     142.401 124.760 105.300  0.00  0.00    +0.068 A 
ATOM     15  C   UNL     1     141.099 125.235 105.089  0.00  0.00    -0.035 A 
ATOM     16  C   UNL     1     140.000 124.501 105.548  0.00  0.00    -0.041 A 
ATOM     17  C   UNL     1     140.198 123.302 106.231  0.00  0.00    +0.041 A 
ATOM     18 CL   UNL     1     138.841 122.407 106.794  0.00  0.00    -0.084 Cl
ATOM     19  C   UNL     1     141.486 122.833 106.469  0.00  0.00    -0.041 A 
ATOM     20  C   UNL     1     142.587 123.562 106.013  0.00  0.00    -0.035 A 
ATOM     21  C   UNL     1     146.765 126.789 105.753  0.00  0.00    +0.038 C 
ATOM     22  S   UNL     1     147.121 128.384 104.857  0.00  0.00    -0.150 S 
ATOM     23  C   UNL     1     145.543 128.427 103.882  0.00  0.00    +0.024 C 
ATOM     24  C   UNL     1     140.721 127.665 101.049  0.00  0.00    -0.019 A 
ATOM     25  C   UNL     1     139.936 128.072  99.956  0.00  0.00    +0.130 A 
ATOM     26  N   UNL     1     139.309 129.389 100.044  0.00  0.00    +0.057 N 
ATOM     27  O   UNL     1     138.742 129.669 101.109  0.00  0.00    -0.126 OA
ATOM     28  O   UNL     1     139.422 130.145  99.071  0.00  0.00    -0.126 OA
ATOM     29  H   UNL     1     142.636 127.855 102.706  0.00  0.00    +0.000 HD
ENDROOT
TORSDOF 0
ENDMDL
MODEL 3
REMARK VINA RESULT:    -4.963      4.358      7.553
REMARK INTER + INTRA:          -4.963
REMARK INTER:                  -4.963
REMARK INTRA:                   0.000
REMARK UNBOUND:                 0.000
REMARK  Name = /home/vital/Documents/PhD_2021/Malaria_codes/scripts/../data/pdbqt_ligands/ligand_445_temp.pdb
REMARK                            x       y       z     vdW  Elec       q    Type
REMARK                         _______ _______ _______ _____ _____    ______ ____
ROOT
ATOM      1  C   UNL     1     137.860 128.029  98.186  0.00  0.00    -0.038 C 
ATOM      2  C   UNL     1     139.156 128.275  98.908  0.00  0.00    -0.020 A 
ATOM      3  C   UNL     1     139.246 129.360  99.792  0.00  0.00    -0.056 A 
ATOM      4  C   UNL     1     140.435 129.633 100.477  0.00  0.00    -0.049 A 
ATOM      5  C   UNL     1     141.561 128.818 100.308  0.00  0.00    +0.039 A 
ATOM      6  C   UNL     1     142.807 129.165 101.048  0.00  0.00    +0.249 C 
ATOM      7  O   UNL     1     142.980 130.325 101.403  0.00  0.00    -0.270 OA
ATOM      8  N   UNL     1     143.651 128.099 101.328  0.00  0.00    -0.266 N 
ATOM      9  C   UNL     1     144.819 128.282 102.063  0.00  0.00    +0.133 A 
ATOM     10  C   UNL     1     145.342 127.412 102.992  0.00  0.00    +0.026 A 
ATOM     11  C   UNL     1     146.366 128.118 103.625  0.00  0.00    +0.079 A 
ATOM     12  N   UNL     1     146.553 129.335 103.130  0.00  0.00    -0.168 NA
ATOM     13  N   UNL     1     145.710 129.378 102.042  0.00  0.00    -0.218 N 
ATOM     14  C   UNL     1     145.969 130.342 101.021  0.00  0.00    +0.068 A 
ATOM     15  C   UNL     1     145.562 130.135  99.696  0.00  0.00    -0.035 A 
ATOM     16  C   UNL     1     145.856 131.087  98.714  0.00  0.00    -0.041 A 
ATOM     17  C   UNL     1     146.567 132.238  99.048  0.00  0.00    +0.041 A 
ATOM     18 CL   UNL     1     146.925 133.403  97.835  0.00  0.00    -0.084 Cl
ATOM     19  C   UNL     1     146.998 132.442 100.356  0.00  0.00    -0.041 A 
ATOM     20  C   UNL     1     146.708 131.494 101.340  0.00  0.00    -0.035 A 
ATOM     21  C   UNL     1     147.059 127.483 104.764  0.00  0.00    +0.038 C 
ATOM     22  S   UNL     1     146.217 125.827 104.916  0.00  0.00    -0.150 S 
ATOM     23  C   UNL     1     145.016 126.080 103.524  0.00  0.00    +0.024 C 
ATOM     24  C   UNL     1     141.497 127.731  99.432  0.00  0.00    -0.019 A 
ATOM     25  C   UNL     1     140.296 127.464  98.751  0.00  0.00    +0.130 A 
ATOM     26  N   UNL     1     140.282 126.304  97.863  0.00  0.00    +0.057 N 
ATOM     27  O   UNL     1     141.248 126.171  97.100  0.00  0.00    -0.126 OA
ATOM     28  O   UNL     1     139.333 125.517  97.962  0.00  0.00    -0.126 OA
ATOM     29  H   UNL     1     143.420 127.199 101.001  0.00  0.00    +0.000 HD
ENDROOT
TORSDOF 0
ENDMDL
MODEL 4
REMARK VINA RESULT:    -4.869      2.403      2.910
REMARK INTER + INTRA:          -4.869
REMARK INTER:                  -4.869
REMARK INTRA:                   0.000
REMARK UNBOUND:                 0.000
REMARK  Name = /home/vital/Documents/PhD_2021/Malaria_codes/scripts/../data/pdbqt_ligands/ligand_445_temp.pdb
REMARK                            x       y       z     vdW  Elec       q    Type
REMARK                         _______ _______ _______ _____ _____    ______ ____
ROOT
ATOM      1  C   UNL     1     142.208 121.838 105.541  0.00  0.00    -0.038 C 
ATOM      2  C   UNL     1     142.273 123.146 104.804  0.00  0.00    -0.020 A 
ATOM      3  C   UNL     1     141.487 124.218 105.250  0.00  0.00    -0.056 A 
ATOM      4  C   UNL     1     141.508 125.451 104.589  0.00  0.00    -0.049 A 
ATOM      5  C   UNL     1     142.330 125.649 103.472  0.00  0.00    +0.039 A 
ATOM      6  C   UNL     1     142.299 126.976 102.794  0.00  0.00    +0.249 C 
ATOM      7  O   UNL     1     141.301 127.676 102.910  0.00  0.00    -0.270 OA
ATOM      8  N   UNL     1     143.463 127.331 102.125  0.00  0.00    -0.266 N 
ATOM      9  C   UNL     1     143.584 128.568 101.500  0.00  0.00    +0.133 A 
ATOM     10  C   UNL     1     144.715 129.349 101.449  0.00  0.00    +0.026 A 
ATOM     11  C   UNL     1     144.295 130.577 100.935  0.00  0.00    +0.079 A 
ATOM     12  N   UNL     1     143.007 130.604 100.618  0.00  0.00    -0.168 NA
ATOM     13  N   UNL     1     142.598 129.302 100.803  0.00  0.00    -0.218 N 
ATOM     14  C   UNL     1     141.411 128.863 100.142  0.00  0.00    +0.068 A 
ATOM     15  C   UNL     1     141.209 127.515  99.814  0.00  0.00    -0.035 A 
ATOM     16  C   UNL     1     140.048 127.122  99.140  0.00  0.00    -0.041 A 
ATOM     17  C   UNL     1     139.094 128.072  98.781  0.00  0.00    +0.041 A 
ATOM     18 CL   UNL     1     137.670 127.581  97.953  0.00  0.00    -0.084 Cl
ATOM     19  C   UNL     1     139.295 129.417  99.080  0.00  0.00    -0.041 A 
ATOM     20  C   UNL     1     140.454 129.815  99.751  0.00  0.00    -0.035 A 
ATOM     21  C   UNL     1     145.273 131.680 100.860  0.00  0.00    +0.038 C 
ATOM     22  S   UNL     1     146.835 130.923 101.538  0.00  0.00    -0.150 S 
ATOM     23  C   UNL     1     146.113 129.252 101.896  0.00  0.00    +0.024 C 
ATOM     24  C   UNL     1     143.122 124.596 103.006  0.00  0.00    -0.019 A 
ATOM     25  C   UNL     1     143.095 123.362 103.681  0.00  0.00    +0.130 A 
ATOM     26  N   UNL     1     143.958 122.304 103.161  0.00  0.00    +0.057 N 
ATOM     27  O   UNL     1     143.948 122.125 101.936  0.00  0.00    -0.126 OA
ATOM     28  O   UNL     1     144.665 121.691 103.970  0.00  0.00    -0.126 OA
ATOM     29  H   UNL     1     144.217 126.697 102.093  0.00  0.00    +0.000 HD
ENDROOT
TORSDOF 0
ENDMDL
MODEL 5
REMARK VINA RESULT:    -4.820      3.298      4.147
REMARK INTER + INTRA:          -4.820
REMARK INTER:                  -4.820
REMARK INTRA:                   0.000
REMARK UNBOUND:                 0.000
REMARK  Name = /home/vital/Documents/PhD_2021/Malaria_codes/scripts/../data/pdbqt_ligands/ligand_445_temp.pdb
REMARK                            x       y       z     vdW  Elec       q    Type
REMARK                         _______ _______ _______ _____ _____    ______ ____
ROOT
ATOM      1  C   UNL     1     138.851 121.897 106.104  0.00  0.00    -0.038 C 
ATOM      2  C   UNL     1     139.558 123.012 105.384  0.00  0.00    -0.020 A 
ATOM      3  C   UNL     1     139.218 124.339 105.687  0.00  0.00    -0.056 A 
ATOM      4  C   UNL     1     139.843 125.408 105.036  0.00  0.00    -0.049 A 
ATOM      5  C   UNL     1     140.835 125.179 104.075  0.00  0.00    +0.039 A 
ATOM      6  C   UNL     1     141.453 126.354 103.397  0.00  0.00    +0.249 C 
ATOM      7  O   UNL     1     140.822 127.402 103.339  0.00  0.00    -0.270 OA
ATOM      8  N   UNL     1     142.749 126.163 102.936  0.00  0.00    -0.266 N 
ATOM      9  C   UNL     1     143.458 127.200 102.337  0.00  0.00    +0.133 A 
ATOM     10  C   UNL     1     144.803 127.455 102.477  0.00  0.00    +0.026 A 
ATOM     11  C   UNL     1     145.005 128.707 101.896  0.00  0.00    +0.079 A 
ATOM     12  N   UNL     1     143.905 129.226 101.364  0.00  0.00    -0.168 NA
ATOM     13  N   UNL     1     142.978 128.215 101.481  0.00  0.00    -0.218 N 
ATOM     14  C   UNL     1     141.833 128.243 100.628  0.00  0.00    +0.068 A 
ATOM     15  C   UNL     1     141.152 127.070 100.274  0.00  0.00    -0.035 A 
ATOM     16  C   UNL     1     140.051 127.128  99.414  0.00  0.00    -0.041 A 
ATOM     17  C   UNL     1     139.636 128.353  98.895  0.00  0.00    +0.041 A 
ATOM     18 CL   UNL     1     138.281 128.417  97.837  0.00  0.00    -0.084 Cl
ATOM     19  C   UNL     1     140.319 129.522  99.219  0.00  0.00    -0.041 A 
ATOM     20  C   UNL     1     141.420 129.468 100.077  0.00  0.00    -0.035 A 
ATOM     21  C   UNL     1     146.346 129.317 101.986  0.00  0.00    +0.038 C 
ATOM     22  S   UNL     1     147.339 128.047 102.921  0.00  0.00    -0.150 S 
ATOM     23  C   UNL     1     145.952 126.837 103.156  0.00  0.00    +0.024 C 
ATOM     24  C   UNL     1     141.190 123.866 103.754  0.00  0.00    -0.019 A 
ATOM     25  C   UNL     1     140.559 122.799 104.417  0.00  0.00    +0.130 A 
ATOM     26  N   UNL     1     140.984 121.449 104.055  0.00  0.00    +0.057 N 
ATOM     27  O   UNL     1     141.091 121.201 102.846  0.00  0.00    -0.126 OA
ATOM     28  O   UNL     1     141.246 120.664 104.974  0.00  0.00    -0.126 OA
ATOM     29  H   UNL     1     143.173 125.279 103.034  0.00  0.00    +0.000 HD
ENDROOT
TORSDOF 0
ENDMDL
MODEL 6
REMARK VINA RESULT:    -4.772     13.252     16.494
REMARK INTER + INTRA:          -4.772
REMARK INTER:                  -4.772
REMARK INTRA:                   0.000
REMARK UNBOUND:                 0.000
REMARK  Name = /home/vital/Documents/PhD_2021/Malaria_codes/scripts/../data/pdbqt_ligands/ligand_445_temp.pdb
REMARK                            x       y       z     vdW  Elec       q    Type
REMARK                         _______ _______ _______ _____ _____    ______ ____
ROOT
ATOM      1  C   UNL     1     131.311 121.658  86.285  0.00  0.00    -0.038 C 
ATOM      2  C   UNL     1     132.500 122.567  86.432  0.00  0.00    -0.020 A 
ATOM      3  C   UNL     1     133.722 122.184  85.861  0.00  0.00    -0.056 A 
ATOM      4  C   UNL     1     134.857 122.994  85.981  0.00  0.00    -0.049 A 
ATOM      5  C   UNL     1     134.795 124.216  86.661  0.00  0.00    +0.039 A 
ATOM      6  C   UNL     1     136.038 125.030  86.776  0.00  0.00    +0.249 C 
ATOM      7  O   UNL     1     137.123 124.467  86.696  0.00  0.00    -0.270 OA
ATOM      8  N   UNL     1     135.845 126.399  86.904  0.00  0.00    -0.266 N 
ATOM      9  C   UNL     1     136.926 127.275  86.962  0.00  0.00    +0.133 A 
ATOM     10  C   UNL     1     136.992 128.527  86.396  0.00  0.00    +0.026 A 
ATOM     11  C   UNL     1     138.327 128.916  86.512  0.00  0.00    +0.079 A 
ATOM     12  N   UNL     1     139.082 128.029  87.148  0.00  0.00    -0.168 NA
ATOM     13  N   UNL     1     138.179 127.085  87.585  0.00  0.00    -0.218 N 
ATOM     14  C   UNL     1     138.556 126.237  88.669  0.00  0.00    +0.068 A 
ATOM     15  C   UNL     1     137.600 125.662  89.518  0.00  0.00    -0.035 A 
ATOM     16  C   UNL     1     138.004 124.857  90.589  0.00  0.00    -0.041 A 
ATOM     17  C   UNL     1     139.360 124.637  90.823  0.00  0.00    +0.041 A 
ATOM     18 CL   UNL     1     139.849 123.649  92.142  0.00  0.00    -0.084 Cl
ATOM     19  C   UNL     1     140.320 125.223  90.002  0.00  0.00    -0.041 A 
ATOM     20  C   UNL     1     139.921 126.029  88.932  0.00  0.00    -0.035 A 
ATOM     21  C   UNL     1     138.746 130.188  85.890  0.00  0.00    +0.038 C 
ATOM     22  S   UNL     1     137.173 130.838  85.130  0.00  0.00    -0.150 S 
ATOM     23  C   UNL     1     136.096 129.417  85.640  0.00  0.00    +0.024 C 
ATOM     24  C   UNL     1     133.588 124.620  87.240  0.00  0.00    -0.019 A 
ATOM     25  C   UNL     1     132.453 123.800  87.110  0.00  0.00    +0.130 A 
ATOM     26  N   UNL     1     131.215 124.281  87.719  0.00  0.00    +0.057 N 
ATOM     27  O   UNL     1     131.294 124.728  88.871  0.00  0.00    -0.126 OA
ATOM     28  O   UNL     1     130.187 124.248  87.031  0.00  0.00    -0.126 OA
ATOM     29  H   UNL     1     134.929 126.757  86.955  0.00  0.00    +0.000 HD
ENDROOT
TORSDOF 0
ENDMDL
MODEL 7
REMARK VINA RESULT:    -4.590     13.465     15.928
REMARK INTER + INTRA:          -4.590
REMARK INTER:                  -4.590
REMARK INTRA:                   0.000
REMARK UNBOUND:                 0.000
REMARK  Name = /home/vital/Documents/PhD_2021/Malaria_codes/scripts/../data/pdbqt_ligands/ligand_445_temp.pdb
REMARK                            x       y       z     vdW  Elec       q    Type
REMARK                         _______ _______ _______ _____ _____    ______ ____
ROOT
ATOM      1  C   UNL     1     130.352 123.383  88.679  0.00  0.00    -0.038 C 
ATOM      2  C   UNL     1     131.810 123.734  88.784  0.00  0.00    -0.020 A 
ATOM      3  C   UNL     1     132.271 124.382  89.939  0.00  0.00    -0.056 A 
ATOM      4  C   UNL     1     133.618 124.736  90.076  0.00  0.00    -0.049 A 
ATOM      5  C   UNL     1     134.542 124.436  89.068  0.00  0.00    +0.039 A 
ATOM      6  C   UNL     1     135.961 124.853  89.258  0.00  0.00    +0.249 C 
ATOM      7  O   UNL     1     136.206 125.789  90.008  0.00  0.00    -0.270 OA
ATOM      8  N   UNL     1     136.903 124.080  88.593  0.00  0.00    -0.266 N 
ATOM      9  C   UNL     1     138.266 124.330  88.734  0.00  0.00    +0.133 A 
ATOM     10  C   UNL     1     139.265 123.386  88.799  0.00  0.00    +0.026 A 
ATOM     11  C   UNL     1     140.412 124.087  89.175  0.00  0.00    +0.079 A 
ATOM     12  N   UNL     1     140.215 125.394  89.299  0.00  0.00    -0.168 NA
ATOM     13  N   UNL     1     138.924 125.573  88.856  0.00  0.00    -0.218 N 
ATOM     14  C   UNL     1     138.529 126.877  88.427  0.00  0.00    +0.068 A 
ATOM     15  C   UNL     1     137.500 127.062  87.493  0.00  0.00    -0.035 A 
ATOM     16  C   UNL     1     137.156 128.351  87.073  0.00  0.00    -0.041 A 
ATOM     17  C   UNL     1     137.847 129.454  87.570  0.00  0.00    +0.041 A 
ATOM     18 CL   UNL     1     137.419 131.036  87.047  0.00  0.00    -0.084 Cl
ATOM     19  C   UNL     1     138.888 129.281  88.479  0.00  0.00    -0.041 A 
ATOM     20  C   UNL     1     139.235 127.996  88.901  0.00  0.00    -0.035 A 
ATOM     21  C   UNL     1     141.648 123.324  89.439  0.00  0.00    +0.038 C 
ATOM     22  S   UNL     1     141.142 121.557  89.127  0.00  0.00    -0.150 S 
ATOM     23  C   UNL     1     139.372 121.922  88.709  0.00  0.00    +0.024 C 
ATOM     24  C   UNL     1     134.107 123.792  87.907  0.00  0.00    -0.019 A 
ATOM     25  C   UNL     1     132.752 123.437  87.781  0.00  0.00    +0.130 A 
ATOM     26  N   UNL     1     132.359 122.749  86.554  0.00  0.00    +0.057 N 
ATOM     27  O   UNL     1     132.782 123.217  85.489  0.00  0.00    -0.126 OA
ATOM     28  O   UNL     1     131.669 121.728  86.665  0.00  0.00    -0.126 OA
ATOM     29  H   UNL     1     136.604 123.342  88.013  0.00  0.00    +0.000 HD
ENDROOT
TORSDOF 0
ENDMDL
MODEL 8
REMARK VINA RESULT:    -4.534      3.843      5.393
REMARK INTER + INTRA:          -4.534
REMARK INTER:                  -4.534
REMARK INTRA:                   0.000
REMARK UNBOUND:                 0.000
REMARK  Name = /home/vital/Documents/PhD_2021/Malaria_codes/scripts/../data/pdbqt_ligands/ligand_445_temp.pdb
REMARK                            x       y       z     vdW  Elec       q    Type
REMARK                         _______ _______ _______ _____ _____    ______ ____
ROOT
ATOM      1  C   UNL     1     140.735 124.908 108.351  0.00  0.00    -0.038 C 
ATOM      2  C   UNL     1     141.014 125.044 106.880  0.00  0.00    -0.020 A 
ATOM      3  C   UNL     1     142.263 125.533 106.468  0.00  0.00    -0.056 A 
ATOM      4  C   UNL     1     142.563 125.686 105.110  0.00  0.00    -0.049 A 
ATOM      5  C   UNL     1     141.628 125.339 104.127  0.00  0.00    +0.039 A 
ATOM      6  C   UNL     1     141.992 125.541 102.696  0.00  0.00    +0.249 C 
ATOM      7  O   UNL     1     142.844 126.375 102.415  0.00  0.00    -0.270 OA
ATOM      8  N   UNL     1     141.357 124.697 101.795  0.00  0.00    -0.266 N 
ATOM      9  C   UNL     1     141.653 124.745 100.435  0.00  0.00    +0.133 A 
ATOM     10  C   UNL     1     141.731 123.671  99.580  0.00  0.00    +0.026 A 
ATOM     11  C   UNL     1     142.279 124.176  98.400  0.00  0.00    +0.079 A 
ATOM     12  N   UNL     1     142.500 125.484  98.438  0.00  0.00    -0.168 NA
ATOM     13  N   UNL     1     141.950 125.873  99.639  0.00  0.00    -0.218 N 
ATOM     14  C   UNL     1     141.603 127.247  99.812  0.00  0.00    +0.068 A 
ATOM     15  C   UNL     1     140.593 127.643 100.700  0.00  0.00    -0.035 A 
ATOM     16  C   UNL     1     140.258 128.995 100.826  0.00  0.00    -0.041 A 
ATOM     17  C   UNL     1     140.918 129.952 100.057  0.00  0.00    +0.041 A 
ATOM     18 CL   UNL     1     140.500 131.612 100.217  0.00  0.00    -0.084 Cl
ATOM     19  C   UNL     1     141.906 129.568  99.153  0.00  0.00    -0.041 A 
ATOM     20  C   UNL     1     142.243 128.219  99.023  0.00  0.00    -0.035 A 
ATOM     21  C   UNL     1     142.593 123.232  97.309  0.00  0.00    +0.038 C 
ATOM     22  S   UNL     1     142.076 121.580  98.002  0.00  0.00    -0.150 S 
ATOM     23  C   UNL     1     141.520 122.216  99.653  0.00  0.00    +0.024 C 
ATOM     24  C   UNL     1     140.376 124.851 104.512  0.00  0.00    -0.019 A 
ATOM     25  C   UNL     1     140.086 124.698 105.880  0.00  0.00    +0.130 A 
ATOM     26  N   UNL     1     138.769 124.165 106.222  0.00  0.00    +0.057 N 
ATOM     27  O   UNL     1     137.797 124.650 105.628  0.00  0.00    -0.126 OA
ATOM     28  O   UNL     1     138.720 123.244 107.047  0.00  0.00    -0.126 OA
ATOM     29  H   UNL     1     140.687 124.054 102.122  0.00  0.00    +0.000 HD
ENDROOT
TORSDOF 0
ENDMDL
MODEL 9
REMARK VINA RESULT:    -4.310     15.295     17.076
REMARK INTER + INTRA:          -4.310
REMARK INTER:                  -4.310
REMARK INTRA:                   0.000
REMARK UNBOUND:                 0.000
REMARK  Name = /home/vital/Documents/PhD_2021/Malaria_codes/scripts/../data/pdbqt_ligands/ligand_445_temp.pdb
REMARK                            x       y       z     vdW  Elec       q    Type
REMARK                         _______ _______ _______ _____ _____    ______ ____
ROOT
ATOM      1  C   UNL     1     137.128 131.843  86.040  0.00  0.00    -0.038 C 
ATOM      2  C   UNL     1     136.941 130.351  86.054  0.00  0.00    -0.020 A 
ATOM      3  C   UNL     1     136.040 129.771  85.148  0.00  0.00    -0.056 A 
ATOM      4  C   UNL     1     135.827 128.389  85.131  0.00  0.00    -0.049 A 
ATOM      5  C   UNL     1     136.520 127.547  86.010  0.00  0.00    +0.039 A 
ATOM      6  C   UNL     1     136.240 126.084  85.963  0.00  0.00    +0.249 C 
ATOM      7  O   UNL     1     135.160 125.703  85.528  0.00  0.00    -0.270 OA
ATOM      8  N   UNL     1     137.282 125.264  86.373  0.00  0.00    -0.266 N 
ATOM      9  C   UNL     1     137.168 123.877  86.322  0.00  0.00    +0.133 A 
ATOM     10  C   UNL     1     138.163 122.989  85.985  0.00  0.00    +0.026 A 
ATOM     11  C   UNL     1     137.526 121.756  85.843  0.00  0.00    +0.079 A 
ATOM     12  N   UNL     1     136.227 121.798  86.113  0.00  0.00    -0.168 NA
ATOM     13  N   UNL     1     136.033 123.078  86.581  0.00  0.00    -0.218 N 
ATOM     14  C   UNL     1     134.877 123.341  87.377  0.00  0.00    +0.068 A 
ATOM     15  C   UNL     1     134.853 124.381  88.316  0.00  0.00    -0.035 A 
ATOM     16  C   UNL     1     133.714 124.594  89.100  0.00  0.00    -0.041 A 
ATOM     17  C   UNL     1     132.605 123.763  88.959  0.00  0.00    +0.041 A 
ATOM     18 CL   UNL     1     131.209 124.031  89.927  0.00  0.00    -0.084 Cl
ATOM     19  C   UNL     1     132.625 122.711  88.047  0.00  0.00    -0.041 A 
ATOM     20  C   UNL     1     133.761 122.493  87.263  0.00  0.00    -0.035 A 
ATOM     21  C   UNL     1     138.320 120.604  85.372  0.00  0.00    +0.038 C 
ATOM     22  S   UNL     1     140.026 121.318  85.139  0.00  0.00    -0.150 S 
ATOM     23  C   UNL     1     139.591 123.052  85.635  0.00  0.00    +0.024 C 
ATOM     24  C   UNL     1     137.421 128.101  86.924  0.00  0.00    -0.019 A 
ATOM     25  C   UNL     1     137.631 129.491  86.929  0.00  0.00    +0.130 A 
ATOM     26  N   UNL     1     138.599 130.012  87.892  0.00  0.00    +0.057 N 
ATOM     27  O   UNL     1     138.521 129.584  89.052  0.00  0.00    -0.126 OA
ATOM     28  O   UNL     1     139.450 130.807  87.477  0.00  0.00    -0.126 OA
ATOM     29  H   UNL     1     138.117 125.669  86.704  0.00  0.00    +0.000 HD
ENDROOT
TORSDOF 0
ENDMDL
