MODEL 1
REMARK VINA RESULT:    -4.877      0.000      0.000
REMARK INTER + INTRA:          -4.877
REMARK INTER:                  -4.877
REMARK INTRA:                   0.000
REMARK UNBOUND:                 0.000
REMARK  Name = /home/vital/Documents/PhD_2021/Malaria_codes/scripts/../data/pdbqt_ligands/ligand_259_temp.pdb
REMARK                            x       y       z     vdW  Elec       q    Type
REMARK                         _______ _______ _______ _____ _____    ______ ____
ROOT
ATOM      1  C1  UNL     1     143.999 127.465 102.128  0.00  0.00    -0.050 C 
ATOM      2  C2  UNL     1     143.216 128.392 103.047  0.00  0.00    +0.009 C 
ATOM      3  N1  UNL     1     143.504 129.787 102.774  0.00  0.00    -0.314 N 
ATOM      4  C3  UNL     1     142.963 130.336 101.622  0.00  0.00    +0.221 A 
ATOM      5  N2  UNL     1     143.693 131.279 101.048  0.00  0.00    -0.181 NA
ATOM      6  C4  UNL     1     143.179 131.814  99.953  0.00  0.00    +0.221 A 
ATOM      7  N3  UNL     1     143.944 132.815  99.360  0.00  0.00    -0.312 N 
ATOM      8  C5  UNL     1     143.856 132.876  97.907  0.00  0.00    +0.031 C 
ATOM      9  C6  UNL     1     144.711 134.017  97.375  0.00  0.00    +0.081 C 
ATOM     10  S1  UNL     1     146.421 133.522  97.274  0.00  0.00    -0.027 S 
ATOM     11  O1  UNL     1     146.536 132.602  96.157  0.00  0.00    -0.174 OA
ATOM     12  O2  UNL     1     146.842 133.106  98.599  0.00  0.00    -0.174 OA
ATOM     13  C7  UNL     1     147.337 135.014  96.846  0.00  0.00    +0.071 C 
ATOM     14  C8  UNL     1     147.328 136.037  97.978  0.00  0.00    -0.043 C 
ATOM     15  C9  UNL     1     146.844 135.631  95.542  0.00  0.00    -0.043 C 
ATOM     16  N4  UNL     1     142.022 131.452  99.416  0.00  0.00    -0.181 NA
ATOM     17  C10 UNL     1     141.360 130.502 100.059  0.00  0.00    +0.221 A 
ATOM     18  N5  UNL     1     140.150 130.154  99.487  0.00  0.00    -0.309 N 
ATOM     19  C11 UNL     1     139.575 128.811  99.601  0.00  0.00    +0.026 C 
ATOM     20  C12 UNL     1     140.560 127.730  99.137  0.00  0.00    -0.044 C 
ATOM     21  C13 UNL     1     139.077 128.533 101.027  0.00  0.00    -0.044 C 
ATOM     22  C14 UNL     1     138.349 128.781  98.664  0.00  0.00    -0.044 C 
ATOM     23  N6  UNL     1     141.798 129.911 101.157  0.00  0.00    -0.181 NA
ATOM     24  H   UNL     1     144.062 130.323 103.383  0.00  0.00    +0.000 HD
ATOM     25  H   UNL     1     144.502 133.436  99.883  0.00  0.00    +0.000 HD
ATOM     26  H   UNL     1     139.654 130.837  98.981  0.00  0.00    +0.000 HD
ENDROOT
TORSDOF 0
ENDMDL
MODEL 2
REMARK VINA RESULT:    -4.441      5.134      8.746
REMARK INTER + INTRA:          -4.441
REMARK INTER:                  -4.441
REMARK INTRA:                   0.000
REMARK UNBOUND:                 0.000
REMARK  Name = /home/vital/Documents/PhD_2021/Malaria_codes/scripts/../data/pdbqt_ligands/ligand_259_temp.pdb
REMARK                            x       y       z     vdW  Elec       q    Type
REMARK                         _______ _______ _______ _____ _____    ______ ____
ROOT
ATOM      1  C1  UNL     1     138.843 127.419  98.083  0.00  0.00    -0.050 C 
ATOM      2  C2  UNL     1     138.530 128.780  98.689  0.00  0.00    +0.009 C 
ATOM      3  N1  UNL     1     138.729 128.786 100.126  0.00  0.00    -0.314 N 
ATOM      4  C3  UNL     1     140.036 128.788 100.588  0.00  0.00    +0.221 A 
ATOM      5  N2  UNL     1     140.231 128.156 101.735  0.00  0.00    -0.181 NA
ATOM      6  C4  UNL     1     141.474 128.161 102.186  0.00  0.00    +0.221 A 
ATOM      7  N3  UNL     1     141.673 127.508 103.400  0.00  0.00    -0.312 N 
ATOM      8  C5  UNL     1     142.967 126.854 103.541  0.00  0.00    +0.031 C 
ATOM      9  C6  UNL     1     143.078 126.196 104.908  0.00  0.00    +0.081 C 
ATOM     10  S1  UNL     1     142.253 124.615 104.911  0.00  0.00    -0.027 S 
ATOM     11  O1  UNL     1     143.076 123.699 104.142  0.00  0.00    -0.174 OA
ATOM     12  O2  UNL     1     140.869 124.835 104.531  0.00  0.00    -0.174 OA
ATOM     13  C7  UNL     1     142.272 124.057 106.624  0.00  0.00    +0.071 C 
ATOM     14  C8  UNL     1     141.390 124.921 107.519  0.00  0.00    -0.043 C 
ATOM     15  C9  UNL     1     143.690 123.960 107.176  0.00  0.00    -0.043 C 
ATOM     16  N4  UNL     1     142.495 128.731 101.562  0.00  0.00    -0.181 NA
ATOM     17  C10 UNL     1     142.206 129.341 100.421  0.00  0.00    +0.221 A 
ATOM     18  N5  UNL     1     143.284 129.940  99.797  0.00  0.00    -0.309 N 
ATOM     19  C11 UNL     1     143.371 130.101  98.344  0.00  0.00    +0.026 C 
ATOM     20  C12 UNL     1     143.179 128.766  97.612  0.00  0.00    -0.044 C 
ATOM     21  C13 UNL     1     142.382 131.160  97.836  0.00  0.00    -0.044 C 
ATOM     22  C14 UNL     1     144.797 130.613  98.047  0.00  0.00    -0.044 C 
ATOM     23  N6  UNL     1     140.994 129.384  99.895  0.00  0.00    -0.181 NA
ATOM     24  H   UNL     1     137.966 128.788 100.748  0.00  0.00    +0.000 HD
ATOM     25  H   UNL     1     140.991 127.489 104.110  0.00  0.00    +0.000 HD
ATOM     26  H   UNL     1     144.025 130.272 100.353  0.00  0.00    +0.000 HD
ENDROOT
TORSDOF 0
ENDMDL
MODEL 3
REMARK VINA RESULT:    -4.433      5.982      9.135
REMARK INTER + INTRA:          -4.433
REMARK INTER:                  -4.433
REMARK INTRA:                   0.000
REMARK UNBOUND:                 0.000
REMARK  Name = /home/vital/Documents/PhD_2021/Malaria_codes/scripts/../data/pdbqt_ligands/ligand_259_temp.pdb
REMARK                            x       y       z     vdW  Elec       q    Type
REMARK                         _______ _______ _______ _____ _____    ______ ____
ROOT
ATOM      1  C1  UNL     1     141.282 129.620  90.012  0.00  0.00    -0.050 C 
ATOM      2  C2  UNL     1     140.464 130.902  89.967  0.00  0.00    +0.009 C 
ATOM      3  N1  UNL     1     140.301 131.482  91.286  0.00  0.00    -0.314 N 
ATOM      4  C3  UNL     1     141.404 132.107  91.848  0.00  0.00    +0.221 A 
ATOM      5  N2  UNL     1     141.486 132.031  93.167  0.00  0.00    -0.181 NA
ATOM      6  C4  UNL     1     142.531 132.632  93.711  0.00  0.00    +0.221 A 
ATOM      7  N3  UNL     1     142.606 132.562  95.100  0.00  0.00    -0.312 N 
ATOM      8  C5  UNL     1     143.958 132.500  95.638  0.00  0.00    +0.031 C 
ATOM      9  C6  UNL     1     143.917 132.449  97.159  0.00  0.00    +0.081 C 
ATOM     10  S1  UNL     1     143.592 130.788  97.720  0.00  0.00    -0.027 S 
ATOM     11  O1  UNL     1     144.799 130.014  97.491  0.00  0.00    -0.174 OA
ATOM     12  O2  UNL     1     142.337 130.357  97.133  0.00  0.00    -0.174 OA
ATOM     13  C7  UNL     1     143.355 130.912  99.502  0.00  0.00    +0.071 C 
ATOM     14  C8  UNL     1     142.076 131.664  99.859  0.00  0.00    -0.043 C 
ATOM     15  C9  UNL     1     144.566 131.522 100.198  0.00  0.00    -0.043 C 
ATOM     16  N4  UNL     1     143.470 133.268  93.024  0.00  0.00    -0.181 NA
ATOM     17  C10 UNL     1     143.304 133.294  91.709  0.00  0.00    +0.221 A 
ATOM     18  N5  UNL     1     144.289 133.975  91.017  0.00  0.00    -0.309 N 
ATOM     19  C11 UNL     1     144.674 133.635  89.646  0.00  0.00    +0.026 C 
ATOM     20  C12 UNL     1     145.047 132.153  89.511  0.00  0.00    -0.044 C 
ATOM     21  C13 UNL     1     143.581 134.026  88.642  0.00  0.00    -0.044 C 
ATOM     22  C14 UNL     1     145.927 134.478  89.324  0.00  0.00    -0.044 C 
ATOM     23  N6  UNL     1     142.294 132.719  91.081  0.00  0.00    -0.181 NA
ATOM     24  H   UNL     1     139.441 131.434  91.764  0.00  0.00    +0.000 HD
ATOM     25  H   UNL     1     141.806 132.554  95.674  0.00  0.00    +0.000 HD
ATOM     26  H   UNL     1     144.750 134.720  91.466  0.00  0.00    +0.000 HD
ENDROOT
TORSDOF 0
ENDMDL
MODEL 4
REMARK VINA RESULT:    -4.304      4.559      6.062
REMARK INTER + INTRA:          -4.304
REMARK INTER:                  -4.304
REMARK INTRA:                   0.000
REMARK UNBOUND:                 0.000
REMARK  Name = /home/vital/Documents/PhD_2021/Malaria_codes/scripts/../data/pdbqt_ligands/ligand_259_temp.pdb
REMARK                            x       y       z     vdW  Elec       q    Type
REMARK                         _______ _______ _______ _____ _____    ______ ____
ROOT
ATOM      1  C1  UNL     1     139.810 128.989  99.909  0.00  0.00    -0.050 C 
ATOM      2  C2  UNL     1     140.752 127.796  99.841  0.00  0.00    +0.009 C 
ATOM      3  N1  UNL     1     141.256 127.585  98.498  0.00  0.00    -0.314 N 
ATOM      4  C3  UNL     1     142.213 128.473  98.030  0.00  0.00    +0.221 A 
ATOM      5  N2  UNL     1     142.178 128.707  96.727  0.00  0.00    -0.181 NA
ATOM      6  C4  UNL     1     143.093 129.546  96.272  0.00  0.00    +0.221 A 
ATOM      7  N3  UNL     1     143.062 129.779  94.900  0.00  0.00    -0.312 N 
ATOM      8  C5  UNL     1     143.452 131.123  94.496  0.00  0.00    +0.031 C 
ATOM      9  C6  UNL     1     143.402 131.254  92.981  0.00  0.00    +0.081 C 
ATOM     10  S1  UNL     1     141.731 131.550  92.434  0.00  0.00    -0.027 S 
ATOM     11  O1  UNL     1     141.395 132.914  92.799  0.00  0.00    -0.174 OA
ATOM     12  O2  UNL     1     140.907 130.453  92.908  0.00  0.00    -0.174 OA
ATOM     13  C7  UNL     1     141.783 131.464  90.635  0.00  0.00    +0.071 C 
ATOM     14  C8  UNL     1     142.076 130.053  90.136  0.00  0.00    -0.043 C 
ATOM     15  C9  UNL     1     142.763 132.472  90.045  0.00  0.00    -0.043 C 
ATOM     16  N4  UNL     1     143.997 130.151  97.031  0.00  0.00    -0.181 NA
ATOM     17  C10 UNL     1     143.957 129.856  98.322  0.00  0.00    +0.221 A 
ATOM     18  N5  UNL     1     144.919 130.488  99.088  0.00  0.00    -0.309 N 
ATOM     19  C11 UNL     1     144.714 130.824 100.499  0.00  0.00    +0.026 C 
ATOM     20  C12 UNL     1     143.436 131.646 100.708  0.00  0.00    -0.044 C 
ATOM     21  C13 UNL     1     144.717 129.567 101.382  0.00  0.00    -0.044 C 
ATOM     22  C14 UNL     1     145.920 131.692 100.920  0.00  0.00    -0.044 C 
ATOM     23  N6  UNL     1     143.077 129.032  98.863  0.00  0.00    -0.181 NA
ATOM     24  H   UNL     1     140.931 126.842  97.940  0.00  0.00    +0.000 HD
ATOM     25  H   UNL     1     142.797 129.088  94.251  0.00  0.00    +0.000 HD
ATOM     26  H   UNL     1     145.777 130.722  98.668  0.00  0.00    +0.000 HD
ENDROOT
TORSDOF 0
ENDMDL
MODEL 5
REMARK VINA RESULT:    -4.296      4.097      7.615
REMARK INTER + INTRA:          -4.296
REMARK INTER:                  -4.296
REMARK INTRA:                   0.000
REMARK UNBOUND:                 0.000
REMARK  Name = /home/vital/Documents/PhD_2021/Malaria_codes/scripts/../data/pdbqt_ligands/ligand_259_temp.pdb
REMARK                            x       y       z     vdW  Elec       q    Type
REMARK                         _______ _______ _______ _____ _____    ______ ____
ROOT
ATOM      1  C1  UNL     1     139.652 128.497  98.521  0.00  0.00    -0.050 C 
ATOM      2  C2  UNL     1     139.089 129.447  99.568  0.00  0.00    +0.009 C 
ATOM      3  N1  UNL     1     139.611 129.159 100.890  0.00  0.00    -0.314 N 
ATOM      4  C3  UNL     1     140.925 129.520 101.148  0.00  0.00    +0.221 A 
ATOM      5  N2  UNL     1     141.571 128.733 101.995  0.00  0.00    -0.181 NA
ATOM      6  C4  UNL     1     142.822 129.076 102.253  0.00  0.00    +0.221 A 
ATOM      7  N3  UNL     1     143.493 128.254 103.155  0.00  0.00    -0.312 N 
ATOM      8  C5  UNL     1     144.920 128.105 102.904  0.00  0.00    +0.031 C 
ATOM      9  C6  UNL     1     145.550 127.208 103.959  0.00  0.00    +0.081 C 
ATOM     10  S1  UNL     1     145.276 125.491 103.565  0.00  0.00    -0.027 S 
ATOM     11  O1  UNL     1     146.134 125.166 102.440  0.00  0.00    -0.174 OA
ATOM     12  O2  UNL     1     143.844 125.280 103.465  0.00  0.00    -0.174 OA
ATOM     13  C7  UNL     1     145.872 124.561 104.990  0.00  0.00    +0.071 C 
ATOM     14  C8  UNL     1     145.005 124.786 106.225  0.00  0.00    -0.043 C 
ATOM     15  C9  UNL     1     147.339 124.851 105.286  0.00  0.00    -0.043 C 
ATOM     16  N4  UNL     1     143.439 130.118 101.714  0.00  0.00    -0.181 NA
ATOM     17  C10 UNL     1     142.714 130.848 100.879  0.00  0.00    +0.221 A 
ATOM     18  N5  UNL     1     143.376 131.937 100.341  0.00  0.00    -0.309 N 
ATOM     19  C11 UNL     1     143.062 132.483  99.019  0.00  0.00    +0.026 C 
ATOM     20  C12 UNL     1     143.122 131.404  97.930  0.00  0.00    -0.044 C 
ATOM     21  C13 UNL     1     141.704 133.200  99.015  0.00  0.00    -0.044 C 
ATOM     22  C14 UNL     1     144.147 133.537  98.714  0.00  0.00    -0.044 C 
ATOM     23  N6  UNL     1     141.460 130.579 100.561  0.00  0.00    -0.181 NA
ATOM     24  H   UNL     1     139.055 128.725 101.576  0.00  0.00    +0.000 HD
ATOM     25  H   UNL     1     143.039 127.809 103.906  0.00  0.00    +0.000 HD
ATOM     26  H   UNL     1     144.088 132.364 100.870  0.00  0.00    +0.000 HD
ENDROOT
TORSDOF 0
ENDMDL
MODEL 6
REMARK VINA RESULT:    -4.244     12.118     14.162
REMARK INTER + INTRA:          -4.244
REMARK INTER:                  -4.244
REMARK INTRA:                   0.000
REMARK UNBOUND:                 0.000
REMARK  Name = /home/vital/Documents/PhD_2021/Malaria_codes/scripts/../data/pdbqt_ligands/ligand_259_temp.pdb
REMARK                            x       y       z     vdW  Elec       q    Type
REMARK                         _______ _______ _______ _____ _____    ______ ____
ROOT
ATOM      1  C1  UNL     1     137.153 121.089  87.627  0.00  0.00    -0.050 C 
ATOM      2  C2  UNL     1     136.625 121.151  89.053  0.00  0.00    +0.009 C 
ATOM      3  N1  UNL     1     137.068 122.351  89.737  0.00  0.00    -0.314 N 
ATOM      4  C3  UNL     1     136.470 123.549  89.375  0.00  0.00    +0.221 A 
ATOM      5  N2  UNL     1     137.249 124.616  89.459  0.00  0.00    -0.181 NA
ATOM      6  C4  UNL     1     136.683 125.764  89.123  0.00  0.00    +0.221 A 
ATOM      7  N3  UNL     1     137.500 126.887  89.226  0.00  0.00    -0.312 N 
ATOM      8  C5  UNL     1     137.243 127.925  88.237  0.00  0.00    +0.031 C 
ATOM      9  C6  UNL     1     138.175 129.107  88.460  0.00  0.00    +0.081 C 
ATOM     10  S1  UNL     1     139.775 128.785  87.740  0.00  0.00    -0.027 S 
ATOM     11  O1  UNL     1     139.623 128.874  86.299  0.00  0.00    -0.174 OA
ATOM     12  O2  UNL     1     140.295 127.568  88.337  0.00  0.00    -0.174 OA
ATOM     13  C7  UNL     1     140.829 130.150  88.261  0.00  0.00    +0.071 C 
ATOM     14  C8  UNL     1     141.102 130.123  89.762  0.00  0.00    -0.043 C 
ATOM     15  C9  UNL     1     140.270 131.500  87.827  0.00  0.00    -0.043 C 
ATOM     16  N4  UNL     1     135.429 125.887  88.709  0.00  0.00    -0.181 NA
ATOM     17  C10 UNL     1     134.726 124.766  88.658  0.00  0.00    +0.221 A 
ATOM     18  N5  UNL     1     133.419 124.923  88.237  0.00  0.00    -0.309 N 
ATOM     19  C11 UNL     1     132.681 123.875  87.527  0.00  0.00    +0.026 C 
ATOM     20  C12 UNL     1     133.442 123.386  86.287  0.00  0.00    -0.044 C 
ATOM     21  C13 UNL     1     132.329 122.707  88.459  0.00  0.00    -0.044 C 
ATOM     22  C14 UNL     1     131.356 124.515  87.059  0.00  0.00    -0.044 C 
ATOM     23  N6  UNL     1     135.210 123.576  88.971  0.00  0.00    -0.181 NA
ATOM     24  H   UNL     1     137.766 122.316  90.431  0.00  0.00    +0.000 HD
ATOM     25  H   UNL     1     138.198 126.972  89.914  0.00  0.00    +0.000 HD
ATOM     26  H   UNL     1     132.963 125.776  88.422  0.00  0.00    +0.000 HD
ENDROOT
TORSDOF 0
ENDMDL
MODEL 7
REMARK VINA RESULT:    -4.126      6.463      9.549
REMARK INTER + INTRA:          -4.126
REMARK INTER:                  -4.126
REMARK INTRA:                   0.000
REMARK UNBOUND:                 0.000
REMARK  Name = /home/vital/Documents/PhD_2021/Malaria_codes/scripts/../data/pdbqt_ligands/ligand_259_temp.pdb
REMARK                            x       y       z     vdW  Elec       q    Type
REMARK                         _______ _______ _______ _____ _____    ______ ____
ROOT
ATOM      1  C1  UNL     1     138.190 128.588  98.894  0.00  0.00    -0.050 C 
ATOM      2  C2  UNL     1     139.253 129.644  99.159  0.00  0.00    +0.009 C 
ATOM      3  N1  UNL     1     139.835 129.500 100.479  0.00  0.00    -0.314 N 
ATOM      4  C3  UNL     1     140.716 128.446 100.676  0.00  0.00    +0.221 A 
ATOM      5  N2  UNL     1     140.714 127.928 101.894  0.00  0.00    -0.181 NA
ATOM      6  C4  UNL     1     141.557 126.928 102.091  0.00  0.00    +0.221 A 
ATOM      7  N3  UNL     1     141.564 126.396 103.378  0.00  0.00    -0.312 N 
ATOM      8  C5  UNL     1     141.830 124.965 103.448  0.00  0.00    +0.031 C 
ATOM      9  C6  UNL     1     141.834 124.501 104.898  0.00  0.00    +0.081 C 
ATOM     10  S1  UNL     1     140.168 124.243 105.476  0.00  0.00    -0.027 S 
ATOM     11  O1  UNL     1     139.676 123.033 104.844  0.00  0.00    -0.174 OA
ATOM     12  O2  UNL     1     139.442 125.490 105.312  0.00  0.00    -0.174 OA
ATOM     13  C7  UNL     1     140.309 123.916 107.243  0.00  0.00    +0.071 C 
ATOM     14  C8  UNL     1     140.770 125.146 108.019  0.00  0.00    -0.043 C 
ATOM     15  C9  UNL     1     141.204 122.716 107.530  0.00  0.00    -0.043 C 
ATOM     16  N4  UNL     1     142.358 126.430 101.159  0.00  0.00    -0.181 NA
ATOM     17  C10 UNL     1     142.292 127.011  99.971  0.00  0.00    +0.221 A 
ATOM     18  N5  UNL     1     143.147 126.483  99.021  0.00  0.00    -0.309 N 
ATOM     19  C11 UNL     1     142.846 126.494  97.588  0.00  0.00    +0.026 C 
ATOM     20  C12 UNL     1     141.481 125.860  97.290  0.00  0.00    -0.044 C 
ATOM     21  C13 UNL     1     142.939 127.911  97.005  0.00  0.00    -0.044 C 
ATOM     22  C14 UNL     1     143.934 125.637  96.907  0.00  0.00    -0.044 C 
ATOM     23  N6  UNL     1     141.479 128.013  99.684  0.00  0.00    -0.181 NA
ATOM     24  H   UNL     1     139.615 130.125 101.207  0.00  0.00    +0.000 HD
ATOM     25  H   UNL     1     141.401 126.944 104.179  0.00  0.00    +0.000 HD
ATOM     26  H   UNL     1     143.995 126.083  99.322  0.00  0.00    +0.000 HD
ENDROOT
TORSDOF 0
ENDMDL
MODEL 8
REMARK VINA RESULT:    -3.898      3.209      4.105
REMARK INTER + INTRA:          -3.898
REMARK INTER:                  -3.898
REMARK INTRA:                   0.000
REMARK UNBOUND:                 0.000
REMARK  Name = /home/vital/Documents/PhD_2021/Malaria_codes/scripts/../data/pdbqt_ligands/ligand_259_temp.pdb
REMARK                            x       y       z     vdW  Elec       q    Type
REMARK                         _______ _______ _______ _____ _____    ______ ____
ROOT
ATOM      1  C1  UNL     1     141.020 125.401  96.649  0.00  0.00    -0.050 C 
ATOM      2  C2  UNL     1     142.062 125.292  97.752  0.00  0.00    +0.009 C 
ATOM      3  N1  UNL     1     143.170 126.203  97.536  0.00  0.00    -0.314 N 
ATOM      4  C3  UNL     1     142.942 127.551  97.771  0.00  0.00    +0.221 A 
ATOM      5  N2  UNL     1     143.627 128.382  97.002  0.00  0.00    -0.181 NA
ATOM      6  C4  UNL     1     143.421 129.670  97.226  0.00  0.00    +0.221 A 
ATOM      7  N3  UNL     1     144.154 130.541  96.425  0.00  0.00    -0.312 N 
ATOM      8  C5  UNL     1     143.476 131.787  96.093  0.00  0.00    +0.031 C 
ATOM      9  C6  UNL     1     144.376 132.665  95.237  0.00  0.00    +0.081 C 
ATOM     10  S1  UNL     1     144.314 132.149  93.531  0.00  0.00    -0.027 S 
ATOM     11  O1  UNL     1     143.023 132.556  93.007  0.00  0.00    -0.174 OA
ATOM     12  O2  UNL     1     144.710 130.754  93.474  0.00  0.00    -0.174 OA
ATOM     13  C7  UNL     1     145.576 133.117  92.682  0.00  0.00    +0.071 C 
ATOM     14  C8  UNL     1     146.985 132.731  93.120  0.00  0.00    -0.043 C 
ATOM     15  C9  UNL     1     145.342 134.616  92.833  0.00  0.00    -0.043 C 
ATOM     16  N4  UNL     1     142.582 130.146  98.136  0.00  0.00    -0.181 NA
ATOM     17  C10 UNL     1     141.941 129.240  98.860  0.00  0.00    +0.221 A 
ATOM     18  N5  UNL     1     141.084 129.762  99.811  0.00  0.00    -0.309 N 
ATOM     19  C11 UNL     1     139.876 129.066 100.259  0.00  0.00    +0.026 C 
ATOM     20  C12 UNL     1     138.973 128.679  99.081  0.00  0.00    -0.044 C 
ATOM     21  C13 UNL     1     140.221 127.842 101.120  0.00  0.00    -0.044 C 
ATOM     22  C14 UNL     1     139.105 130.062 101.151  0.00  0.00    -0.044 C 
ATOM     23  N6  UNL     1     142.083 127.935  98.703  0.00  0.00    -0.181 NA
ATOM     24  H   UNL     1     144.049 125.878  97.235  0.00  0.00    +0.000 HD
ATOM     25  H   UNL     1     145.062 130.332  96.107  0.00  0.00    +0.000 HD
ATOM     26  H   UNL     1     141.295 130.640 100.204  0.00  0.00    +0.000 HD
ENDROOT
TORSDOF 0
ENDMDL
