MODEL 1
REMARK VINA RESULT:    -3.848      0.000      0.000
REMARK INTER + INTRA:          -3.848
REMARK INTER:                  -3.848
REMARK INTRA:                   0.000
REMARK UNBOUND:                 0.000
REMARK  Name = /home/vital/Documents/PhD_2021/Malaria_codes/scripts/../data/pdbqt_ligands/ligand_312_temp.pdb
REMARK                            x       y       z     vdW  Elec       q    Type
REMARK                         _______ _______ _______ _____ _____    ______ ____
ROOT
ATOM      1  P1  UNL     1     141.074 122.240 108.993  0.00  0.00    -0.113 P 
ATOM      2  C1  UNL     1     139.961 123.442 108.139  0.00  0.00    -0.066 C 
ATOM      3  C2  UNL     1     140.352 124.409 107.294  0.00  0.00    -0.062 C 
ATOM      4  C3  UNL     1     141.697 124.727 106.869  0.00  0.00    -0.065 C 
ATOM      5  C4  UNL     1     142.053 125.699 106.013  0.00  0.00    -0.079 C 
ATOM      6  C5  UNL     1     141.180 126.695 105.307  0.00  0.00    +0.001 C 
ATOM      7  C6  UNL     1     141.103 126.290 103.857  0.00  0.00    +0.004 C 
ATOM      8  N1  UNL     1     141.738 126.954 102.953  0.00  0.00    -0.291 NA
ATOM      9  C7  UNL     1     141.579 126.436 101.592  0.00  0.00    +0.061 C 
ATOM     10  C8  UNL     1     140.597 127.243 100.813  0.00  0.00    -0.043 C 
ATOM     11  C9  UNL     1     139.904 128.341 101.165  0.00  0.00    -0.059 C 
ATOM     12  C10 UNL     1     139.076 128.769 100.065  0.00  0.00    -0.047 C 
ATOM     13  C11 UNL     1     139.264 127.934  99.037  0.00  0.00    +0.023 C 
ATOM     14 CL1  UNL     1     138.522 128.007  97.517  0.00  0.00    -0.088 Cl
ATOM     15  C12 UNL     1     140.253 126.869  99.391  0.00  0.00    +0.006 C 
ATOM     16  H   UNL     1     140.320 121.395 109.782  0.00  0.00    +0.000 HD
ATOM     17  H   UNL     1     141.972 122.927 109.785  0.00  0.00    +0.000 HD
ENDROOT
TORSDOF 0
ENDMDL
MODEL 2
REMARK VINA RESULT:    -3.750      7.982     11.448
REMARK INTER + INTRA:          -3.750
REMARK INTER:                  -3.750
REMARK INTRA:                   0.000
REMARK UNBOUND:                 0.000
REMARK  Name = /home/vital/Documents/PhD_2021/Malaria_codes/scripts/../data/pdbqt_ligands/ligand_312_temp.pdb
REMARK                            x       y       z     vdW  Elec       q    Type
REMARK                         _______ _______ _______ _____ _____    ______ ____
ROOT
ATOM      1  P1  UNL     1     143.369 129.541  88.741  0.00  0.00    -0.113 P 
ATOM      2  C1  UNL     1     141.833 129.744  89.748  0.00  0.00    -0.066 C 
ATOM      3  C2  UNL     1     141.423 128.922  90.726  0.00  0.00    -0.062 C 
ATOM      4  C3  UNL     1     142.068 127.720  91.206  0.00  0.00    -0.065 C 
ATOM      5  C4  UNL     1     141.632 126.923  92.196  0.00  0.00    -0.079 C 
ATOM      6  C5  UNL     1     140.391 127.053  93.028  0.00  0.00    +0.001 C 
ATOM      7  C6  UNL     1     140.807 127.505  94.405  0.00  0.00    +0.004 C 
ATOM      8  N1  UNL     1     140.789 126.688  95.400  0.00  0.00    -0.291 NA
ATOM      9  C7  UNL     1     141.233 127.266  96.672  0.00  0.00    +0.061 C 
ATOM     10  C8  UNL     1     140.076 127.605  97.549  0.00  0.00    -0.043 C 
ATOM     11  C9  UNL     1     138.757 127.428  97.351  0.00  0.00    -0.059 C 
ATOM     12  C10 UNL     1     138.023 127.914  98.493  0.00  0.00    -0.047 C 
ATOM     13  C11 UNL     1     138.893 128.386  99.392  0.00  0.00    +0.023 C 
ATOM     14 CL1  UNL     1     138.531 129.066 100.901  0.00  0.00    -0.088 Cl
ATOM     15  C12 UNL     1     140.299 128.243  98.899  0.00  0.00    +0.006 C 
ATOM     16  H   UNL     1     143.463 130.575  87.831  0.00  0.00    +0.000 HD
ATOM     17  H   UNL     1     143.320 128.339  88.065  0.00  0.00    +0.000 HD
ENDROOT
TORSDOF 0
ENDMDL
MODEL 3
REMARK VINA RESULT:    -3.739      2.929      3.098
REMARK INTER + INTRA:          -3.739
REMARK INTER:                  -3.739
REMARK INTRA:                   0.000
REMARK UNBOUND:                 0.000
REMARK  Name = /home/vital/Documents/PhD_2021/Malaria_codes/scripts/../data/pdbqt_ligands/ligand_312_temp.pdb
REMARK                            x       y       z     vdW  Elec       q    Type
REMARK                         _______ _______ _______ _____ _____    ______ ____
ROOT
ATOM      1  P1  UNL     1     146.683 123.527 106.357  0.00  0.00    -0.113 P 
ATOM      2  C1  UNL     1     144.913 124.039 106.230  0.00  0.00    -0.066 C 
ATOM      3  C2  UNL     1     144.454 125.123 105.586  0.00  0.00    -0.062 C 
ATOM      4  C3  UNL     1     145.217 126.116 104.862  0.00  0.00    -0.065 C 
ATOM      5  C4  UNL     1     144.723 127.188 104.221  0.00  0.00    -0.079 C 
ATOM      6  C5  UNL     1     143.296 127.637 104.102  0.00  0.00    +0.001 C 
ATOM      7  C6  UNL     1     142.840 127.348 102.694  0.00  0.00    +0.004 C 
ATOM      8  N1  UNL     1     142.689 128.303 101.842  0.00  0.00    -0.291 NA
ATOM      9  C7  UNL     1     142.254 127.870 100.512  0.00  0.00    +0.061 C 
ATOM     10  C8  UNL     1     140.796 128.106 100.312  0.00  0.00    -0.043 C 
ATOM     11  C9  UNL     1     139.887 128.664 101.132  0.00  0.00    -0.059 C 
ATOM     12  C10 UNL     1     138.595 128.677 100.492  0.00  0.00    -0.047 C 
ATOM     13  C11 UNL     1     138.713 128.129  99.278  0.00  0.00    +0.023 C 
ATOM     14 CL1  UNL     1     137.482 127.912  98.135  0.00  0.00    -0.088 Cl
ATOM     15  C12 UNL     1     140.124 127.705  99.020  0.00  0.00    +0.006 C 
ATOM     16  H   UNL     1     146.775 122.364 107.094  0.00  0.00    +0.000 HD
ATOM     17  H   UNL     1     147.407 124.523 106.980  0.00  0.00    +0.000 HD
ENDROOT
TORSDOF 0
ENDMDL
MODEL 4
REMARK VINA RESULT:    -3.508     13.318     16.273
REMARK INTER + INTRA:          -3.508
REMARK INTER:                  -3.508
REMARK INTRA:                   0.000
REMARK UNBOUND:                 0.000
REMARK  Name = /home/vital/Documents/PhD_2021/Malaria_codes/scripts/../data/pdbqt_ligands/ligand_312_temp.pdb
REMARK                            x       y       z     vdW  Elec       q    Type
REMARK                         _______ _______ _______ _____ _____    ______ ____
ROOT
ATOM      1  P1  UNL     1     141.735 124.663  91.824  0.00  0.00    -0.113 P 
ATOM      2  C1  UNL     1     140.044 123.949  92.036  0.00  0.00    -0.066 C 
ATOM      3  C2  UNL     1     138.932 124.370  91.415  0.00  0.00    -0.062 C 
ATOM      4  C3  UNL     1     138.800 125.451  90.463  0.00  0.00    -0.065 C 
ATOM      5  C4  UNL     1     137.669 125.842  89.853  0.00  0.00    -0.079 C 
ATOM      6  C5  UNL     1     136.281 125.292  90.005  0.00  0.00    +0.001 C 
ATOM      7  C6  UNL     1     135.959 124.509  88.757  0.00  0.00    +0.004 C 
ATOM      8  N1  UNL     1     135.141 124.978  87.879  0.00  0.00    -0.291 NA
ATOM      9  C7  UNL     1     134.936 124.113  86.714  0.00  0.00    +0.061 C 
ATOM     10  C8  UNL     1     133.651 123.364  86.811  0.00  0.00    -0.043 C 
ATOM     11  C9  UNL     1     132.694 123.401  87.756  0.00  0.00    -0.059 C 
ATOM     12  C10 UNL     1     131.628 122.495  87.408  0.00  0.00    -0.047 C 
ATOM     13  C11 UNL     1     131.931 121.903  86.248  0.00  0.00    +0.023 C 
ATOM     14 CL1  UNL     1     131.002 120.755  85.418  0.00  0.00    -0.088 Cl
ATOM     15  C12 UNL     1     133.249 122.387  85.732  0.00  0.00    +0.006 C 
ATOM     16  H   UNL     1     142.628 123.975  92.621  0.00  0.00    +0.000 HD
ATOM     17  H   UNL     1     141.722 125.993  92.191  0.00  0.00    +0.000 HD
ENDROOT
TORSDOF 0
ENDMDL
MODEL 5
REMARK VINA RESULT:    -3.475      5.139      7.938
REMARK INTER + INTRA:          -3.475
REMARK INTER:                  -3.475
REMARK INTRA:                   0.000
REMARK UNBOUND:                 0.000
REMARK  Name = /home/vital/Documents/PhD_2021/Malaria_codes/scripts/../data/pdbqt_ligands/ligand_312_temp.pdb
REMARK                            x       y       z     vdW  Elec       q    Type
REMARK                         _______ _______ _______ _____ _____    ______ ____
ROOT
ATOM      1  P1  UNL     1     142.624 132.572  98.748  0.00  0.00    -0.113 P 
ATOM      2  C1  UNL     1     141.284 131.921  99.841  0.00  0.00    -0.066 C 
ATOM      3  C2  UNL     1     141.057 130.628 100.117  0.00  0.00    -0.062 C 
ATOM      4  C3  UNL     1     141.785 129.474  99.637  0.00  0.00    -0.065 C 
ATOM      5  C4  UNL     1     141.534 128.190  99.941  0.00  0.00    -0.079 C 
ATOM      6  C5  UNL     1     140.455 127.626 100.817  0.00  0.00    +0.001 C 
ATOM      7  C6  UNL     1     141.099 127.165 102.100  0.00  0.00    +0.004 C 
ATOM      8  N1  UNL     1     141.261 125.910 102.341  0.00  0.00    -0.291 NA
ATOM      9  C7  UNL     1     141.913 125.615 103.620  0.00  0.00    +0.061 C 
ATOM     10  C8  UNL     1     140.922 125.195 104.652  0.00  0.00    -0.043 C 
ATOM     11  C9  UNL     1     139.591 125.028 104.559  0.00  0.00    -0.059 C 
ATOM     12  C10 UNL     1     139.061 124.605 105.831  0.00  0.00    -0.047 C 
ATOM     13  C11 UNL     1     140.070 124.510 106.704  0.00  0.00    +0.023 C 
ATOM     14 CL1  UNL     1     139.968 124.052 108.332  0.00  0.00    -0.088 Cl
ATOM     15  C12 UNL     1     141.370 124.871 106.058  0.00  0.00    +0.006 C 
ATOM     16  H   UNL     1     142.551 133.949  98.700  0.00  0.00    +0.000 HD
ATOM     17  H   UNL     1     142.470 132.059  97.476  0.00  0.00    +0.000 HD
ENDROOT
TORSDOF 0
ENDMDL
MODEL 6
REMARK VINA RESULT:    -3.366      2.768      3.270
REMARK INTER + INTRA:          -3.366
REMARK INTER:                  -3.366
REMARK INTRA:                   0.000
REMARK UNBOUND:                 0.000
REMARK  Name = /home/vital/Documents/PhD_2021/Malaria_codes/scripts/../data/pdbqt_ligands/ligand_312_temp.pdb
REMARK                            x       y       z     vdW  Elec       q    Type
REMARK                         _______ _______ _______ _____ _____    ______ ____
ROOT
ATOM      1  P1  UNL     1     139.285 123.112 107.131  0.00  0.00    -0.113 P 
ATOM      2  C1  UNL     1     140.362 124.582 106.829  0.00  0.00    -0.066 C 
ATOM      3  C2  UNL     1     140.853 124.964 105.640  0.00  0.00    -0.062 C 
ATOM      4  C3  UNL     1     140.660 124.331 104.354  0.00  0.00    -0.065 C 
ATOM      5  C4  UNL     1     141.161 124.746 103.179  0.00  0.00    -0.079 C 
ATOM      6  C5  UNL     1     142.041 125.927 102.898  0.00  0.00    +0.001 C 
ATOM      7  C6  UNL     1     141.201 126.973 102.211  0.00  0.00    +0.004 C 
ATOM      8  N1  UNL     1     141.336 127.203 100.950  0.00  0.00    -0.291 NA
ATOM      9  C7  UNL     1     140.443 128.237 100.420  0.00  0.00    +0.061 C 
ATOM     10  C8  UNL     1     141.155 129.534 100.244  0.00  0.00    -0.043 C 
ATOM     11  C9  UNL     1     142.444 129.853 100.463  0.00  0.00    -0.059 C 
ATOM     12  C10 UNL     1     142.664 131.241 100.143  0.00  0.00    -0.047 C 
ATOM     13  C11 UNL     1     141.511 131.773  99.725  0.00  0.00    +0.023 C 
ATOM     14 CL1  UNL     1     141.246 133.372  99.233  0.00  0.00    -0.088 Cl
ATOM     15  C12 UNL     1     140.418 130.751  99.738  0.00  0.00    +0.006 C 
ATOM     16  H   UNL     1     138.976 123.035 108.474  0.00  0.00    +0.000 HD
ATOM     17  H   UNL     1     139.951 121.966 106.747  0.00  0.00    +0.000 HD
ENDROOT
TORSDOF 0
ENDMDL
MODEL 7
REMARK VINA RESULT:    -3.309      8.099     11.038
REMARK INTER + INTRA:          -3.309
REMARK INTER:                  -3.309
REMARK INTRA:                   0.000
REMARK UNBOUND:                 0.000
REMARK  Name = /home/vital/Documents/PhD_2021/Malaria_codes/scripts/../data/pdbqt_ligands/ligand_312_temp.pdb
REMARK                            x       y       z     vdW  Elec       q    Type
REMARK                         _______ _______ _______ _____ _____    ______ ____
ROOT
ATOM      1  P1  UNL     1     145.398 134.634  91.726  0.00  0.00    -0.113 P 
ATOM      2  C1  UNL     1     144.768 132.993  92.296  0.00  0.00    -0.066 C 
ATOM      3  C2  UNL     1     144.755 132.555  93.564  0.00  0.00    -0.062 C 
ATOM      4  C3  UNL     1     145.218 133.246  94.748  0.00  0.00    -0.065 C 
ATOM      5  C4  UNL     1     145.183 132.779  96.007  0.00  0.00    -0.079 C 
ATOM      6  C5  UNL     1     144.685 131.454  96.505  0.00  0.00    +0.001 C 
ATOM      7  C6  UNL     1     143.372 131.690  97.206  0.00  0.00    +0.004 C 
ATOM      8  N1  UNL     1     143.293 131.640  98.491  0.00  0.00    -0.291 NA
ATOM      9  C7  UNL     1     141.956 131.904  99.031  0.00  0.00    +0.061 C 
ATOM     10  C8  UNL     1     141.267 130.640  99.418  0.00  0.00    -0.043 C 
ATOM     11  C9  UNL     1     141.699 129.367  99.373  0.00  0.00    -0.059 C 
ATOM     12  C10 UNL     1     140.669 128.484  99.861  0.00  0.00    -0.047 C 
ATOM     13  C11 UNL     1     139.606 129.217 100.208  0.00  0.00    +0.023 C 
ATOM     14 CL1  UNL     1     138.140 128.649 100.837  0.00  0.00    -0.088 Cl
ATOM     15  C12 UNL     1     139.862 130.672  99.970  0.00  0.00    +0.006 C 
ATOM     16  H   UNL     1     145.251 134.733  90.358  0.00  0.00    +0.000 HD
ATOM     17  H   UNL     1     146.733 134.753  92.055  0.00  0.00    +0.000 HD
ENDROOT
TORSDOF 0
ENDMDL
MODEL 8
REMARK VINA RESULT:    -3.295      7.628      9.682
REMARK INTER + INTRA:          -3.295
REMARK INTER:                  -3.295
REMARK INTRA:                   0.000
REMARK UNBOUND:                 0.000
REMARK  Name = /home/vital/Documents/PhD_2021/Malaria_codes/scripts/../data/pdbqt_ligands/ligand_312_temp.pdb
REMARK                            x       y       z     vdW  Elec       q    Type
REMARK                         _______ _______ _______ _____ _____    ______ ____
ROOT
ATOM      1  P1  UNL     1     147.100 136.317  96.884  0.00  0.00    -0.113 P 
ATOM      2  C1  UNL     1     146.453 134.714  96.231  0.00  0.00    -0.066 C 
ATOM      3  C2  UNL     1     145.981 133.699  96.972  0.00  0.00    -0.062 C 
ATOM      4  C3  UNL     1     145.871 133.625  98.412  0.00  0.00    -0.065 C 
ATOM      5  C4  UNL     1     145.384 132.594  99.122  0.00  0.00    -0.079 C 
ATOM      6  C5  UNL     1     144.858 131.279  98.628  0.00  0.00    +0.001 C 
ATOM      7  C6  UNL     1     143.358 131.297  98.782  0.00  0.00    +0.004 C 
ATOM      8  N1  UNL     1     142.783 130.613  99.709  0.00  0.00    -0.291 NA
ATOM      9  C7  UNL     1     141.323 130.740  99.744  0.00  0.00    +0.061 C 
ATOM     10  C8  UNL     1     140.659 129.558  99.124  0.00  0.00    -0.043 C 
ATOM     11  C9  UNL     1     141.192 128.440  98.598  0.00  0.00    -0.059 C 
ATOM     12  C10 UNL     1     140.141 127.576  98.121  0.00  0.00    -0.047 C 
ATOM     13  C11 UNL     1     138.963 128.164  98.356  0.00  0.00    +0.023 C 
ATOM     14 CL1  UNL     1     137.428 127.555  97.980  0.00  0.00    -0.088 Cl
ATOM     15  C12 UNL     1     139.154 129.490  99.022  0.00  0.00    +0.006 C 
ATOM     16  H   UNL     1     147.498 137.116  95.831  0.00  0.00    +0.000 HD
ATOM     17  H   UNL     1     148.178 136.076  97.711  0.00  0.00    +0.000 HD
ENDROOT
TORSDOF 0
ENDMDL
MODEL 9
REMARK VINA RESULT:    -2.994      3.488      3.658
REMARK INTER + INTRA:          -2.994
REMARK INTER:                  -2.994
REMARK INTRA:                   0.000
REMARK UNBOUND:                 0.000
REMARK  Name = /home/vital/Documents/PhD_2021/Malaria_codes/scripts/../data/pdbqt_ligands/ligand_312_temp.pdb
REMARK                            x       y       z     vdW  Elec       q    Type
REMARK                         _______ _______ _______ _____ _____    ______ ____
ROOT
ATOM      1  P1  UNL     1     137.765 122.247 105.789  0.00  0.00    -0.113 P 
ATOM      2  C1  UNL     1     137.746 123.975 105.136  0.00  0.00    -0.066 C 
ATOM      3  C2  UNL     1     138.784 124.825 105.137  0.00  0.00    -0.062 C 
ATOM      4  C3  UNL     1     140.122 124.595 105.637  0.00  0.00    -0.065 C 
ATOM      5  C4  UNL     1     141.142 125.469 105.615  0.00  0.00    -0.079 C 
ATOM      6  C5  UNL     1     141.161 126.877 105.099  0.00  0.00    +0.001 C 
ATOM      7  C6  UNL     1     141.933 126.882 103.804  0.00  0.00    +0.004 C 
ATOM      8  N1  UNL     1     143.122 127.374 103.748  0.00  0.00    -0.291 NA
ATOM      9  C7  UNL     1     143.752 127.297 102.427  0.00  0.00    +0.061 C 
ATOM     10  C8  UNL     1     143.694 128.607 101.719  0.00  0.00    -0.043 C 
ATOM     11  C9  UNL     1     143.200 129.791 102.124  0.00  0.00    -0.059 C 
ATOM     12  C10 UNL     1     143.377 130.775 101.085  0.00  0.00    -0.047 C 
ATOM     13  C11 UNL     1     143.983 130.194 100.044  0.00  0.00    +0.023 C 
ATOM     14 CL1  UNL     1     144.411 130.926  98.578  0.00  0.00    -0.088 Cl
ATOM     15  C12 UNL     1     144.258 128.751 100.325  0.00  0.00    +0.006 C 
ATOM     16  H   UNL     1     136.520 121.676 105.619  0.00  0.00    +0.000 HD
ATOM     17  H   UNL     1     138.082 122.266 107.132  0.00  0.00    +0.000 HD
ENDROOT
TORSDOF 0
ENDMDL
