MODEL 1
REMARK VINA RESULT:    -5.090      0.000      0.000
REMARK INTER + INTRA:          -5.090
REMARK INTER:                  -5.090
REMARK INTRA:                   0.000
REMARK UNBOUND:                 0.000
REMARK  Name = /home/vital/Documents/PhD_2021/Malaria_codes/scripts/../data/pdbqt_ligands/ligand_281_temp.pdb
REMARK                            x       y       z     vdW  Elec       q    Type
REMARK                         _______ _______ _______ _____ _____    ______ ____
ROOT
ATOM      1  O   UNL     1     142.408 132.652  95.100  0.00  0.00    -0.394 OA
ATOM      2  C   UNL     1     143.245 131.562  95.483  0.00  0.00    +0.058 C 
ATOM      3  C   UNL     1     143.979 131.760  96.811  0.00  0.00    +0.065 C 
ATOM      4  C   UNL     1     142.997 131.867  98.010  0.00  0.00    +0.108 C 
ATOM      5  N   UNL     1     142.155 130.829  98.390  0.00  0.00    -0.312 N 
ATOM      6  C   UNL     1     142.615 129.441  98.280  0.00  0.00    +0.033 C 
ATOM      7  C   UNL     1     141.466 128.490  98.422  0.00  0.00    -0.051 C 
ATOM      8  C   UNL     1     140.267 128.834  98.914  0.00  0.00    +0.035 C 
ATOM      9 CL   UNL     1     138.977 127.680  98.885  0.00  0.00    -0.087 Cl
ATOM     10  C   UNL     1     139.964 130.220  99.420  0.00  0.00    +0.085 C 
ATOM     11 CL   UNL     1     139.163 130.181 101.024  0.00  0.00    -0.114 Cl
ATOM     12  C   UNL     1     141.246 131.065  99.535  0.00  0.00    +0.035 C 
ATOM     13  N   UNL     1     143.041 133.032  98.603  0.00  0.00    -0.236 N 
ATOM     14  C   UNL     1     144.052 133.777  97.979  0.00  0.00    +0.070 A 
ATOM     15  C   UNL     1     144.463 135.050  98.322  0.00  0.00    -0.036 A 
ATOM     16  C   UNL     1     145.500 135.632  97.588  0.00  0.00    -0.060 A 
ATOM     17  C   UNL     1     146.107 134.936  96.529  0.00  0.00    -0.061 A 
ATOM     18  C   UNL     1     145.685 133.648  96.189  0.00  0.00    -0.056 A 
ATOM     19  C   UNL     1     144.658 133.089  96.927  0.00  0.00    -0.010 A 
ATOM     20  H   UNL     1     141.981 132.450  94.253  0.00  0.00    +0.000 HD
ATOM     21  H   UNL     1     142.471 133.329  99.348  0.00  0.00    +0.000 HD
ENDROOT
TORSDOF 0
ENDMDL
MODEL 2
REMARK VINA RESULT:    -4.834      3.418      6.388
REMARK INTER + INTRA:          -4.834
REMARK INTER:                  -4.834
REMARK INTRA:                   0.000
REMARK UNBOUND:                 0.000
REMARK  Name = /home/vital/Documents/PhD_2021/Malaria_codes/scripts/../data/pdbqt_ligands/ligand_281_temp.pdb
REMARK                            x       y       z     vdW  Elec       q    Type
REMARK                         _______ _______ _______ _____ _____    ______ ____
ROOT
ATOM      1  O   UNL     1     143.638 128.834  99.685  0.00  0.00    -0.394 OA
ATOM      2  C   UNL     1     143.221 128.973  98.328  0.00  0.00    +0.058 C 
ATOM      3  C   UNL     1     141.944 129.795  98.137  0.00  0.00    +0.065 C 
ATOM      4  C   UNL     1     142.128 131.271  98.585  0.00  0.00    +0.108 C 
ATOM      5  N   UNL     1     143.027 132.138  97.976  0.00  0.00    -0.312 N 
ATOM      6  C   UNL     1     143.255 132.053  96.529  0.00  0.00    +0.033 C 
ATOM      7  C   UNL     1     144.474 132.831  96.139  0.00  0.00    -0.051 C 
ATOM      8  C   UNL     1     145.065 133.741  96.928  0.00  0.00    +0.035 C 
ATOM      9 CL   UNL     1     146.556 134.460  96.421  0.00  0.00    -0.087 Cl
ATOM     10  C   UNL     1     144.530 134.108  98.287  0.00  0.00    +0.085 C 
ATOM     11 CL   UNL     1     144.438 135.884  98.508  0.00  0.00    -0.114 Cl
ATOM     12  C   UNL     1     143.127 133.514  98.513  0.00  0.00    +0.035 C 
ATOM     13  N   UNL     1     141.363 131.597  99.594  0.00  0.00    -0.236 N 
ATOM     14  C   UNL     1     140.556 130.485  99.878  0.00  0.00    +0.070 A 
ATOM     15  C   UNL     1     139.573 130.411 100.846  0.00  0.00    -0.036 A 
ATOM     16  C   UNL     1     138.861 129.215 100.977  0.00  0.00    -0.060 A 
ATOM     17  C   UNL     1     139.142 128.120 100.144  0.00  0.00    -0.061 A 
ATOM     18  C   UNL     1     140.138 128.203  99.168  0.00  0.00    -0.056 A 
ATOM     19  C   UNL     1     140.831 129.394  99.053  0.00  0.00    -0.010 A 
ATOM     20  H   UNL     1     144.449 128.304  99.721  0.00  0.00    +0.000 HD
ATOM     21  H   UNL     1     141.354 132.461 100.066  0.00  0.00    +0.000 HD
ENDROOT
TORSDOF 0
ENDMDL
MODEL 3
REMARK VINA RESULT:    -4.811      4.761      6.053
REMARK INTER + INTRA:          -4.811
REMARK INTER:                  -4.811
REMARK INTRA:                   0.000
REMARK UNBOUND:                 0.000
REMARK  Name = /home/vital/Documents/PhD_2021/Malaria_codes/scripts/../data/pdbqt_ligands/ligand_281_temp.pdb
REMARK                            x       y       z     vdW  Elec       q    Type
REMARK                         _______ _______ _______ _____ _____    ______ ____
ROOT
ATOM      1  O   UNL     1     139.166 129.933 101.953  0.00  0.00    -0.394 OA
ATOM      2  C   UNL     1     139.444 128.876 101.036  0.00  0.00    +0.058 C 
ATOM      3  C   UNL     1     140.903 128.796 100.580  0.00  0.00    +0.065 C 
ATOM      4  C   UNL     1     141.864 128.480 101.758  0.00  0.00    +0.108 C 
ATOM      5  N   UNL     1     141.807 127.296 102.483  0.00  0.00    -0.312 N 
ATOM      6  C   UNL     1     141.468 126.041 101.802  0.00  0.00    +0.033 C 
ATOM      7  C   UNL     1     141.142 124.970 102.797  0.00  0.00    -0.051 C 
ATOM      8  C   UNL     1     141.446 125.045 104.102  0.00  0.00    +0.035 C 
ATOM      9 CL   UNL     1     140.879 123.809 105.174  0.00  0.00    -0.087 Cl
ATOM     10  C   UNL     1     142.192 126.209 104.698  0.00  0.00    +0.085 C 
ATOM     11 CL   UNL     1     143.542 125.667 105.746  0.00  0.00    -0.114 Cl
ATOM     12  C   UNL     1     142.764 127.125 103.600  0.00  0.00    +0.035 C 
ATOM     13  N   UNL     1     142.713 129.446 101.997  0.00  0.00    -0.236 N 
ATOM     14  C   UNL     1     142.504 130.431 101.021  0.00  0.00    +0.070 A 
ATOM     15  C   UNL     1     143.216 131.606 100.876  0.00  0.00    -0.036 A 
ATOM     16  C   UNL     1     142.869 132.467  99.831  0.00  0.00    -0.060 A 
ATOM     17  C   UNL     1     141.823 132.141  98.952  0.00  0.00    -0.061 A 
ATOM     18  C   UNL     1     141.108 130.949  99.105  0.00  0.00    -0.056 A 
ATOM     19  C   UNL     1     141.467 130.111 100.144  0.00  0.00    -0.010 A 
ATOM     20  H   UNL     1     138.227 129.916 102.191  0.00  0.00    +0.000 HD
ATOM     21  H   UNL     1     143.374 129.476 102.726  0.00  0.00    +0.000 HD
ENDROOT
TORSDOF 0
ENDMDL
MODEL 4
REMARK VINA RESULT:    -4.563      5.668      7.496
REMARK INTER + INTRA:          -4.563
REMARK INTER:                  -4.563
REMARK INTRA:                   0.000
REMARK UNBOUND:                 0.000
REMARK  Name = /home/vital/Documents/PhD_2021/Malaria_codes/scripts/../data/pdbqt_ligands/ligand_281_temp.pdb
REMARK                            x       y       z     vdW  Elec       q    Type
REMARK                         _______ _______ _______ _____ _____    ______ ____
ROOT
ATOM      1  O   UNL     1     141.797 130.341  99.570  0.00  0.00    -0.394 OA
ATOM      2  C   UNL     1     141.215 130.048 100.839  0.00  0.00    +0.058 C 
ATOM      3  C   UNL     1     140.644 128.634 100.966  0.00  0.00    +0.065 C 
ATOM      4  C   UNL     1     141.747 127.547 100.844  0.00  0.00    +0.108 C 
ATOM      5  N   UNL     1     142.795 127.431 101.749  0.00  0.00    -0.312 N 
ATOM      6  C   UNL     1     142.564 127.711 103.171  0.00  0.00    +0.033 C 
ATOM      7  C   UNL     1     143.865 127.848 103.901  0.00  0.00    -0.051 C 
ATOM      8  C   UNL     1     145.045 127.440 103.410  0.00  0.00    +0.035 C 
ATOM      9 CL   UNL     1     146.494 127.793 104.289  0.00  0.00    -0.087 Cl
ATOM     10  C   UNL     1     145.177 126.755 102.076  0.00  0.00    +0.085 C 
ATOM     11 CL   UNL     1     146.181 125.274 102.185  0.00  0.00    -0.114 Cl
ATOM     12  C   UNL     1     143.798 126.369 101.508  0.00  0.00    +0.035 C 
ATOM     13  N   UNL     1     141.589 126.774  99.801  0.00  0.00    -0.236 N 
ATOM     14  C   UNL     1     140.392 127.158  99.179  0.00  0.00    +0.070 A 
ATOM     15  C   UNL     1     139.824 126.574  98.064  0.00  0.00    -0.036 A 
ATOM     16  C   UNL     1     138.613 127.089  97.590  0.00  0.00    -0.060 A 
ATOM     17  C   UNL     1     137.995 128.173  98.234  0.00  0.00    -0.061 A 
ATOM     18  C   UNL     1     138.577 128.758  99.362  0.00  0.00    -0.056 A 
ATOM     19  C   UNL     1     139.774 128.234  99.816  0.00  0.00    -0.010 A 
ATOM     20  H   UNL     1     142.134 131.250  99.571  0.00  0.00    +0.000 HD
ATOM     21  H   UNL     1     142.196 126.057  99.508  0.00  0.00    +0.000 HD
ENDROOT
TORSDOF 0
ENDMDL
MODEL 5
REMARK VINA RESULT:    -4.324      5.699      8.261
REMARK INTER + INTRA:          -4.324
REMARK INTER:                  -4.324
REMARK INTRA:                   0.000
REMARK UNBOUND:                 0.000
REMARK  Name = /home/vital/Documents/PhD_2021/Malaria_codes/scripts/../data/pdbqt_ligands/ligand_281_temp.pdb
REMARK                            x       y       z     vdW  Elec       q    Type
REMARK                         _______ _______ _______ _____ _____    ______ ____
ROOT
ATOM      1  O   UNL     1     144.732 128.761 104.220  0.00  0.00    -0.394 OA
ATOM      2  C   UNL     1     144.907 127.777 103.202  0.00  0.00    +0.058 C 
ATOM      3  C   UNL     1     143.713 126.837 103.014  0.00  0.00    +0.065 C 
ATOM      4  C   UNL     1     142.444 127.595 102.535  0.00  0.00    +0.108 C 
ATOM      5  N   UNL     1     142.378 128.262 101.318  0.00  0.00    -0.312 N 
ATOM      6  C   UNL     1     143.068 127.710 100.146  0.00  0.00    +0.033 C 
ATOM      7  C   UNL     1     143.146 128.727  99.050  0.00  0.00    -0.051 C 
ATOM      8  C   UNL     1     142.404 129.845  99.013  0.00  0.00    +0.035 C 
ATOM      9 CL   UNL     1     142.697 131.014  97.770  0.00  0.00    -0.087 Cl
ATOM     10  C   UNL     1     141.374 130.172 100.061  0.00  0.00    +0.085 C 
ATOM     11 CL   UNL     1     139.814 130.666  99.330  0.00  0.00    -0.114 Cl
ATOM     12  C   UNL     1     141.119 128.968 100.988  0.00  0.00    +0.035 C 
ATOM     13  N   UNL     1     141.465 127.547 103.400  0.00  0.00    -0.236 N 
ATOM     14  C   UNL     1     141.888 126.732 104.460  0.00  0.00    +0.070 A 
ATOM     15  C   UNL     1     141.146 126.379 105.570  0.00  0.00    -0.036 A 
ATOM     16  C   UNL     1     141.735 125.545 106.524  0.00  0.00    -0.060 A 
ATOM     17  C   UNL     1     143.049 125.079 106.354  0.00  0.00    -0.061 A 
ATOM     18  C   UNL     1     143.794 125.441 105.228  0.00  0.00    -0.056 A 
ATOM     19  C   UNL     1     143.193 126.267 104.296  0.00  0.00    -0.010 A 
ATOM     20  H   UNL     1     145.527 129.313 104.276  0.00  0.00    +0.000 HD
ATOM     21  H   UNL     1     140.593 127.998 103.321  0.00  0.00    +0.000 HD
ENDROOT
TORSDOF 0
ENDMDL
MODEL 6
REMARK VINA RESULT:    -4.244     12.772     14.593
REMARK INTER + INTRA:          -4.244
REMARK INTER:                  -4.244
REMARK INTRA:                   0.000
REMARK UNBOUND:                 0.000
REMARK  Name = /home/vital/Documents/PhD_2021/Malaria_codes/scripts/../data/pdbqt_ligands/ligand_281_temp.pdb
REMARK                            x       y       z     vdW  Elec       q    Type
REMARK                         _______ _______ _______ _____ _____    ______ ____
ROOT
ATOM      1  O   UNL     1     140.284 140.512 105.852  0.00  0.00    -0.394 OA
ATOM      2  C   UNL     1     141.197 141.607 105.809  0.00  0.00    +0.058 C 
ATOM      3  C   UNL     1     141.512 142.227 107.173  0.00  0.00    +0.065 C 
ATOM      4  C   UNL     1     142.233 141.224 108.116  0.00  0.00    +0.108 C 
ATOM      5  N   UNL     1     143.486 140.693 107.834  0.00  0.00    -0.312 N 
ATOM      6  C   UNL     1     144.495 141.520 107.164  0.00  0.00    +0.033 C 
ATOM      7  C   UNL     1     145.628 140.675 106.669  0.00  0.00    -0.051 C 
ATOM      8  C   UNL     1     145.854 139.416 107.073  0.00  0.00    +0.035 C 
ATOM      9 CL   UNL     1     147.107 138.495 106.310  0.00  0.00    -0.087 Cl
ATOM     10  C   UNL     1     145.006 138.730 108.110  0.00  0.00    +0.085 C 
ATOM     11 CL   UNL     1     146.006 137.934 109.367  0.00  0.00    -0.114 Cl
ATOM     12  C   UNL     1     144.056 139.727 108.801  0.00  0.00    +0.035 C 
ATOM     13  N   UNL     1     141.534 140.932 109.181  0.00  0.00    -0.236 N 
ATOM     14  C   UNL     1     140.370 141.713 109.140  0.00  0.00    +0.070 A 
ATOM     15  C   UNL     1     139.372 141.749 110.094  0.00  0.00    -0.036 A 
ATOM     16  C   UNL     1     138.285 142.603 109.885  0.00  0.00    -0.060 A 
ATOM     17  C   UNL     1     138.214 143.402 108.732  0.00  0.00    -0.061 A 
ATOM     18  C   UNL     1     139.228 143.360 107.772  0.00  0.00    -0.056 A 
ATOM     19  C   UNL     1     140.295 142.510 107.997  0.00  0.00    -0.010 A 
ATOM     20  H   UNL     1     140.138 140.177 104.954  0.00  0.00    +0.000 HD
ATOM     21  H   UNL     1     141.779 140.284 109.881  0.00  0.00    +0.000 HD
ENDROOT
TORSDOF 0
ENDMDL
MODEL 7
REMARK VINA RESULT:    -4.004     11.895     14.013
REMARK INTER + INTRA:          -4.004
REMARK INTER:                  -4.004
REMARK INTRA:                   0.000
REMARK UNBOUND:                 0.000
REMARK  Name = /home/vital/Documents/PhD_2021/Malaria_codes/scripts/../data/pdbqt_ligands/ligand_281_temp.pdb
REMARK                            x       y       z     vdW  Elec       q    Type
REMARK                         _______ _______ _______ _____ _____    ______ ____
ROOT
ATOM      1  O   UNL     1     141.868 138.594 108.806  0.00  0.00    -0.394 OA
ATOM      2  C   UNL     1     142.441 139.767 109.379  0.00  0.00    +0.058 C 
ATOM      3  C   UNL     1     143.520 140.432 108.520  0.00  0.00    +0.065 C 
ATOM      4  C   UNL     1     142.951 140.959 107.174  0.00  0.00    +0.108 C 
ATOM      5  N   UNL     1     141.985 141.954 107.101  0.00  0.00    -0.312 N 
ATOM      6  C   UNL     1     141.999 143.056 108.070  0.00  0.00    +0.033 C 
ATOM      7  C   UNL     1     140.710 143.818 108.023  0.00  0.00    -0.051 C 
ATOM      8  C   UNL     1     139.823 143.726 107.021  0.00  0.00    +0.035 C 
ATOM      9 CL   UNL     1     138.303 144.544 107.159  0.00  0.00    -0.087 Cl
ATOM     10  C   UNL     1     140.056 142.869 105.805  0.00  0.00    +0.085 C 
ATOM     11 CL   UNL     1     139.721 143.762 104.287  0.00  0.00    -0.114 Cl
ATOM     12  C   UNL     1     141.506 142.351 105.757  0.00  0.00    +0.035 C 
ATOM     13  N   UNL     1     143.467 140.359 106.133  0.00  0.00    -0.236 N 
ATOM     14  C   UNL     1     144.447 139.474 106.608  0.00  0.00    +0.070 A 
ATOM     15  C   UNL     1     145.267 138.671 105.840  0.00  0.00    -0.036 A 
ATOM     16  C   UNL     1     146.197 137.857 106.494  0.00  0.00    -0.060 A 
ATOM     17  C   UNL     1     146.292 137.860 107.895  0.00  0.00    -0.061 A 
ATOM     18  C   UNL     1     145.458 138.676 108.664  0.00  0.00    -0.056 A 
ATOM     19  C   UNL     1     144.545 139.474 107.999  0.00  0.00    -0.010 A 
ATOM     20  H   UNL     1     141.197 138.235 109.407  0.00  0.00    +0.000 HD
ATOM     21  H   UNL     1     143.215 140.502 105.192  0.00  0.00    +0.000 HD
ENDROOT
TORSDOF 0
ENDMDL
MODEL 8
REMARK VINA RESULT:    -3.863     14.640     16.988
REMARK INTER + INTRA:          -3.863
REMARK INTER:                  -3.863
REMARK INTRA:                   0.000
REMARK UNBOUND:                 0.000
REMARK  Name = /home/vital/Documents/PhD_2021/Malaria_codes/scripts/../data/pdbqt_ligands/ligand_281_temp.pdb
REMARK                            x       y       z     vdW  Elec       q    Type
REMARK                         _______ _______ _______ _____ _____    ______ ____
ROOT
ATOM      1  O   UNL     1     135.745 120.876  87.425  0.00  0.00    -0.394 OA
ATOM      2  C   UNL     1     136.081 121.322  86.112  0.00  0.00    +0.058 C 
ATOM      3  C   UNL     1     135.111 122.348  85.521  0.00  0.00    +0.065 C 
ATOM      4  C   UNL     1     135.097 123.672  86.334  0.00  0.00    +0.108 C 
ATOM      5  N   UNL     1     136.213 124.490  86.461  0.00  0.00    -0.312 N 
ATOM      6  C   UNL     1     137.141 124.638  85.335  0.00  0.00    +0.033 C 
ATOM      7  C   UNL     1     138.418 125.281  85.782  0.00  0.00    -0.051 C 
ATOM      8  C   UNL     1     138.560 125.932  86.947  0.00  0.00    +0.035 C 
ATOM      9 CL   UNL     1     140.128 126.499  87.414  0.00  0.00    -0.087 Cl
ATOM     10  C   UNL     1     137.423 126.120  87.916  0.00  0.00    +0.085 C 
ATOM     11 CL   UNL     1     137.299 127.820  88.472  0.00  0.00    -0.114 Cl
ATOM     12  C   UNL     1     136.078 125.714  87.284  0.00  0.00    +0.035 C 
ATOM     13  N   UNL     1     133.938 123.920  86.886  0.00  0.00    -0.236 N 
ATOM     14  C   UNL     1     133.058 122.909  86.473  0.00  0.00    +0.070 A 
ATOM     15  C   UNL     1     131.718 122.809  86.791  0.00  0.00    -0.036 A 
ATOM     16  C   UNL     1     130.993 121.730  86.275  0.00  0.00    -0.060 A 
ATOM     17  C   UNL     1     131.616 120.776  85.455  0.00  0.00    -0.061 A 
ATOM     18  C   UNL     1     132.973 120.885  85.137  0.00  0.00    -0.056 A 
ATOM     19  C   UNL     1     133.672 121.959  85.657  0.00  0.00    -0.010 A 
ATOM     20  H   UNL     1     136.404 120.232  87.726  0.00  0.00    +0.000 HD
ATOM     21  H   UNL     1     133.724 124.674  87.481  0.00  0.00    +0.000 HD
ENDROOT
TORSDOF 0
ENDMDL
