MODEL 1
REMARK VINA RESULT:    -5.142      0.000      0.000
REMARK INTER + INTRA:          -5.142
REMARK INTER:                  -5.142
REMARK INTRA:                   0.000
REMARK UNBOUND:                 0.000
REMARK  Name = /home/vital/Documents/PhD_2021/Malaria_codes/scripts/../data/pdbqt_ligands/ligand_321_temp.pdb
REMARK                            x       y       z     vdW  Elec       q    Type
REMARK                         _______ _______ _______ _____ _____    ______ ____
ROOT
ATOM      1  C1  UNL     1     145.323 135.768  98.144  0.00  0.00    -0.045 C 
ATOM      2  C2  UNL     1     144.728 134.408  97.955  0.00  0.00    -0.067 C 
ATOM      3  C3  UNL     1     145.294 133.219  98.225  0.00  0.00    +0.055 C 
ATOM      4 CL1  UNL     1     146.891 133.082  98.881  0.00  0.00    -0.082 Cl
ATOM      5  C4  UNL     1     144.598 131.966  98.003  0.00  0.00    +0.060 C 
ATOM      6 CL2  UNL     1     145.052 131.107  96.557  0.00  0.00    -0.082 Cl
ATOM      7  C5  UNL     1     143.638 131.440  98.779  0.00  0.00    -0.024 C 
ATOM      8  C6  UNL     1     143.180 132.075 100.042  0.00  0.00    +0.033 C 
ATOM      9  N1  UNL     1     142.223 131.714 100.832  0.00  0.00    -0.219 NA
ATOM     10  C7  UNL     1     141.496 130.611 100.486  0.00  0.00    +0.252 A 
ATOM     11  N2  UNL     1     141.882 129.386 101.017  0.00  0.00    -0.195 NA
ATOM     12  C8  UNL     1     141.206 128.325 100.716  0.00  0.00    +0.132 A 
ATOM     13  N3  UNL     1     141.458 127.061 101.171  0.00  0.00    -0.326 N 
ATOM     14  C9  UNL     1     142.408 126.784 102.239  0.00  0.00    +0.034 C 
ATOM     15  C10 UNL     1     141.861 127.223 103.599  0.00  0.00    +0.060 C 
ATOM     16  O1  UNL     1     140.602 126.598 103.854  0.00  0.00    -0.393 OA
ATOM     17  C11 UNL     1     140.076 128.418  99.833  0.00  0.00    +0.040 A 
ATOM     18  C12 UNL     1     139.736 129.664  99.322  0.00  0.00    +0.078 A 
ATOM     19  N4  UNL     1     140.498 130.829  99.673  0.00  0.00    -0.211 NA
ATOM     20  C13 UNL     1     138.715 129.126  98.646  0.00  0.00    -0.035 C 
ATOM     21  C14 UNL     1     139.078 127.822  99.182  0.00  0.00    -0.047 C 
ATOM     22  H   UNL     1     140.979 126.307 100.759  0.00  0.00    +0.000 HD
ATOM     23  H   UNL     1     139.968 126.855 103.166  0.00  0.00    +0.000 HD
ENDROOT
TORSDOF 0
ENDMDL
MODEL 2
REMARK VINA RESULT:    -4.880      4.273      6.421
REMARK INTER + INTRA:          -4.880
REMARK INTER:                  -4.880
REMARK INTRA:                   0.000
REMARK UNBOUND:                 0.000
REMARK  Name = /home/vital/Documents/PhD_2021/Malaria_codes/scripts/../data/pdbqt_ligands/ligand_321_temp.pdb
REMARK                            x       y       z     vdW  Elec       q    Type
REMARK                         _______ _______ _______ _____ _____    ______ ____
ROOT
ATOM      1  C1  UNL     1     143.022 123.138  94.945  0.00  0.00    -0.045 C 
ATOM      2  C2  UNL     1     142.738 123.893  96.205  0.00  0.00    -0.067 C 
ATOM      3  C3  UNL     1     143.586 124.663  96.910  0.00  0.00    +0.055 C 
ATOM      4 CL1  UNL     1     145.229 124.914  96.423  0.00  0.00    -0.082 Cl
ATOM      5  C4  UNL     1     143.178 125.352  98.118  0.00  0.00    +0.060 C 
ATOM      6 CL2  UNL     1     143.670 124.599  99.610  0.00  0.00    -0.082 Cl
ATOM      7  C5  UNL     1     142.446 126.475  98.186  0.00  0.00    -0.024 C 
ATOM      8  C6  UNL     1     141.983 127.213  96.981  0.00  0.00    +0.033 C 
ATOM      9  N1  UNL     1     141.218 128.252  96.909  0.00  0.00    -0.219 NA
ATOM     10  C7  UNL     1     140.733 128.765  98.079  0.00  0.00    +0.252 A 
ATOM     11  N2  UNL     1     141.440 129.800  98.677  0.00  0.00    -0.195 NA
ATOM     12  C8  UNL     1     140.999 130.314  99.779  0.00  0.00    +0.132 A 
ATOM     13  N3  UNL     1     141.579 131.341 100.470  0.00  0.00    -0.326 N 
ATOM     14  C9  UNL     1     142.668 132.139  99.927  0.00  0.00    +0.034 C 
ATOM     15  C10 UNL     1     142.173 133.085  98.830  0.00  0.00    +0.060 C 
ATOM     16  O1  UNL     1     141.123 133.916  99.327  0.00  0.00    -0.393 OA
ATOM     17  C11 UNL     1     139.796 129.806 100.379  0.00  0.00    +0.040 A 
ATOM     18  C12 UNL     1     139.130 128.764  99.746  0.00  0.00    +0.078 A 
ATOM     19  N4  UNL     1     139.635 128.213  98.521  0.00  0.00    -0.211 NA
ATOM     20  C13 UNL     1     138.197 128.758 100.705  0.00  0.00    -0.035 C 
ATOM     21  C14 UNL     1     138.901 129.848 101.365  0.00  0.00    -0.047 C 
ATOM     22  H   UNL     1     141.246 131.549 101.373  0.00  0.00    +0.000 HD
ATOM     23  H   UNL     1     140.381 133.362  99.617  0.00  0.00    +0.000 HD
ENDROOT
TORSDOF 0
ENDMDL
MODEL 3
REMARK VINA RESULT:    -4.847      4.052      6.900
REMARK INTER + INTRA:          -4.847
REMARK INTER:                  -4.847
REMARK INTRA:                   0.000
REMARK UNBOUND:                 0.000
REMARK  Name = /home/vital/Documents/PhD_2021/Malaria_codes/scripts/../data/pdbqt_ligands/ligand_321_temp.pdb
REMARK                            x       y       z     vdW  Elec       q    Type
REMARK                         _______ _______ _______ _____ _____    ______ ____
ROOT
ATOM      1  C1  UNL     1     140.607 125.750 106.076  0.00  0.00    -0.045 C 
ATOM      2  C2  UNL     1     141.302 126.711 105.164  0.00  0.00    -0.067 C 
ATOM      3  C3  UNL     1     142.360 126.472 104.369  0.00  0.00    +0.055 C 
ATOM      4 CL1  UNL     1     143.111 124.915 104.274  0.00  0.00    -0.082 Cl
ATOM      5  C4  UNL     1     142.934 127.498 103.521  0.00  0.00    +0.060 C 
ATOM      6 CL2  UNL     1     144.394 128.233 104.123  0.00  0.00    -0.082 Cl
ATOM      7  C5  UNL     1     142.435 127.940 102.356  0.00  0.00    -0.024 C 
ATOM      8  C6  UNL     1     141.206 127.379 101.737  0.00  0.00    +0.033 C 
ATOM      9  N1  UNL     1     140.586 127.762 100.670  0.00  0.00    -0.219 NA
ATOM     10  C7  UNL     1     141.088 128.839  99.996  0.00  0.00    +0.252 A 
ATOM     11  N2  UNL     1     141.960 128.597  98.943  0.00  0.00    -0.195 NA
ATOM     12  C8  UNL     1     142.442 129.598  98.279  0.00  0.00    +0.132 A 
ATOM     13  N3  UNL     1     143.296 129.513  97.215  0.00  0.00    -0.326 N 
ATOM     14  C9  UNL     1     143.604 128.255  96.551  0.00  0.00    +0.034 C 
ATOM     15  C10 UNL     1     142.423 127.763  95.711  0.00  0.00    +0.060 C 
ATOM     16  O1  UNL     1     142.034 128.762  94.767  0.00  0.00    -0.393 OA
ATOM     17  C11 UNL     1     142.085 130.942  98.641  0.00  0.00    +0.040 A 
ATOM     18  C12 UNL     1     141.216 131.130  99.708  0.00  0.00    +0.078 A 
ATOM     19  N4  UNL     1     140.689 130.005 100.428  0.00  0.00    -0.211 NA
ATOM     20  C13 UNL     1     141.283 132.457  99.548  0.00  0.00    -0.035 C 
ATOM     21  C14 UNL     1     142.196 132.253  98.433  0.00  0.00    -0.047 C 
ATOM     22  H   UNL     1     143.721 130.337  96.884  0.00  0.00    +0.000 HD
ATOM     23  H   UNL     1     141.766 129.567  95.239  0.00  0.00    +0.000 HD
ENDROOT
TORSDOF 0
ENDMDL
MODEL 4
REMARK VINA RESULT:    -4.689      4.536      7.625
REMARK INTER + INTRA:          -4.689
REMARK INTER:                  -4.689
REMARK INTRA:                   0.000
REMARK UNBOUND:                 0.000
REMARK  Name = /home/vital/Documents/PhD_2021/Malaria_codes/scripts/../data/pdbqt_ligands/ligand_321_temp.pdb
REMARK                            x       y       z     vdW  Elec       q    Type
REMARK                         _______ _______ _______ _____ _____    ______ ____
ROOT
ATOM      1  C1  UNL     1     138.801 121.719  96.876  0.00  0.00    -0.045 C 
ATOM      2  C2  UNL     1     139.334 122.786  97.780  0.00  0.00    -0.067 C 
ATOM      3  C3  UNL     1     140.601 123.224  97.877  0.00  0.00    +0.055 C 
ATOM      4 CL1  UNL     1     141.878 122.582  96.900  0.00  0.00    -0.082 Cl
ATOM      5  C4  UNL     1     140.984 124.279  98.795  0.00  0.00    +0.060 C 
ATOM      6 CL2  UNL     1     141.757 123.748 100.263  0.00  0.00    -0.082 Cl
ATOM      7  C5  UNL     1     140.772 125.594  98.630  0.00  0.00    -0.024 C 
ATOM      8  C6  UNL     1     140.137 126.165  97.413  0.00  0.00    +0.033 C 
ATOM      9  N1  UNL     1     139.811 127.391  97.166  0.00  0.00    -0.219 NA
ATOM     10  C7  UNL     1     140.053 128.320  98.137  0.00  0.00    +0.252 A 
ATOM     11  N2  UNL     1     141.248 129.026  98.077  0.00  0.00    -0.195 NA
ATOM     12  C8  UNL     1     141.500 129.921  98.977  0.00  0.00    +0.132 A 
ATOM     13  N3  UNL     1     142.622 130.699  99.038  0.00  0.00    -0.326 N 
ATOM     14  C9  UNL     1     143.592 130.767  97.955  0.00  0.00    +0.034 C 
ATOM     15  C10 UNL     1     143.044 131.556  96.763  0.00  0.00    +0.060 C 
ATOM     16  O1  UNL     1     142.640 132.862  97.175  0.00  0.00    -0.393 OA
ATOM     17  C11 UNL     1     140.554 130.168 100.030  0.00  0.00    +0.040 A 
ATOM     18  C12 UNL     1     139.378 129.429 100.051  0.00  0.00    +0.078 A 
ATOM     19  N4  UNL     1     139.117 128.445  99.039  0.00  0.00    -0.211 NA
ATOM     20  C13 UNL     1     138.978 130.067 101.157  0.00  0.00    -0.035 C 
ATOM     21  C14 UNL     1     140.214 130.836 101.132  0.00  0.00    -0.047 C 
ATOM     22  H   UNL     1     142.781 131.236  99.848  0.00  0.00    +0.000 HD
ATOM     23  H   UNL     1     141.943 132.789  97.846  0.00  0.00    +0.000 HD
ENDROOT
TORSDOF 0
ENDMDL
MODEL 5
REMARK VINA RESULT:    -4.653      4.508      6.215
REMARK INTER + INTRA:          -4.653
REMARK INTER:                  -4.653
REMARK INTRA:                   0.000
REMARK UNBOUND:                 0.000
REMARK  Name = /home/vital/Documents/PhD_2021/Malaria_codes/scripts/../data/pdbqt_ligands/ligand_321_temp.pdb
REMARK                            x       y       z     vdW  Elec       q    Type
REMARK                         _______ _______ _______ _____ _____    ______ ____
ROOT
ATOM      1  C1  UNL     1     142.355 124.638  92.472  0.00  0.00    -0.045 C 
ATOM      2  C2  UNL     1     141.930 124.769  93.900  0.00  0.00    -0.067 C 
ATOM      3  C3  UNL     1     142.671 124.558  95.002  0.00  0.00    +0.055 C 
ATOM      4 CL1  UNL     1     144.334 124.082  94.919  0.00  0.00    -0.082 Cl
ATOM      5  C4  UNL     1     142.135 124.731  96.337  0.00  0.00    +0.060 C 
ATOM      6 CL2  UNL     1     141.691 123.261  97.160  0.00  0.00    -0.082 Cl
ATOM      7  C5  UNL     1     141.927 125.898  96.967  0.00  0.00    -0.024 C 
ATOM      8  C6  UNL     1     142.280 127.213  96.370  0.00  0.00    +0.033 C 
ATOM      9  N1  UNL     1     142.065 128.400  96.835  0.00  0.00    -0.219 NA
ATOM     10  C7  UNL     1     141.411 128.505  98.029  0.00  0.00    +0.252 A 
ATOM     11  N2  UNL     1     142.177 128.606  99.183  0.00  0.00    -0.195 NA
ATOM     12  C8  UNL     1     141.586 128.719 100.328  0.00  0.00    +0.132 A 
ATOM     13  N3  UNL     1     142.206 128.840 101.540  0.00  0.00    -0.326 N 
ATOM     14  C9  UNL     1     143.637 129.078 101.671  0.00  0.00    +0.034 C 
ATOM     15  C10 UNL     1     144.002 130.511 101.279  0.00  0.00    +0.060 C 
ATOM     16  O1  UNL     1     143.251 131.446 102.055  0.00  0.00    -0.393 OA
ATOM     17  C11 UNL     1     140.150 128.726 100.399  0.00  0.00    +0.040 A 
ATOM     18  C12 UNL     1     139.429 128.612  99.217  0.00  0.00    +0.078 A 
ATOM     19  N4  UNL     1     140.107 128.494  97.957  0.00  0.00    -0.211 NA
ATOM     20  C13 UNL     1     138.278 128.676  99.896  0.00  0.00    -0.035 C 
ATOM     21  C14 UNL     1     139.039 128.791 101.131  0.00  0.00    -0.047 C 
ATOM     22  H   UNL     1     141.664 128.763 102.358  0.00  0.00    +0.000 HD
ATOM     23  H   UNL     1     142.304 131.312 101.895  0.00  0.00    +0.000 HD
ENDROOT
TORSDOF 0
ENDMDL
MODEL 6
REMARK VINA RESULT:    -4.571      4.936      7.983
REMARK INTER + INTRA:          -4.571
REMARK INTER:                  -4.571
REMARK INTRA:                   0.000
REMARK UNBOUND:                 0.000
REMARK  Name = /home/vital/Documents/PhD_2021/Malaria_codes/scripts/../data/pdbqt_ligands/ligand_321_temp.pdb
REMARK                            x       y       z     vdW  Elec       q    Type
REMARK                         _______ _______ _______ _____ _____    ______ ____
ROOT
ATOM      1  C1  UNL     1     143.068 123.013 106.751  0.00  0.00    -0.045 C 
ATOM      2  C2  UNL     1     142.102 123.503 105.719  0.00  0.00    -0.067 C 
ATOM      3  C3  UNL     1     141.300 124.580 105.788  0.00  0.00    +0.055 C 
ATOM      4 CL1  UNL     1     141.277 125.628 107.167  0.00  0.00    -0.082 Cl
ATOM      5  C4  UNL     1     140.412 124.951 104.704  0.00  0.00    +0.060 C 
ATOM      6 CL2  UNL     1     138.739 124.517 104.929  0.00  0.00    -0.082 Cl
ATOM      7  C5  UNL     1     140.762 125.557 103.559  0.00  0.00    -0.024 C 
ATOM      8  C6  UNL     1     142.154 125.986 103.264  0.00  0.00    +0.033 C 
ATOM      9  N1  UNL     1     142.632 126.505 102.181  0.00  0.00    -0.219 NA
ATOM     10  C7  UNL     1     141.775 126.685 101.132  0.00  0.00    +0.252 A 
ATOM     11  N2  UNL     1     141.161 127.924 101.001  0.00  0.00    -0.195 NA
ATOM     12  C8  UNL     1     140.353 128.129 100.011  0.00  0.00    +0.132 A 
ATOM     13  N3  UNL     1     139.690 129.295  99.748  0.00  0.00    -0.326 N 
ATOM     14  C9  UNL     1     139.984 130.541 100.441  0.00  0.00    +0.034 C 
ATOM     15  C10 UNL     1     141.319 131.132  99.984  0.00  0.00    +0.060 C 
ATOM     16  O1  UNL     1     141.322 131.318  98.567  0.00  0.00    -0.393 OA
ATOM     17  C11 UNL     1     140.090 127.076  99.068  0.00  0.00    +0.040 A 
ATOM     18  C12 UNL     1     140.722 125.853  99.248  0.00  0.00    +0.078 A 
ATOM     19  N4  UNL     1     141.619 125.650 100.351  0.00  0.00    -0.211 NA
ATOM     20  C13 UNL     1     140.119 125.363  98.159  0.00  0.00    -0.035 C 
ATOM     21  C14 UNL     1     139.457 126.647  97.977  0.00  0.00    -0.047 C 
ATOM     22  H   UNL     1     138.985 129.292  99.061  0.00  0.00    +0.000 HD
ATOM     23  H   UNL     1     141.195 130.462  98.128  0.00  0.00    +0.000 HD
ENDROOT
TORSDOF 0
ENDMDL
MODEL 7
REMARK VINA RESULT:    -4.431      4.229      7.357
REMARK INTER + INTRA:          -4.431
REMARK INTER:                  -4.431
REMARK INTRA:                   0.000
REMARK UNBOUND:                 0.000
REMARK  Name = /home/vital/Documents/PhD_2021/Malaria_codes/scripts/../data/pdbqt_ligands/ligand_321_temp.pdb
REMARK                            x       y       z     vdW  Elec       q    Type
REMARK                         _______ _______ _______ _____ _____    ______ ____
ROOT
ATOM      1  C1  UNL     1     143.592 122.035 103.609  0.00  0.00    -0.045 C 
ATOM      2  C2  UNL     1     142.597 123.098 103.264  0.00  0.00    -0.067 C 
ATOM      3  C3  UNL     1     142.541 124.356 103.734  0.00  0.00    +0.055 C 
ATOM      4 CL1  UNL     1     143.693 124.969 104.873  0.00  0.00    -0.082 Cl
ATOM      5  C4  UNL     1     141.523 125.295 103.307  0.00  0.00    +0.060 C 
ATOM      6 CL2  UNL     1     140.205 125.526 104.422  0.00  0.00    -0.082 Cl
ATOM      7  C5  UNL     1     141.492 125.961 102.142  0.00  0.00    -0.024 C 
ATOM      8  C6  UNL     1     142.567 125.855 101.121  0.00  0.00    +0.033 C 
ATOM      9  N1  UNL     1     142.621 126.379  99.941  0.00  0.00    -0.219 NA
ATOM     10  C7  UNL     1     141.555 127.128  99.530  0.00  0.00    +0.252 A 
ATOM     11  N2  UNL     1     141.612 128.502  99.726  0.00  0.00    -0.195 NA
ATOM     12  C8  UNL     1     140.623 129.239  99.336  0.00  0.00    +0.132 A 
ATOM     13  N3  UNL     1     140.545 130.598  99.450  0.00  0.00    -0.326 N 
ATOM     14  C9  UNL     1     141.682 131.422  99.837  0.00  0.00    +0.034 C 
ATOM     15  C10 UNL     1     142.710 131.521  98.708  0.00  0.00    +0.060 C 
ATOM     16  O1  UNL     1     142.095 132.018  97.518  0.00  0.00    -0.393 OA
ATOM     17  C11 UNL     1     139.475 128.633  98.719  0.00  0.00    +0.040 A 
ATOM     18  C12 UNL     1     139.462 127.255  98.554  0.00  0.00    +0.078 A 
ATOM     19  N4  UNL     1     140.574 126.457  98.989  0.00  0.00    -0.211 NA
ATOM     20  C13 UNL     1     138.252 127.318  97.986  0.00  0.00    -0.035 C 
ATOM     21  C14 UNL     1     138.270 128.763  98.165  0.00  0.00    -0.047 C 
ATOM     22  H   UNL     1     139.685 131.040  99.263  0.00  0.00    +0.000 HD
ATOM     23  H   UNL     1     141.388 131.414  97.242  0.00  0.00    +0.000 HD
ENDROOT
TORSDOF 0
ENDMDL
MODEL 8
REMARK VINA RESULT:    -4.205      4.785      7.028
REMARK INTER + INTRA:          -4.205
REMARK INTER:                  -4.205
REMARK INTRA:                   0.000
REMARK UNBOUND:                 0.000
REMARK  Name = /home/vital/Documents/PhD_2021/Malaria_codes/scripts/../data/pdbqt_ligands/ligand_321_temp.pdb
REMARK                            x       y       z     vdW  Elec       q    Type
REMARK                         _______ _______ _______ _____ _____    ______ ____
ROOT
ATOM      1  C1  UNL     1     142.502 130.586 101.059  0.00  0.00    -0.045 C 
ATOM      2  C2  UNL     1     141.875 129.238 101.226  0.00  0.00    -0.067 C 
ATOM      3  C3  UNL     1     142.474 128.037 101.147  0.00  0.00    +0.055 C 
ATOM      4 CL1  UNL     1     144.168 127.868 100.829  0.00  0.00    -0.082 Cl
ATOM      5  C4  UNL     1     141.746 126.798 101.340  0.00  0.00    +0.060 C 
ATOM      6 CL2  UNL     1     141.325 125.944  99.881  0.00  0.00    -0.082 Cl
ATOM      7  C5  UNL     1     141.353 126.281 102.514  0.00  0.00    -0.024 C 
ATOM      8  C6  UNL     1     141.667 126.912 103.823  0.00  0.00    +0.033 C 
ATOM      9  N1  UNL     1     141.287 126.561 105.007  0.00  0.00    -0.219 NA
ATOM     10  C7  UNL     1     140.469 125.472 105.113  0.00  0.00    +0.252 A 
ATOM     11  N2  UNL     1     141.058 124.237 105.350  0.00  0.00    -0.195 NA
ATOM     12  C8  UNL     1     140.307 123.190 105.468  0.00  0.00    +0.132 A 
ATOM     13  N3  UNL     1     140.743 121.918 105.714  0.00  0.00    -0.326 N 
ATOM     14  C9  UNL     1     142.115 121.616 106.095  0.00  0.00    +0.034 C 
ATOM     15  C10 UNL     1     142.404 122.051 107.533  0.00  0.00    +0.060 C 
ATOM     16  O1  UNL     1     141.474 121.445 108.432  0.00  0.00    -0.393 OA
ATOM     17  C11 UNL     1     138.881 123.309 105.341  0.00  0.00    +0.040 A 
ATOM     18  C12 UNL     1     138.341 124.565 105.094  0.00  0.00    +0.078 A 
ATOM     19  N4  UNL     1     139.193 125.714 104.973  0.00  0.00    -0.211 NA
ATOM     20  C13 UNL     1     137.107 124.050 105.084  0.00  0.00    -0.035 C 
ATOM     21  C14 UNL     1     137.678 122.735 105.338  0.00  0.00    -0.047 C 
ATOM     22  H   UNL     1     140.102 121.175 105.630  0.00  0.00    +0.000 HD
ATOM     23  H   UNL     1     140.573 121.719 108.200  0.00  0.00    +0.000 HD
ENDROOT
TORSDOF 0
ENDMDL
