MODEL 1
REMARK VINA RESULT:    -5.701      0.000      0.000
REMARK INTER + INTRA:          -5.701
REMARK INTER:                  -5.701
REMARK INTRA:                   0.000
REMARK UNBOUND:                 0.000
REMARK  Name = /home/vital/Documents/PhD_2021/Malaria_codes/scripts/../data/pdbqt_ligands/ligand_299_temp.pdb
REMARK                            x       y       z     vdW  Elec       q    Type
REMARK                         _______ _______ _______ _____ _____    ______ ____
ROOT
ATOM      1 CL1  UNL     1     145.241 133.639  98.137  0.00  0.00    -0.082 Cl
ATOM      2  C1  UNL     1     144.015 132.557  98.692  0.00  0.00    +0.059 A 
ATOM      3  C2  UNL     1     144.387 131.248  98.991  0.00  0.00    -0.040 A 
ATOM      4  C3  UNL     1     143.432 130.331  99.446  0.00  0.00    -0.037 A 
ATOM      5  C4  UNL     1     142.081 130.689  99.603  0.00  0.00    +0.055 A 
ATOM      6  N1  UNL     1     141.117 129.753 100.093  0.00  0.00    -0.202 N 
ATOM      7  C5  UNL     1     141.243 128.378  99.938  0.00  0.00    +0.105 C 
ATOM      8  N2  UNL     1     141.922 127.697  99.071  0.00  0.00    -0.239 NA
ATOM      9  C6  UNL     1     141.426 126.395  98.896  0.00  0.00    +0.069 A 
ATOM     10  C7  UNL     1     142.009 125.325  99.579  0.00  0.00    -0.036 A 
ATOM     11  C8  UNL     1     141.482 124.040  99.454  0.00  0.00    -0.060 A 
ATOM     12  C9  UNL     1     140.372 123.819  98.639  0.00  0.00    -0.061 A 
ATOM     13  C10 UNL     1     139.794 124.878  97.936  0.00  0.00    -0.057 A 
ATOM     14  C11 UNL     1     140.314 126.177  98.047  0.00  0.00    -0.022 A 
ATOM     15  C12 UNL     1     139.712 127.297  97.214  0.00  0.00    -0.024 C 
ATOM     16  C13 UNL     1     138.318 127.785  97.641  0.00  0.00    -0.023 C 
ATOM     17  C14 UNL     1     138.271 128.616  98.926  0.00  0.00    +0.071 C 
ATOM     18  O1  UNL     1     139.102 129.779  98.798  0.00  0.00    -0.282 OA
ATOM     19  N3  UNL     1     139.742 130.158 100.065  0.00  0.00    -0.113 NA
ATOM     20  C15 UNL     1     141.735 132.023  99.311  0.00  0.00    -0.019 A 
ATOM     21  C16 UNL     1     142.684 132.947  98.855  0.00  0.00    +0.061 A 
ATOM     22 CL2  UNL     1     142.145 134.556  98.517  0.00  0.00    -0.082 Cl
ATOM     23  H   UNL     1     139.690 131.171 100.174  0.00  0.00    +0.000 HD
ENDROOT
TORSDOF 0
ENDMDL
MODEL 2
REMARK VINA RESULT:    -5.202      4.416      6.800
REMARK INTER + INTRA:          -5.202
REMARK INTER:                  -5.202
REMARK INTRA:                   0.000
REMARK UNBOUND:                 0.000
REMARK  Name = /home/vital/Documents/PhD_2021/Malaria_codes/scripts/../data/pdbqt_ligands/ligand_299_temp.pdb
REMARK                            x       y       z     vdW  Elec       q    Type
REMARK                         _______ _______ _______ _____ _____    ______ ____
ROOT
ATOM      1 CL1  UNL     1     142.884 125.093 106.255  0.00  0.00    -0.082 Cl
ATOM      2  C1  UNL     1     142.693 125.722 104.658  0.00  0.00    +0.059 A 
ATOM      3  C2  UNL     1     143.492 126.801 104.282  0.00  0.00    -0.040 A 
ATOM      4  C3  UNL     1     143.378 127.348 102.999  0.00  0.00    -0.037 A 
ATOM      5  C4  UNL     1     142.458 126.845 102.062  0.00  0.00    +0.055 A 
ATOM      6  N1  UNL     1     142.366 127.394 100.744  0.00  0.00    -0.202 N 
ATOM      7  C5  UNL     1     142.706 128.707 100.440  0.00  0.00    +0.105 C 
ATOM      8  N2  UNL     1     142.766 129.750 101.205  0.00  0.00    -0.239 NA
ATOM      9  C6  UNL     1     142.643 130.953 100.492  0.00  0.00    +0.069 A 
ATOM     10  C7  UNL     1     143.785 131.668 100.123  0.00  0.00    -0.036 A 
ATOM     11  C8  UNL     1     143.671 132.832  99.364  0.00  0.00    -0.060 A 
ATOM     12  C9  UNL     1     142.412 133.289  98.976  0.00  0.00    -0.061 A 
ATOM     13  C10 UNL     1     141.263 132.593  99.356  0.00  0.00    -0.057 A 
ATOM     14  C11 UNL     1     141.360 131.422 100.124  0.00  0.00    -0.022 A 
ATOM     15  C12 UNL     1     140.091 130.724 100.587  0.00  0.00    -0.024 C 
ATOM     16  C13 UNL     1     139.290 129.985  99.503  0.00  0.00    -0.023 C 
ATOM     17  C14 UNL     1     139.908 128.680  98.995  0.00  0.00    +0.071 C 
ATOM     18  O1  UNL     1     140.093 127.761 100.080  0.00  0.00    -0.282 OA
ATOM     19  N3  UNL     1     141.292 126.927  99.916  0.00  0.00    -0.113 NA
ATOM     20  C15 UNL     1     141.675 125.744 102.460  0.00  0.00    -0.019 A 
ATOM     21  C16 UNL     1     141.783 125.190 103.743  0.00  0.00    +0.061 A 
ATOM     22 CL2  UNL     1     140.765 123.846 104.127  0.00  0.00    -0.082 Cl
ATOM     23  H   UNL     1     141.067 125.966 100.173  0.00  0.00    +0.000 HD
ENDROOT
TORSDOF 0
ENDMDL
MODEL 3
REMARK VINA RESULT:    -4.966      5.797      7.449
REMARK INTER + INTRA:          -4.966
REMARK INTER:                  -4.966
REMARK INTRA:                   0.000
REMARK UNBOUND:                 0.000
REMARK  Name = /home/vital/Documents/PhD_2021/Malaria_codes/scripts/../data/pdbqt_ligands/ligand_299_temp.pdb
REMARK                            x       y       z     vdW  Elec       q    Type
REMARK                         _______ _______ _______ _____ _____    ______ ____
ROOT
ATOM      1 CL1  UNL     1     141.378 124.171 108.304  0.00  0.00    -0.082 Cl
ATOM      2  C1  UNL     1     141.850 125.043 106.890  0.00  0.00    +0.059 A 
ATOM      3  C2  UNL     1     140.981 126.018 106.404  0.00  0.00    -0.040 A 
ATOM      4  C3  UNL     1     141.317 126.755 105.262  0.00  0.00    -0.037 A 
ATOM      5  C4  UNL     1     142.519 126.532 104.568  0.00  0.00    +0.055 A 
ATOM      6  N1  UNL     1     142.866 127.307 103.417  0.00  0.00    -0.202 N 
ATOM      7  C5  UNL     1     141.923 127.899 102.585  0.00  0.00    +0.105 C 
ATOM      8  N2  UNL     1     140.678 127.601 102.393  0.00  0.00    -0.239 NA
ATOM      9  C6  UNL     1     140.196 128.059 101.156  0.00  0.00    +0.069 A 
ATOM     10  C7  UNL     1     139.491 129.263 101.082  0.00  0.00    -0.036 A 
ATOM     11  C8  UNL     1     139.062 129.752  99.848  0.00  0.00    -0.060 A 
ATOM     12  C9  UNL     1     139.331 129.034  98.684  0.00  0.00    -0.061 A 
ATOM     13  C10 UNL     1     140.017 127.820  98.749  0.00  0.00    -0.057 A 
ATOM     14  C11 UNL     1     140.453 127.311  99.982  0.00  0.00    -0.022 A 
ATOM     15  C12 UNL     1     141.132 125.952 100.033  0.00  0.00    -0.024 C 
ATOM     16  C13 UNL     1     142.560 125.886  99.467  0.00  0.00    -0.023 C 
ATOM     17  C14 UNL     1     143.644 126.542 100.325  0.00  0.00    +0.071 C 
ATOM     18  O1  UNL     1     143.682 125.940 101.626  0.00  0.00    -0.282 OA
ATOM     19  N3  UNL     1     144.029 126.900 102.683  0.00  0.00    -0.113 NA
ATOM     20  C15 UNL     1     143.388 125.554 105.090  0.00  0.00    -0.019 A 
ATOM     21  C16 UNL     1     143.060 124.812 106.232  0.00  0.00    +0.061 A 
ATOM     22 CL2  UNL     1     144.198 123.629 106.779  0.00  0.00    -0.082 Cl
ATOM     23  H   UNL     1     144.692 126.465 103.324  0.00  0.00    +0.000 HD
ENDROOT
TORSDOF 0
ENDMDL
MODEL 4
REMARK VINA RESULT:    -4.771      3.704      6.791
REMARK INTER + INTRA:          -4.771
REMARK INTER:                  -4.771
REMARK INTRA:                   0.000
REMARK UNBOUND:                 0.000
REMARK  Name = /home/vital/Documents/PhD_2021/Malaria_codes/scripts/../data/pdbqt_ligands/ligand_299_temp.pdb
REMARK                            x       y       z     vdW  Elec       q    Type
REMARK                         _______ _______ _______ _____ _____    ______ ____
ROOT
ATOM      1 CL1  UNL     1     137.384 128.671 101.195  0.00  0.00    -0.082 Cl
ATOM      2  C1  UNL     1     138.903 128.757 100.378  0.00  0.00    +0.059 A 
ATOM      3  C2  UNL     1     140.008 129.206 101.100  0.00  0.00    -0.040 A 
ATOM      4  C3  UNL     1     141.262 129.293 100.486  0.00  0.00    -0.037 A 
ATOM      5  C4  UNL     1     141.448 128.949  99.135  0.00  0.00    +0.055 A 
ATOM      6  N1  UNL     1     142.739 129.016  98.523  0.00  0.00    -0.202 N 
ATOM      7  C5  UNL     1     143.740 129.882  98.949  0.00  0.00    +0.105 C 
ATOM      8  N2  UNL     1     143.655 130.989  99.615  0.00  0.00    -0.239 NA
ATOM      9  C6  UNL     1     144.769 131.822  99.424  0.00  0.00    +0.069 A 
ATOM     10  C7  UNL     1     145.811 131.822 100.356  0.00  0.00    -0.036 A 
ATOM     11  C8  UNL     1     146.946 132.604 100.140  0.00  0.00    -0.060 A 
ATOM     12  C9  UNL     1     147.040 133.393  98.995  0.00  0.00    -0.061 A 
ATOM     13  C10 UNL     1     145.997 133.415  98.068  0.00  0.00    -0.057 A 
ATOM     14  C11 UNL     1     144.845 132.638  98.271  0.00  0.00    -0.022 A 
ATOM     15  C12 UNL     1     143.694 132.737  97.284  0.00  0.00    -0.024 C 
ATOM     16  C13 UNL     1     143.923 132.094  95.907  0.00  0.00    -0.023 C 
ATOM     17  C14 UNL     1     143.911 130.563  95.880  0.00  0.00    +0.071 C 
ATOM     18  O1  UNL     1     142.658 130.066  96.371  0.00  0.00    -0.282 OA
ATOM     19  N3  UNL     1     142.801 128.802  97.106  0.00  0.00    -0.113 NA
ATOM     20  C15 UNL     1     140.320 128.480  98.433  0.00  0.00    -0.019 A 
ATOM     21  C16 UNL     1     139.061 128.390  99.040  0.00  0.00    +0.061 A 
ATOM     22 CL2  UNL     1     137.744 127.811  98.080  0.00  0.00    -0.082 Cl
ATOM     23  H   UNL     1     142.049 128.170  96.832  0.00  0.00    +0.000 HD
ENDROOT
TORSDOF 0
ENDMDL
MODEL 5
REMARK VINA RESULT:    -4.741      4.233      7.580
REMARK INTER + INTRA:          -4.741
REMARK INTER:                  -4.741
REMARK INTRA:                   0.000
REMARK UNBOUND:                 0.000
REMARK  Name = /home/vital/Documents/PhD_2021/Malaria_codes/scripts/../data/pdbqt_ligands/ligand_299_temp.pdb
REMARK                            x       y       z     vdW  Elec       q    Type
REMARK                         _______ _______ _______ _____ _____    ______ ____
ROOT
ATOM      1 CL1  UNL     1     138.291 128.593 100.243  0.00  0.00    -0.082 Cl
ATOM      2  C1  UNL     1     139.816 129.366 100.487  0.00  0.00    +0.059 A 
ATOM      3  C2  UNL     1     139.985 130.651  99.975  0.00  0.00    -0.040 A 
ATOM      4  C3  UNL     1     141.201 131.323 100.146  0.00  0.00    -0.037 A 
ATOM      5  C4  UNL     1     142.283 130.729 100.819  0.00  0.00    +0.055 A 
ATOM      6  N1  UNL     1     143.514 131.433 101.011  0.00  0.00    -0.202 N 
ATOM      7  C5  UNL     1     143.959 132.437 100.159  0.00  0.00    +0.105 C 
ATOM      8  N2  UNL     1     143.659 132.672  98.922  0.00  0.00    -0.239 NA
ATOM      9  C6  UNL     1     144.644 133.419  98.258  0.00  0.00    +0.069 A 
ATOM     10  C7  UNL     1     144.503 134.803  98.125  0.00  0.00    -0.036 A 
ATOM     11  C8  UNL     1     145.508 135.557  97.519  0.00  0.00    -0.060 A 
ATOM     12  C9  UNL     1     146.655 134.929  97.038  0.00  0.00    -0.061 A 
ATOM     13  C10 UNL     1     146.798 133.544  97.148  0.00  0.00    -0.057 A 
ATOM     14  C11 UNL     1     145.795 132.769  97.751  0.00  0.00    -0.022 A 
ATOM     15  C12 UNL     1     145.942 131.257  97.792  0.00  0.00    -0.024 C 
ATOM     16  C13 UNL     1     146.997 130.704  98.763  0.00  0.00    -0.023 C 
ATOM     17  C14 UNL     1     146.636 130.782 100.249  0.00  0.00    +0.071 C 
ATOM     18  O1  UNL     1     145.417 130.069 100.503  0.00  0.00    -0.282 OA
ATOM     19  N3  UNL     1     144.610 130.691 101.562  0.00  0.00    -0.113 NA
ATOM     20  C15 UNL     1     142.081 129.437 101.342  0.00  0.00    -0.019 A 
ATOM     21  C16 UNL     1     140.867 128.758 101.175  0.00  0.00    +0.061 A 
ATOM     22 CL2  UNL     1     140.733 127.171 101.851  0.00  0.00    -0.082 Cl
ATOM     23  H   UNL     1     144.245 129.961 102.175  0.00  0.00    +0.000 HD
ENDROOT
TORSDOF 0
ENDMDL
MODEL 6
REMARK VINA RESULT:    -4.624      3.508      5.298
REMARK INTER + INTRA:          -4.624
REMARK INTER:                  -4.624
REMARK INTRA:                   0.000
REMARK UNBOUND:                 0.000
REMARK  Name = /home/vital/Documents/PhD_2021/Malaria_codes/scripts/../data/pdbqt_ligands/ligand_299_temp.pdb
REMARK                            x       y       z     vdW  Elec       q    Type
REMARK                         _______ _______ _______ _____ _____    ______ ____
ROOT
ATOM      1 CL1  UNL     1     144.873 129.617  92.203  0.00  0.00    -0.082 Cl
ATOM      2  C1  UNL     1     144.586 129.322  93.880  0.00  0.00    +0.059 A 
ATOM      3  C2  UNL     1     143.341 128.818  94.251  0.00  0.00    -0.040 A 
ATOM      4  C3  UNL     1     143.057 128.560  95.597  0.00  0.00    -0.037 A 
ATOM      5  C4  UNL     1     144.000 128.809  96.610  0.00  0.00    +0.055 A 
ATOM      6  N1  UNL     1     143.711 128.518  97.981  0.00  0.00    -0.202 N 
ATOM      7  C5  UNL     1     142.423 128.511  98.502  0.00  0.00    +0.105 C 
ATOM      8  N2  UNL     1     141.349 129.097  98.078  0.00  0.00    -0.239 NA
ATOM      9  C6  UNL     1     140.397 129.285  99.092  0.00  0.00    +0.069 A 
ATOM     10  C7  UNL     1     139.346 128.377  99.243  0.00  0.00    -0.036 A 
ATOM     11  C8  UNL     1     138.432 128.527 100.286  0.00  0.00    -0.060 A 
ATOM     12  C9  UNL     1     138.563 129.589 101.179  0.00  0.00    -0.061 A 
ATOM     13  C10 UNL     1     139.598 130.513 101.025  0.00  0.00    -0.057 A 
ATOM     14  C11 UNL     1     140.524 130.380  99.979  0.00  0.00    -0.022 A 
ATOM     15  C12 UNL     1     141.597 131.441  99.791  0.00  0.00    -0.024 C 
ATOM     16  C13 UNL     1     142.728 131.453 100.832  0.00  0.00    -0.023 C 
ATOM     17  C14 UNL     1     143.738 130.308 100.728  0.00  0.00    +0.071 C 
ATOM     18  O1  UNL     1     144.359 130.309  99.434  0.00  0.00    -0.282 OA
ATOM     19  N3  UNL     1     144.667 128.954  98.956  0.00  0.00    -0.113 NA
ATOM     20  C15 UNL     1     145.257 129.300  96.208  0.00  0.00    -0.019 A 
ATOM     21  C16 UNL     1     145.549 129.561  94.863  0.00  0.00    +0.061 A 
ATOM     22 CL2  UNL     1     147.122 130.173  94.485  0.00  0.00    -0.082 Cl
ATOM     23  H   UNL     1     145.597 128.953  98.535  0.00  0.00    +0.000 HD
ENDROOT
TORSDOF 0
ENDMDL
MODEL 7
REMARK VINA RESULT:    -4.562      2.476      3.391
REMARK INTER + INTRA:          -4.562
REMARK INTER:                  -4.562
REMARK INTRA:                   0.000
REMARK UNBOUND:                 0.000
REMARK  Name = /home/vital/Documents/PhD_2021/Malaria_codes/scripts/../data/pdbqt_ligands/ligand_299_temp.pdb
REMARK                            x       y       z     vdW  Elec       q    Type
REMARK                         _______ _______ _______ _____ _____    ______ ____
ROOT
ATOM      1 CL1  UNL     1     147.022 132.041  95.714  0.00  0.00    -0.082 Cl
ATOM      2  C1  UNL     1     145.686 131.818  96.785  0.00  0.00    +0.059 A 
ATOM      3  C2  UNL     1     145.952 131.361  98.075  0.00  0.00    -0.040 A 
ATOM      4  C3  UNL     1     144.906 131.165  98.983  0.00  0.00    -0.037 A 
ATOM      5  C4  UNL     1     143.567 131.407  98.629  0.00  0.00    +0.055 A 
ATOM      6  N1  UNL     1     142.506 131.229  99.572  0.00  0.00    -0.202 N 
ATOM      7  C5  UNL     1     142.576 130.342 100.640  0.00  0.00    +0.105 C 
ATOM      8  N2  UNL     1     143.312 129.289 100.800  0.00  0.00    -0.239 NA
ATOM      9  C6  UNL     1     142.771 128.387 101.729  0.00  0.00    +0.069 A 
ATOM     10  C7  UNL     1     143.217 128.394 103.053  0.00  0.00    -0.036 A 
ATOM     11  C8  UNL     1     142.640 127.540 103.994  0.00  0.00    -0.060 A 
ATOM     12  C9  UNL     1     141.619 126.671 103.611  0.00  0.00    -0.061 A 
ATOM     13  C10 UNL     1     141.180 126.642 102.286  0.00  0.00    -0.057 A 
ATOM     14  C11 UNL     1     141.752 127.491 101.326  0.00  0.00    -0.022 A 
ATOM     15  C12 UNL     1     141.307 127.387  99.876  0.00  0.00    -0.024 C 
ATOM     16  C13 UNL     1     139.901 127.922  99.558  0.00  0.00    -0.023 C 
ATOM     17  C14 UNL     1     139.754 129.446  99.570  0.00  0.00    +0.071 C 
ATOM     18  O1  UNL     1     140.653 130.041  98.625  0.00  0.00    -0.282 OA
ATOM     19  N3  UNL     1     141.165 131.343  99.075  0.00  0.00    -0.113 NA
ATOM     20  C15 UNL     1     143.326 131.886  97.326  0.00  0.00    -0.019 A 
ATOM     21  C16 UNL     1     144.368 132.085  96.411  0.00  0.00    +0.061 A 
ATOM     22 CL2  UNL     1     143.954 132.667  94.835  0.00  0.00    -0.082 Cl
ATOM     23  H   UNL     1     141.155 131.994  98.289  0.00  0.00    +0.000 HD
ENDROOT
TORSDOF 0
ENDMDL
MODEL 8
REMARK VINA RESULT:    -4.456      4.933      6.394
REMARK INTER + INTRA:          -4.456
REMARK INTER:                  -4.456
REMARK INTRA:                   0.000
REMARK UNBOUND:                 0.000
REMARK  Name = /home/vital/Documents/PhD_2021/Malaria_codes/scripts/../data/pdbqt_ligands/ligand_299_temp.pdb
REMARK                            x       y       z     vdW  Elec       q    Type
REMARK                         _______ _______ _______ _____ _____    ______ ____
ROOT
ATOM      1 CL1  UNL     1     145.108 124.398 106.465  0.00  0.00    -0.082 Cl
ATOM      2  C1  UNL     1     144.638 125.634 105.354  0.00  0.00    +0.059 A 
ATOM      3  C2  UNL     1     143.275 125.857 105.166  0.00  0.00    -0.040 A 
ATOM      4  C3  UNL     1     142.840 126.848 104.278  0.00  0.00    -0.037 A 
ATOM      5  C4  UNL     1     143.748 127.632 103.545  0.00  0.00    +0.055 A 
ATOM      6  N1  UNL     1     143.294 128.660 102.659  0.00  0.00    -0.202 N 
ATOM      7  C5  UNL     1     142.055 128.632 102.031  0.00  0.00    +0.105 C 
ATOM      8  N2  UNL     1     141.278 127.630 101.766  0.00  0.00    -0.239 NA
ATOM      9  C6  UNL     1     140.391 127.898 100.711  0.00  0.00    +0.069 A 
ATOM     10  C7  UNL     1     139.084 128.308 100.983  0.00  0.00    -0.036 A 
ATOM     11  C8  UNL     1     138.217 128.632  99.938  0.00  0.00    -0.060 A 
ATOM     12  C9  UNL     1     138.654 128.539  98.618  0.00  0.00    -0.061 A 
ATOM     13  C10 UNL     1     139.952 128.111  98.335  0.00  0.00    -0.057 A 
ATOM     14  C11 UNL     1     140.836 127.777  99.373  0.00  0.00    -0.022 A 
ATOM     15  C12 UNL     1     142.219 127.243  99.035  0.00  0.00    -0.024 C 
ATOM     16  C13 UNL     1     143.220 128.264  98.469  0.00  0.00    -0.023 C 
ATOM     17  C14 UNL     1     143.776 129.275  99.474  0.00  0.00    +0.071 C 
ATOM     18  O1  UNL     1     144.434 128.596 100.553  0.00  0.00    -0.282 OA
ATOM     19  N3  UNL     1     144.283 129.295 101.836  0.00  0.00    -0.113 NA
ATOM     20  C15 UNL     1     145.119 127.399 103.767  0.00  0.00    -0.019 A 
ATOM     21  C16 UNL     1     145.563 126.410 104.654  0.00  0.00    +0.061 A 
ATOM     22 CL2  UNL     1     147.271 126.204 104.840  0.00  0.00    -0.082 Cl
ATOM     23  H   UNL     1     145.178 129.289 102.326  0.00  0.00    +0.000 HD
ENDROOT
TORSDOF 0
ENDMDL
MODEL 9
REMARK VINA RESULT:    -4.420      3.915      4.916
REMARK INTER + INTRA:          -4.420
REMARK INTER:                  -4.420
REMARK INTRA:                   0.000
REMARK UNBOUND:                 0.000
REMARK  Name = /home/vital/Documents/PhD_2021/Malaria_codes/scripts/../data/pdbqt_ligands/ligand_299_temp.pdb
REMARK                            x       y       z     vdW  Elec       q    Type
REMARK                         _______ _______ _______ _____ _____    ______ ____
ROOT
ATOM      1 CL1  UNL     1     142.239 129.691  90.917  0.00  0.00    -0.082 Cl
ATOM      2  C1  UNL     1     142.609 129.844  92.597  0.00  0.00    +0.059 A 
ATOM      3  C2  UNL     1     142.452 128.719  93.405  0.00  0.00    -0.040 A 
ATOM      4  C3  UNL     1     142.739 128.789  94.773  0.00  0.00    -0.037 A 
ATOM      5  C4  UNL     1     143.177 129.982  95.375  0.00  0.00    +0.055 A 
ATOM      6  N1  UNL     1     143.492 130.038  96.769  0.00  0.00    -0.202 N 
ATOM      7  C5  UNL     1     142.919 129.195  97.714  0.00  0.00    +0.105 C 
ATOM      8  N2  UNL     1     141.805 128.537  97.676  0.00  0.00    -0.239 NA
ATOM      9  C6  UNL     1     141.320 128.218  98.954  0.00  0.00    +0.069 A 
ATOM     10  C7  UNL     1     141.568 126.958  99.503  0.00  0.00    -0.036 A 
ATOM     11  C8  UNL     1     141.139 126.658 100.796  0.00  0.00    -0.060 A 
ATOM     12  C9  UNL     1     140.454 127.616 101.542  0.00  0.00    -0.061 A 
ATOM     13  C10 UNL     1     140.183 128.872 100.995  0.00  0.00    -0.057 A 
ATOM     14  C11 UNL     1     140.604 129.189  99.694  0.00  0.00    -0.022 A 
ATOM     15  C12 UNL     1     140.232 130.536  99.096  0.00  0.00    -0.024 C 
ATOM     16  C13 UNL     1     140.970 131.759  99.667  0.00  0.00    -0.023 C 
ATOM     17  C14 UNL     1     142.437 131.899  99.255  0.00  0.00    +0.071 C 
ATOM     18  O1  UNL     1     142.549 131.970  97.826  0.00  0.00    -0.282 OA
ATOM     19  N3  UNL     1     143.773 131.330  97.324  0.00  0.00    -0.113 NA
ATOM     20  C15 UNL     1     143.344 131.100  94.534  0.00  0.00    -0.019 A 
ATOM     21  C16 UNL     1     143.060 131.038  93.163  0.00  0.00    +0.061 A 
ATOM     22 CL2  UNL     1     143.293 132.474  92.228  0.00  0.00    -0.082 Cl
ATOM     23  H   UNL     1     144.184 131.921  96.600  0.00  0.00    +0.000 HD
ENDROOT
TORSDOF 0
ENDMDL
