MODEL 1
REMARK VINA RESULT:    -4.273      0.000      0.000
REMARK INTER + INTRA:          -4.273
REMARK INTER:                  -4.273
REMARK INTRA:                   0.000
REMARK UNBOUND:                 0.000
REMARK  Name = /home/vital/Documents/PhD_2021/Malaria_codes/scripts/../data/pdbqt_ligands/ligand_199_temp.pdb
REMARK                            x       y       z     vdW  Elec       q    Type
REMARK                         _______ _______ _______ _____ _____    ______ ____
ROOT
ATOM      1  C   UNL     1     145.433 135.631  98.139  0.00  0.00    -0.002 C 
ATOM      2  N   UNL     1     145.623 134.202  98.301  0.00  0.00    -0.346 N 
ATOM      3  C   UNL     1     145.506 133.304  97.282  0.00  0.00    +0.035 C 
ATOM      4  C   UNL     1     145.233 133.448  95.968  0.00  0.00    -0.032 C 
ATOM      5  C   UNL     1     144.357 132.723  96.761  0.00  0.00    -0.005 C 
ATOM      6  C   UNL     1     143.250 132.033  96.919  0.00  0.00    -0.054 C 
ATOM      7  C   UNL     1     142.816 131.469  98.239  0.00  0.00    +0.061 C 
ATOM      8  N   UNL     1     142.498 130.061  98.039  0.00  0.00    -0.265 N 
ATOM      9  C   UNL     1     142.653 129.235  99.015  0.00  0.00    +0.130 C 
ATOM     10  C   UNL     1     142.495 127.742  98.724  0.00  0.00    +0.025 C 
ATOM     11  C   UNL     1     141.618 127.006  99.696  0.00  0.00    -0.079 C 
ATOM     12  C   UNL     1     140.275 126.920  99.659  0.00  0.00    -0.062 C 
ATOM     13  C   UNL     1     139.356 127.581  98.678  0.00  0.00    +0.066 C 
ATOM     14  O   UNL     1     138.569 128.571  99.348  0.00  0.00    -0.374 OA
ATOM     15  C   UNL     1     139.262 129.814  99.532  0.00  0.00    +0.063 C 
ATOM     16  C   UNL     1     139.907 129.896 100.918  0.00  0.00    +0.033 C 
ATOM     17  N   UNL     1     141.058 130.797 100.957  0.00  0.00    -0.333 N 
ATOM     18  C   UNL     1     142.334 130.285 101.048  0.00  0.00    +0.083 C 
ATOM     19  N   UNL     1     143.076 129.575 100.272  0.00  0.00    -0.225 NA
ATOM     20  H   UNL     1     145.849 133.862  99.197  0.00  0.00    +0.000 HD
ATOM     21  H   UNL     1     142.167 129.745  97.168  0.00  0.00    +0.000 HD
ATOM     22  H   UNL     1     140.921 131.771 100.918  0.00  0.00    +0.000 HD
ENDROOT
TORSDOF 0
ENDMDL
MODEL 2
REMARK VINA RESULT:    -4.114      4.962      8.656
REMARK INTER + INTRA:          -4.114
REMARK INTER:                  -4.114
REMARK INTRA:                   0.000
REMARK UNBOUND:                 0.000
REMARK  Name = /home/vital/Documents/PhD_2021/Malaria_codes/scripts/../data/pdbqt_ligands/ligand_199_temp.pdb
REMARK                            x       y       z     vdW  Elec       q    Type
REMARK                         _______ _______ _______ _____ _____    ______ ____
ROOT
ATOM      1  C   UNL     1     140.121 122.501 106.731  0.00  0.00    -0.002 C 
ATOM      2  N   UNL     1     141.310 123.219 106.314  0.00  0.00    -0.346 N 
ATOM      3  C   UNL     1     141.716 124.394 106.870  0.00  0.00    +0.035 C 
ATOM      4  C   UNL     1     141.216 125.150 107.870  0.00  0.00    -0.032 C 
ATOM      5  C   UNL     1     141.284 125.685 106.593  0.00  0.00    -0.005 C 
ATOM      6  C   UNL     1     141.068 126.662 105.741  0.00  0.00    -0.054 C 
ATOM      7  C   UNL     1     141.401 126.568 104.283  0.00  0.00    +0.061 C 
ATOM      8  N   UNL     1     142.176 127.750 103.925  0.00  0.00    -0.265 N 
ATOM      9  C   UNL     1     143.037 127.673 102.970  0.00  0.00    +0.130 C 
ATOM     10  C   UNL     1     143.966 128.867 102.744  0.00  0.00    +0.025 C 
ATOM     11  C   UNL     1     144.070 129.315 101.314  0.00  0.00    -0.079 C 
ATOM     12  C   UNL     1     143.227 130.143 100.670  0.00  0.00    -0.062 C 
ATOM     13  C   UNL     1     141.973 130.756 101.213  0.00  0.00    +0.066 C 
ATOM     14  O   UNL     1     140.838 130.213 100.532  0.00  0.00    -0.374 OA
ATOM     15  C   UNL     1     140.431 128.934 101.042  0.00  0.00    +0.063 C 
ATOM     16  C   UNL     1     141.029 127.788 100.222  0.00  0.00    +0.033 C 
ATOM     17  N   UNL     1     141.152 126.547 100.986  0.00  0.00    -0.333 N 
ATOM     18  C   UNL     1     142.393 126.110 101.397  0.00  0.00    +0.083 C 
ATOM     19  N   UNL     1     143.278 126.555 102.217  0.00  0.00    -0.225 NA
ATOM     20  H   UNL     1     141.853 122.835 105.588  0.00  0.00    +0.000 HD
ATOM     21  H   UNL     1     142.041 128.597 104.407  0.00  0.00    +0.000 HD
ATOM     22  H   UNL     1     140.348 126.024 101.207  0.00  0.00    +0.000 HD
ENDROOT
TORSDOF 0
ENDMDL
MODEL 3
REMARK VINA RESULT:    -4.075      3.530      7.209
REMARK INTER + INTRA:          -4.075
REMARK INTER:                  -4.075
REMARK INTRA:                   0.000
REMARK UNBOUND:                 0.000
REMARK  Name = /home/vital/Documents/PhD_2021/Malaria_codes/scripts/../data/pdbqt_ligands/ligand_199_temp.pdb
REMARK                            x       y       z     vdW  Elec       q    Type
REMARK                         _______ _______ _______ _____ _____    ______ ____
ROOT
ATOM      1  C   UNL     1     139.412 124.756 105.353  0.00  0.00    -0.002 C 
ATOM      2  N   UNL     1     140.301 124.777 104.208  0.00  0.00    -0.346 N 
ATOM      3  C   UNL     1     141.599 125.190 104.266  0.00  0.00    +0.035 C 
ATOM      4  C   UNL     1     142.369 125.632 105.282  0.00  0.00    -0.032 C 
ATOM      5  C   UNL     1     142.104 126.483 104.222  0.00  0.00    -0.005 C 
ATOM      6  C   UNL     1     142.212 127.652 103.628  0.00  0.00    -0.054 C 
ATOM      7  C   UNL     1     141.564 127.966 102.314  0.00  0.00    +0.061 C 
ATOM      8  N   UNL     1     142.582 128.535 101.439  0.00  0.00    -0.265 N 
ATOM      9  C   UNL     1     142.484 128.370 100.165  0.00  0.00    +0.130 C 
ATOM     10  C   UNL     1     143.659 128.809  99.292  0.00  0.00    +0.025 C 
ATOM     11  C   UNL     1     143.274 129.637  98.099  0.00  0.00    -0.079 C 
ATOM     12  C   UNL     1     143.061 130.966  98.080  0.00  0.00    -0.062 C 
ATOM     13  C   UNL     1     143.106 131.904  99.247  0.00  0.00    +0.066 C 
ATOM     14  O   UNL     1     141.793 132.410  99.508  0.00  0.00    -0.374 OA
ATOM     15  C   UNL     1     140.980 131.505 100.269  0.00  0.00    +0.063 C 
ATOM     16  C   UNL     1     140.089 130.654  99.361  0.00  0.00    +0.033 C 
ATOM     17  N   UNL     1     139.709 129.380  99.970  0.00  0.00    -0.333 N 
ATOM     18  C   UNL     1     140.271 128.204  99.521  0.00  0.00    +0.083 C 
ATOM     19  N   UNL     1     141.460 127.713  99.536  0.00  0.00    -0.225 NA
ATOM     20  H   UNL     1     139.948 124.477 103.339  0.00  0.00    +0.000 HD
ATOM     21  H   UNL     1     143.337 129.040 101.819  0.00  0.00    +0.000 HD
ATOM     22  H   UNL     1     139.050 129.362 100.702  0.00  0.00    +0.000 HD
ENDROOT
TORSDOF 0
ENDMDL
MODEL 4
REMARK VINA RESULT:    -4.072     13.397     15.393
REMARK INTER + INTRA:          -4.072
REMARK INTER:                  -4.072
REMARK INTRA:                   0.000
REMARK UNBOUND:                 0.000
REMARK  Name = /home/vital/Documents/PhD_2021/Malaria_codes/scripts/../data/pdbqt_ligands/ligand_199_temp.pdb
REMARK                            x       y       z     vdW  Elec       q    Type
REMARK                         _______ _______ _______ _____ _____    ______ ____
ROOT
ATOM      1  C   UNL     1     139.781 126.776  86.704  0.00  0.00    -0.002 C 
ATOM      2  N   UNL     1     138.371 126.838  86.369  0.00  0.00    -0.346 N 
ATOM      3  C   UNL     1     137.422 127.367  87.192  0.00  0.00    +0.035 C 
ATOM      4  C   UNL     1     137.491 127.943  88.410  0.00  0.00    -0.032 C 
ATOM      5  C   UNL     1     136.767 126.772  88.262  0.00  0.00    -0.005 C 
ATOM      6  C   UNL     1     136.037 125.798  88.760  0.00  0.00    -0.054 C 
ATOM      7  C   UNL     1     135.518 124.659  87.937  0.00  0.00    +0.061 C 
ATOM      8  N   UNL     1     134.089 124.535  88.197  0.00  0.00    -0.265 N 
ATOM      9  C   UNL     1     133.317 124.074  87.274  0.00  0.00    +0.130 C 
ATOM     10  C   UNL     1     131.807 124.134  87.505  0.00  0.00    +0.025 C 
ATOM     11  C   UNL     1     131.079 122.852  87.215  0.00  0.00    -0.079 C 
ATOM     12  C   UNL     1     130.933 121.806  88.049  0.00  0.00    -0.062 C 
ATOM     13  C   UNL     1     131.506 121.663  89.426  0.00  0.00    +0.066 C 
ATOM     14  O   UNL     1     132.491 120.624  89.431  0.00  0.00    -0.374 OA
ATOM     15  C   UNL     1     133.771 121.057  88.946  0.00  0.00    +0.063 C 
ATOM     16  C   UNL     1     133.946 120.732  87.461  0.00  0.00    +0.033 C 
ATOM     17  N   UNL     1     134.898 121.619  86.793  0.00  0.00    -0.333 N 
ATOM     18  C   UNL     1     134.447 122.583  85.918  0.00  0.00    +0.083 C 
ATOM     19  N   UNL     1     133.735 123.647  86.042  0.00  0.00    -0.225 NA
ATOM     20  H   UNL     1     138.084 126.479  85.499  0.00  0.00    +0.000 HD
ATOM     21  H   UNL     1     133.718 124.801  89.069  0.00  0.00    +0.000 HD
ATOM     22  H   UNL     1     135.862 121.527  86.970  0.00  0.00    +0.000 HD
ENDROOT
TORSDOF 0
ENDMDL
MODEL 5
REMARK VINA RESULT:    -4.061      3.978      6.601
REMARK INTER + INTRA:          -4.061
REMARK INTER:                  -4.061
REMARK INTRA:                   0.000
REMARK UNBOUND:                 0.000
REMARK  Name = /home/vital/Documents/PhD_2021/Malaria_codes/scripts/../data/pdbqt_ligands/ligand_199_temp.pdb
REMARK                            x       y       z     vdW  Elec       q    Type
REMARK                         _______ _______ _______ _____ _____    ______ ____
ROOT
ATOM      1  C   UNL     1     143.460 123.159  93.665  0.00  0.00    -0.002 C 
ATOM      2  N   UNL     1     142.243 123.379  94.423  0.00  0.00    -0.346 N 
ATOM      3  C   UNL     1     141.236 124.200  94.012  0.00  0.00    +0.035 C 
ATOM      4  C   UNL     1     141.068 124.952  92.904  0.00  0.00    -0.032 C 
ATOM      5  C   UNL     1     141.130 125.580  94.138  0.00  0.00    -0.005 C 
ATOM      6  C   UNL     1     141.131 126.666  94.879  0.00  0.00    -0.054 C 
ATOM      7  C   UNL     1     141.285 126.642  96.369  0.00  0.00    +0.061 C 
ATOM      8  N   UNL     1     140.209 127.441  96.942  0.00  0.00    -0.265 N 
ATOM      9  C   UNL     1     139.762 127.150  98.115  0.00  0.00    +0.130 C 
ATOM     10  C   UNL     1     138.513 127.881  98.609  0.00  0.00    +0.025 C 
ATOM     11  C   UNL     1     138.624 128.436 100.000  0.00  0.00    -0.079 C 
ATOM     12  C   UNL     1     139.171 129.614 100.353  0.00  0.00    -0.062 C 
ATOM     13  C   UNL     1     139.838 130.605  99.449  0.00  0.00    +0.066 C 
ATOM     14  O   UNL     1     141.235 130.669  99.753  0.00  0.00    -0.374 OA
ATOM     15  C   UNL     1     141.994 129.611  99.148  0.00  0.00    +0.063 C 
ATOM     16  C   UNL     1     142.196 128.443 100.117  0.00  0.00    +0.033 C 
ATOM     17  N   UNL     1     142.412 127.168  99.433  0.00  0.00    -0.333 N 
ATOM     18  C   UNL     1     141.420 126.212  99.423  0.00  0.00    +0.083 C 
ATOM     19  N   UNL     1     140.241 126.144  98.910  0.00  0.00    -0.225 NA
ATOM     20  H   UNL     1     142.139 122.909  95.281  0.00  0.00    +0.000 HD
ATOM     21  H   UNL     1     139.829 128.196  96.438  0.00  0.00    +0.000 HD
ATOM     22  H   UNL     1     143.268 126.994  98.978  0.00  0.00    +0.000 HD
ENDROOT
TORSDOF 0
ENDMDL
MODEL 6
REMARK VINA RESULT:    -4.047      3.508      7.383
REMARK INTER + INTRA:          -4.047
REMARK INTER:                  -4.047
REMARK INTRA:                   0.000
REMARK UNBOUND:                 0.000
REMARK  Name = /home/vital/Documents/PhD_2021/Malaria_codes/scripts/../data/pdbqt_ligands/ligand_199_temp.pdb
REMARK                            x       y       z     vdW  Elec       q    Type
REMARK                         _______ _______ _______ _____ _____    ______ ____
ROOT
ATOM      1  C   UNL     1     141.138 121.160  99.066  0.00  0.00    -0.002 C 
ATOM      2  N   UNL     1     140.211 122.250  99.301  0.00  0.00    -0.346 N 
ATOM      3  C   UNL     1     139.673 123.012  98.308  0.00  0.00    +0.035 C 
ATOM      4  C   UNL     1     139.802 122.982  96.965  0.00  0.00    -0.032 C 
ATOM      5  C   UNL     1     140.224 124.107  97.654  0.00  0.00    -0.005 C 
ATOM      6  C   UNL     1     140.772 125.301  97.683  0.00  0.00    -0.054 C 
ATOM      7  C   UNL     1     140.991 126.073  98.949  0.00  0.00    +0.061 C 
ATOM      8  N   UNL     1     140.445 127.411  98.756  0.00  0.00    -0.265 N 
ATOM      9  C   UNL     1     139.988 128.058  99.772  0.00  0.00    +0.130 C 
ATOM     10  C   UNL     1     139.251 129.373  99.513  0.00  0.00    +0.025 C 
ATOM     11  C   UNL     1     139.693 130.517 100.381  0.00  0.00    -0.079 C 
ATOM     12  C   UNL     1     140.743 131.330 100.163  0.00  0.00    -0.062 C 
ATOM     13  C   UNL     1     141.734 131.243  99.042  0.00  0.00    +0.066 C 
ATOM     14  O   UNL     1     143.019 130.888  99.563  0.00  0.00    -0.374 OA
ATOM     15  C   UNL     1     143.164 129.479  99.798  0.00  0.00    +0.063 C 
ATOM     16  C   UNL     1     142.864 129.121 101.256  0.00  0.00    +0.033 C 
ATOM     17  N   UNL     1     142.425 127.736 101.421  0.00  0.00    -0.333 N 
ATOM     18  C   UNL     1     141.104 127.459 101.704  0.00  0.00    +0.083 C 
ATOM     19  N   UNL     1     139.998 127.602 101.063  0.00  0.00    -0.225 NA
ATOM     20  H   UNL     1     139.956 122.450 100.231  0.00  0.00    +0.000 HD
ATOM     21  H   UNL     1     140.425 127.815  97.859  0.00  0.00    +0.000 HD
ATOM     22  H   UNL     1     143.072 127.000 101.330  0.00  0.00    +0.000 HD
ENDROOT
TORSDOF 0
ENDMDL
MODEL 7
REMARK VINA RESULT:    -4.020     14.759     16.077
REMARK INTER + INTRA:          -4.020
REMARK INTER:                  -4.020
REMARK INTRA:                   0.000
REMARK UNBOUND:                 0.000
REMARK  Name = /home/vital/Documents/PhD_2021/Malaria_codes/scripts/../data/pdbqt_ligands/ligand_199_temp.pdb
REMARK                            x       y       z     vdW  Elec       q    Type
REMARK                         _______ _______ _______ _____ _____    ______ ____
ROOT
ATOM      1  C   UNL     1     139.513 121.722  85.131  0.00  0.00    -0.002 C 
ATOM      2  N   UNL     1     138.869 122.680  86.010  0.00  0.00    -0.346 N 
ATOM      3  C   UNL     1     138.755 122.510  87.358  0.00  0.00    +0.035 C 
ATOM      4  C   UNL     1     139.169 121.533  88.191  0.00  0.00    -0.032 C 
ATOM      5  C   UNL     1     137.811 121.777  88.066  0.00  0.00    -0.005 C 
ATOM      6  C   UNL     1     136.560 121.502  88.361  0.00  0.00    -0.054 C 
ATOM      7  C   UNL     1     135.397 122.240  87.771  0.00  0.00    +0.061 C 
ATOM      8  N   UNL     1     134.530 122.657  88.866  0.00  0.00    -0.265 N 
ATOM      9  C   UNL     1     133.824 123.727  88.740  0.00  0.00    +0.130 C 
ATOM     10  C   UNL     1     133.074 124.241  89.970  0.00  0.00    +0.025 C 
ATOM     11  C   UNL     1     131.634 124.589  89.722  0.00  0.00    -0.079 C 
ATOM     12  C   UNL     1     130.591 123.738  89.728  0.00  0.00    -0.062 C 
ATOM     13  C   UNL     1     130.638 122.254  89.926  0.00  0.00    +0.066 C 
ATOM     14  O   UNL     1     130.262 121.594  88.713  0.00  0.00    -0.374 OA
ATOM     15  C   UNL     1     131.335 121.500  87.764  0.00  0.00    +0.063 C 
ATOM     16  C   UNL     1     131.285 122.642  86.746  0.00  0.00    +0.033 C 
ATOM     17  N   UNL     1     132.593 122.943  86.165  0.00  0.00    -0.333 N 
ATOM     18  C   UNL     1     133.262 124.092  86.529  0.00  0.00    +0.083 C 
ATOM     19  N   UNL     1     133.789 124.518  87.623  0.00  0.00    -0.225 NA
ATOM     20  H   UNL     1     138.495 123.498  85.611  0.00  0.00    +0.000 HD
ATOM     21  H   UNL     1     134.485 122.125  89.693  0.00  0.00    +0.000 HD
ATOM     22  H   UNL     1     132.996 122.325  85.514  0.00  0.00    +0.000 HD
ENDROOT
TORSDOF 0
ENDMDL
MODEL 8
REMARK VINA RESULT:    -3.993      3.796      6.590
REMARK INTER + INTRA:          -3.993
REMARK INTER:                  -3.993
REMARK INTRA:                   0.000
REMARK UNBOUND:                 0.000
REMARK  Name = /home/vital/Documents/PhD_2021/Malaria_codes/scripts/../data/pdbqt_ligands/ligand_199_temp.pdb
REMARK                            x       y       z     vdW  Elec       q    Type
REMARK                         _______ _______ _______ _____ _____    ______ ____
ROOT
ATOM      1  C   UNL     1     147.096 124.248 103.757  0.00  0.00    -0.002 C 
ATOM      2  N   UNL     1     146.956 125.603 103.258  0.00  0.00    -0.346 N 
ATOM      3  C   UNL     1     146.601 126.662 104.039  0.00  0.00    +0.035 C 
ATOM      4  C   UNL     1     146.324 126.771 105.356  0.00  0.00    -0.032 C 
ATOM      5  C   UNL     1     145.332 127.066 104.434  0.00  0.00    -0.005 C 
ATOM      6  C   UNL     1     144.101 127.423 104.142  0.00  0.00    -0.054 C 
ATOM      7  C   UNL     1     143.594 127.545 102.738  0.00  0.00    +0.061 C 
ATOM      8  N   UNL     1     142.952 128.848 102.607  0.00  0.00    -0.265 N 
ATOM      9  C   UNL     1     142.945 129.435 101.460  0.00  0.00    +0.130 C 
ATOM     10  C   UNL     1     142.437 130.876 101.395  0.00  0.00    +0.025 C 
ATOM     11  C   UNL     1     141.446 131.139 100.297  0.00  0.00    -0.079 C 
ATOM     12  C   UNL     1     140.120 130.917 100.343  0.00  0.00    -0.062 C 
ATOM     13  C   UNL     1     139.345 130.309 101.472  0.00  0.00    +0.066 C 
ATOM     14  O   UNL     1     138.831 129.035 101.072  0.00  0.00    -0.374 OA
ATOM     15  C   UNL     1     139.799 127.979 101.170  0.00  0.00    +0.063 C 
ATOM     16  C   UNL     1     140.492 127.727  99.828  0.00  0.00    +0.033 C 
ATOM     17  N   UNL     1     141.820 127.134  99.977  0.00  0.00    -0.333 N 
ATOM     18  C   UNL     1     142.946 127.893  99.740  0.00  0.00    +0.083 C 
ATOM     19  N   UNL     1     143.477 128.918 100.309  0.00  0.00    -0.225 NA
ATOM     20  H   UNL     1     147.128 125.767 102.303  0.00  0.00    +0.000 HD
ATOM     21  H   UNL     1     142.528 129.273 103.386  0.00  0.00    +0.000 HD
ATOM     22  H   UNL     1     141.911 126.192 100.248  0.00  0.00    +0.000 HD
ENDROOT
TORSDOF 0
ENDMDL
MODEL 9
REMARK VINA RESULT:    -3.760     12.865     15.070
REMARK INTER + INTRA:          -3.760
REMARK INTER:                  -3.760
REMARK INTRA:                   0.000
REMARK UNBOUND:                 0.000
REMARK  Name = /home/vital/Documents/PhD_2021/Malaria_codes/scripts/../data/pdbqt_ligands/ligand_199_temp.pdb
REMARK                            x       y       z     vdW  Elec       q    Type
REMARK                         _______ _______ _______ _____ _____    ______ ____
ROOT
ATOM      1  C   UNL     1     140.876 125.548  88.996  0.00  0.00    -0.002 C 
ATOM      2  N   UNL     1     139.496 125.922  89.240  0.00  0.00    -0.346 N 
ATOM      3  C   UNL     1     138.749 125.424  90.265  0.00  0.00    +0.035 C 
ATOM      4  C   UNL     1     139.029 124.555  91.258  0.00  0.00    -0.032 C 
ATOM      5  C   UNL     1     138.053 124.224  90.332  0.00  0.00    -0.005 C 
ATOM      6  C   UNL     1     137.161 123.388  89.848  0.00  0.00    -0.054 C 
ATOM      7  C   UNL     1     136.344 123.678  88.625  0.00  0.00    +0.061 C 
ATOM      8  N   UNL     1     134.946 123.434  88.954  0.00  0.00    -0.265 N 
ATOM      9  C   UNL     1     134.028 124.104  88.346  0.00  0.00    +0.130 C 
ATOM     10  C   UNL     1     132.589 123.965  88.844  0.00  0.00    +0.025 C 
ATOM     11  C   UNL     1     131.576 123.718  87.763  0.00  0.00    -0.079 C 
ATOM     12  C   UNL     1     131.258 122.529  87.218  0.00  0.00    -0.062 C 
ATOM     13  C   UNL     1     131.878 121.200  87.527  0.00  0.00    +0.066 C 
ATOM     14  O   UNL     1     132.605 120.733  86.386  0.00  0.00    -0.374 OA
ATOM     15  C   UNL     1     133.912 121.314  86.271  0.00  0.00    +0.063 C 
ATOM     16  C   UNL     1     133.907 122.523  85.332  0.00  0.00    +0.033 C 
ATOM     17  N   UNL     1     134.984 123.470  85.618  0.00  0.00    -0.333 N 
ATOM     18  C   UNL     1     134.700 124.680  86.213  0.00  0.00    +0.083 C 
ATOM     19  N   UNL     1     134.253 125.033  87.366  0.00  0.00    -0.225 NA
ATOM     20  H   UNL     1     139.077 126.572  88.631  0.00  0.00    +0.000 HD
ATOM     21  H   UNL     1     134.705 122.763  89.633  0.00  0.00    +0.000 HD
ATOM     22  H   UNL     1     135.914 123.242  85.386  0.00  0.00    +0.000 HD
ENDROOT
TORSDOF 0
ENDMDL
