MODEL 1
REMARK VINA RESULT:    -5.321      0.000      0.000
REMARK INTER + INTRA:          -5.321
REMARK INTER:                  -5.321
REMARK INTRA:                   0.000
REMARK UNBOUND:                 0.000
REMARK  Name = /home/vital/Documents/PhD_2021/Malaria_codes/scripts/../data/pdbqt_ligands/ligand_78_temp.pdb
REMARK                            x       y       z     vdW  Elec       q    Type
REMARK                         _______ _______ _______ _____ _____    ______ ____
ROOT
ATOM      1  C1  UNL     1     141.866 123.633 102.572  0.00  0.00    -0.038 C 
ATOM      2  C2  UNL     1     141.464 124.529 103.709  0.00  0.00    -0.028 A 
ATOM      3  C3  UNL     1     140.230 124.311 104.346  0.00  0.00    -0.057 A 
ATOM      4  C4  UNL     1     139.825 125.113 105.414  0.00  0.00    -0.061 A 
ATOM      5  C5  UNL     1     140.649 126.140 105.864  0.00  0.00    -0.060 A 
ATOM      6  C6  UNL     1     141.876 126.367 105.243  0.00  0.00    -0.039 A 
ATOM      7  C7  UNL     1     142.283 125.577 104.165  0.00  0.00    +0.051 A 
ATOM      8  N1  UNL     1     143.528 125.849 103.526  0.00  0.00    -0.216 N 
ATOM      9  S1  UNL     1     143.773 127.322 102.741  0.00  0.00    +0.072 S 
ATOM     10  O1  UNL     1     143.631 128.410 103.683  0.00  0.00    -0.150 OA
ATOM     11  O2  UNL     1     144.985 127.159 101.964  0.00  0.00    -0.150 OA
ATOM     12  C8  UNL     1     142.412 127.406 101.593  0.00  0.00    +0.109 A 
ATOM     13  C9  UNL     1     141.219 128.042 101.991  0.00  0.00    -0.030 A 
ATOM     14  C10 UNL     1     140.189 128.104 101.074  0.00  0.00    -0.022 A 
ATOM     15  C11 UNL     1     140.360 127.543  99.818  0.00  0.00    +0.043 A 
ATOM     16  C12 UNL     1     141.523 126.944  99.381  0.00  0.00    -0.023 A 
ATOM     17  C13 UNL     1     142.580 126.885 100.288  0.00  0.00    -0.030 A 
ATOM     18  C14 UNL     1     141.593 126.529  97.944  0.00  0.00    -0.018 C 
ATOM     19  C15 UNL     1     140.207 126.204  97.374  0.00  0.00    +0.029 C 
ATOM     20  C16 UNL     1     139.114 127.193  97.771  0.00  0.00    +0.220 C 
ATOM     21  O3  UNL     1     138.152 127.422  97.039  0.00  0.00    -0.275 OA
ATOM     22  N2  UNL     1     139.231 127.702  99.037  0.00  0.00    -0.271 N 
ATOM     23  C17 UNL     1     138.262 128.530  99.756  0.00  0.00    +0.024 C 
ATOM     24  C18 UNL     1     138.816 128.694 101.193  0.00  0.00    -0.010 C 
ATOM     25  H   UNL     1     144.245 125.175 103.541  0.00  0.00    +0.000 HD
ENDROOT
TORSDOF 0
ENDMDL
MODEL 2
REMARK VINA RESULT:    -5.208      2.433      4.771
REMARK INTER + INTRA:          -5.208
REMARK INTER:                  -5.208
REMARK INTRA:                   0.000
REMARK UNBOUND:                 0.000
REMARK  Name = /home/vital/Documents/PhD_2021/Malaria_codes/scripts/../data/pdbqt_ligands/ligand_78_temp.pdb
REMARK                            x       y       z     vdW  Elec       q    Type
REMARK                         _______ _______ _______ _____ _____    ______ ____
ROOT
ATOM      1  C1  UNL     1     143.590 131.178 101.415  0.00  0.00    -0.038 C 
ATOM      2  C2  UNL     1     144.682 130.177 101.164  0.00  0.00    -0.028 A 
ATOM      3  C3  UNL     1     145.517 130.344 100.045  0.00  0.00    -0.057 A 
ATOM      4  C4  UNL     1     146.550 129.443  99.784  0.00  0.00    -0.061 A 
ATOM      5  C5  UNL     1     146.768 128.368 100.639  0.00  0.00    -0.060 A 
ATOM      6  C6  UNL     1     145.949 128.191 101.754  0.00  0.00    -0.039 A 
ATOM      7  C7  UNL     1     144.905 129.081 102.016  0.00  0.00    +0.051 A 
ATOM      8  N1  UNL     1     144.061 128.862 103.143  0.00  0.00    -0.216 N 
ATOM      9  S1  UNL     1     143.109 127.472 103.231  0.00  0.00    +0.072 S 
ATOM     10  O1  UNL     1     143.951 126.296 103.204  0.00  0.00    -0.150 OA
ATOM     11  O2  UNL     1     142.177 127.698 104.317  0.00  0.00    -0.150 OA
ATOM     12  C8  UNL     1     142.177 127.517 101.711  0.00  0.00    +0.109 A 
ATOM     13  C9  UNL     1     142.687 126.857 100.576  0.00  0.00    -0.030 A 
ATOM     14  C10 UNL     1     141.935 126.898  99.419  0.00  0.00    -0.022 A 
ATOM     15  C11 UNL     1     140.728 127.580  99.415  0.00  0.00    +0.043 A 
ATOM     16  C12 UNL     1     140.180 128.207 100.514  0.00  0.00    -0.023 A 
ATOM     17  C13 UNL     1     140.919 128.164 101.696  0.00  0.00    -0.030 A 
ATOM     18  C14 UNL     1     138.797 128.763 100.380  0.00  0.00    -0.018 C 
ATOM     19  C15 UNL     1     138.477 129.157  98.933  0.00  0.00    +0.029 C 
ATOM     20  C16 UNL     1     138.937 128.146  97.886  0.00  0.00    +0.220 C 
ATOM     21  O3  UNL     1     138.340 128.001  96.821  0.00  0.00    -0.275 OA
ATOM     22  N2  UNL     1     140.115 127.511  98.178  0.00  0.00    -0.271 N 
ATOM     23  C17 UNL     1     140.888 126.625  97.307  0.00  0.00    +0.024 C 
ATOM     24  C18 UNL     1     142.202 126.313  98.065  0.00  0.00    -0.010 C 
ATOM     25  H   UNL     1     144.033 129.522 103.872  0.00  0.00    +0.000 HD
ENDROOT
TORSDOF 0
ENDMDL
MODEL 3
REMARK VINA RESULT:    -5.057      2.096      5.992
REMARK INTER + INTRA:          -5.057
REMARK INTER:                  -5.057
REMARK INTRA:                   0.000
REMARK UNBOUND:                 0.000
REMARK  Name = /home/vital/Documents/PhD_2021/Malaria_codes/scripts/../data/pdbqt_ligands/ligand_78_temp.pdb
REMARK                            x       y       z     vdW  Elec       q    Type
REMARK                         _______ _______ _______ _____ _____    ______ ____
ROOT
ATOM      1  C1  UNL     1     139.295 129.201 101.138  0.00  0.00    -0.038 C 
ATOM      2  C2  UNL     1     139.877 128.548  99.917  0.00  0.00    -0.028 A 
ATOM      3  C3  UNL     1     139.036 127.799  99.076  0.00  0.00    -0.057 A 
ATOM      4  C4  UNL     1     139.535 127.187  97.926  0.00  0.00    -0.061 A 
ATOM      5  C5  UNL     1     140.880 127.320  97.595  0.00  0.00    -0.060 A 
ATOM      6  C6  UNL     1     141.726 128.061  98.419  0.00  0.00    -0.039 A 
ATOM      7  C7  UNL     1     141.237 128.667  99.579  0.00  0.00    +0.051 A 
ATOM      8  N1  UNL     1     142.128 129.392 100.422  0.00  0.00    -0.216 N 
ATOM      9  S1  UNL     1     143.406 128.600 101.186  0.00  0.00    +0.072 S 
ATOM     10  O1  UNL     1     144.281 128.010 100.196  0.00  0.00    -0.150 OA
ATOM     11  O2  UNL     1     143.915 129.530 102.173  0.00  0.00    -0.150 OA
ATOM     12  C8  UNL     1     142.600 127.276 102.067  0.00  0.00    +0.109 A 
ATOM     13  C9  UNL     1     142.457 126.023 101.439  0.00  0.00    -0.030 A 
ATOM     14  C10 UNL     1     141.841 125.015 102.153  0.00  0.00    -0.022 A 
ATOM     15  C11 UNL     1     141.388 125.269 103.438  0.00  0.00    +0.043 A 
ATOM     16  C12 UNL     1     141.540 126.471 104.098  0.00  0.00    -0.023 A 
ATOM     17  C13 UNL     1     142.173 127.497 103.398  0.00  0.00    -0.030 A 
ATOM     18  C14 UNL     1     141.133 126.530 105.538  0.00  0.00    -0.018 C 
ATOM     19  C15 UNL     1     140.025 125.521 105.860  0.00  0.00    +0.029 C 
ATOM     20  C16 UNL     1     140.226 124.140 105.239  0.00  0.00    +0.220 C 
ATOM     21  O3  UNL     1     139.800 123.121 105.778  0.00  0.00    -0.275 OA
ATOM     22  N2  UNL     1     140.805 124.148 103.998  0.00  0.00    -0.271 N 
ATOM     23  C17 UNL     1     140.973 123.014 103.088  0.00  0.00    +0.024 C 
ATOM     24  C18 UNL     1     141.536 123.598 101.769  0.00  0.00    -0.010 C 
ATOM     25  H   UNL     1     141.997 130.358 100.559  0.00  0.00    +0.000 HD
ENDROOT
TORSDOF 0
ENDMDL
MODEL 4
REMARK VINA RESULT:    -5.052      4.144      5.537
REMARK INTER + INTRA:          -5.052
REMARK INTER:                  -5.052
REMARK INTRA:                   0.000
REMARK UNBOUND:                 0.000
REMARK  Name = /home/vital/Documents/PhD_2021/Malaria_codes/scripts/../data/pdbqt_ligands/ligand_78_temp.pdb
REMARK                            x       y       z     vdW  Elec       q    Type
REMARK                         _______ _______ _______ _____ _____    ______ ____
ROOT
ATOM      1  C1  UNL     1     141.452 126.974  97.709  0.00  0.00    -0.038 C 
ATOM      2  C2  UNL     1     140.437 127.511  98.679  0.00  0.00    -0.028 A 
ATOM      3  C3  UNL     1     139.250 128.076  98.181  0.00  0.00    -0.057 A 
ATOM      4  C4  UNL     1     138.277 128.574  99.048  0.00  0.00    -0.061 A 
ATOM      5  C5  UNL     1     138.472 128.509 100.424  0.00  0.00    -0.060 A 
ATOM      6  C6  UNL     1     139.644 127.950 100.932  0.00  0.00    -0.039 A 
ATOM      7  C7  UNL     1     140.628 127.459 100.071  0.00  0.00    +0.051 A 
ATOM      8  N1  UNL     1     141.832 126.921 100.613  0.00  0.00    -0.216 N 
ATOM      9  S1  UNL     1     142.876 127.905 101.501  0.00  0.00    +0.072 S 
ATOM     10  O1  UNL     1     142.188 128.432 102.659  0.00  0.00    -0.150 OA
ATOM     11  O2  UNL     1     144.105 127.153 101.641  0.00  0.00    -0.150 OA
ATOM     12  C8  UNL     1     143.204 129.262 100.391  0.00  0.00    +0.109 A 
ATOM     13  C9  UNL     1     142.388 130.408 100.451  0.00  0.00    -0.030 A 
ATOM     14  C10 UNL     1     142.677 131.447  99.589  0.00  0.00    -0.022 A 
ATOM     15  C11 UNL     1     143.738 131.323  98.706  0.00  0.00    +0.043 A 
ATOM     16  C12 UNL     1     144.579 130.232  98.641  0.00  0.00    -0.023 A 
ATOM     17  C13 UNL     1     144.312 129.179  99.514  0.00  0.00    -0.030 A 
ATOM     18  C14 UNL     1     145.770 130.325  97.738  0.00  0.00    -0.018 C 
ATOM     19  C15 UNL     1     145.522 131.275  96.560  0.00  0.00    +0.029 C 
ATOM     20  C16 UNL     1     144.817 132.576  96.935  0.00  0.00    +0.220 C 
ATOM     21  O3  UNL     1     145.010 133.618  96.313  0.00  0.00    -0.275 OA
ATOM     22  N2  UNL     1     143.880 132.456  97.927  0.00  0.00    -0.271 N 
ATOM     23  C17 UNL     1     142.933 133.475  98.383  0.00  0.00    +0.024 C 
ATOM     24  C18 UNL     1     142.004 132.774  99.406  0.00  0.00    -0.010 C 
ATOM     25  H   UNL     1     142.054 125.974 100.468  0.00  0.00    +0.000 HD
ENDROOT
TORSDOF 0
ENDMDL
MODEL 5
REMARK VINA RESULT:    -4.921      3.905      6.479
REMARK INTER + INTRA:          -4.921
REMARK INTER:                  -4.921
REMARK INTRA:                   0.000
REMARK UNBOUND:                 0.000
REMARK  Name = /home/vital/Documents/PhD_2021/Malaria_codes/scripts/../data/pdbqt_ligands/ligand_78_temp.pdb
REMARK                            x       y       z     vdW  Elec       q    Type
REMARK                         _______ _______ _______ _____ _____    ______ ____
ROOT
ATOM      1  C1  UNL     1     142.556 132.921  99.384  0.00  0.00    -0.038 C 
ATOM      2  C2  UNL     1     143.603 132.471  98.404  0.00  0.00    -0.028 A 
ATOM      3  C3  UNL     1     143.504 132.883  97.064  0.00  0.00    -0.057 A 
ATOM      4  C4  UNL     1     144.462 132.498  96.125  0.00  0.00    -0.061 A 
ATOM      5  C5  UNL     1     145.536 131.702  96.513  0.00  0.00    -0.060 A 
ATOM      6  C6  UNL     1     145.648 131.288  97.840  0.00  0.00    -0.039 A 
ATOM      7  C7  UNL     1     144.686 131.659  98.783  0.00  0.00    +0.051 A 
ATOM      8  N1  UNL     1     144.805 131.197 100.126  0.00  0.00    -0.216 N 
ATOM      9  S1  UNL     1     144.728 129.546 100.465  0.00  0.00    +0.072 S 
ATOM     10  O1  UNL     1     145.791 128.852  99.772  0.00  0.00    -0.150 OA
ATOM     11  O2  UNL     1     144.580 129.443 101.902  0.00  0.00    -0.150 OA
ATOM     12  C8  UNL     1     143.179 129.050  99.733  0.00  0.00    +0.109 A 
ATOM     13  C9  UNL     1     143.169 128.578  98.406  0.00  0.00    -0.030 A 
ATOM     14  C10 UNL     1     141.957 128.187  97.873  0.00  0.00    -0.022 A 
ATOM     15  C11 UNL     1     140.812 128.278  98.649  0.00  0.00    +0.043 A 
ATOM     16  C12 UNL     1     140.787 128.702  99.961  0.00  0.00    -0.023 A 
ATOM     17  C13 UNL     1     142.004 129.086 100.521  0.00  0.00    -0.030 A 
ATOM     18  C14 UNL     1     139.491 128.592 100.703  0.00  0.00    -0.018 C 
ATOM     19  C15 UNL     1     138.284 128.680  99.762  0.00  0.00    +0.029 C 
ATOM     20  C16 UNL     1     138.429 127.878  98.471  0.00  0.00    +0.220 C 
ATOM     21  O3  UNL     1     137.455 127.396  97.896  0.00  0.00    -0.275 OA
ATOM     22  N2  UNL     1     139.697 127.843  97.956  0.00  0.00    -0.271 N 
ATOM     23  C17 UNL     1     140.118 127.304  96.661  0.00  0.00    +0.024 C 
ATOM     24  C18 UNL     1     141.618 127.659  96.512  0.00  0.00    -0.010 C 
ATOM     25  H   UNL     1     144.931 131.843 100.858  0.00  0.00    +0.000 HD
ENDROOT
TORSDOF 0
ENDMDL
MODEL 6
REMARK VINA RESULT:    -4.911      3.159      4.971
REMARK INTER + INTRA:          -4.911
REMARK INTER:                  -4.911
REMARK INTRA:                   0.000
REMARK UNBOUND:                 0.000
REMARK  Name = /home/vital/Documents/PhD_2021/Malaria_codes/scripts/../data/pdbqt_ligands/ligand_78_temp.pdb
REMARK                            x       y       z     vdW  Elec       q    Type
REMARK                         _______ _______ _______ _____ _____    ______ ____
ROOT
ATOM      1  C1  UNL     1     138.855 128.862 100.477  0.00  0.00    -0.038 C 
ATOM      2  C2  UNL     1     139.992 129.837 100.356  0.00  0.00    -0.028 A 
ATOM      3  C3  UNL     1     139.922 130.849  99.383  0.00  0.00    -0.057 A 
ATOM      4  C4  UNL     1     140.950 131.782  99.247  0.00  0.00    -0.061 A 
ATOM      5  C5  UNL     1     142.059 131.722 100.084  0.00  0.00    -0.060 A 
ATOM      6  C6  UNL     1     142.142 130.725 101.055  0.00  0.00    -0.039 A 
ATOM      7  C7  UNL     1     141.122 129.779 101.190  0.00  0.00    +0.051 A 
ATOM      8  N1  UNL     1     141.243 128.750 102.168  0.00  0.00    -0.216 N 
ATOM      9  S1  UNL     1     142.491 127.620 102.060  0.00  0.00    +0.072 S 
ATOM     10  O1  UNL     1     143.771 128.293 102.116  0.00  0.00    -0.150 OA
ATOM     11  O2  UNL     1     142.158 126.571 103.001  0.00  0.00    -0.150 OA
ATOM     12  C8  UNL     1     142.294 126.948 100.420  0.00  0.00    +0.109 A 
ATOM     13  C9  UNL     1     142.998 127.535  99.350  0.00  0.00    -0.030 A 
ATOM     14  C10 UNL     1     142.836 126.983  98.095  0.00  0.00    -0.022 A 
ATOM     15  C11 UNL     1     141.995 125.893  97.936  0.00  0.00    +0.043 A 
ATOM     16  C12 UNL     1     141.318 125.270  98.963  0.00  0.00    -0.023 A 
ATOM     17  C13 UNL     1     141.481 125.804 100.239  0.00  0.00    -0.030 A 
ATOM     18  C14 UNL     1     140.576 124.009  98.642  0.00  0.00    -0.018 C 
ATOM     19  C15 UNL     1     140.118 123.972  97.179  0.00  0.00    +0.029 C 
ATOM     20  C16 UNL     1     141.165 124.449  96.176  0.00  0.00    +0.220 C 
ATOM     21  O3  UNL     1     141.208 124.010  95.029  0.00  0.00    -0.275 OA
ATOM     22  N2  UNL     1     141.959 125.474  96.619  0.00  0.00    -0.271 N 
ATOM     23  C17 UNL     1     142.927 126.248  95.841  0.00  0.00    +0.024 C 
ATOM     24  C18 UNL     1     143.428 127.376  96.776  0.00  0.00    -0.010 C 
ATOM     25  H   UNL     1     140.597 128.698 102.909  0.00  0.00    +0.000 HD
ENDROOT
TORSDOF 0
ENDMDL
MODEL 7
REMARK VINA RESULT:    -4.886      3.928      5.968
REMARK INTER + INTRA:          -4.886
REMARK INTER:                  -4.886
REMARK INTRA:                   0.000
REMARK UNBOUND:                 0.000
REMARK  Name = /home/vital/Documents/PhD_2021/Malaria_codes/scripts/../data/pdbqt_ligands/ligand_78_temp.pdb
REMARK                            x       y       z     vdW  Elec       q    Type
REMARK                         _______ _______ _______ _____ _____    ______ ____
ROOT
ATOM      1  C1  UNL     1     142.895 126.723  97.873  0.00  0.00    -0.038 C 
ATOM      2  C2  UNL     1     141.433 127.042  98.011  0.00  0.00    -0.028 A 
ATOM      3  C3  UNL     1     140.709 127.433  96.871  0.00  0.00    -0.057 A 
ATOM      4  C4  UNL     1     139.347 127.725  96.954  0.00  0.00    -0.061 A 
ATOM      5  C5  UNL     1     138.688 127.626  98.174  0.00  0.00    -0.060 A 
ATOM      6  C6  UNL     1     139.392 127.238  99.314  0.00  0.00    -0.039 A 
ATOM      7  C7  UNL     1     140.759 126.955  99.241  0.00  0.00    +0.051 A 
ATOM      8  N1  UNL     1     141.464 126.591 100.425  0.00  0.00    -0.216 N 
ATOM      9  S1  UNL     1     141.598 127.685 101.702  0.00  0.00    +0.072 S 
ATOM     10  O1  UNL     1     140.281 128.039 102.187  0.00  0.00    -0.150 OA
ATOM     11  O2  UNL     1     142.599 127.135 102.592  0.00  0.00    -0.150 OA
ATOM     12  C8  UNL     1     142.306 129.129 100.932  0.00  0.00    +0.109 A 
ATOM     13  C9  UNL     1     141.449 130.126 100.426  0.00  0.00    -0.030 A 
ATOM     14  C10 UNL     1     142.028 131.239  99.849  0.00  0.00    -0.022 A 
ATOM     15  C11 UNL     1     143.409 131.330  99.784  0.00  0.00    +0.043 A 
ATOM     16  C12 UNL     1     144.281 130.392 100.298  0.00  0.00    -0.023 A 
ATOM     17  C13 UNL     1     143.714 129.269 100.898  0.00  0.00    -0.030 A 
ATOM     18  C14 UNL     1     145.742 130.719 100.282  0.00  0.00    -0.018 C 
ATOM     19  C15 UNL     1     146.102 131.672  99.137  0.00  0.00    +0.029 C 
ATOM     20  C16 UNL     1     145.119 132.824  98.939  0.00  0.00    +0.220 C 
ATOM     21  O3  UNL     1     145.479 133.913  98.497  0.00  0.00    -0.275 OA
ATOM     22  N2  UNL     1     143.809 132.507  99.180  0.00  0.00    -0.271 N 
ATOM     23  C17 UNL     1     142.631 133.337  98.920  0.00  0.00    +0.024 C 
ATOM     24  C18 UNL     1     141.400 132.447  99.223  0.00  0.00    -0.010 C 
ATOM     25  H   UNL     1     141.875 125.700 100.498  0.00  0.00    +0.000 HD
ENDROOT
TORSDOF 0
ENDMDL
MODEL 8
REMARK VINA RESULT:    -4.771     12.241     15.065
REMARK INTER + INTRA:          -4.771
REMARK INTER:                  -4.771
REMARK INTRA:                   0.000
REMARK UNBOUND:                 0.000
REMARK  Name = /home/vital/Documents/PhD_2021/Malaria_codes/scripts/../data/pdbqt_ligands/ligand_78_temp.pdb
REMARK                            x       y       z     vdW  Elec       q    Type
REMARK                         _______ _______ _______ _____ _____    ______ ____
ROOT
ATOM      1  C1  UNL     1     138.371 122.504  87.509  0.00  0.00    -0.038 C 
ATOM      2  C2  UNL     1     138.486 123.302  88.776  0.00  0.00    -0.028 A 
ATOM      3  C3  UNL     1     138.498 122.628  90.009  0.00  0.00    -0.057 A 
ATOM      4  C4  UNL     1     138.616 123.331  91.208  0.00  0.00    -0.061 A 
ATOM      5  C5  UNL     1     138.731 124.717  91.193  0.00  0.00    -0.060 A 
ATOM      6  C6  UNL     1     138.722 125.400  89.977  0.00  0.00    -0.039 A 
ATOM      7  C7  UNL     1     138.593 124.704  88.773  0.00  0.00    +0.051 A 
ATOM      8  N1  UNL     1     138.555 125.427  87.545  0.00  0.00    -0.216 N 
ATOM      9  S1  UNL     1     137.298 126.510  87.237  0.00  0.00    +0.072 S 
ATOM     10  O1  UNL     1     137.288 127.550  88.242  0.00  0.00    -0.150 OA
ATOM     11  O2  UNL     1     137.391 126.833  85.828  0.00  0.00    -0.150 OA
ATOM     12  C8  UNL     1     135.835 125.514  87.459  0.00  0.00    +0.109 A 
ATOM     13  C9  UNL     1     135.224 125.470  88.727  0.00  0.00    -0.030 A 
ATOM     14  C10 UNL     1     134.084 124.703  88.864  0.00  0.00    -0.022 A 
ATOM     15  C11 UNL     1     133.596 124.009  87.767  0.00  0.00    +0.043 A 
ATOM     16  C12 UNL     1     134.147 124.055  86.504  0.00  0.00    -0.023 A 
ATOM     17  C13 UNL     1     135.289 124.837  86.343  0.00  0.00    -0.030 A 
ATOM     18  C14 UNL     1     133.405 123.371  85.397  0.00  0.00    -0.018 C 
ATOM     19  C15 UNL     1     132.563 122.198  85.912  0.00  0.00    +0.029 C 
ATOM     20  C16 UNL     1     131.798 122.487  87.202  0.00  0.00    +0.220 C 
ATOM     21  O3  UNL     1     130.727 121.940  87.455  0.00  0.00    -0.275 OA
ATOM     22  N2  UNL     1     132.453 123.301  88.088  0.00  0.00    -0.271 N 
ATOM     23  C17 UNL     1     132.059 123.621  89.460  0.00  0.00    +0.024 C 
ATOM     24  C18 UNL     1     133.222 124.448  90.062  0.00  0.00    -0.010 C 
ATOM     25  H   UNL     1     139.263 125.293  86.874  0.00  0.00    +0.000 HD
ENDROOT
TORSDOF 0
ENDMDL
MODEL 9
REMARK VINA RESULT:    -4.741      2.735      6.374
REMARK INTER + INTRA:          -4.741
REMARK INTER:                  -4.741
REMARK INTRA:                   0.000
REMARK UNBOUND:                 0.000
REMARK  Name = /home/vital/Documents/PhD_2021/Malaria_codes/scripts/../data/pdbqt_ligands/ligand_78_temp.pdb
REMARK                            x       y       z     vdW  Elec       q    Type
REMARK                         _______ _______ _______ _____ _____    ______ ____
ROOT
ATOM      1  C1  UNL     1     141.798 131.171 100.117  0.00  0.00    -0.038 C 
ATOM      2  C2  UNL     1     140.629 130.228 100.169  0.00  0.00    -0.028 A 
ATOM      3  C3  UNL     1     139.650 130.410 101.161  0.00  0.00    -0.057 A 
ATOM      4  C4  UNL     1     138.542 129.564 101.236  0.00  0.00    -0.061 A 
ATOM      5  C5  UNL     1     138.395 128.530 100.318  0.00  0.00    -0.060 A 
ATOM      6  C6  UNL     1     139.357 128.338  99.327  0.00  0.00    -0.039 A 
ATOM      7  C7  UNL     1     140.475 129.173  99.253  0.00  0.00    +0.051 A 
ATOM      8  N1  UNL     1     141.462 128.939  98.252  0.00  0.00    -0.216 N 
ATOM      9  S1  UNL     1     142.341 127.499  98.249  0.00  0.00    +0.072 S 
ATOM     10  O1  UNL     1     141.442 126.374  98.110  0.00  0.00    -0.150 OA
ATOM     11  O2  UNL     1     143.432 127.703  97.319  0.00  0.00    -0.150 OA
ATOM     12  C8  UNL     1     143.042 127.444  99.888  0.00  0.00    +0.109 A 
ATOM     13  C9  UNL     1     142.336 126.782 100.912  0.00  0.00    -0.030 A 
ATOM     14  C10 UNL     1     142.912 126.743 102.166  0.00  0.00    -0.022 A 
ATOM     15  C11 UNL     1     144.139 127.353 102.370  0.00  0.00    +0.043 A 
ATOM     16  C12 UNL     1     144.875 127.980 101.386  0.00  0.00    -0.023 A 
ATOM     17  C13 UNL     1     144.317 128.016 100.110  0.00  0.00    -0.030 A 
ATOM     18  C14 UNL     1     146.252 128.450 101.741  0.00  0.00    -0.018 C 
ATOM     19  C15 UNL     1     146.377 128.782 103.232  0.00  0.00    +0.029 C 
ATOM     20  C16 UNL     1     145.716 127.768 104.163  0.00  0.00    +0.220 C 
ATOM     21  O3  UNL     1     146.142 127.557 105.297  0.00  0.00    -0.275 OA
ATOM     22  N2  UNL     1     144.561 127.212 103.679  0.00  0.00    -0.271 N 
ATOM     23  C17 UNL     1     143.623 126.347 104.395  0.00  0.00    +0.024 C 
ATOM     24  C18 UNL     1     142.418 126.135 103.444  0.00  0.00    -0.010 C 
ATOM     25  H   UNL     1     141.631 129.618  97.560  0.00  0.00    +0.000 HD
ENDROOT
TORSDOF 0
ENDMDL
