MODEL 1
REMARK VINA RESULT:    -4.954      0.000      0.000
REMARK INTER + INTRA:          -4.954
REMARK INTER:                  -4.954
REMARK INTRA:                   0.000
REMARK UNBOUND:                 0.000
REMARK  Name = /home/vital/Documents/PhD_2021/Malaria_codes/scripts/../data/pdbqt_ligands/ligand_314_temp.pdb
REMARK                            x       y       z     vdW  Elec       q    Type
REMARK                         _______ _______ _______ _____ _____    ______ ____
ROOT
ATOM      1  C   UNL     1     138.354 128.625 101.094  0.00  0.00    -0.065 C 
ATOM      2  C   UNL     1     138.857 129.433  99.907  0.00  0.00    -0.056 C 
ATOM      3  C   UNL     1     138.997 128.616  98.620  0.00  0.00    -0.052 C 
ATOM      4  C   UNL     1     139.965 127.428  98.686  0.00  0.00    -0.037 C 
ATOM      5  C   UNL     1     141.437 127.796  98.909  0.00  0.00    +0.014 C 
ATOM      6  N   UNL     1     141.997 128.533  97.767  0.00  0.00    -0.306 N 
ATOM      7  C   UNL     1     142.265 127.874  96.562  0.00  0.00    +0.056 C 
ATOM      8  C   UNL     1     142.961 128.391  95.585  0.00  0.00    +0.003 C 
ATOM      9  N   UNL     1     143.609 128.896  94.740  0.00  0.00    -0.212 NA
ATOM     10  C   UNL     1     144.307 129.962  95.249  0.00  0.00    +0.040 C 
ATOM     11  C   UNL     1     144.167 131.224  94.811  0.00  0.00    -0.015 C 
ATOM     12  C   UNL     1     144.702 132.377  95.522  0.00  0.00    +0.100 C 
ATOM     13  C   UNL     1     145.245 133.461  94.922  0.00  0.00    +0.128 C 
ATOM     14 CL   UNL     1     145.455 133.539  93.201  0.00  0.00    -0.064 Cl
ATOM     15  N   UNL     1     145.670 134.588  95.641  0.00  0.00    -0.283 N 
ATOM     16  C   UNL     1     146.278 135.765  94.986  0.00  0.00    +0.037 C 
ATOM     17  C   UNL     1     146.576 136.887  95.947  0.00  0.00    -0.066 C 
ATOM     18  C   UNL     1     146.320 136.826  97.261  0.00  0.00    -0.062 C 
ATOM     19  C   UNL     1     145.738 135.634  97.822  0.00  0.00    -0.037 C 
ATOM     20  C   UNL     1     145.456 134.583  97.033  0.00  0.00    +0.075 C 
ATOM     21  C   UNL     1     144.840 133.310  97.642  0.00  0.00    +0.141 C 
ATOM     22  N   UNL     1     144.503 132.289  96.889  0.00  0.00    -0.228 N 
ATOM     23  N   UNL     1     144.617 133.198  99.010  0.00  0.00    -0.325 N 
ATOM     24  C   UNL     1     144.099 131.979  99.625  0.00  0.00    +0.034 C 
ATOM     25  C   UNL     1     142.588 131.803  99.372  0.00  0.00    +0.065 C 
ATOM     26  O   UNL     1     142.187 130.429  99.276  0.00  0.00    -0.360 OA
ATOM     27  C   UNL     1     142.544 129.880  98.009  0.00  0.00    +0.114 C 
ATOM     28  H   UNL     1     144.116 131.478  97.288  0.00  0.00    +0.000 HD
ATOM     29  H   UNL     1     144.817 133.971  99.586  0.00  0.00    +0.000 HD
ENDROOT
TORSDOF 0
ENDMDL
MODEL 2
REMARK VINA RESULT:    -4.941      3.619      4.942
REMARK INTER + INTRA:          -4.941
REMARK INTER:                  -4.941
REMARK INTRA:                   0.000
REMARK UNBOUND:                 0.000
REMARK  Name = /home/vital/Documents/PhD_2021/Malaria_codes/scripts/../data/pdbqt_ligands/ligand_314_temp.pdb
REMARK                            x       y       z     vdW  Elec       q    Type
REMARK                         _______ _______ _______ _____ _____    ______ ____
ROOT
ATOM      1  C   UNL     1     144.363 124.544 104.973  0.00  0.00    -0.065 C 
ATOM      2  C   UNL     1     144.011 125.985 104.634  0.00  0.00    -0.056 C 
ATOM      3  C   UNL     1     142.505 126.243 104.532  0.00  0.00    -0.052 C 
ATOM      4  C   UNL     1     141.760 125.429 103.467  0.00  0.00    -0.037 C 
ATOM      5  C   UNL     1     142.163 125.723 102.017  0.00  0.00    +0.014 C 
ATOM      6  N   UNL     1     141.798 127.088 101.612  0.00  0.00    -0.306 N 
ATOM      7  C   UNL     1     140.457 127.424 101.389  0.00  0.00    +0.056 C 
ATOM      8  C   UNL     1     140.067 128.533 100.818  0.00  0.00    +0.003 C 
ATOM      9  N   UNL     1     139.768 129.539 100.284  0.00  0.00    -0.212 NA
ATOM     10  C   UNL     1     140.853 130.076  99.638  0.00  0.00    +0.040 C 
ATOM     11  C   UNL     1     141.365 131.285  99.916  0.00  0.00    -0.015 C 
ATOM     12  C   UNL     1     142.659 131.735  99.422  0.00  0.00    +0.100 C 
ATOM     13  C   UNL     1     142.928 132.999  99.020  0.00  0.00    +0.128 C 
ATOM     14 CL   UNL     1     141.693 134.215  98.955  0.00  0.00    -0.064 Cl
ATOM     15  N   UNL     1     144.212 133.410  98.633  0.00  0.00    -0.283 N 
ATOM     16  C   UNL     1     144.501 134.786  98.178  0.00  0.00    +0.037 C 
ATOM     17  C   UNL     1     145.963 135.019  97.897  0.00  0.00    -0.066 C 
ATOM     18  C   UNL     1     146.906 134.079  98.042  0.00  0.00    -0.062 C 
ATOM     19  C   UNL     1     146.537 132.756  98.477  0.00  0.00    -0.037 C 
ATOM     20  C   UNL     1     145.250 132.463  98.734  0.00  0.00    +0.075 C 
ATOM     21  C   UNL     1     144.862 131.045  99.192  0.00  0.00    +0.141 C 
ATOM     22  N   UNL     1     143.623 130.746  99.503  0.00  0.00    -0.228 N 
ATOM     23  N   UNL     1     145.811 130.034  99.294  0.00  0.00    -0.325 N 
ATOM     24  C   UNL     1     145.464 128.664  99.659  0.00  0.00    +0.034 C 
ATOM     25  C   UNL     1     145.166 128.527 101.166  0.00  0.00    +0.065 C 
ATOM     26  O   UNL     1     144.184 127.523 101.459  0.00  0.00    -0.360 OA
ATOM     27  C   UNL     1     142.870 127.992 101.161  0.00  0.00    +0.114 C 
ATOM     28  H   UNL     1     143.384 129.835  99.789  0.00  0.00    +0.000 HD
ATOM     29  H   UNL     1     146.754 130.252  99.113  0.00  0.00    +0.000 HD
ENDROOT
TORSDOF 0
ENDMDL
MODEL 3
REMARK VINA RESULT:    -4.792      0.665      0.699
REMARK INTER + INTRA:          -4.792
REMARK INTER:                  -4.792
REMARK INTRA:                   0.000
REMARK UNBOUND:                 0.000
REMARK  Name = /home/vital/Documents/PhD_2021/Malaria_codes/scripts/../data/pdbqt_ligands/ligand_314_temp.pdb
REMARK                            x       y       z     vdW  Elec       q    Type
REMARK                         _______ _______ _______ _____ _____    ______ ____
ROOT
ATOM      1  C   UNL     1     138.394 128.603 101.121  0.00  0.00    -0.065 C 
ATOM      2  C   UNL     1     138.828 129.362  99.876  0.00  0.00    -0.056 C 
ATOM      3  C   UNL     1     138.820 128.512  98.603  0.00  0.00    -0.052 C 
ATOM      4  C   UNL     1     139.737 127.283  98.616  0.00  0.00    -0.037 C 
ATOM      5  C   UNL     1     141.238 127.588  98.703  0.00  0.00    +0.014 C 
ATOM      6  N   UNL     1     141.730 128.275  97.500  0.00  0.00    -0.306 N 
ATOM      7  C   UNL     1     141.864 127.578  96.293  0.00  0.00    +0.056 C 
ATOM      8  C   UNL     1     142.494 128.042  95.248  0.00  0.00    +0.003 C 
ATOM      9  N   UNL     1     143.088 128.498  94.339  0.00  0.00    -0.212 NA
ATOM     10  C   UNL     1     143.873 129.542  94.759  0.00  0.00    +0.040 C 
ATOM     11  C   UNL     1     143.750 130.799  94.303  0.00  0.00    -0.015 C 
ATOM     12  C   UNL     1     144.395 131.942  94.935  0.00  0.00    +0.100 C 
ATOM     13  C   UNL     1     144.930 132.988  94.264  0.00  0.00    +0.128 C 
ATOM     14 CL   UNL     1     144.995 133.018  92.531  0.00  0.00    -0.064 Cl
ATOM     15  N   UNL     1     145.465 134.109  94.916  0.00  0.00    -0.283 N 
ATOM     16  C   UNL     1     146.064 135.242  94.181  0.00  0.00    +0.037 C 
ATOM     17  C   UNL     1     146.493 136.370  95.085  0.00  0.00    -0.066 C 
ATOM     18  C   UNL     1     146.348 136.349  96.417  0.00  0.00    -0.062 C 
ATOM     19  C   UNL     1     145.766 135.198  97.056  0.00  0.00    -0.037 C 
ATOM     20  C   UNL     1     145.371 134.143  96.321  0.00  0.00    +0.075 C 
ATOM     21  C   UNL     1     144.755 132.913  97.012  0.00  0.00    +0.141 C 
ATOM     22  N   UNL     1     144.311 131.893  96.316  0.00  0.00    -0.228 N 
ATOM     23  N   UNL     1     144.647 132.841  98.396  0.00  0.00    -0.325 N 
ATOM     24  C   UNL     1     144.131 131.660  99.084  0.00  0.00    +0.034 C 
ATOM     25  C   UNL     1     142.598 131.548  98.966  0.00  0.00    +0.065 C 
ATOM     26  O   UNL     1     142.131 130.192  98.938  0.00  0.00    -0.360 OA
ATOM     27  C   UNL     1     142.353 129.599  97.660  0.00  0.00    +0.114 C 
ATOM     28  H   UNL     1     143.925 131.108  96.768  0.00  0.00    +0.000 HD
ATOM     29  H   UNL     1     144.929 133.616  98.933  0.00  0.00    +0.000 HD
ENDROOT
TORSDOF 0
ENDMDL
MODEL 4
REMARK VINA RESULT:    -4.566      5.172      7.545
REMARK INTER + INTRA:          -4.566
REMARK INTER:                  -4.566
REMARK INTRA:                   0.000
REMARK UNBOUND:                 0.000
REMARK  Name = /home/vital/Documents/PhD_2021/Malaria_codes/scripts/../data/pdbqt_ligands/ligand_314_temp.pdb
REMARK                            x       y       z     vdW  Elec       q    Type
REMARK                         _______ _______ _______ _____ _____    ______ ____
ROOT
ATOM      1  C   UNL     1     138.757 123.258 107.698  0.00  0.00    -0.065 C 
ATOM      2  C   UNL     1     138.609 123.899 106.326  0.00  0.00    -0.056 C 
ATOM      3  C   UNL     1     138.511 122.888 105.181  0.00  0.00    -0.052 C 
ATOM      4  C   UNL     1     139.712 121.949 105.015  0.00  0.00    -0.037 C 
ATOM      5  C   UNL     1     141.030 122.635 104.630  0.00  0.00    +0.014 C 
ATOM      6  N   UNL     1     140.967 123.228 103.287  0.00  0.00    -0.306 N 
ATOM      7  C   UNL     1     140.973 122.410 102.151  0.00  0.00    +0.056 C 
ATOM      8  C   UNL     1     141.145 122.851 100.934  0.00  0.00    +0.003 C 
ATOM      9  N   UNL     1     141.320 123.296  99.857  0.00  0.00    -0.212 NA
ATOM     10  C   UNL     1     141.853 124.557  99.945  0.00  0.00    +0.040 C 
ATOM     11  C   UNL     1     141.259 125.655  99.452  0.00  0.00    -0.015 C 
ATOM     12  C   UNL     1     141.690 127.008  99.776  0.00  0.00    +0.100 C 
ATOM     13  C   UNL     1     141.705 128.038  98.899  0.00  0.00    +0.128 C 
ATOM     14 CL   UNL     1     141.299 127.814  97.227  0.00  0.00    -0.064 Cl
ATOM     15  N   UNL     1     142.047 129.345  99.276  0.00  0.00    -0.283 N 
ATOM     16  C   UNL     1     142.079 130.465  98.313  0.00  0.00    +0.037 C 
ATOM     17  C   UNL     1     142.388 131.791  98.960  0.00  0.00    -0.066 C 
ATOM     18  C   UNL     1     142.612 131.941 100.273  0.00  0.00    -0.062 C 
ATOM     19  C   UNL     1     142.575 130.793 101.141  0.00  0.00    -0.037 C 
ATOM     20  C   UNL     1     142.322 129.572 100.638  0.00  0.00    +0.075 C 
ATOM     21  C   UNL     1     142.290 128.349 101.572  0.00  0.00    +0.141 C 
ATOM     22  N   UNL     1     141.991 127.154 101.119  0.00  0.00    -0.228 N 
ATOM     23  N   UNL     1     142.577 128.467 102.928  0.00  0.00    -0.325 N 
ATOM     24  C   UNL     1     142.623 127.316 103.825  0.00  0.00    +0.034 C 
ATOM     25  C   UNL     1     141.212 126.801 104.175  0.00  0.00    +0.065 C 
ATOM     26  O   UNL     1     141.165 125.384 104.391  0.00  0.00    -0.360 OA
ATOM     27  C   UNL     1     141.202 124.676 103.153  0.00  0.00    +0.114 C 
ATOM     28  H   UNL     1     141.980 126.377 101.723  0.00  0.00    +0.000 HD
ATOM     29  H   UNL     1     142.755 129.362 103.297  0.00  0.00    +0.000 HD
ENDROOT
TORSDOF 0
ENDMDL
MODEL 5
REMARK VINA RESULT:    -4.473     10.907     12.907
REMARK INTER + INTRA:          -4.473
REMARK INTER:                  -4.473
REMARK INTRA:                   0.000
REMARK UNBOUND:                 0.000
REMARK  Name = /home/vital/Documents/PhD_2021/Malaria_codes/scripts/../data/pdbqt_ligands/ligand_314_temp.pdb
REMARK                            x       y       z     vdW  Elec       q    Type
REMARK                         _______ _______ _______ _____ _____    ______ ____
ROOT
ATOM      1  C   UNL     1     139.608 143.429 106.663  0.00  0.00    -0.065 C 
ATOM      2  C   UNL     1     140.237 142.652 105.516  0.00  0.00    -0.056 C 
ATOM      3  C   UNL     1     141.743 142.428 105.677  0.00  0.00    -0.052 C 
ATOM      4  C   UNL     1     142.600 143.696 105.768  0.00  0.00    -0.037 C 
ATOM      5  C   UNL     1     142.612 144.570 104.508  0.00  0.00    +0.014 C 
ATOM      6  N   UNL     1     143.259 143.892 103.376  0.00  0.00    -0.306 N 
ATOM      7  C   UNL     1     144.647 143.714 103.358  0.00  0.00    +0.056 C 
ATOM      8  C   UNL     1     145.321 143.330 102.307  0.00  0.00    +0.003 C 
ATOM      9  N   UNL     1     145.885 142.998 101.327  0.00  0.00    -0.212 NA
ATOM     10  C   UNL     1     145.081 143.180 100.231  0.00  0.00    +0.040 C 
ATOM     11  C   UNL     1     144.697 142.188  99.412  0.00  0.00    -0.015 C 
ATOM     12  C   UNL     1     143.642 142.337  98.419  0.00  0.00    +0.100 C 
ATOM     13  C   UNL     1     143.665 141.777  97.188  0.00  0.00    +0.128 C 
ATOM     14 CL   UNL     1     145.042 140.887  96.619  0.00  0.00    -0.064 Cl
ATOM     15  N   UNL     1     142.588 141.876  96.293  0.00  0.00    -0.283 N 
ATOM     16  C   UNL     1     142.622 141.278  94.943  0.00  0.00    +0.037 C 
ATOM     17  C   UNL     1     141.323 141.437  94.195  0.00  0.00    -0.066 C 
ATOM     18  C   UNL     1     140.248 142.056  94.700  0.00  0.00    -0.062 C 
ATOM     19  C   UNL     1     140.304 142.625  96.022  0.00  0.00    -0.037 C 
ATOM     20  C   UNL     1     141.432 142.539  96.748  0.00  0.00    +0.075 C 
ATOM     21  C   UNL     1     141.486 143.154  98.158  0.00  0.00    +0.141 C 
ATOM     22  N   UNL     1     142.555 143.037  98.911  0.00  0.00    -0.228 N 
ATOM     23  N   UNL     1     140.405 143.853  98.684  0.00  0.00    -0.325 N 
ATOM     24  C   UNL     1     140.450 144.507  99.989  0.00  0.00    +0.034 C 
ATOM     25  C   UNL     1     140.347 143.492 101.145  0.00  0.00    +0.065 C 
ATOM     26  O   UNL     1     141.072 143.893 102.316  0.00  0.00    -0.360 OA
ATOM     27  C   UNL     1     142.472 143.680 102.149  0.00  0.00    +0.114 C 
ATOM     28  H   UNL     1     142.582 143.440  99.809  0.00  0.00    +0.000 HD
ATOM     29  H   UNL     1     139.577 143.909  98.155  0.00  0.00    +0.000 HD
ENDROOT
TORSDOF 0
ENDMDL
MODEL 6
REMARK VINA RESULT:    -4.319      9.915     11.883
REMARK INTER + INTRA:          -4.319
REMARK INTER:                  -4.319
REMARK INTRA:                   0.000
REMARK UNBOUND:                 0.000
REMARK  Name = /home/vital/Documents/PhD_2021/Malaria_codes/scripts/../data/pdbqt_ligands/ligand_314_temp.pdb
REMARK                            x       y       z     vdW  Elec       q    Type
REMARK                         _______ _______ _______ _____ _____    ______ ____
ROOT
ATOM      1  C   UNL     1     132.881 121.644  90.173  0.00  0.00    -0.065 C 
ATOM      2  C   UNL     1     133.316 123.101  90.158  0.00  0.00    -0.056 C 
ATOM      3  C   UNL     1     132.712 123.912  89.008  0.00  0.00    -0.052 C 
ATOM      4  C   UNL     1     133.049 123.419  87.596  0.00  0.00    -0.037 C 
ATOM      5  C   UNL     1     134.532 123.504  87.210  0.00  0.00    +0.014 C 
ATOM      6  N   UNL     1     134.998 124.895  87.125  0.00  0.00    -0.306 N 
ATOM      7  C   UNL     1     134.596 125.712  86.062  0.00  0.00    +0.056 C 
ATOM      8  C   UNL     1     135.131 126.871  85.788  0.00  0.00    +0.003 C 
ATOM      9  N   UNL     1     135.658 127.903  85.574  0.00  0.00    -0.212 NA
ATOM     10  C   UNL     1     136.860 127.970  86.232  0.00  0.00    +0.040 C 
ATOM     11  C   UNL     1     137.155 128.898  87.156  0.00  0.00    -0.015 C 
ATOM     12  C   UNL     1     138.313 128.808  88.034  0.00  0.00    +0.100 C 
ATOM     13  C   UNL     1     139.070 129.864  88.414  0.00  0.00    +0.128 C 
ATOM     14 CL   UNL     1     138.786 131.458  87.790  0.00  0.00    -0.064 Cl
ATOM     15  N   UNL     1     140.126 129.744  89.330  0.00  0.00    -0.283 N 
ATOM     16  C   UNL     1     140.961 130.895  89.731  0.00  0.00    +0.037 C 
ATOM     17  C   UNL     1     141.976 130.546  90.789  0.00  0.00    -0.066 C 
ATOM     18  C   UNL     1     142.110 129.320  91.313  0.00  0.00    -0.062 C 
ATOM     19  C   UNL     1     141.263 128.249  90.855  0.00  0.00    -0.037 C 
ATOM     20  C   UNL     1     140.342 128.476  89.902  0.00  0.00    +0.075 C 
ATOM     21  C   UNL     1     139.444 127.324  89.413  0.00  0.00    +0.141 C 
ATOM     22  N   UNL     1     138.500 127.528  88.525  0.00  0.00    -0.228 N 
ATOM     23  N   UNL     1     139.601 126.030  89.897  0.00  0.00    -0.325 N 
ATOM     24  C   UNL     1     138.812 124.905  89.403  0.00  0.00    +0.034 C 
ATOM     25  C   UNL     1     137.371 124.927  89.951  0.00  0.00    +0.065 C 
ATOM     26  O   UNL     1     136.410 124.382  89.035  0.00  0.00    -0.360 OA
ATOM     27  C   UNL     1     136.113 125.310  87.993  0.00  0.00    +0.114 C 
ATOM     28  H   UNL     1     137.936 126.784  88.213  0.00  0.00    +0.000 HD
ATOM     29  H   UNL     1     140.270 125.867  90.600  0.00  0.00    +0.000 HD
ENDROOT
TORSDOF 0
ENDMDL
MODEL 7
REMARK VINA RESULT:    -4.241     11.711     15.528
REMARK INTER + INTRA:          -4.241
REMARK INTER:                  -4.241
REMARK INTRA:                   0.000
REMARK UNBOUND:                 0.000
REMARK  Name = /home/vital/Documents/PhD_2021/Malaria_codes/scripts/../data/pdbqt_ligands/ligand_314_temp.pdb
REMARK                            x       y       z     vdW  Elec       q    Type
REMARK                         _______ _______ _______ _____ _____    ______ ____
ROOT
ATOM      1  C   UNL     1     139.321 131.278  87.334  0.00  0.00    -0.065 C 
ATOM      2  C   UNL     1     138.364 130.255  87.928  0.00  0.00    -0.056 C 
ATOM      3  C   UNL     1     138.839 129.667  89.259  0.00  0.00    -0.052 C 
ATOM      4  C   UNL     1     140.182 128.927  89.220  0.00  0.00    -0.037 C 
ATOM      5  C   UNL     1     140.203 127.655  88.363  0.00  0.00    +0.014 C 
ATOM      6  N   UNL     1     139.337 126.605  88.918  0.00  0.00    -0.306 N 
ATOM      7  C   UNL     1     139.711 125.921  90.080  0.00  0.00    +0.056 C 
ATOM      8  C   UNL     1     139.123 124.837  90.512  0.00  0.00    +0.003 C 
ATOM      9  N   UNL     1     138.570 123.853  90.849  0.00  0.00    -0.212 NA
ATOM     10  C   UNL     1     137.840 123.337  89.809  0.00  0.00    +0.040 C 
ATOM     11  C   UNL     1     136.509 123.167  89.843  0.00  0.00    -0.015 C 
ATOM     12  C   UNL     1     135.712 122.873  88.659  0.00  0.00    +0.100 C 
ATOM     13  C   UNL     1     134.652 122.034  88.638  0.00  0.00    +0.128 C 
ATOM     14 CL   UNL     1     134.189 121.119  90.038  0.00  0.00    -0.064 Cl
ATOM     15  N   UNL     1     133.860 121.846  87.495  0.00  0.00    -0.283 N 
ATOM     16  C   UNL     1     132.713 120.916  87.470  0.00  0.00    +0.037 C 
ATOM     17  C   UNL     1     131.960 120.944  86.164  0.00  0.00    -0.066 C 
ATOM     18  C   UNL     1     132.295 121.730  85.131  0.00  0.00    -0.062 C 
ATOM     19  C   UNL     1     133.439 122.598  85.234  0.00  0.00    -0.037 C 
ATOM     20  C   UNL     1     134.172 122.620  86.361  0.00  0.00    +0.075 C 
ATOM     21  C   UNL     1     135.398 123.547  86.461  0.00  0.00    +0.141 C 
ATOM     22  N   UNL     1     136.099 123.631  87.567  0.00  0.00    -0.228 N 
ATOM     23  N   UNL     1     135.802 124.329  85.385  0.00  0.00    -0.325 N 
ATOM     24  C   UNL     1     136.999 125.165  85.425  0.00  0.00    +0.034 C 
ATOM     25  C   UNL     1     136.781 126.442  86.262  0.00  0.00    +0.065 C 
ATOM     26  O   UNL     1     137.969 126.890  86.930  0.00  0.00    -0.360 OA
ATOM     27  C   UNL     1     138.243 126.089  88.078  0.00  0.00    +0.114 C 
ATOM     28  H   UNL     1     136.885 124.222  87.619  0.00  0.00    +0.000 HD
ATOM     29  H   UNL     1     135.261 124.318  84.563  0.00  0.00    +0.000 HD
ENDROOT
TORSDOF 0
ENDMDL
MODEL 8
REMARK VINA RESULT:    -4.138      4.799      8.502
REMARK INTER + INTRA:          -4.138
REMARK INTER:                  -4.138
REMARK INTRA:                   0.000
REMARK UNBOUND:                 0.000
REMARK  Name = /home/vital/Documents/PhD_2021/Malaria_codes/scripts/../data/pdbqt_ligands/ligand_314_temp.pdb
REMARK                            x       y       z     vdW  Elec       q    Type
REMARK                         _______ _______ _______ _____ _____    ______ ____
ROOT
ATOM      1  C   UNL     1     147.340 132.287  94.955  0.00  0.00    -0.065 C 
ATOM      2  C   UNL     1     146.535 131.224  95.689  0.00  0.00    -0.056 C 
ATOM      3  C   UNL     1     145.023 131.343  95.480  0.00  0.00    -0.052 C 
ATOM      4  C   UNL     1     144.388 132.661  95.940  0.00  0.00    -0.037 C 
ATOM      5  C   UNL     1     144.453 132.927  97.450  0.00  0.00    +0.014 C 
ATOM      6  N   UNL     1     143.647 131.963  98.212  0.00  0.00    -0.306 N 
ATOM      7  C   UNL     1     142.250 132.030  98.183  0.00  0.00    +0.056 C 
ATOM      8  C   UNL     1     141.469 131.367  98.993  0.00  0.00    +0.003 C 
ATOM      9  N   UNL     1     140.809 130.761  99.758  0.00  0.00    -0.212 NA
ATOM     10  C   UNL     1     141.575 130.338 100.816  0.00  0.00    +0.040 C 
ATOM     11  C   UNL     1     141.750 129.047 101.141  0.00  0.00    -0.015 C 
ATOM     12  C   UNL     1     142.762 128.594 102.085  0.00  0.00    +0.100 C 
ATOM     13  C   UNL     1     142.585 127.590 102.974  0.00  0.00    +0.128 C 
ATOM     14 CL   UNL     1     141.056 126.790 103.151  0.00  0.00    -0.064 Cl
ATOM     15  N   UNL     1     143.616 127.129 103.807  0.00  0.00    -0.283 N 
ATOM     16  C   UNL     1     143.416 126.043 104.789  0.00  0.00    +0.037 C 
ATOM     17  C   UNL     1     144.684 125.658 105.508  0.00  0.00    -0.066 C 
ATOM     18  C   UNL     1     145.870 126.240 105.284  0.00  0.00    -0.062 C 
ATOM     19  C   UNL     1     145.975 127.302 104.318  0.00  0.00    -0.037 C 
ATOM     20  C   UNL     1     144.887 127.714 103.644  0.00  0.00    +0.075 C 
ATOM     21  C   UNL     1     145.005 128.855 102.617  0.00  0.00    +0.141 C 
ATOM     22  N   UNL     1     143.973 129.241 101.905  0.00  0.00    -0.228 N 
ATOM     23  N   UNL     1     146.211 129.515 102.407  0.00  0.00    -0.325 N 
ATOM     24  C   UNL     1     146.340 130.646 101.491  0.00  0.00    +0.034 C 
ATOM     25  C   UNL     1     146.337 130.196 100.016  0.00  0.00    +0.065 C 
ATOM     26  O   UNL     1     145.748 131.159  99.132  0.00  0.00    -0.360 OA
ATOM     27  C   UNL     1     144.325 131.135  99.225  0.00  0.00    +0.114 C 
ATOM     28  H   UNL     1     144.057 129.976 101.256  0.00  0.00    +0.000 HD
ATOM     29  H   UNL     1     147.009 129.208 102.895  0.00  0.00    +0.000 HD
ENDROOT
TORSDOF 0
ENDMDL
MODEL 9
REMARK VINA RESULT:    -4.127      8.953     10.899
REMARK INTER + INTRA:          -4.127
REMARK INTER:                  -4.127
REMARK INTRA:                   0.000
REMARK UNBOUND:                 0.000
REMARK  Name = /home/vital/Documents/PhD_2021/Malaria_codes/scripts/../data/pdbqt_ligands/ligand_314_temp.pdb
REMARK                            x       y       z     vdW  Elec       q    Type
REMARK                         _______ _______ _______ _____ _____    ______ ____
ROOT
ATOM      1  C   UNL     1     133.742 122.250  88.944  0.00  0.00    -0.065 C 
ATOM      2  C   UNL     1     134.142 123.701  89.164  0.00  0.00    -0.056 C 
ATOM      3  C   UNL     1     133.876 124.603  87.956  0.00  0.00    -0.052 C 
ATOM      4  C   UNL     1     134.605 124.218  86.663  0.00  0.00    -0.037 C 
ATOM      5  C   UNL     1     136.134 124.321  86.719  0.00  0.00    +0.014 C 
ATOM      6  N   UNL     1     136.585 125.712  86.875  0.00  0.00    -0.306 N 
ATOM      7  C   UNL     1     136.487 126.611  85.808  0.00  0.00    +0.056 C 
ATOM      8  C   UNL     1     137.061 127.785  85.786  0.00  0.00    +0.003 C 
ATOM      9  N   UNL     1     137.611 128.826  85.808  0.00  0.00    -0.212 NA
ATOM     10  C   UNL     1     138.578 128.832  86.782  0.00  0.00    +0.040 C 
ATOM     11  C   UNL     1     138.587 129.684  87.820  0.00  0.00    -0.015 C 
ATOM     12  C   UNL     1     139.452 129.517  88.980  0.00  0.00    +0.100 C 
ATOM     13  C   UNL     1     140.055 130.534  89.638  0.00  0.00    +0.128 C 
ATOM     14 CL   UNL     1     139.935 132.174  89.083  0.00  0.00    -0.064 Cl
ATOM     15  N   UNL     1     140.811 130.336  90.803  0.00  0.00    -0.283 N 
ATOM     16  C   UNL     1     141.482 131.446  91.510  0.00  0.00    +0.037 C 
ATOM     17  C   UNL     1     142.163 131.008  92.782  0.00  0.00    -0.066 C 
ATOM     18  C   UNL     1     142.161 129.744  93.227  0.00  0.00    -0.062 C 
ATOM     19  C   UNL     1     141.494 128.719  92.468  0.00  0.00    -0.037 C 
ATOM     20  C   UNL     1     140.876 129.026  91.314  0.00  0.00    +0.075 C 
ATOM     21  C   UNL     1     140.169 127.923  90.504  0.00  0.00    +0.141 C 
ATOM     22  N   UNL     1     139.511 128.201  89.404  0.00  0.00    -0.228 N 
ATOM     23  N   UNL     1     140.203 126.594  90.912  0.00  0.00    -0.325 N 
ATOM     24  C   UNL     1     139.602 125.516  90.132  0.00  0.00    +0.034 C 
ATOM     25  C   UNL     1     138.064 125.507  90.250  0.00  0.00    +0.065 C 
ATOM     26  O   UNL     1     137.409 125.042  89.061  0.00  0.00    -0.360 OA
ATOM     27  C   UNL     1     137.404 126.049  88.052  0.00  0.00    +0.114 C 
ATOM     28  H   UNL     1     139.069 127.488  88.890  0.00  0.00    +0.000 HD
ATOM     29  H   UNL     1     140.648 126.371  91.761  0.00  0.00    +0.000 HD
ENDROOT
TORSDOF 0
ENDMDL
