MODEL 1
REMARK VINA RESULT:    -5.439      0.000      0.000
REMARK INTER + INTRA:          -5.439
REMARK INTER:                  -5.439
REMARK INTRA:                   0.000
REMARK UNBOUND:                 0.000
REMARK  Name = /home/vital/Documents/PhD_2021/Malaria_codes/scripts/../data/pdbqt_ligands/ligand_103_temp.pdb
REMARK                            x       y       z     vdW  Elec       q    Type
REMARK                         _______ _______ _______ _____ _____    ______ ____
ROOT
ATOM      1  O1  UNL     1     138.178 128.528  97.058  0.00  0.00    -0.393 OA
ATOM      2  C1  UNL     1     137.883 128.041  98.370  0.00  0.00    +0.060 C 
ATOM      3  C2  UNL     1     139.140 128.054  99.242  0.00  0.00    +0.034 C 
ATOM      4  N1  UNL     1     139.671 129.404  99.311  0.00  0.00    -0.326 N 
ATOM      5  C3  UNL     1     140.814 129.717 100.012  0.00  0.00    +0.138 A 
ATOM      6  N2  UNL     1     141.308 128.888 100.893  0.00  0.00    -0.212 NA
ATOM      7  C4  UNL     1     142.462 129.225 101.586  0.00  0.00    +0.162 A 
ATOM      8  C5  UNL     1     142.904 128.220 102.608  0.00  0.00    +0.021 A 
ATOM      9  C6  UNL     1     142.151 127.063 102.853  0.00  0.00    -0.050 A 
ATOM     10  C7  UNL     1     142.573 126.135 103.809  0.00  0.00    -0.041 A 
ATOM     11  C8  UNL     1     143.751 126.353 104.529  0.00  0.00    +0.059 A 
ATOM     12 CL1  UNL     1     144.213 125.164 105.693  0.00  0.00    -0.082 Cl
ATOM     13  C9  UNL     1     144.508 127.507 104.290  0.00  0.00    +0.060 A 
ATOM     14 CL2  UNL     1     145.974 127.842 105.142  0.00  0.00    -0.082 Cl
ATOM     15  C10 UNL     1     144.085 128.436 103.333  0.00  0.00    -0.031 A 
ATOM     16  N3  UNL     1     143.174 130.306 101.419  0.00  0.00    -0.227 NA
ATOM     17  C11 UNL     1     142.742 131.195 100.496  0.00  0.00    +0.085 A 
ATOM     18  C12 UNL     1     141.511 130.981  99.801  0.00  0.00    +0.082 A 
ATOM     19  C13 UNL     1     141.372 131.956  98.962  0.00  0.00    -0.106 C 
ATOM     20  C14 UNL     1     142.341 132.825  99.010  0.00  0.00    -0.017 C 
ATOM     21  C15 UNL     1     143.268 132.338 100.027  0.00  0.00    -0.027 C 
ATOM     22  H   UNL     1     137.371 128.514  96.519  0.00  0.00    +0.000 HD
ATOM     23  H   UNL     1     139.195 130.124  98.838  0.00  0.00    +0.000 HD
ENDROOT
TORSDOF 0
ENDMDL
MODEL 2
REMARK VINA RESULT:    -5.008      4.369      6.869
REMARK INTER + INTRA:          -5.008
REMARK INTER:                  -5.008
REMARK INTRA:                   0.000
REMARK UNBOUND:                 0.000
REMARK  Name = /home/vital/Documents/PhD_2021/Malaria_codes/scripts/../data/pdbqt_ligands/ligand_103_temp.pdb
REMARK                            x       y       z     vdW  Elec       q    Type
REMARK                         _______ _______ _______ _____ _____    ______ ____
ROOT
ATOM      1  O1  UNL     1     142.756 126.762 104.127  0.00  0.00    -0.393 OA
ATOM      2  C1  UNL     1     143.516 127.971 104.045  0.00  0.00    +0.060 C 
ATOM      3  C2  UNL     1     143.473 128.536 102.623  0.00  0.00    +0.034 C 
ATOM      4  N1  UNL     1     142.093 128.778 102.237  0.00  0.00    -0.326 N 
ATOM      5  C3  UNL     1     141.744 129.269 100.999  0.00  0.00    +0.138 A 
ATOM      6  N2  UNL     1     142.637 129.824 100.223  0.00  0.00    -0.212 NA
ATOM      7  C4  UNL     1     142.261 130.310  98.978  0.00  0.00    +0.162 A 
ATOM      8  C5  UNL     1     143.359 130.974  98.200  0.00  0.00    +0.021 A 
ATOM      9  C6  UNL     1     144.642 131.119  98.745  0.00  0.00    -0.050 A 
ATOM     10  C7  UNL     1     145.655 131.740  98.009  0.00  0.00    -0.041 A 
ATOM     11  C8  UNL     1     145.397 132.221  96.722  0.00  0.00    +0.059 A 
ATOM     12 CL1  UNL     1     146.696 132.976  95.870  0.00  0.00    -0.082 Cl
ATOM     13  C9  UNL     1     144.117 132.079  96.172  0.00  0.00    +0.060 A 
ATOM     14 CL2  UNL     1     143.726 132.649  94.588  0.00  0.00    -0.082 Cl
ATOM     15  C10 UNL     1     143.103 131.458  96.909  0.00  0.00    -0.031 A 
ATOM     16  N3  UNL     1     141.072 130.231  98.446  0.00  0.00    -0.227 NA
ATOM     17  C11 UNL     1     140.104 129.635  99.179  0.00  0.00    +0.085 A 
ATOM     18  C12 UNL     1     140.373 129.190 100.512  0.00  0.00    +0.082 A 
ATOM     19  C13 UNL     1     139.292 128.630 100.951  0.00  0.00    -0.106 C 
ATOM     20  C14 UNL     1     138.309 128.655 100.096  0.00  0.00    -0.017 C 
ATOM     21  C15 UNL     1     138.828 129.321  98.906  0.00  0.00    -0.027 C 
ATOM     22  H   UNL     1     142.793 126.418 105.034  0.00  0.00    +0.000 HD
ATOM     23  H   UNL     1     141.380 128.583 102.887  0.00  0.00    +0.000 HD
ENDROOT
TORSDOF 0
ENDMDL
MODEL 3
REMARK VINA RESULT:    -4.993      2.074      3.885
REMARK INTER + INTRA:          -4.993
REMARK INTER:                  -4.993
REMARK INTRA:                   0.000
REMARK UNBOUND:                 0.000
REMARK  Name = /home/vital/Documents/PhD_2021/Malaria_codes/scripts/../data/pdbqt_ligands/ligand_103_temp.pdb
REMARK                            x       y       z     vdW  Elec       q    Type
REMARK                         _______ _______ _______ _____ _____    ______ ____
ROOT
ATOM      1  O1  UNL     1     142.334 134.383  98.225  0.00  0.00    -0.393 OA
ATOM      2  C1  UNL     1     143.545 133.624  98.197  0.00  0.00    +0.060 C 
ATOM      3  C2  UNL     1     143.527 132.543  99.280  0.00  0.00    +0.034 C 
ATOM      4  N1  UNL     1     142.380 131.673  99.080  0.00  0.00    -0.326 N 
ATOM      5  C3  UNL     1     142.094 130.619  99.917  0.00  0.00    +0.138 A 
ATOM      6  N2  UNL     1     142.992 130.160 100.749  0.00  0.00    -0.212 NA
ATOM      7  C4  UNL     1     142.679 129.097 101.584  0.00  0.00    +0.162 A 
ATOM      8  C5  UNL     1     143.805 128.622 102.454  0.00  0.00    +0.021 A 
ATOM      9  C6  UNL     1     145.078 129.201 102.364  0.00  0.00    -0.050 A 
ATOM     10  C7  UNL     1     146.119 128.750 103.181  0.00  0.00    -0.041 A 
ATOM     11  C8  UNL     1     145.897 127.716 104.095  0.00  0.00    +0.059 A 
ATOM     12 CL1  UNL     1     147.227 127.209 105.073  0.00  0.00    -0.082 Cl
ATOM     13  C9  UNL     1     144.627 127.133 104.190  0.00  0.00    +0.060 A 
ATOM     14 CL2  UNL     1     144.282 125.852 105.297  0.00  0.00    -0.082 Cl
ATOM     15  C10 UNL     1     143.587 127.585 103.372  0.00  0.00    -0.031 A 
ATOM     16  N3  UNL     1     141.521 128.503 101.675  0.00  0.00    -0.227 NA
ATOM     17  C11 UNL     1     140.531 128.949 100.868  0.00  0.00    +0.085 A 
ATOM     18  C12 UNL     1     140.785 129.976  99.906  0.00  0.00    +0.082 A 
ATOM     19  C13 UNL     1     139.663 130.228  99.312  0.00  0.00    -0.106 C 
ATOM     20  C14 UNL     1     138.676 129.488  99.730  0.00  0.00    -0.017 C 
ATOM     21  C15 UNL     1     139.231 128.626 100.769  0.00  0.00    -0.027 C 
ATOM     22  H   UNL     1     142.362 135.062  97.533  0.00  0.00    +0.000 HD
ATOM     23  H   UNL     1     141.785 131.845  98.316  0.00  0.00    +0.000 HD
ENDROOT
TORSDOF 0
ENDMDL
MODEL 4
REMARK VINA RESULT:    -4.979     14.803     17.414
REMARK INTER + INTRA:          -4.979
REMARK INTER:                  -4.979
REMARK INTRA:                   0.000
REMARK UNBOUND:                 0.000
REMARK  Name = /home/vital/Documents/PhD_2021/Malaria_codes/scripts/../data/pdbqt_ligands/ligand_103_temp.pdb
REMARK                            x       y       z     vdW  Elec       q    Type
REMARK                         _______ _______ _______ _____ _____    ______ ____
ROOT
ATOM      1  O1  UNL     1     129.340 123.596  90.275  0.00  0.00    -0.393 OA
ATOM      2  C1  UNL     1     130.129 124.774  90.093  0.00  0.00    +0.060 C 
ATOM      3  C2  UNL     1     131.520 124.413  89.567  0.00  0.00    +0.034 C 
ATOM      4  N1  UNL     1     131.394 123.689  88.314  0.00  0.00    -0.326 N 
ATOM      5  C3  UNL     1     132.483 123.217  87.616  0.00  0.00    +0.138 A 
ATOM      6  N2  UNL     1     133.687 123.651  87.880  0.00  0.00    -0.212 NA
ATOM      7  C4  UNL     1     134.769 123.158  87.165  0.00  0.00    +0.162 A 
ATOM      8  C5  UNL     1     136.093 123.769  87.518  0.00  0.00    +0.021 A 
ATOM      9  C6  UNL     1     136.182 124.795  88.469  0.00  0.00    -0.050 A 
ATOM     10  C7  UNL     1     137.421 125.356  88.789  0.00  0.00    -0.041 A 
ATOM     11  C8  UNL     1     138.584 124.897  88.162  0.00  0.00    +0.059 A 
ATOM     12 CL1  UNL     1     140.081 125.635  88.607  0.00  0.00    -0.082 Cl
ATOM     13  C9  UNL     1     138.502 123.872  87.211  0.00  0.00    +0.060 A 
ATOM     14 CL2  UNL     1     139.897 123.256  86.398  0.00  0.00    -0.082 Cl
ATOM     15  C10 UNL     1     137.261 123.311  86.891  0.00  0.00    -0.031 A 
ATOM     16  N3  UNL     1     134.729 122.232  86.246  0.00  0.00    -0.227 NA
ATOM     17  C11 UNL     1     133.519 121.710  85.945  0.00  0.00    +0.085 A 
ATOM     18  C12 UNL     1     132.334 122.222  86.561  0.00  0.00    +0.082 A 
ATOM     19  C13 UNL     1     131.341 121.516  86.122  0.00  0.00    -0.106 C 
ATOM     20  C14 UNL     1     131.693 120.600  85.266  0.00  0.00    -0.017 C 
ATOM     21  C15 UNL     1     133.143 120.710  85.132  0.00  0.00    -0.027 C 
ATOM     22  H   UNL     1     128.463 123.843  90.608  0.00  0.00    +0.000 HD
ATOM     23  H   UNL     1     130.494 123.530  87.949  0.00  0.00    +0.000 HD
ENDROOT
TORSDOF 0
ENDMDL
MODEL 5
REMARK VINA RESULT:    -4.709      2.866      4.367
REMARK INTER + INTRA:          -4.709
REMARK INTER:                  -4.709
REMARK INTRA:                   0.000
REMARK UNBOUND:                 0.000
REMARK  Name = /home/vital/Documents/PhD_2021/Malaria_codes/scripts/../data/pdbqt_ligands/ligand_103_temp.pdb
REMARK                            x       y       z     vdW  Elec       q    Type
REMARK                         _______ _______ _______ _____ _____    ______ ____
ROOT
ATOM      1  O1  UNL     1     145.269 131.846  99.698  0.00  0.00    -0.393 OA
ATOM      2  C1  UNL     1     145.803 130.564 100.040  0.00  0.00    +0.060 C 
ATOM      3  C2  UNL     1     144.823 129.794 100.928  0.00  0.00    +0.034 C 
ATOM      4  N1  UNL     1     143.554 129.645 100.238  0.00  0.00    -0.326 N 
ATOM      5  C3  UNL     1     142.471 129.009 100.803  0.00  0.00    +0.138 A 
ATOM      6  N2  UNL     1     142.617 128.248 101.856  0.00  0.00    -0.212 NA
ATOM      7  C4  UNL     1     141.510 127.619 102.409  0.00  0.00    +0.162 A 
ATOM      8  C5  UNL     1     141.807 126.728 103.579  0.00  0.00    +0.021 A 
ATOM      9  C6  UNL     1     143.124 126.531 104.018  0.00  0.00    -0.050 A 
ATOM     10  C7  UNL     1     143.387 125.698 105.109  0.00  0.00    -0.041 A 
ATOM     11  C8  UNL     1     142.337 125.055 105.772  0.00  0.00    +0.059 A 
ATOM     12 CL1  UNL     1     142.736 124.041 107.112  0.00  0.00    -0.082 Cl
ATOM     13  C9  UNL     1     141.020 125.247 105.338  0.00  0.00    +0.060 A 
ATOM     14 CL2  UNL     1     139.675 124.484 106.109  0.00  0.00    -0.082 Cl
ATOM     15  C10 UNL     1     140.757 126.080 104.246  0.00  0.00    -0.031 A 
ATOM     16  N3  UNL     1     140.273 127.742 102.011  0.00  0.00    -0.227 NA
ATOM     17  C11 UNL     1     140.043 128.545 100.947  0.00  0.00    +0.085 A 
ATOM     18  C12 UNL     1     141.130 129.160 100.251  0.00  0.00    +0.082 A 
ATOM     19  C13 UNL     1     140.618 129.894  99.317  0.00  0.00    -0.106 C 
ATOM     20  C14 UNL     1     139.318 129.844  99.270  0.00  0.00    -0.017 C 
ATOM     21  C15 UNL     1     138.911 128.949 100.349  0.00  0.00    -0.027 C 
ATOM     22  H   UNL     1     145.901 132.320  99.135  0.00  0.00    +0.000 HD
ATOM     23  H   UNL     1     143.464 130.014  99.330  0.00  0.00    +0.000 HD
ENDROOT
TORSDOF 0
ENDMDL
MODEL 6
REMARK VINA RESULT:    -4.691      4.817      6.335
REMARK INTER + INTRA:          -4.691
REMARK INTER:                  -4.691
REMARK INTRA:                   0.000
REMARK UNBOUND:                 0.000
REMARK  Name = /home/vital/Documents/PhD_2021/Malaria_codes/scripts/../data/pdbqt_ligands/ligand_103_temp.pdb
REMARK                            x       y       z     vdW  Elec       q    Type
REMARK                         _______ _______ _______ _____ _____    ______ ____
ROOT
ATOM      1  O1  UNL     1     140.375 124.705  97.183  0.00  0.00    -0.393 OA
ATOM      2  C1  UNL     1     141.757 125.061  97.267  0.00  0.00    +0.060 C 
ATOM      3  C2  UNL     1     141.914 126.575  97.428  0.00  0.00    +0.034 C 
ATOM      4  N1  UNL     1     141.206 127.013  98.618  0.00  0.00    -0.326 N 
ATOM      5  C3  UNL     1     141.154 128.333  99.006  0.00  0.00    +0.138 A 
ATOM      6  N2  UNL     1     141.980 129.212  98.504  0.00  0.00    -0.212 NA
ATOM      7  C4  UNL     1     141.907 130.537  98.911  0.00  0.00    +0.162 A 
ATOM      8  C5  UNL     1     142.941 131.442  98.308  0.00  0.00    +0.021 A 
ATOM      9  C6  UNL     1     143.922 130.939  97.443  0.00  0.00    -0.050 A 
ATOM     10  C7  UNL     1     144.880 131.793  96.888  0.00  0.00    -0.041 A 
ATOM     11  C8  UNL     1     144.866 133.157  97.192  0.00  0.00    +0.059 A 
ATOM     12 CL1  UNL     1     146.078 134.154  96.470  0.00  0.00    -0.082 Cl
ATOM     13  C9  UNL     1     143.888 133.667  98.056  0.00  0.00    +0.060 A 
ATOM     14 CL2  UNL     1     143.810 135.341  98.475  0.00  0.00    -0.082 Cl
ATOM     15  C10 UNL     1     142.930 132.812  98.611  0.00  0.00    -0.031 A 
ATOM     16  N3  UNL     1     141.037 131.043  99.741  0.00  0.00    -0.227 NA
ATOM     17  C11 UNL     1     140.125 130.197 100.273  0.00  0.00    +0.085 A 
ATOM     18  C12 UNL     1     140.181 128.796  99.989  0.00  0.00    +0.082 A 
ATOM     19  C13 UNL     1     139.177 128.245 100.591  0.00  0.00    -0.106 C 
ATOM     20  C14 UNL     1     138.452 129.088 101.270  0.00  0.00    -0.017 C 
ATOM     21  C15 UNL     1     139.066 130.397 101.073  0.00  0.00    -0.027 C 
ATOM     22  H   UNL     1     140.294 123.744  97.083  0.00  0.00    +0.000 HD
ATOM     23  H   UNL     1     140.745 126.340  99.168  0.00  0.00    +0.000 HD
ENDROOT
TORSDOF 0
ENDMDL
MODEL 7
REMARK VINA RESULT:    -4.667      5.080      6.581
REMARK INTER + INTRA:          -4.667
REMARK INTER:                  -4.667
REMARK INTRA:                   0.000
REMARK UNBOUND:                 0.000
REMARK  Name = /home/vital/Documents/PhD_2021/Malaria_codes/scripts/../data/pdbqt_ligands/ligand_103_temp.pdb
REMARK                            x       y       z     vdW  Elec       q    Type
REMARK                         _______ _______ _______ _____ _____    ______ ____
ROOT
ATOM      1  O1  UNL     1     144.538 132.281  98.502  0.00  0.00    -0.393 OA
ATOM      2  C1  UNL     1     144.212 131.689  97.242  0.00  0.00    +0.060 C 
ATOM      3  C2  UNL     1     143.458 130.372  97.445  0.00  0.00    +0.034 C 
ATOM      4  N1  UNL     1     142.252 130.617  98.217  0.00  0.00    -0.326 N 
ATOM      5  C3  UNL     1     141.382 129.612  98.573  0.00  0.00    +0.138 A 
ATOM      6  N2  UNL     1     141.431 128.444  97.987  0.00  0.00    -0.212 NA
ATOM      7  C4  UNL     1     140.544 127.446  98.365  0.00  0.00    +0.162 A 
ATOM      8  C5  UNL     1     140.659 126.169  97.585  0.00  0.00    +0.021 A 
ATOM      9  C6  UNL     1     141.572 126.050  96.528  0.00  0.00    -0.050 A 
ATOM     10  C7  UNL     1     141.668 124.855  95.809  0.00  0.00    -0.041 A 
ATOM     11  C8  UNL     1     140.856 123.768  96.141  0.00  0.00    +0.059 A 
ATOM     12 CL1  UNL     1     141.030 122.322  95.212  0.00  0.00    -0.082 Cl
ATOM     13  C9  UNL     1     139.942 123.879  97.196  0.00  0.00    +0.060 A 
ATOM     14 CL2  UNL     1     138.907 122.576  97.662  0.00  0.00    -0.082 Cl
ATOM     15  C10 UNL     1     139.845 125.076  97.915  0.00  0.00    -0.031 A 
ATOM     16  N3  UNL     1     139.655 127.524  99.316  0.00  0.00    -0.227 NA
ATOM     17  C11 UNL     1     139.571 128.692  99.991  0.00  0.00    +0.085 A 
ATOM     18  C12 UNL     1     140.377 129.811  99.610  0.00  0.00    +0.082 A 
ATOM     19  C13 UNL     1     140.121 130.766 100.445  0.00  0.00    -0.106 C 
ATOM     20  C14 UNL     1     139.226 130.452 101.337  0.00  0.00    -0.017 C 
ATOM     21  C15 UNL     1     138.844 129.071 101.054  0.00  0.00    -0.027 C 
ATOM     22  H   UNL     1     145.014 133.113  98.354  0.00  0.00    +0.000 HD
ATOM     23  H   UNL     1     142.048 131.539  98.496  0.00  0.00    +0.000 HD
ENDROOT
TORSDOF 0
ENDMDL
MODEL 8
REMARK VINA RESULT:    -4.635      5.559      7.525
REMARK INTER + INTRA:          -4.635
REMARK INTER:                  -4.635
REMARK INTRA:                   0.000
REMARK UNBOUND:                 0.000
REMARK  Name = /home/vital/Documents/PhD_2021/Malaria_codes/scripts/../data/pdbqt_ligands/ligand_103_temp.pdb
REMARK                            x       y       z     vdW  Elec       q    Type
REMARK                         _______ _______ _______ _____ _____    ______ ____
ROOT
ATOM      1  O1  UNL     1     143.483 131.379 102.166  0.00  0.00    -0.393 OA
ATOM      2  C1  UNL     1     143.929 131.782 100.868  0.00  0.00    +0.060 C 
ATOM      3  C2  UNL     1     143.541 130.737  99.819  0.00  0.00    +0.034 C 
ATOM      4  N1  UNL     1     142.100 130.553  99.825  0.00  0.00    -0.326 N 
ATOM      5  C3  UNL     1     141.463 129.656  98.997  0.00  0.00    +0.138 A 
ATOM      6  N2  UNL     1     142.077 129.148  97.960  0.00  0.00    -0.212 NA
ATOM      7  C4  UNL     1     141.414 128.245  97.142  0.00  0.00    +0.162 A 
ATOM      8  C5  UNL     1     142.200 127.773  95.954  0.00  0.00    +0.021 A 
ATOM      9  C6  UNL     1     143.486 128.269  95.697  0.00  0.00    -0.050 A 
ATOM     10  C7  UNL     1     144.207 127.821  94.587  0.00  0.00    -0.041 A 
ATOM     11  C8  UNL     1     143.652 126.871  93.724  0.00  0.00    +0.059 A 
ATOM     12 CL1  UNL     1     144.600 126.362  92.373  0.00  0.00    -0.082 Cl
ATOM     13  C9  UNL     1     142.368 126.372  93.975  0.00  0.00    +0.060 A 
ATOM     14 CL2  UNL     1     141.619 125.198  92.951  0.00  0.00    -0.082 Cl
ATOM     15  C10 UNL     1     141.646 126.821  95.085  0.00  0.00    -0.031 A 
ATOM     16  N3  UNL     1     140.207 127.784  97.320  0.00  0.00    -0.227 NA
ATOM     17  C11 UNL     1     139.523 128.239  98.394  0.00  0.00    +0.085 A 
ATOM     18  C12 UNL     1     140.086 129.244  99.242  0.00  0.00    +0.082 A 
ATOM     19  C13 UNL     1     139.241 129.453 100.199  0.00  0.00    -0.106 C 
ATOM     20  C14 UNL     1     138.158 128.735 100.102  0.00  0.00    -0.017 C 
ATOM     21  C15 UNL     1     138.324 127.917  98.905  0.00  0.00    -0.027 C 
ATOM     22  H   UNL     1     143.736 132.052 102.817  0.00  0.00    +0.000 HD
ATOM     23  H   UNL     1     141.558 131.090 100.446  0.00  0.00    +0.000 HD
ENDROOT
TORSDOF 0
ENDMDL
MODEL 9
REMARK VINA RESULT:    -4.391      3.275      3.824
REMARK INTER + INTRA:          -4.391
REMARK INTER:                  -4.391
REMARK INTRA:                   0.000
REMARK UNBOUND:                 0.000
REMARK  Name = /home/vital/Documents/PhD_2021/Malaria_codes/scripts/../data/pdbqt_ligands/ligand_103_temp.pdb
REMARK                            x       y       z     vdW  Elec       q    Type
REMARK                         _______ _______ _______ _____ _____    ______ ____
ROOT
ATOM      1  O1  UNL     1     143.483 126.887  96.029  0.00  0.00    -0.393 OA
ATOM      2  C1  UNL     1     143.246 125.620  96.647  0.00  0.00    +0.060 C 
ATOM      3  C2  UNL     1     142.954 125.795  98.139  0.00  0.00    +0.034 C 
ATOM      4  N1  UNL     1     141.802 126.664  98.309  0.00  0.00    -0.326 N 
ATOM      5  C3  UNL     1     141.318 127.019  99.548  0.00  0.00    +0.138 A 
ATOM      6  N2  UNL     1     141.672 126.360 100.620  0.00  0.00    -0.212 NA
ATOM      7  C4  UNL     1     141.171 126.738 101.858  0.00  0.00    +0.162 A 
ATOM      8  C5  UNL     1     141.605 125.876 103.006  0.00  0.00    +0.021 A 
ATOM      9  C6  UNL     1     142.414 124.750 102.797  0.00  0.00    -0.050 A 
ATOM     10  C7  UNL     1     142.810 123.954 103.875  0.00  0.00    -0.041 A 
ATOM     11  C8  UNL     1     142.403 124.276 105.173  0.00  0.00    +0.059 A 
ATOM     12 CL1  UNL     1     142.931 123.250 106.458  0.00  0.00    -0.082 Cl
ATOM     13  C9  UNL     1     141.594 125.399 105.390  0.00  0.00    +0.060 A 
ATOM     14 CL2  UNL     1     141.054 125.856 106.966  0.00  0.00    -0.082 Cl
ATOM     15  C10 UNL     1     141.198 126.195 104.310  0.00  0.00    -0.031 A 
ATOM     16  N3  UNL     1     140.387 127.754 102.096  0.00  0.00    -0.227 NA
ATOM     17  C11 UNL     1     140.008 128.504 101.036  0.00  0.00    +0.085 A 
ATOM     18  C12 UNL     1     140.394 128.136  99.709  0.00  0.00    +0.082 A 
ATOM     19  C13 UNL     1     139.931 129.044  98.912  0.00  0.00    -0.106 C 
ATOM     20  C14 UNL     1     139.257 129.976  99.522  0.00  0.00    -0.017 C 
ATOM     21  C15 UNL     1     139.294 129.637 100.941  0.00  0.00    -0.027 C 
ATOM     22  H   UNL     1     143.666 126.758  95.085  0.00  0.00    +0.000 HD
ATOM     23  H   UNL     1     141.351 127.013  97.508  0.00  0.00    +0.000 HD
ENDROOT
TORSDOF 0
ENDMDL
