MODEL 1
REMARK VINA RESULT:    -4.895      0.000      0.000
REMARK INTER + INTRA:          -4.895
REMARK INTER:                  -4.895
REMARK INTRA:                   0.000
REMARK UNBOUND:                 0.000
REMARK  Name = /home/vital/Documents/PhD_2021/Malaria_codes/scripts/../data/pdbqt_ligands/ligand_363_temp.pdb
REMARK                            x       y       z     vdW  Elec       q    Type
REMARK                         _______ _______ _______ _____ _____    ______ ____
ROOT
ATOM      1  C1  UNL     1     145.243 135.111  97.734  0.00  0.00    +0.079 C 
ATOM      2  O1  UNL     1     143.957 134.803  98.262  0.00  0.00    -0.491 OA
ATOM      3  C2  UNL     1     143.619 133.475  98.314  0.00  0.00    +0.161 A 
ATOM      4  C3  UNL     1     144.442 132.401  97.985  0.00  0.00    -0.016 A 
ATOM      5  C4  UNL     1     143.956 131.090  98.091  0.00  0.00    -0.047 A 
ATOM      6  C5  UNL     1     142.643 130.839  98.521  0.00  0.00    +0.025 A 
ATOM      7  C6  UNL     1     142.200 129.420  98.630  0.00  0.00    +0.186 C 
ATOM      8  O2  UNL     1     143.034 128.523  98.664  0.00  0.00    -0.287 OA
ATOM      9  C7  UNL     1     140.735 129.144  98.628  0.00  0.00    -0.014 C 
ATOM     10  C8  UNL     1     140.152 128.062  99.168  0.00  0.00    -0.047 C 
ATOM     11  C9  UNL     1     140.809 126.985  99.920  0.00  0.00    +0.020 A 
ATOM     12  C10 UNL     1     141.396 127.248 101.165  0.00  0.00    -0.006 A 
ATOM     13  C11 UNL     1     141.987 126.216 101.909  0.00  0.00    +0.162 A 
ATOM     14  O3  UNL     1     142.591 126.392 103.131  0.00  0.00    -0.491 OA
ATOM     15  C12 UNL     1     142.676 127.715 103.643  0.00  0.00    +0.079 C 
ATOM     16  C13 UNL     1     141.974 124.896 101.411  0.00  0.00    +0.165 A 
ATOM     17  O4  UNL     1     142.554 123.944 102.213  0.00  0.00    -0.491 OA
ATOM     18  C14 UNL     1     142.593 122.610 101.726  0.00  0.00    +0.079 C 
ATOM     19  C15 UNL     1     141.384 124.631 100.172  0.00  0.00    +0.026 A 
ATOM     20  C16 UNL     1     140.825 125.673  99.428  0.00  0.00    +0.131 A 
ATOM     21  O5  UNL     1     140.231 125.379  98.223  0.00  0.00    -0.494 OA
ATOM     22  C17 UNL     1     141.229 125.321  97.200  0.00  0.00    +0.079 C 
ATOM     23  C18 UNL     1     141.822 131.915  98.866  0.00  0.00    -0.006 A 
ATOM     24  C19 UNL     1     142.317 133.211  98.756  0.00  0.00    +0.159 A 
ATOM     25  O6  UNL     1     141.487 134.245  99.100  0.00  0.00    -0.503 OA
ATOM     26  H   UNL     1     141.788 135.129  99.038  0.00  0.00    +0.000 HD
ENDROOT
TORSDOF 0
ENDMDL
MODEL 2
REMARK VINA RESULT:    -4.832      2.462      3.656
REMARK INTER + INTRA:          -4.832
REMARK INTER:                  -4.832
REMARK INTRA:                   0.000
REMARK UNBOUND:                 0.000
REMARK  Name = /home/vital/Documents/PhD_2021/Malaria_codes/scripts/../data/pdbqt_ligands/ligand_363_temp.pdb
REMARK                            x       y       z     vdW  Elec       q    Type
REMARK                         _______ _______ _______ _____ _____    ______ ____
ROOT
ATOM      1  C1  UNL     1     147.126 133.910  93.695  0.00  0.00    +0.079 C 
ATOM      2  O1  UNL     1     146.676 134.456  94.931  0.00  0.00    -0.491 OA
ATOM      3  C2  UNL     1     145.773 133.706  95.639  0.00  0.00    +0.161 A 
ATOM      4  C3  UNL     1     145.323 132.430  95.310  0.00  0.00    -0.016 A 
ATOM      5  C4  UNL     1     144.395 131.782  96.137  0.00  0.00    -0.047 A 
ATOM      6  C5  UNL     1     143.901 132.404  97.295  0.00  0.00    +0.025 A 
ATOM      7  C6  UNL     1     142.931 131.648  98.138  0.00  0.00    +0.186 C 
ATOM      8  O2  UNL     1     142.829 130.434  98.008  0.00  0.00    -0.287 OA
ATOM      9  C7  UNL     1     142.067 132.424  99.073  0.00  0.00    -0.014 C 
ATOM     10  C8  UNL     1     141.509 131.937 100.193  0.00  0.00    -0.047 C 
ATOM     11  C9  UNL     1     141.687 130.593 100.759  0.00  0.00    +0.020 A 
ATOM     12  C10 UNL     1     142.938 130.191 101.248  0.00  0.00    -0.006 A 
ATOM     13  C11 UNL     1     143.106 128.926 101.829  0.00  0.00    +0.162 A 
ATOM     14  O3  UNL     1     144.298 128.454 102.322  0.00  0.00    -0.491 OA
ATOM     15  C12 UNL     1     145.447 129.277 102.176  0.00  0.00    +0.079 C 
ATOM     16  C13 UNL     1     142.002 128.055 101.942  0.00  0.00    +0.165 A 
ATOM     17  O4  UNL     1     142.248 126.845 102.544  0.00  0.00    -0.491 OA
ATOM     18  C14 UNL     1     141.169 125.926 102.641  0.00  0.00    +0.079 C 
ATOM     19  C15 UNL     1     140.753 128.456 101.460  0.00  0.00    +0.026 A 
ATOM     20  C16 UNL     1     140.606 129.708 100.857  0.00  0.00    +0.131 A 
ATOM     21  O5  UNL     1     139.360 130.084 100.414  0.00  0.00    -0.494 OA
ATOM     22  C17 UNL     1     139.134 129.543  99.109  0.00  0.00    +0.079 C 
ATOM     23  C18 UNL     1     144.362 133.678  97.633  0.00  0.00    -0.006 A 
ATOM     24  C19 UNL     1     145.284 134.310  96.804  0.00  0.00    +0.159 A 
ATOM     25  O6  UNL     1     145.716 135.559  97.162  0.00  0.00    -0.503 OA
ATOM     26  H   UNL     1     146.337 136.012  96.626  0.00  0.00    +0.000 HD
ENDROOT
TORSDOF 0
ENDMDL
MODEL 3
REMARK VINA RESULT:    -4.544      3.454      8.920
REMARK INTER + INTRA:          -4.544
REMARK INTER:                  -4.544
REMARK INTRA:                   0.000
REMARK UNBOUND:                 0.000
REMARK  Name = /home/vital/Documents/PhD_2021/Malaria_codes/scripts/../data/pdbqt_ligands/ligand_363_temp.pdb
REMARK                            x       y       z     vdW  Elec       q    Type
REMARK                         _______ _______ _______ _____ _____    ______ ____
ROOT
ATOM      1  C1  UNL     1     137.173 120.607 104.976  0.00  0.00    +0.079 C 
ATOM      2  O1  UNL     1     137.169 122.002 105.264  0.00  0.00    -0.491 OA
ATOM      3  C2  UNL     1     138.242 122.723 104.807  0.00  0.00    +0.161 A 
ATOM      4  C3  UNL     1     139.284 122.242 104.018  0.00  0.00    -0.016 A 
ATOM      5  C4  UNL     1     140.317 123.105 103.624  0.00  0.00    -0.047 A 
ATOM      6  C5  UNL     1     140.323 124.453 104.018  0.00  0.00    +0.025 A 
ATOM      7  C6  UNL     1     141.441 125.317 103.545  0.00  0.00    +0.186 C 
ATOM      8  O2  UNL     1     142.131 124.956 102.598  0.00  0.00    -0.287 OA
ATOM      9  C7  UNL     1     141.719 126.573 104.297  0.00  0.00    -0.014 C 
ATOM     10  C8  UNL     1     142.320 127.661 103.790  0.00  0.00    -0.047 C 
ATOM     11  C9  UNL     1     142.755 127.866 102.402  0.00  0.00    +0.020 A 
ATOM     12  C10 UNL     1     141.810 127.948 101.369  0.00  0.00    -0.006 A 
ATOM     13  C11 UNL     1     142.214 128.186 100.047  0.00  0.00    +0.162 A 
ATOM     14  O3  UNL     1     141.354 128.271  98.980  0.00  0.00    -0.491 OA
ATOM     15  C12 UNL     1     139.973 128.040  99.222  0.00  0.00    +0.079 C 
ATOM     16  C13 UNL     1     143.583 128.365  99.755  0.00  0.00    +0.165 A 
ATOM     17  O4  UNL     1     143.889 128.617  98.440  0.00  0.00    -0.491 OA
ATOM     18  C14 UNL     1     145.261 128.765  98.101  0.00  0.00    +0.079 C 
ATOM     19  C15 UNL     1     144.525 128.289 100.784  0.00  0.00    +0.026 A 
ATOM     20  C16 UNL     1     144.112 128.022 102.091  0.00  0.00    +0.131 A 
ATOM     21  O5  UNL     1     145.060 127.977 103.087  0.00  0.00    -0.494 OA
ATOM     22  C17 UNL     1     145.656 126.676 103.119  0.00  0.00    +0.079 C 
ATOM     23  C18 UNL     1     139.270 124.939 104.797  0.00  0.00    -0.006 A 
ATOM     24  C19 UNL     1     138.251 124.072 105.181  0.00  0.00    +0.159 A 
ATOM     25  O6  UNL     1     137.234 124.580 105.945  0.00  0.00    -0.503 OA
ATOM     26  H   UNL     1     136.533 124.024 106.221  0.00  0.00    +0.000 HD
ENDROOT
TORSDOF 0
ENDMDL
MODEL 4
REMARK VINA RESULT:    -4.510      2.758      8.474
REMARK INTER + INTRA:          -4.510
REMARK INTER:                  -4.510
REMARK INTRA:                   0.000
REMARK UNBOUND:                 0.000
REMARK  Name = /home/vital/Documents/PhD_2021/Malaria_codes/scripts/../data/pdbqt_ligands/ligand_363_temp.pdb
REMARK                            x       y       z     vdW  Elec       q    Type
REMARK                         _______ _______ _______ _____ _____    ______ ____
ROOT
ATOM      1  C1  UNL     1     139.298 120.958 104.468  0.00  0.00    +0.079 C 
ATOM      2  O1  UNL     1     139.296 122.287 104.981  0.00  0.00    -0.491 OA
ATOM      3  C2  UNL     1     140.048 123.207 104.297  0.00  0.00    +0.161 A 
ATOM      4  C3  UNL     1     140.738 122.989 103.107  0.00  0.00    -0.016 A 
ATOM      5  C4  UNL     1     141.466 124.033 102.521  0.00  0.00    -0.047 A 
ATOM      6  C5  UNL     1     141.517 125.303 103.118  0.00  0.00    +0.025 A 
ATOM      7  C6  UNL     1     142.294 126.372 102.428  0.00  0.00    +0.186 C 
ATOM      8  O2  UNL     1     142.589 126.243 101.246  0.00  0.00    -0.287 OA
ATOM      9  C7  UNL     1     142.741 127.542 103.237  0.00  0.00    -0.014 C 
ATOM     10  C8  UNL     1     143.011 128.762 102.746  0.00  0.00    -0.047 C 
ATOM     11  C9  UNL     1     142.858 129.211 101.356  0.00  0.00    +0.020 A 
ATOM     12  C10 UNL     1     141.584 129.298 100.777  0.00  0.00    -0.006 A 
ATOM     13  C11 UNL     1     141.424 129.767  99.465  0.00  0.00    +0.162 A 
ATOM     14  O3  UNL     1     140.214 129.873  98.824  0.00  0.00    -0.491 OA
ATOM     15  C12 UNL     1     139.057 129.419  99.513  0.00  0.00    +0.079 C 
ATOM     16  C13 UNL     1     142.554 130.175  98.725  0.00  0.00    +0.165 A 
ATOM     17  O4  UNL     1     142.307 130.643  97.457  0.00  0.00    -0.491 OA
ATOM     18  C14 UNL     1     143.424 131.026  96.668  0.00  0.00    +0.079 C 
ATOM     19  C15 UNL     1     143.825 130.094  99.302  0.00  0.00    +0.026 A 
ATOM     20  C16 UNL     1     143.971 129.598 100.600  0.00  0.00    +0.131 A 
ATOM     21  O5  UNL     1     145.231 129.552 101.150  0.00  0.00    -0.494 OA
ATOM     22  C17 UNL     1     145.894 128.356 100.728  0.00  0.00    +0.079 C 
ATOM     23  C18 UNL     1     140.814 125.527 104.304  0.00  0.00    -0.006 A 
ATOM     24  C19 UNL     1     140.094 124.481 104.876  0.00  0.00    +0.159 A 
ATOM     25  O6  UNL     1     139.416 124.732 106.039  0.00  0.00    -0.503 OA
ATOM     26  H   UNL     1     138.922 124.051 106.450  0.00  0.00    +0.000 HD
ENDROOT
TORSDOF 0
ENDMDL
MODEL 5
REMARK VINA RESULT:    -4.492     11.934     15.997
REMARK INTER + INTRA:          -4.492
REMARK INTER:                  -4.492
REMARK INTRA:                   0.000
REMARK UNBOUND:                 0.000
REMARK  Name = /home/vital/Documents/PhD_2021/Malaria_codes/scripts/../data/pdbqt_ligands/ligand_363_temp.pdb
REMARK                            x       y       z     vdW  Elec       q    Type
REMARK                         _______ _______ _______ _____ _____    ______ ____
ROOT
ATOM      1  C1  UNL     1     131.012 120.660  85.130  0.00  0.00    +0.079 C 
ATOM      2  O1  UNL     1     130.976 121.682  86.122  0.00  0.00    -0.491 OA
ATOM      3  C2  UNL     1     132.179 122.243  86.466  0.00  0.00    +0.161 A 
ATOM      4  C3  UNL     1     133.413 121.973  85.879  0.00  0.00    -0.016 A 
ATOM      5  C4  UNL     1     134.563 122.630  86.339  0.00  0.00    -0.047 A 
ATOM      6  C5  UNL     1     134.494 123.558  87.391  0.00  0.00    +0.025 A 
ATOM      7  C6  UNL     1     135.753 124.234  87.814  0.00  0.00    +0.186 C 
ATOM      8  O2  UNL     1     136.726 124.230  87.069  0.00  0.00    -0.287 OA
ATOM      9  C7  UNL     1     135.796 124.840  89.175  0.00  0.00    -0.014 C 
ATOM     10  C8  UNL     1     136.601 125.848  89.546  0.00  0.00    -0.047 C 
ATOM     11  C9  UNL     1     137.535 126.597  88.693  0.00  0.00    +0.020 A 
ATOM     12  C10 UNL     1     137.050 127.410  87.659  0.00  0.00    -0.006 A 
ATOM     13  C11 UNL     1     137.931 128.161  86.867  0.00  0.00    +0.162 A 
ATOM     14  O3  UNL     1     137.539 128.972  85.830  0.00  0.00    -0.491 OA
ATOM     15  C12 UNL     1     136.157 129.002  85.500  0.00  0.00    +0.079 C 
ATOM     16  C13 UNL     1     139.318 128.115  87.126  0.00  0.00    +0.165 A 
ATOM     17  O4  UNL     1     140.107 128.899  86.319  0.00  0.00    -0.491 OA
ATOM     18  C14 UNL     1     141.512 128.849  86.525  0.00  0.00    +0.079 C 
ATOM     19  C15 UNL     1     139.802 127.309  88.160  0.00  0.00    +0.026 A 
ATOM     20  C16 UNL     1     138.915 126.544  88.922  0.00  0.00    +0.131 A 
ATOM     21  O5  UNL     1     139.418 125.779  89.948  0.00  0.00    -0.494 OA
ATOM     22  C17 UNL     1     139.888 124.531  89.428  0.00  0.00    +0.079 C 
ATOM     23  C18 UNL     1     133.255 123.840  87.970  0.00  0.00    -0.006 A 
ATOM     24  C19 UNL     1     132.120 123.180  87.504  0.00  0.00    +0.159 A 
ATOM     25  O6  UNL     1     130.920 123.477  88.094  0.00  0.00    -0.503 OA
ATOM     26  H   UNL     1     130.138 123.052  87.804  0.00  0.00    +0.000 HD
ENDROOT
TORSDOF 0
ENDMDL
MODEL 6
REMARK VINA RESULT:    -4.456      3.602      4.916
REMARK INTER + INTRA:          -4.456
REMARK INTER:                  -4.456
REMARK INTRA:                   0.000
REMARK UNBOUND:                 0.000
REMARK  Name = /home/vital/Documents/PhD_2021/Malaria_codes/scripts/../data/pdbqt_ligands/ligand_363_temp.pdb
REMARK                            x       y       z     vdW  Elec       q    Type
REMARK                         _______ _______ _______ _____ _____    ______ ____
ROOT
ATOM      1  C1  UNL     1     143.363 130.693  91.205  0.00  0.00    +0.079 C 
ATOM      2  O1  UNL     1     142.235 129.901  91.565  0.00  0.00    -0.491 OA
ATOM      3  C2  UNL     1     142.307 129.246  92.767  0.00  0.00    +0.161 A 
ATOM      4  C3  UNL     1     143.332 129.350  93.704  0.00  0.00    -0.016 A 
ATOM      5  C4  UNL     1     143.265 128.616  94.896  0.00  0.00    -0.047 A 
ATOM      6  C5  UNL     1     142.179 127.767  95.163  0.00  0.00    +0.025 A 
ATOM      7  C6  UNL     1     142.164 127.033  96.460  0.00  0.00    +0.186 C 
ATOM      8  O2  UNL     1     142.886 127.405  97.378  0.00  0.00    -0.287 OA
ATOM      9  C7  UNL     1     141.305 125.819  96.566  0.00  0.00    -0.014 C 
ATOM     10  C8  UNL     1     140.803 125.325  97.708  0.00  0.00    -0.047 C 
ATOM     11  C9  UNL     1     140.930 125.902  99.054  0.00  0.00    +0.020 A 
ATOM     12  C10 UNL     1     140.322 127.128  99.357  0.00  0.00    -0.006 A 
ATOM     13  C11 UNL     1     140.402 127.665 100.650  0.00  0.00    +0.162 A 
ATOM     14  O3  UNL     1     139.844 128.863 101.026  0.00  0.00    -0.491 OA
ATOM     15  C12 UNL     1     139.200 129.637 100.023  0.00  0.00    +0.079 C 
ATOM     16  C13 UNL     1     141.082 126.955 101.663  0.00  0.00    +0.165 A 
ATOM     17  O4  UNL     1     141.092 127.540 102.906  0.00  0.00    -0.491 OA
ATOM     18  C14 UNL     1     141.800 126.873 103.941  0.00  0.00    +0.079 C 
ATOM     19  C15 UNL     1     141.683 125.730 101.364  0.00  0.00    +0.026 A 
ATOM     20  C16 UNL     1     141.620 125.221 100.064  0.00  0.00    +0.131 A 
ATOM     21  O5  UNL     1     142.201 124.001  99.804  0.00  0.00    -0.494 OA
ATOM     22  C17 UNL     1     143.599 124.180  99.558  0.00  0.00    +0.079 C 
ATOM     23  C18 UNL     1     141.143 127.673  94.231  0.00  0.00    -0.006 A 
ATOM     24  C19 UNL     1     141.222 128.407  93.051  0.00  0.00    +0.159 A 
ATOM     25  O6  UNL     1     140.191 128.292  92.156  0.00  0.00    -0.503 OA
ATOM     26  H   UNL     1     140.212 128.773  91.352  0.00  0.00    +0.000 HD
ENDROOT
TORSDOF 0
ENDMDL
MODEL 7
REMARK VINA RESULT:    -4.365      4.479      6.441
REMARK INTER + INTRA:          -4.365
REMARK INTER:                  -4.365
REMARK INTRA:                   0.000
REMARK UNBOUND:                 0.000
REMARK  Name = /home/vital/Documents/PhD_2021/Malaria_codes/scripts/../data/pdbqt_ligands/ligand_363_temp.pdb
REMARK                            x       y       z     vdW  Elec       q    Type
REMARK                         _______ _______ _______ _____ _____    ______ ____
ROOT
ATOM      1  C1  UNL     1     141.328 129.704  89.167  0.00  0.00    +0.079 C 
ATOM      2  O1  UNL     1     140.597 128.599  89.689  0.00  0.00    -0.491 OA
ATOM      3  C2  UNL     1     140.920 128.197  90.960  0.00  0.00    +0.161 A 
ATOM      4  C3  UNL     1     141.826 128.817  91.816  0.00  0.00    -0.016 A 
ATOM      5  C4  UNL     1     142.052 128.289  93.095  0.00  0.00    -0.047 A 
ATOM      6  C5  UNL     1     141.381 127.135  93.529  0.00  0.00    +0.025 A 
ATOM      7  C6  UNL     1     141.654 126.641  94.909  0.00  0.00    +0.186 C 
ATOM      8  O2  UNL     1     142.177 127.386  95.729  0.00  0.00    -0.287 OA
ATOM      9  C7  UNL     1     141.334 125.218  95.217  0.00  0.00    -0.014 C 
ATOM     10  C8  UNL     1     141.065 124.735  96.441  0.00  0.00    -0.047 C 
ATOM     11  C9  UNL     1     140.961 125.498  97.691  0.00  0.00    +0.020 A 
ATOM     12  C10 UNL     1     139.926 126.427  97.869  0.00  0.00    -0.006 A 
ATOM     13  C11 UNL     1     139.794 127.129  99.075  0.00  0.00    +0.162 A 
ATOM     14  O3  UNL     1     138.816 128.061  99.325  0.00  0.00    -0.491 OA
ATOM     15  C12 UNL     1     137.920 128.379  98.269  0.00  0.00    +0.079 C 
ATOM     16  C13 UNL     1     140.698 126.884 100.131  0.00  0.00    +0.165 A 
ATOM     17  O4  UNL     1     140.483 127.597 101.286  0.00  0.00    -0.491 OA
ATOM     18  C14 UNL     1     141.396 127.405 102.357  0.00  0.00    +0.079 C 
ATOM     19  C15 UNL     1     141.726 125.954  99.958  0.00  0.00    +0.026 A 
ATOM     20  C16 UNL     1     141.864 125.284  98.740  0.00  0.00    +0.131 A 
ATOM     21  O5  UNL     1     142.871 124.357  98.607  0.00  0.00    -0.494 OA
ATOM     22  C17 UNL     1     144.090 125.023  98.261  0.00  0.00    +0.079 C 
ATOM     23  C18 UNL     1     140.460 126.520  92.677  0.00  0.00    -0.006 A 
ATOM     24  C19 UNL     1     140.245 127.055  91.409  0.00  0.00    +0.159 A 
ATOM     25  O6  UNL     1     139.338 126.429  90.596  0.00  0.00    -0.503 OA
ATOM     26  H   UNL     1     139.170 126.763  89.738  0.00  0.00    +0.000 HD
ENDROOT
TORSDOF 0
ENDMDL
MODEL 8
REMARK VINA RESULT:    -4.331      2.593      8.184
REMARK INTER + INTRA:          -4.331
REMARK INTER:                  -4.331
REMARK INTRA:                   0.000
REMARK UNBOUND:                 0.000
REMARK  Name = /home/vital/Documents/PhD_2021/Malaria_codes/scripts/../data/pdbqt_ligands/ligand_363_temp.pdb
REMARK                            x       y       z     vdW  Elec       q    Type
REMARK                         _______ _______ _______ _____ _____    ______ ____
ROOT
ATOM      1  C1  UNL     1     142.533 122.967 107.540  0.00  0.00    +0.079 C 
ATOM      2  O1  UNL     1     143.033 122.859 106.210  0.00  0.00    -0.491 OA
ATOM      3  C2  UNL     1     142.579 123.786 105.308  0.00  0.00    +0.161 A 
ATOM      4  C3  UNL     1     141.749 124.870 105.586  0.00  0.00    -0.016 A 
ATOM      5  C4  UNL     1     141.368 125.739 104.554  0.00  0.00    -0.047 A 
ATOM      6  C5  UNL     1     141.806 125.533 103.236  0.00  0.00    +0.025 A 
ATOM      7  C6  UNL     1     141.378 126.509 102.194  0.00  0.00    +0.186 C 
ATOM      8  O2  UNL     1     140.949 127.607 102.528  0.00  0.00    -0.287 OA
ATOM      9  C7  UNL     1     141.431 126.076 100.768  0.00  0.00    -0.014 C 
ATOM     10  C8  UNL     1     141.548 126.900  99.715  0.00  0.00    -0.047 C 
ATOM     11  C9  UNL     1     141.716 128.359  99.745  0.00  0.00    +0.020 A 
ATOM     12  C10 UNL     1     142.884 128.925 100.273  0.00  0.00    -0.006 A 
ATOM     13  C11 UNL     1     143.072 130.315 100.268  0.00  0.00    +0.162 A 
ATOM     14  O3  UNL     1     144.181 130.947 100.773  0.00  0.00    -0.491 OA
ATOM     15  C12 UNL     1     145.174 130.145 101.398  0.00  0.00    +0.079 C 
ATOM     16  C13 UNL     1     142.084 131.152  99.706  0.00  0.00    +0.165 A 
ATOM     17  O4  UNL     1     142.358 132.498  99.720  0.00  0.00    -0.491 OA
ATOM     18  C14 UNL     1     141.369 133.376  99.199  0.00  0.00    +0.079 C 
ATOM     19  C15 UNL     1     140.921 130.589  99.175  0.00  0.00    +0.026 A 
ATOM     20  C16 UNL     1     140.735 129.205  99.214  0.00  0.00    +0.131 A 
ATOM     21  O5  UNL     1     139.591 128.678  98.661  0.00  0.00    -0.494 OA
ATOM     22  C17 UNL     1     138.526 128.745  99.614  0.00  0.00    +0.079 C 
ATOM     23  C18 UNL     1     142.650 124.455 102.959  0.00  0.00    -0.006 A 
ATOM     24  C19 UNL     1     143.021 123.599 103.993  0.00  0.00    +0.159 A 
ATOM     25  O6  UNL     1     143.848 122.551 103.690  0.00  0.00    -0.503 OA
ATOM     26  H   UNL     1     144.117 121.956 104.361  0.00  0.00    +0.000 HD
ENDROOT
TORSDOF 0
ENDMDL
