MODEL 1
REMARK VINA RESULT:    -5.955      0.000      0.000
REMARK INTER + INTRA:          -5.955
REMARK INTER:                  -5.955
REMARK INTRA:                   0.000
REMARK UNBOUND:                 0.000
REMARK  Name = /home/vital/Documents/PhD_2021/Malaria_codes/scripts/../data/pdbqt_ligands/ligand_470_temp.pdb
REMARK                            x       y       z     vdW  Elec       q    Type
REMARK                         _______ _______ _______ _____ _____    ______ ____
ROOT
ATOM      1  C1  UNL     1     141.617 134.538  98.844  0.00  0.00    -0.116 C 
ATOM      2  C2  UNL     1     142.183 133.489  98.998  0.00  0.00    -0.062 C 
ATOM      3  C3  UNL     1     142.871 132.196  99.190  0.00  0.00    +0.160 C 
ATOM      4  C4  UNL     1     144.309 132.296  98.653  0.00  0.00    -0.007 C 
ATOM      5  C5  UNL     1     145.127 131.048  98.962  0.00  0.00    -0.061 C 
ATOM      6  O1  UNL     1     142.194 131.175  98.446  0.00  0.00    -0.475 OA
ATOM      7  C6  UNL     1     141.325 130.353  99.110  0.00  0.00    +0.140 A 
ATOM      8  C7  UNL     1     140.568 130.783 100.208  0.00  0.00    +0.023 A 
ATOM      9  C8  UNL     1     139.670 129.916 100.823  0.00  0.00    +0.124 A 
ATOM     10  O2  UNL     1     138.967 130.387 101.893  0.00  0.00    -0.507 OA
ATOM     11  C9  UNL     1     139.495 128.622 100.357  0.00  0.00    +0.023 A 
ATOM     12  C10 UNL     1     140.227 128.190  99.249  0.00  0.00    +0.146 A 
ATOM     13  O3  UNL     1     139.972 126.899  98.857  0.00  0.00    -0.451 OA
ATOM     14  C11 UNL     1     140.624 126.405  97.756  0.00  0.00    +0.180 A 
ATOM     15  C12 UNL     1     140.319 125.099  97.355  0.00  0.00    +0.160 A 
ATOM     16  O4  UNL     1     139.396 124.383  98.068  0.00  0.00    -0.503 OA
ATOM     17  C13 UNL     1     140.943 124.526  96.246  0.00  0.00    -0.016 A 
ATOM     18  C14 UNL     1     141.883 125.264  95.527  0.00  0.00    -0.057 A 
ATOM     19  C15 UNL     1     142.195 126.567  95.919  0.00  0.00    -0.047 A 
ATOM     20  C16 UNL     1     141.562 127.132  97.033  0.00  0.00    +0.068 A 
ATOM     21  C17 UNL     1     141.884 128.503  97.459  0.00  0.00    +0.204 A 
ATOM     22  O5  UNL     1     142.746 129.127  96.853  0.00  0.00    -0.286 OA
ATOM     23  C18 UNL     1     141.140 129.045  98.621  0.00  0.00    +0.106 A 
ATOM     24  H   UNL     1     139.101 131.265 102.191  0.00  0.00    +0.000 HD
ATOM     25  H   UNL     1     138.977 124.768  98.813  0.00  0.00    +0.000 HD
ENDROOT
TORSDOF 0
ENDMDL
MODEL 2
REMARK VINA RESULT:    -5.768      2.468      4.787
REMARK INTER + INTRA:          -5.768
REMARK INTER:                  -5.768
REMARK INTRA:                   0.000
REMARK UNBOUND:                 0.000
REMARK  Name = /home/vital/Documents/PhD_2021/Malaria_codes/scripts/../data/pdbqt_ligands/ligand_470_temp.pdb
REMARK                            x       y       z     vdW  Elec       q    Type
REMARK                         _______ _______ _______ _____ _____    ______ ____
ROOT
ATOM      1  C1  UNL     1     144.966 132.463  93.440  0.00  0.00    -0.116 C 
ATOM      2  C2  UNL     1     145.067 131.856  94.472  0.00  0.00    -0.062 C 
ATOM      3  C3  UNL     1     145.187 131.115  95.745  0.00  0.00    +0.160 C 
ATOM      4  C4  UNL     1     145.910 129.780  95.496  0.00  0.00    -0.007 C 
ATOM      5  C5  UNL     1     146.208 129.036  96.791  0.00  0.00    -0.061 C 
ATOM      6  O1  UNL     1     143.880 130.819  96.254  0.00  0.00    -0.475 OA
ATOM      7  C6  UNL     1     143.365 131.621  97.236  0.00  0.00    +0.140 A 
ATOM      8  C7  UNL     1     143.658 132.988  97.323  0.00  0.00    +0.023 A 
ATOM      9  C8  UNL     1     143.077 133.768  98.319  0.00  0.00    +0.124 A 
ATOM     10  O2  UNL     1     143.406 135.090  98.361  0.00  0.00    -0.507 OA
ATOM     11  C9  UNL     1     142.190 133.214  99.231  0.00  0.00    +0.023 A 
ATOM     12  C10 UNL     1     141.873 131.857  99.138  0.00  0.00    +0.146 A 
ATOM     13  O3  UNL     1     140.977 131.409 100.077  0.00  0.00    -0.451 OA
ATOM     14  C11 UNL     1     140.584 130.096 100.037  0.00  0.00    +0.180 A 
ATOM     15  C12 UNL     1     139.642 129.673 100.981  0.00  0.00    +0.160 A 
ATOM     16  O4  UNL     1     139.158 130.577 101.888  0.00  0.00    -0.503 OA
ATOM     17  C13 UNL     1     139.195 128.351 101.006  0.00  0.00    -0.016 A 
ATOM     18  C14 UNL     1     139.695 127.438 100.078  0.00  0.00    -0.057 A 
ATOM     19  C15 UNL     1     140.636 127.849  99.132  0.00  0.00    -0.047 A 
ATOM     20  C16 UNL     1     141.076 129.179  99.116  0.00  0.00    +0.068 A 
ATOM     21  C17 UNL     1     142.070 129.624  98.127  0.00  0.00    +0.204 A 
ATOM     22  O5  UNL     1     142.542 128.806  97.348  0.00  0.00    -0.286 OA
ATOM     23  C18 UNL     1     142.452 131.056  98.147  0.00  0.00    +0.106 A 
ATOM     24  H   UNL     1     144.007 135.444  97.735  0.00  0.00    +0.000 HD
ATOM     25  H   UNL     1     139.458 131.465 101.872  0.00  0.00    +0.000 HD
ENDROOT
TORSDOF 0
ENDMDL
MODEL 3
REMARK VINA RESULT:    -5.573      1.821      6.100
REMARK INTER + INTRA:          -5.573
REMARK INTER:                  -5.573
REMARK INTRA:                   0.000
REMARK UNBOUND:                 0.000
REMARK  Name = /home/vital/Documents/PhD_2021/Malaria_codes/scripts/../data/pdbqt_ligands/ligand_470_temp.pdb
REMARK                            x       y       z     vdW  Elec       q    Type
REMARK                         _______ _______ _______ _____ _____    ______ ____
ROOT
ATOM      1  C1  UNL     1     141.973 124.338 101.043  0.00  0.00    -0.116 C 
ATOM      2  C2  UNL     1     141.872 125.068 100.094  0.00  0.00    -0.062 C 
ATOM      3  C3  UNL     1     141.743 125.972  98.931  0.00  0.00    +0.160 C 
ATOM      4  C4  UNL     1     142.640 125.468  97.788  0.00  0.00    -0.007 C 
ATOM      5  C5  UNL     1     142.436 126.262  96.504  0.00  0.00    -0.061 C 
ATOM      6  O1  UNL     1     142.187 127.286  99.292  0.00  0.00    -0.475 OA
ATOM      7  C6  UNL     1     141.246 128.226  99.616  0.00  0.00    +0.140 A 
ATOM      8  C7  UNL     1     140.036 127.898 100.241  0.00  0.00    +0.023 A 
ATOM      9  C8  UNL     1     139.130 128.897 100.584  0.00  0.00    +0.124 A 
ATOM     10  O2  UNL     1     137.965 128.517 101.183  0.00  0.00    -0.507 OA
ATOM     11  C9  UNL     1     139.411 130.231 100.330  0.00  0.00    +0.023 A 
ATOM     12  C10 UNL     1     140.625 130.572  99.728  0.00  0.00    +0.146 A 
ATOM     13  O3  UNL     1     140.813 131.917  99.532  0.00  0.00    -0.451 OA
ATOM     14  C11 UNL     1     141.993 132.342  98.978  0.00  0.00    +0.180 A 
ATOM     15  C12 UNL     1     142.176 133.720  98.822  0.00  0.00    +0.160 A 
ATOM     16  O4  UNL     1     141.185 134.573  99.227  0.00  0.00    -0.503 OA
ATOM     17  C13 UNL     1     143.349 134.229  98.263  0.00  0.00    -0.016 A 
ATOM     18  C14 UNL     1     144.354 133.352  97.853  0.00  0.00    -0.057 A 
ATOM     19  C15 UNL     1     144.181 131.975  98.002  0.00  0.00    -0.047 A 
ATOM     20  C16 UNL     1     142.999 131.476  98.566  0.00  0.00    +0.068 A 
ATOM     21  C17 UNL     1     142.803 130.027  98.726  0.00  0.00    +0.204 A 
ATOM     22  O5  UNL     1     143.667 129.261  98.318  0.00  0.00    -0.286 OA
ATOM     23  C18 UNL     1     141.545 129.580  99.370  0.00  0.00    +0.106 A 
ATOM     24  H   UNL     1     137.796 127.610 101.345  0.00  0.00    +0.000 HD
ATOM     25  H   UNL     1     140.397 134.231  99.602  0.00  0.00    +0.000 HD
ENDROOT
TORSDOF 0
ENDMDL
MODEL 4
REMARK VINA RESULT:    -5.326      2.836      6.261
REMARK INTER + INTRA:          -5.326
REMARK INTER:                  -5.326
REMARK INTRA:                   0.000
REMARK UNBOUND:                 0.000
REMARK  Name = /home/vital/Documents/PhD_2021/Malaria_codes/scripts/../data/pdbqt_ligands/ligand_470_temp.pdb
REMARK                            x       y       z     vdW  Elec       q    Type
REMARK                         _______ _______ _______ _____ _____    ______ ____
ROOT
ATOM      1  C1  UNL     1     141.964 125.607 103.791  0.00  0.00    -0.116 C 
ATOM      2  C2  UNL     1     142.161 125.975 102.664  0.00  0.00    -0.062 C 
ATOM      3  C3  UNL     1     142.398 126.433 101.279  0.00  0.00    +0.160 C 
ATOM      4  C4  UNL     1     143.604 125.684 100.690  0.00  0.00    -0.007 C 
ATOM      5  C5  UNL     1     143.808 125.992  99.212  0.00  0.00    -0.061 C 
ATOM      6  O1  UNL     1     142.709 127.833 101.282  0.00  0.00    -0.475 OA
ATOM      7  C6  UNL     1     141.714 128.722 100.978  0.00  0.00    +0.140 A 
ATOM      8  C7  UNL     1     140.370 128.489 101.297  0.00  0.00    +0.023 A 
ATOM      9  C8  UNL     1     139.402 129.444 100.999  0.00  0.00    +0.124 A 
ATOM     10  O2  UNL     1     138.109 129.159 101.325  0.00  0.00    -0.507 OA
ATOM     11  C9  UNL     1     139.748 130.645 100.399  0.00  0.00    +0.023 A 
ATOM     12  C10 UNL     1     141.089 130.898 100.098  0.00  0.00    +0.146 A 
ATOM     13  O3  UNL     1     141.328 132.120  99.519  0.00  0.00    -0.451 OA
ATOM     14  C11 UNL     1     142.622 132.463  99.222  0.00  0.00    +0.180 A 
ATOM     15  C12 UNL     1     142.845 133.728  98.666  0.00  0.00    +0.160 A 
ATOM     16  O4  UNL     1     141.777 134.556  98.449  0.00  0.00    -0.503 OA
ATOM     17  C13 UNL     1     144.133 134.148  98.334  0.00  0.00    -0.016 A 
ATOM     18  C14 UNL     1     145.215 133.297  98.558  0.00  0.00    -0.057 A 
ATOM     19  C15 UNL     1     145.004 132.033  99.111  0.00  0.00    -0.047 A 
ATOM     20  C16 UNL     1     143.706 131.622  99.441  0.00  0.00    +0.068 A 
ATOM     21  C17 UNL     1     143.470 130.291 100.022  0.00  0.00    +0.204 A 
ATOM     22  O5  UNL     1     144.418 129.529 100.170  0.00  0.00    -0.286 OA
ATOM     23  C18 UNL     1     142.074 129.947 100.384  0.00  0.00    +0.106 A 
ATOM     24  H   UNL     1     137.898 128.340 101.730  0.00  0.00    +0.000 HD
ATOM     25  H   UNL     1     140.911 134.274  98.672  0.00  0.00    +0.000 HD
ENDROOT
TORSDOF 0
ENDMDL
MODEL 5
REMARK VINA RESULT:    -4.974      2.865      6.027
REMARK INTER + INTRA:          -4.974
REMARK INTER:                  -4.974
REMARK INTRA:                   0.000
REMARK UNBOUND:                 0.000
REMARK  Name = /home/vital/Documents/PhD_2021/Malaria_codes/scripts/../data/pdbqt_ligands/ligand_470_temp.pdb
REMARK                            x       y       z     vdW  Elec       q    Type
REMARK                         _______ _______ _______ _____ _____    ______ ____
ROOT
ATOM      1  C1  UNL     1     142.115 126.026 101.641  0.00  0.00    -0.116 C 
ATOM      2  C2  UNL     1     141.615 126.810 100.881  0.00  0.00    -0.062 C 
ATOM      3  C3  UNL     1     141.005 127.780  99.948  0.00  0.00    +0.160 C 
ATOM      4  C4  UNL     1     139.963 127.065  99.072  0.00  0.00    -0.007 C 
ATOM      5  C5  UNL     1     139.182 128.036  98.196  0.00  0.00    -0.061 C 
ATOM      6  O1  UNL     1     142.014 128.315  99.082  0.00  0.00    -0.475 OA
ATOM      7  C6  UNL     1     142.543 129.542  99.377  0.00  0.00    +0.140 A 
ATOM      8  C7  UNL     1     142.690 130.005 100.691  0.00  0.00    +0.023 A 
ATOM      9  C8  UNL     1     143.269 131.245 100.938  0.00  0.00    +0.124 A 
ATOM     10  O2  UNL     1     143.378 131.647 102.237  0.00  0.00    -0.507 OA
ATOM     11  C9  UNL     1     143.725 132.039  99.896  0.00  0.00    +0.023 A 
ATOM     12  C10 UNL     1     143.605 131.578  98.583  0.00  0.00    +0.146 A 
ATOM     13  O3  UNL     1     144.098 132.430  97.625  0.00  0.00    -0.451 OA
ATOM     14  C11 UNL     1     144.051 132.040  96.312  0.00  0.00    +0.180 A 
ATOM     15  C12 UNL     1     144.593 132.910  95.359  0.00  0.00    +0.160 A 
ATOM     16  O4  UNL     1     145.141 134.093  95.774  0.00  0.00    -0.503 OA
ATOM     17  C13 UNL     1     144.580 132.584  94.002  0.00  0.00    -0.016 A 
ATOM     18  C14 UNL     1     144.018 131.376  93.588  0.00  0.00    -0.057 A 
ATOM     19  C15 UNL     1     143.474 130.501  94.531  0.00  0.00    -0.047 A 
ATOM     20  C16 UNL     1     143.494 130.839  95.890  0.00  0.00    +0.068 A 
ATOM     21  C17 UNL     1     142.921 129.928  96.893  0.00  0.00    +0.204 A 
ATOM     22  O5  UNL     1     142.385 128.892  96.519  0.00  0.00    -0.286 OA
ATOM     23  C18 UNL     1     143.019 130.335  98.315  0.00  0.00    +0.106 A 
ATOM     24  H   UNL     1     143.063 131.095 102.925  0.00  0.00    +0.000 HD
ATOM     25  H   UNL     1     145.149 134.312  96.685  0.00  0.00    +0.000 HD
ENDROOT
TORSDOF 0
ENDMDL
MODEL 6
REMARK VINA RESULT:    -4.951      5.047      7.666
REMARK INTER + INTRA:          -4.951
REMARK INTER:                  -4.951
REMARK INTRA:                   0.000
REMARK UNBOUND:                 0.000
REMARK  Name = /home/vital/Documents/PhD_2021/Malaria_codes/scripts/../data/pdbqt_ligands/ligand_470_temp.pdb
REMARK                            x       y       z     vdW  Elec       q    Type
REMARK                         _______ _______ _______ _____ _____    ______ ____
ROOT
ATOM      1  C1  UNL     1     143.955 122.810 105.119  0.00  0.00    -0.116 C 
ATOM      2  C2  UNL     1     143.341 123.835 105.249  0.00  0.00    -0.062 C 
ATOM      3  C3  UNL     1     142.592 125.099 105.405  0.00  0.00    +0.160 C 
ATOM      4  C4  UNL     1     141.208 124.804 106.008  0.00  0.00    -0.007 C 
ATOM      5  C5  UNL     1     140.443 126.078 106.343  0.00  0.00    -0.061 C 
ATOM      6  O1  UNL     1     142.392 125.702 104.120  0.00  0.00    -0.475 OA
ATOM      7  C6  UNL     1     143.229 126.714 103.737  0.00  0.00    +0.140 A 
ATOM      8  C7  UNL     1     144.571 126.775 104.135  0.00  0.00    +0.023 A 
ATOM      9  C8  UNL     1     145.390 127.806 103.686  0.00  0.00    +0.124 A 
ATOM     10  O2  UNL     1     146.685 127.819 104.113  0.00  0.00    -0.507 OA
ATOM     11  C9  UNL     1     144.902 128.781 102.829  0.00  0.00    +0.023 A 
ATOM     12  C10 UNL     1     143.572 128.718 102.407  0.00  0.00    +0.146 A 
ATOM     13  O3  UNL     1     143.191 129.720 101.550  0.00  0.00    -0.451 OA
ATOM     14  C11 UNL     1     141.910 129.715 101.061  0.00  0.00    +0.180 A 
ATOM     15  C12 UNL     1     141.557 130.726 100.160  0.00  0.00    +0.160 A 
ATOM     16  O4  UNL     1     142.493 131.661  99.810  0.00  0.00    -0.503 OA
ATOM     17  C13 UNL     1     140.271 130.788  99.621  0.00  0.00    -0.016 A 
ATOM     18  C14 UNL     1     139.324 129.830  99.984  0.00  0.00    -0.057 A 
ATOM     19  C15 UNL     1     139.666 128.818 100.882  0.00  0.00    -0.047 A 
ATOM     20  C16 UNL     1     140.960 128.765 101.416  0.00  0.00    +0.068 A 
ATOM     21  C17 UNL     1     141.332 127.705 102.367  0.00  0.00    +0.204 A 
ATOM     22  O5  UNL     1     140.482 126.897 102.720  0.00  0.00    -0.286 OA
ATOM     23  C18 UNL     1     142.732 127.692 102.853  0.00  0.00    +0.106 A 
ATOM     24  H   UNL     1     146.994 127.150 104.692  0.00  0.00    +0.000 HD
ATOM     25  H   UNL     1     143.356 131.619 100.173  0.00  0.00    +0.000 HD
ENDROOT
TORSDOF 0
ENDMDL
MODEL 7
REMARK VINA RESULT:    -4.619      3.095      5.394
REMARK INTER + INTRA:          -4.619
REMARK INTER:                  -4.619
REMARK INTRA:                   0.000
REMARK UNBOUND:                 0.000
REMARK  Name = /home/vital/Documents/PhD_2021/Malaria_codes/scripts/../data/pdbqt_ligands/ligand_470_temp.pdb
REMARK                            x       y       z     vdW  Elec       q    Type
REMARK                         _______ _______ _______ _____ _____    ______ ____
ROOT
ATOM      1  C1  UNL     1     141.107 125.940  94.029  0.00  0.00    -0.116 C 
ATOM      2  C2  UNL     1     141.539 126.775  94.777  0.00  0.00    -0.062 C 
ATOM      3  C3  UNL     1     142.063 127.802  95.702  0.00  0.00    +0.160 C 
ATOM      4  C4  UNL     1     143.455 128.255  95.229  0.00  0.00    -0.007 C 
ATOM      5  C5  UNL     1     143.988 129.426  96.046  0.00  0.00    -0.061 C 
ATOM      6  O1  UNL     1     142.206 127.241  97.013  0.00  0.00    -0.475 OA
ATOM      7  C6  UNL     1     141.227 127.486  97.937  0.00  0.00    +0.140 A 
ATOM      8  C7  UNL     1     139.880 127.647  97.586  0.00  0.00    +0.023 A 
ATOM      9  C8  UNL     1     138.919 127.856  98.569  0.00  0.00    +0.124 A 
ATOM     10  O2  UNL     1     137.625 128.014  98.167  0.00  0.00    -0.507 OA
ATOM     11  C9  UNL     1     139.268 127.895  99.911  0.00  0.00    +0.023 A 
ATOM     12  C10 UNL     1     140.605 127.714 100.274  0.00  0.00    +0.146 A 
ATOM     13  O3  UNL     1     140.845 127.756 101.625  0.00  0.00    -0.451 OA
ATOM     14  C11 UNL     1     142.125 127.553 102.072  0.00  0.00    +0.180 A 
ATOM     15  C12 UNL     1     142.338 127.565 103.455  0.00  0.00    +0.160 A 
ATOM     16  O4  UNL     1     141.274 127.773 104.290  0.00  0.00    -0.503 OA
ATOM     17  C13 UNL     1     143.614 127.368 103.985  0.00  0.00    -0.016 A 
ATOM     18  C14 UNL     1     144.693 127.158 103.126  0.00  0.00    -0.057 A 
ATOM     19  C15 UNL     1     144.492 127.145 101.745  0.00  0.00    -0.047 A 
ATOM     20  C16 UNL     1     143.206 127.343 101.224  0.00  0.00    +0.068 A 
ATOM     21  C17 UNL     1     142.981 127.335  99.770  0.00  0.00    +0.204 A 
ATOM     22  O5  UNL     1     143.940 127.200  99.020  0.00  0.00    -0.286 OA
ATOM     23  C18 UNL     1     141.587 127.508  99.299  0.00  0.00    +0.106 A 
ATOM     24  H   UNL     1     137.411 127.984  97.255  0.00  0.00    +0.000 HD
ATOM     25  H   UNL     1     140.417 127.905 103.933  0.00  0.00    +0.000 HD
ENDROOT
TORSDOF 0
ENDMDL
MODEL 8
REMARK VINA RESULT:    -4.615      4.767      6.548
REMARK INTER + INTRA:          -4.615
REMARK INTER:                  -4.615
REMARK INTRA:                   0.000
REMARK UNBOUND:                 0.000
REMARK  Name = /home/vital/Documents/PhD_2021/Malaria_codes/scripts/../data/pdbqt_ligands/ligand_470_temp.pdb
REMARK                            x       y       z     vdW  Elec       q    Type
REMARK                         _______ _______ _______ _____ _____    ______ ____
ROOT
ATOM      1  C1  UNL     1     141.337 132.542  99.242  0.00  0.00    -0.116 C 
ATOM      2  C2  UNL     1     141.321 131.347  99.368  0.00  0.00    -0.062 C 
ATOM      3  C3  UNL     1     141.308 129.878  99.526  0.00  0.00    +0.160 C 
ATOM      4  C4  UNL     1     139.883 129.349  99.294  0.00  0.00    -0.007 C 
ATOM      5  C5  UNL     1     139.827 127.827  99.286  0.00  0.00    -0.061 C 
ATOM      6  O1  UNL     1     141.692 129.534 100.864  0.00  0.00    -0.475 OA
ATOM      7  C6  UNL     1     142.984 129.144 101.092  0.00  0.00    +0.140 A 
ATOM      8  C7  UNL     1     144.065 129.645 100.354  0.00  0.00    +0.023 A 
ATOM      9  C8  UNL     1     145.363 129.244 100.652  0.00  0.00    +0.124 A 
ATOM     10  O2  UNL     1     146.375 129.758  99.896  0.00  0.00    -0.507 OA
ATOM     11  C9  UNL     1     145.615 128.357 101.688  0.00  0.00    +0.023 A 
ATOM     12  C10 UNL     1     144.547 127.868 102.444  0.00  0.00    +0.146 A 
ATOM     13  O3  UNL     1     144.902 127.008 103.454  0.00  0.00    -0.451 OA
ATOM     14  C11 UNL     1     143.918 126.508 104.267  0.00  0.00    +0.180 A 
ATOM     15  C12 UNL     1     144.308 125.662 105.311  0.00  0.00    +0.160 A 
ATOM     16  O4  UNL     1     145.637 125.377 105.475  0.00  0.00    -0.503 OA
ATOM     17  C13 UNL     1     143.364 125.112 106.179  0.00  0.00    -0.016 A 
ATOM     18  C14 UNL     1     142.012 125.407 106.004  0.00  0.00    -0.057 A 
ATOM     19  C15 UNL     1     141.612 126.248 104.965  0.00  0.00    -0.047 A 
ATOM     20  C16 UNL     1     142.568 126.796 104.101  0.00  0.00    +0.068 A 
ATOM     21  C17 UNL     1     142.159 127.682 103.000  0.00  0.00    +0.204 A 
ATOM     22  O5  UNL     1     140.966 127.897 102.821  0.00  0.00    -0.286 OA
ATOM     23  C18 UNL     1     143.234 128.256 102.156  0.00  0.00    +0.106 A 
ATOM     24  H   UNL     1     146.182 130.357  99.201  0.00  0.00    +0.000 HD
ATOM     25  H   UNL     1     146.271 125.747 104.892  0.00  0.00    +0.000 HD
ENDROOT
TORSDOF 0
ENDMDL
MODEL 9
REMARK VINA RESULT:    -4.586      4.102      5.705
REMARK INTER + INTRA:          -4.586
REMARK INTER:                  -4.586
REMARK INTRA:                   0.000
REMARK UNBOUND:                 0.000
REMARK  Name = /home/vital/Documents/PhD_2021/Malaria_codes/scripts/../data/pdbqt_ligands/ligand_470_temp.pdb
REMARK                            x       y       z     vdW  Elec       q    Type
REMARK                         _______ _______ _______ _____ _____    ______ ____
ROOT
ATOM      1  C1  UNL     1     141.769 132.492  99.294  0.00  0.00    -0.116 C 
ATOM      2  C2  UNL     1     141.329 131.374  99.256  0.00  0.00    -0.062 C 
ATOM      3  C3  UNL     1     140.796 129.997  99.211  0.00  0.00    +0.160 C 
ATOM      4  C4  UNL     1     139.259 130.042  99.201  0.00  0.00    -0.007 C 
ATOM      5  C5  UNL     1     138.643 128.664  98.996  0.00  0.00    -0.061 C 
ATOM      6  O1  UNL     1     141.207 129.283 100.384  0.00  0.00    -0.475 OA
ATOM      7  C6  UNL     1     142.281 128.440 100.291  0.00  0.00    +0.140 A 
ATOM      8  C7  UNL     1     143.357 128.680  99.427  0.00  0.00    +0.023 A 
ATOM      9  C8  UNL     1     144.442 127.810  99.399  0.00  0.00    +0.124 A 
ATOM     10  O2  UNL     1     145.457 128.090  98.532  0.00  0.00    -0.507 OA
ATOM     11  C9  UNL     1     144.489 126.702 100.232  0.00  0.00    +0.023 A 
ATOM     12  C10 UNL     1     143.432 126.465 101.114  0.00  0.00    +0.146 A 
ATOM     13  O3  UNL     1     143.580 125.352 101.904  0.00  0.00    -0.451 OA
ATOM     14  C11 UNL     1     142.603 125.064 102.822  0.00  0.00    +0.180 A 
ATOM     15  C12 UNL     1     142.794 123.945 103.641  0.00  0.00    +0.160 A 
ATOM     16  O4  UNL     1     143.932 123.199 103.492  0.00  0.00    -0.503 OA
ATOM     17  C13 UNL     1     141.844 123.586 104.598  0.00  0.00    -0.016 A 
ATOM     18  C14 UNL     1     140.687 124.353 104.741  0.00  0.00    -0.057 A 
ATOM     19  C15 UNL     1     140.486 125.470 103.929  0.00  0.00    -0.047 A 
ATOM     20  C16 UNL     1     141.448 125.821 102.973  0.00  0.00    +0.068 A 
ATOM     21  C17 UNL     1     141.247 126.994 102.108  0.00  0.00    +0.204 A 
ATOM     22  O5  UNL     1     140.206 127.633 102.205  0.00  0.00    -0.286 OA
ATOM     23  C18 UNL     1     142.329 127.325 101.151  0.00  0.00    +0.106 A 
ATOM     24  H   UNL     1     145.405 128.845  97.978  0.00  0.00    +0.000 HD
ATOM     25  H   UNL     1     144.570 123.440 102.850  0.00  0.00    +0.000 HD
ENDROOT
TORSDOF 0
ENDMDL
