MODEL 1
REMARK VINA RESULT:    -6.126      0.000      0.000
REMARK INTER + INTRA:          -6.126
REMARK INTER:                  -6.126
REMARK INTRA:                   0.000
REMARK UNBOUND:                 0.000
REMARK  Name = /home/vital/Documents/PhD_2021/Malaria_codes/scripts/../data/pdbqt_ligands/ligand_50_temp.pdb
REMARK                            x       y       z     vdW  Elec       q    Type
REMARK                         _______ _______ _______ _____ _____    ______ ____
ROOT
ATOM      1  C1  UNL     1     129.782 127.590  86.217  0.00  0.00    -0.062 C 
ATOM      2  C2  UNL     1     129.007 128.877  86.443  0.00  0.00    -0.021 C 
ATOM      3  C3  UNL     1     128.437 129.428  85.142  0.00  0.00    +0.093 C 
ATOM      4  O1  UNL     1     127.665 130.614  85.408  0.00  0.00    -0.461 OA
ATOM      5  C4  UNL     1     128.366 131.779  85.427  0.00  0.00    +0.343 C 
ATOM      6  O2  UNL     1     129.570 131.880  85.246  0.00  0.00    -0.245 OA
ATOM      7  C5  UNL     1     127.471 132.938  85.703  0.00  0.00    +0.104 A 
ATOM      8  C6  UNL     1     128.070 134.200  85.677  0.00  0.00    -0.002 A 
ATOM      9  C7  UNL     1     127.321 135.346  85.933  0.00  0.00    +0.126 A 
ATOM     10  O3  UNL     1     128.031 136.517  85.912  0.00  0.00    -0.506 OA
ATOM     11  C8  UNL     1     125.936 135.288  86.200  0.00  0.00    +0.027 A 
ATOM     12  C9  UNL     1     125.130 136.433  86.416  0.00  0.00    -0.050 A 
ATOM     13  C10 UNL     1     123.765 136.328  86.688  0.00  0.00    -0.061 A 
ATOM     14  C11 UNL     1     123.169 135.076  86.746  0.00  0.00    -0.061 A 
ATOM     15  C12 UNL     1     123.938 133.935  86.521  0.00  0.00    -0.050 A 
ATOM     16  C13 UNL     1     125.320 134.011  86.240  0.00  0.00    +0.028 A 
ATOM     17  C14 UNL     1     126.098 132.850  85.992  0.00  0.00    +0.139 A 
ATOM     18  O4  UNL     1     125.434 131.645  86.048  0.00  0.00    -0.505 OA
ATOM     19  H   UNL     1     128.950 136.504  85.731  0.00  0.00    +0.000 HD
ATOM     20  H   UNL     1     125.898 130.846  85.893  0.00  0.00    +0.000 HD
ENDROOT
TORSDOF 0
ENDMDL
MODEL 2
REMARK VINA RESULT:    -4.725     20.768     22.970
REMARK INTER + INTRA:          -4.725
REMARK INTER:                  -4.725
REMARK INTRA:                   0.000
REMARK UNBOUND:                 0.000
REMARK  Name = /home/vital/Documents/PhD_2021/Malaria_codes/scripts/../data/pdbqt_ligands/ligand_50_temp.pdb
REMARK                            x       y       z     vdW  Elec       q    Type
REMARK                         _______ _______ _______ _____ _____    ______ ____
ROOT
ATOM      1  C1  UNL     1     144.825 124.613 106.464  0.00  0.00    -0.062 C 
ATOM      2  C2  UNL     1     143.981 125.513 105.579  0.00  0.00    -0.021 C 
ATOM      3  C3  UNL     1     144.412 125.431 104.119  0.00  0.00    +0.093 C 
ATOM      4  O1  UNL     1     143.552 126.254 103.309  0.00  0.00    -0.461 OA
ATOM      5  C4  UNL     1     143.923 127.558 103.196  0.00  0.00    +0.343 C 
ATOM      6  O2  UNL     1     144.901 128.060 103.726  0.00  0.00    -0.245 OA
ATOM      7  C5  UNL     1     142.971 128.312 102.332  0.00  0.00    +0.104 A 
ATOM      8  C6  UNL     1     143.289 129.650 102.085  0.00  0.00    -0.002 A 
ATOM      9  C7  UNL     1     142.457 130.444 101.299  0.00  0.00    +0.126 A 
ATOM     10  O3  UNL     1     142.862 131.746 101.163  0.00  0.00    -0.506 OA
ATOM     11  C8  UNL     1     141.285 129.933 100.701  0.00  0.00    +0.027 A 
ATOM     12  C9  UNL     1     140.441 130.693  99.856  0.00  0.00    -0.050 A 
ATOM     13  C10 UNL     1     139.284 130.149  99.294  0.00  0.00    -0.061 A 
ATOM     14  C11 UNL     1     138.945 128.831  99.560  0.00  0.00    -0.061 A 
ATOM     15  C12 UNL     1     139.768 128.057 100.376  0.00  0.00    -0.050 A 
ATOM     16  C13 UNL     1     140.947 128.579 100.954  0.00  0.00    +0.028 A 
ATOM     17  C14 UNL     1     141.795 127.785 101.770  0.00  0.00    +0.139 A 
ATOM     18  O4  UNL     1     141.404 126.481 101.973  0.00  0.00    -0.505 OA
ATOM     19  H   UNL     1     143.648 132.038 101.580  0.00  0.00    +0.000 HD
ATOM     20  H   UNL     1     141.926 125.912 102.503  0.00  0.00    +0.000 HD
ENDROOT
TORSDOF 0
ENDMDL
MODEL 3
REMARK VINA RESULT:    -4.712     20.802     22.830
REMARK INTER + INTRA:          -4.712
REMARK INTER:                  -4.712
REMARK INTRA:                   0.000
REMARK UNBOUND:                 0.000
REMARK  Name = /home/vital/Documents/PhD_2021/Malaria_codes/scripts/../data/pdbqt_ligands/ligand_50_temp.pdb
REMARK                            x       y       z     vdW  Elec       q    Type
REMARK                         _______ _______ _______ _____ _____    ______ ____
ROOT
ATOM      1  C1  UNL     1     141.102 125.472 106.048  0.00  0.00    -0.062 C 
ATOM      2  C2  UNL     1     141.366 126.690 105.179  0.00  0.00    -0.021 C 
ATOM      3  C3  UNL     1     141.581 126.306 103.720  0.00  0.00    +0.093 C 
ATOM      4  O1  UNL     1     141.771 127.491 102.925  0.00  0.00    -0.461 OA
ATOM      5  C4  UNL     1     143.051 127.944 102.845  0.00  0.00    +0.343 C 
ATOM      6  O2  UNL     1     144.015 127.433 103.391  0.00  0.00    -0.245 OA
ATOM      7  C5  UNL     1     143.133 129.165 101.993  0.00  0.00    +0.104 A 
ATOM      8  C6  UNL     1     144.413 129.683 101.780  0.00  0.00    -0.002 A 
ATOM      9  C7  UNL     1     144.596 130.828 101.008  0.00  0.00    +0.126 A 
ATOM     10  O3  UNL     1     145.894 131.254 100.904  0.00  0.00    -0.506 OA
ATOM     11  C8  UNL     1     143.513 131.493 100.393  0.00  0.00    +0.027 A 
ATOM     12  C9  UNL     1     143.663 132.630  99.560  0.00  0.00    -0.050 A 
ATOM     13  C10 UNL     1     142.561 133.263  98.981  0.00  0.00    -0.061 A 
ATOM     14  C11 UNL     1     141.285 132.774  99.214  0.00  0.00    -0.061 A 
ATOM     15  C12 UNL     1     141.113 131.647 100.016  0.00  0.00    -0.050 A 
ATOM     16  C13 UNL     1     142.209 130.983 100.612  0.00  0.00    +0.028 A 
ATOM     17  C14 UNL     1     142.035 129.824 101.413  0.00  0.00    +0.139 A 
ATOM     18  O4  UNL     1     140.741 129.386 101.584  0.00  0.00    -0.505 OA
ATOM     19  H   UNL     1     146.578 130.779 101.332  0.00  0.00    +0.000 HD
ATOM     20  H   UNL     1     140.568 128.626 102.103  0.00  0.00    +0.000 HD
ENDROOT
TORSDOF 0
ENDMDL
MODEL 4
REMARK VINA RESULT:    -4.579     19.658     20.967
REMARK INTER + INTRA:          -4.579
REMARK INTER:                  -4.579
REMARK INTRA:                   0.000
REMARK UNBOUND:                 0.000
REMARK  Name = /home/vital/Documents/PhD_2021/Malaria_codes/scripts/../data/pdbqt_ligands/ligand_50_temp.pdb
REMARK                            x       y       z     vdW  Elec       q    Type
REMARK                         _______ _______ _______ _____ _____    ______ ____
ROOT
ATOM      1  C1  UNL     1     146.314 135.414  96.882  0.00  0.00    -0.062 C 
ATOM      2  C2  UNL     1     145.164 134.502  97.274  0.00  0.00    -0.021 C 
ATOM      3  C3  UNL     1     145.566 133.532  98.379  0.00  0.00    +0.093 C 
ATOM      4  O1  UNL     1     144.435 132.726  98.759  0.00  0.00    -0.461 OA
ATOM      5  C4  UNL     1     144.249 131.594  98.030  0.00  0.00    +0.343 C 
ATOM      6  O2  UNL     1     144.952 131.231  97.100  0.00  0.00    -0.245 OA
ATOM      7  C5  UNL     1     143.060 130.835  98.511  0.00  0.00    +0.104 A 
ATOM      8  C6  UNL     1     142.810 129.614  97.881  0.00  0.00    -0.002 A 
ATOM      9  C7  UNL     1     141.716 128.835  98.251  0.00  0.00    +0.126 A 
ATOM     10  O3  UNL     1     141.562 127.678  97.534  0.00  0.00    -0.506 OA
ATOM     11  C8  UNL     1     140.838 129.226  99.285  0.00  0.00    +0.027 A 
ATOM     12  C9  UNL     1     139.745 128.439  99.724  0.00  0.00    -0.050 A 
ATOM     13  C10 UNL     1     138.894 128.871 100.743  0.00  0.00    -0.061 A 
ATOM     14  C11 UNL     1     139.117 130.097 101.353  0.00  0.00    -0.061 A 
ATOM     15  C12 UNL     1     140.196 130.882 100.949  0.00  0.00    -0.050 A 
ATOM     16  C13 UNL     1     141.075 130.469  99.924  0.00  0.00    +0.028 A 
ATOM     17  C14 UNL     1     142.185 131.261  99.526  0.00  0.00    +0.139 A 
ATOM     18  O4  UNL     1     142.353 132.456 100.189  0.00  0.00    -0.505 OA
ATOM     19  H   UNL     1     142.171 127.462  96.856  0.00  0.00    +0.000 HD
ATOM     20  H   UNL     1     143.069 133.018  99.968  0.00  0.00    +0.000 HD
ENDROOT
TORSDOF 0
ENDMDL
MODEL 5
REMARK VINA RESULT:    -4.425     11.675     13.268
REMARK INTER + INTRA:          -4.425
REMARK INTER:                  -4.425
REMARK INTRA:                   0.000
REMARK UNBOUND:                 0.000
REMARK  Name = /home/vital/Documents/PhD_2021/Malaria_codes/scripts/../data/pdbqt_ligands/ligand_50_temp.pdb
REMARK                            x       y       z     vdW  Elec       q    Type
REMARK                         _______ _______ _______ _____ _____    ______ ____
ROOT
ATOM      1  C1  UNL     1     139.660 125.607  90.706  0.00  0.00    -0.062 C 
ATOM      2  C2  UNL     1     138.466 124.838  90.169  0.00  0.00    -0.021 C 
ATOM      3  C3  UNL     1     137.737 125.617  89.080  0.00  0.00    +0.093 C 
ATOM      4  O1  UNL     1     136.649 124.830  88.560  0.00  0.00    -0.461 OA
ATOM      5  C4  UNL     1     135.471 124.943  89.230  0.00  0.00    +0.343 C 
ATOM      6  O2  UNL     1     135.284 125.639  90.215  0.00  0.00    -0.245 OA
ATOM      7  C5  UNL     1     134.416 124.096  88.604  0.00  0.00    +0.104 A 
ATOM      8  C6  UNL     1     133.140 124.184  89.165  0.00  0.00    -0.002 A 
ATOM      9  C7  UNL     1     132.088 123.424  88.660  0.00  0.00    +0.126 A 
ATOM     10  O3  UNL     1     130.897 123.574  89.319  0.00  0.00    -0.506 OA
ATOM     11  C8  UNL     1     132.255 122.561  87.554  0.00  0.00    +0.027 A 
ATOM     12  C9  UNL     1     131.200 121.810  86.980  0.00  0.00    -0.050 A 
ATOM     13  C10 UNL     1     131.413 120.960  85.893  0.00  0.00    -0.061 A 
ATOM     14  C11 UNL     1     132.684 120.843  85.350  0.00  0.00    -0.061 A 
ATOM     15  C12 UNL     1     133.735 121.585  85.887  0.00  0.00    -0.050 A 
ATOM     16  C13 UNL     1     133.549 122.455  86.984  0.00  0.00    +0.028 A 
ATOM     17  C14 UNL     1     134.616 123.225  87.519  0.00  0.00    +0.139 A 
ATOM     18  O4  UNL     1     135.844 123.070  86.915  0.00  0.00    -0.505 OA
ATOM     19  H   UNL     1     130.836 124.159  90.049  0.00  0.00    +0.000 HD
ATOM     20  H   UNL     1     136.583 123.553  87.228  0.00  0.00    +0.000 HD
ENDROOT
TORSDOF 0
ENDMDL
MODEL 6
REMARK VINA RESULT:    -4.332     19.649     22.343
REMARK INTER + INTRA:          -4.332
REMARK INTER:                  -4.332
REMARK INTRA:                   0.000
REMARK UNBOUND:                 0.000
REMARK  Name = /home/vital/Documents/PhD_2021/Malaria_codes/scripts/../data/pdbqt_ligands/ligand_50_temp.pdb
REMARK                            x       y       z     vdW  Elec       q    Type
REMARK                         _______ _______ _______ _____ _____    ______ ____
ROOT
ATOM      1  C1  UNL     1     146.547 128.363 104.803  0.00  0.00    -0.062 C 
ATOM      2  C2  UNL     1     145.489 128.319 103.715  0.00  0.00    -0.021 C 
ATOM      3  C3  UNL     1     144.292 127.469 104.126  0.00  0.00    +0.093 C 
ATOM      4  O1  UNL     1     143.291 127.500 103.092  0.00  0.00    -0.461 OA
ATOM      5  C4  UNL     1     143.432 126.570 102.110  0.00  0.00    +0.343 C 
ATOM      6  O2  UNL     1     144.328 125.743 102.047  0.00  0.00    -0.245 OA
ATOM      7  C5  UNL     1     142.342 126.687 101.101  0.00  0.00    +0.104 A 
ATOM      8  C6  UNL     1     142.343 125.735 100.078  0.00  0.00    -0.002 A 
ATOM      9  C7  UNL     1     141.372 125.766  99.080  0.00  0.00    +0.126 A 
ATOM     10  O3  UNL     1     141.503 124.800  98.116  0.00  0.00    -0.506 OA
ATOM     11  C8  UNL     1     140.341 126.730  99.070  0.00  0.00    +0.027 A 
ATOM     12  C9  UNL     1     139.308 126.764  98.102  0.00  0.00    -0.050 A 
ATOM     13  C10 UNL     1     138.314 127.744  98.125  0.00  0.00    -0.061 A 
ATOM     14  C11 UNL     1     138.324 128.712  99.119  0.00  0.00    -0.061 A 
ATOM     15  C12 UNL     1     139.321 128.689 100.093  0.00  0.00    -0.050 A 
ATOM     16  C13 UNL     1     140.337 127.708 100.097  0.00  0.00    +0.028 A 
ATOM     17  C14 UNL     1     141.341 127.675 101.100  0.00  0.00    +0.139 A 
ATOM     18  O4  UNL     1     141.276 128.656 102.065  0.00  0.00    -0.505 OA
ATOM     19  H   UNL     1     142.205 124.182  98.166  0.00  0.00    +0.000 HD
ATOM     20  H   UNL     1     141.913 128.682 102.751  0.00  0.00    +0.000 HD
ENDROOT
TORSDOF 0
ENDMDL
MODEL 7
REMARK VINA RESULT:    -4.216     19.134     20.894
REMARK INTER + INTRA:          -4.216
REMARK INTER:                  -4.216
REMARK INTRA:                   0.000
REMARK UNBOUND:                 0.000
REMARK  Name = /home/vital/Documents/PhD_2021/Malaria_codes/scripts/../data/pdbqt_ligands/ligand_50_temp.pdb
REMARK                            x       y       z     vdW  Elec       q    Type
REMARK                         _______ _______ _______ _____ _____    ______ ____
ROOT
ATOM      1  C1  UNL     1     147.322 133.521  98.992  0.00  0.00    -0.062 C 
ATOM      2  C2  UNL     1     146.215 132.483  99.066  0.00  0.00    -0.021 C 
ATOM      3  C3  UNL     1     144.970 132.932  98.310  0.00  0.00    +0.093 C 
ATOM      4  O1  UNL     1     143.969 131.899  98.358  0.00  0.00    -0.461 OA
ATOM      5  C4  UNL     1     143.147 131.928  99.441  0.00  0.00    +0.343 C 
ATOM      6  O2  UNL     1     143.205 132.742 100.348  0.00  0.00    -0.245 OA
ATOM      7  C5  UNL     1     142.148 130.823  99.384  0.00  0.00    +0.104 A 
ATOM      8  C6  UNL     1     141.202 130.793 100.412  0.00  0.00    -0.002 A 
ATOM      9  C7  UNL     1     140.233 129.794 100.455  0.00  0.00    +0.126 A 
ATOM     10  O3  UNL     1     139.386 129.856 101.531  0.00  0.00    -0.506 OA
ATOM     11  C8  UNL     1     140.146 128.794  99.461  0.00  0.00    +0.027 A 
ATOM     12  C9  UNL     1     139.146 127.792  99.443  0.00  0.00    -0.050 A 
ATOM     13  C10 UNL     1     139.106 126.815  98.446  0.00  0.00    -0.061 A 
ATOM     14  C11 UNL     1     140.060 126.819  97.439  0.00  0.00    -0.061 A 
ATOM     15  C12 UNL     1     141.045 127.806  97.427  0.00  0.00    -0.050 A 
ATOM     16  C13 UNL     1     141.108 128.808  98.420  0.00  0.00    +0.028 A 
ATOM     17  C14 UNL     1     142.101 129.824  98.396  0.00  0.00    +0.139 A 
ATOM     18  O4  UNL     1     143.002 129.774  97.357  0.00  0.00    -0.505 OA
ATOM     19  H   UNL     1     139.484 130.538 102.165  0.00  0.00    +0.000 HD
ATOM     20  H   UNL     1     143.679 130.419  97.291  0.00  0.00    +0.000 HD
ENDROOT
TORSDOF 0
ENDMDL
MODEL 8
REMARK VINA RESULT:    -4.127     19.684     21.810
REMARK INTER + INTRA:          -4.127
REMARK INTER:                  -4.127
REMARK INTRA:                   0.000
REMARK UNBOUND:                 0.000
REMARK  Name = /home/vital/Documents/PhD_2021/Malaria_codes/scripts/../data/pdbqt_ligands/ligand_50_temp.pdb
REMARK                            x       y       z     vdW  Elec       q    Type
REMARK                         _______ _______ _______ _____ _____    ______ ____
ROOT
ATOM      1  C1  UNL     1     147.027 134.894  95.923  0.00  0.00    -0.062 C 
ATOM      2  C2  UNL     1     146.072 133.922  96.595  0.00  0.00    -0.021 C 
ATOM      3  C3  UNL     1     145.277 134.592  97.709  0.00  0.00    +0.093 C 
ATOM      4  O1  UNL     1     144.348 133.652  98.280  0.00  0.00    -0.461 OA
ATOM      5  C4  UNL     1     144.837 132.882  99.288  0.00  0.00    +0.343 C 
ATOM      6  O2  UNL     1     145.977 132.928  99.721  0.00  0.00    -0.245 OA
ATOM      7  C5  UNL     1     143.792 131.955  99.809  0.00  0.00    +0.104 A 
ATOM      8  C6  UNL     1     144.159 131.160 100.897  0.00  0.00    -0.002 A 
ATOM      9  C7  UNL     1     143.258 130.253 101.450  0.00  0.00    +0.126 A 
ATOM     10  O3  UNL     1     143.751 129.509 102.489  0.00  0.00    -0.506 OA
ATOM     11  C8  UNL     1     141.941 130.117 100.959  0.00  0.00    +0.027 A 
ATOM     12  C9  UNL     1     140.980 129.243 101.525  0.00  0.00    -0.050 A 
ATOM     13  C10 UNL     1     139.691 129.133 101.000  0.00  0.00    -0.061 A 
ATOM     14  C11 UNL     1     139.328 129.896  99.899  0.00  0.00    -0.061 A 
ATOM     15  C12 UNL     1     140.252 130.775  99.335  0.00  0.00    -0.050 A 
ATOM     16  C13 UNL     1     141.561 130.911  99.848  0.00  0.00    +0.028 A 
ATOM     17  C14 UNL     1     142.495 131.821  99.284  0.00  0.00    +0.139 A 
ATOM     18  O4  UNL     1     142.057 132.558  98.207  0.00  0.00    -0.505 OA
ATOM     19  H   UNL     1     144.632 129.635 102.779  0.00  0.00    +0.000 HD
ATOM     20  H   UNL     1     142.631 133.173  97.795  0.00  0.00    +0.000 HD
ENDROOT
TORSDOF 0
ENDMDL
MODEL 9
REMARK VINA RESULT:    -4.120     18.999     20.218
REMARK INTER + INTRA:          -4.120
REMARK INTER:                  -4.120
REMARK INTRA:                   0.000
REMARK UNBOUND:                 0.000
REMARK  Name = /home/vital/Documents/PhD_2021/Malaria_codes/scripts/../data/pdbqt_ligands/ligand_50_temp.pdb
REMARK                            x       y       z     vdW  Elec       q    Type
REMARK                         _______ _______ _______ _____ _____    ______ ____
ROOT
ATOM      1  C1  UNL     1     146.286 126.933  94.316  0.00  0.00    -0.062 C 
ATOM      2  C2  UNL     1     145.294 127.234  95.426  0.00  0.00    -0.021 C 
ATOM      3  C3  UNL     1     144.345 128.363  95.043  0.00  0.00    +0.093 C 
ATOM      4  O1  UNL     1     143.388 128.577  96.098  0.00  0.00    -0.461 OA
ATOM      5  C4  UNL     1     143.779 129.432  97.080  0.00  0.00    +0.343 C 
ATOM      6  O2  UNL     1     144.856 130.006  97.128  0.00  0.00    -0.245 OA
ATOM      7  C5  UNL     1     142.714 129.586  98.111  0.00  0.00    +0.104 A 
ATOM      8  C6  UNL     1     142.975 130.498  99.137  0.00  0.00    -0.002 A 
ATOM      9  C7  UNL     1     142.048 130.705 100.155  0.00  0.00    +0.126 A 
ATOM     10  O3  UNL     1     142.438 131.598 101.119  0.00  0.00    -0.506 OA
ATOM     11  C8  UNL     1     140.806 130.034 100.182  0.00  0.00    +0.027 A 
ATOM     12  C9  UNL     1     139.816 130.254 101.171  0.00  0.00    -0.050 A 
ATOM     13  C10 UNL     1     138.606 129.558 101.165  0.00  0.00    -0.061 A 
ATOM     14  C11 UNL     1     138.352 128.629 100.167  0.00  0.00    -0.061 A 
ATOM     15  C12 UNL     1     139.304 128.406  99.173  0.00  0.00    -0.050 A 
ATOM     16  C13 UNL     1     140.535 129.098  99.152  0.00  0.00    +0.028 A 
ATOM     17  C14 UNL     1     141.496 128.885  98.128  0.00  0.00    +0.139 A 
ATOM     18  O4  UNL     1     141.165 127.961  97.162  0.00  0.00    -0.505 OA
ATOM     19  H   UNL     1     143.272 132.018 101.058  0.00  0.00    +0.000 HD
ATOM     20  H   UNL     1     141.762 127.780  96.463  0.00  0.00    +0.000 HD
ENDROOT
TORSDOF 0
ENDMDL
