MODEL 1
REMARK VINA RESULT:    -4.745      0.000      0.000
REMARK INTER + INTRA:          -4.745
REMARK INTER:                  -4.745
REMARK INTRA:                   0.000
REMARK UNBOUND:                 0.000
REMARK  Name = /home/vital/Documents/PhD_2021/Malaria_codes/scripts/../data/pdbqt_ligands/ligand_265_temp.pdb
REMARK                            x       y       z     vdW  Elec       q    Type
REMARK                         _______ _______ _______ _____ _____    ______ ____
ROOT
ATOM      1  C1  UNL     1     131.254 120.642  85.130  0.00  0.00    -0.022 C 
ATOM      2  C2  UNL     1     131.509 121.645  86.228  0.00  0.00    +0.045 A 
ATOM      3  C3  UNL     1     132.587 122.653  85.994  0.00  0.00    -0.000 A 
ATOM      4  C4  UNL     1     132.851 123.524  86.987  0.00  0.00    +0.130 A 
ATOM      5  N1  UNL     1     133.827 124.511  86.857  0.00  0.00    -0.299 N 
ATOM      6  C5  UNL     1     134.900 124.774  87.745  0.00  0.00    +0.033 A 
ATOM      7  C6  UNL     1     135.195 123.996  88.867  0.00  0.00    -0.040 A 
ATOM      8  C7  UNL     1     136.256 124.329  89.717  0.00  0.00    -0.056 A 
ATOM      9  C8  UNL     1     137.050 125.459  89.474  0.00  0.00    -0.036 A 
ATOM     10  C9  UNL     1     138.175 125.783  90.415  0.00  0.00    -0.039 C 
ATOM     11  C10 UNL     1     136.746 126.250  88.359  0.00  0.00    +0.023 A 
ATOM     12 BR1  UNL     1     137.743 127.811  87.936  0.00  0.00    -0.050 Br
ATOM     13  C11 UNL     1     135.684 125.912  87.510  0.00  0.00    -0.026 A 
ATOM     14  N2  UNL     1     132.035 123.460  88.147  0.00  0.00    -0.182 N 
ATOM     15  N3  UNL     1     132.018 124.253  89.256  0.00  0.00    -0.151 NA
ATOM     16  C12 UNL     1     131.041 123.711  89.978  0.00  0.00    +0.141 A 
ATOM     17  N4  UNL     1     130.418 122.639  89.429  0.00  0.00    -0.197 NA
ATOM     18  C13 UNL     1     131.028 122.486  88.275  0.00  0.00    +0.255 A 
ATOM     19  N5  UNL     1     130.783 121.564  87.301  0.00  0.00    -0.216 NA
ATOM     20  H   UNL     1     133.764 125.089  86.062  0.00  0.00    +0.000 HD
ENDROOT
TORSDOF 0
ENDMDL
MODEL 2
REMARK VINA RESULT:    -4.613     14.451     16.847
REMARK INTER + INTRA:          -4.613
REMARK INTER:                  -4.613
REMARK INTRA:                   0.000
REMARK UNBOUND:                 0.000
REMARK  Name = /home/vital/Documents/PhD_2021/Malaria_codes/scripts/../data/pdbqt_ligands/ligand_265_temp.pdb
REMARK                            x       y       z     vdW  Elec       q    Type
REMARK                         _______ _______ _______ _____ _____    ______ ____
ROOT
ATOM      1  C1  UNL     1     143.794 131.241  98.452  0.00  0.00    -0.022 C 
ATOM      2  C2  UNL     1     142.668 130.525  99.156  0.00  0.00    +0.045 A 
ATOM      3  C3  UNL     1     142.947 129.995 100.525  0.00  0.00    -0.000 A 
ATOM      4  C4  UNL     1     141.960 129.316 101.141  0.00  0.00    +0.130 A 
ATOM      5  N1  UNL     1     142.119 128.798 102.426  0.00  0.00    -0.299 N 
ATOM      6  C5  UNL     1     141.886 127.464 102.844  0.00  0.00    +0.033 A 
ATOM      7  C6  UNL     1     141.540 126.422 101.979  0.00  0.00    -0.040 A 
ATOM      8  C7  UNL     1     141.298 125.131 102.465  0.00  0.00    -0.056 A 
ATOM      9  C8  UNL     1     141.386 124.846 103.834  0.00  0.00    -0.036 A 
ATOM     10  C9  UNL     1     141.113 123.448 104.312  0.00  0.00    -0.039 C 
ATOM     11  C10 UNL     1     141.717 125.891 104.706  0.00  0.00    +0.023 A 
ATOM     12 BR1  UNL     1     141.853 125.628 106.582  0.00  0.00    -0.050 Br
ATOM     13  C11 UNL     1     141.959 127.181 104.215  0.00  0.00    -0.026 A 
ATOM     14  N2  UNL     1     140.712 129.221 100.471  0.00  0.00    -0.182 N 
ATOM     15  N3  UNL     1     139.532 128.675 100.880  0.00  0.00    -0.151 NA
ATOM     16  C12 UNL     1     138.738 128.899  99.837  0.00  0.00    +0.141 A 
ATOM     17  N4  UNL     1     139.300 129.550  98.789  0.00  0.00    -0.197 NA
ATOM     18  C13 UNL     1     140.534 129.767  99.187  0.00  0.00    +0.255 A 
ATOM     19  N5  UNL     1     141.538 130.412  98.527  0.00  0.00    -0.216 NA
ATOM     20  H   UNL     1     142.426 129.427 103.118  0.00  0.00    +0.000 HD
ENDROOT
TORSDOF 0
ENDMDL
MODEL 3
REMARK VINA RESULT:    -4.517     14.466     16.909
REMARK INTER + INTRA:          -4.517
REMARK INTER:                  -4.517
REMARK INTRA:                   0.000
REMARK UNBOUND:                 0.000
REMARK  Name = /home/vital/Documents/PhD_2021/Malaria_codes/scripts/../data/pdbqt_ligands/ligand_265_temp.pdb
REMARK                            x       y       z     vdW  Elec       q    Type
REMARK                         _______ _______ _______ _____ _____    ______ ____
ROOT
ATOM      1  C1  UNL     1     143.449 132.571  99.014  0.00  0.00    -0.022 C 
ATOM      2  C2  UNL     1     142.472 131.532  99.509  0.00  0.00    +0.045 A 
ATOM      3  C3  UNL     1     142.822 130.813 100.771  0.00  0.00    -0.000 A 
ATOM      4  C4  UNL     1     141.976 129.854 101.195  0.00  0.00    +0.130 A 
ATOM      5  N1  UNL     1     142.208 129.139 102.370  0.00  0.00    -0.299 N 
ATOM      6  C5  UNL     1     142.234 127.730 102.521  0.00  0.00    +0.033 A 
ATOM      7  C6  UNL     1     142.118 126.827 101.461  0.00  0.00    -0.040 A 
ATOM      8  C7  UNL     1     142.125 125.445 101.687  0.00  0.00    -0.056 A 
ATOM      9  C8  UNL     1     142.240 124.925 102.983  0.00  0.00    -0.036 A 
ATOM     10  C9  UNL     1     142.238 123.436 103.180  0.00  0.00    -0.039 C 
ATOM     11  C10 UNL     1     142.340 125.828 104.049  0.00  0.00    +0.023 A 
ATOM     12 BR1  UNL     1     142.488 125.240 105.850  0.00  0.00    -0.050 Br
ATOM     13  C11 UNL     1     142.334 127.210 103.819  0.00  0.00    -0.026 A 
ATOM     14  N2  UNL     1     140.786 129.654 100.448  0.00  0.00    -0.182 N 
ATOM     15  N3  UNL     1     139.728 128.826 100.681  0.00  0.00    -0.151 NA
ATOM     16  C12 UNL     1     138.926 129.091  99.654  0.00  0.00    +0.141 A 
ATOM     17  N4  UNL     1     139.370 130.025  98.777  0.00  0.00    -0.197 NA
ATOM     18  C13 UNL     1     140.529 130.391  99.278  0.00  0.00    +0.255 A 
ATOM     19  N5  UNL     1     141.399 131.330  98.806  0.00  0.00    -0.216 NA
ATOM     20  H   UNL     1     142.371 129.671 103.182  0.00  0.00    +0.000 HD
ENDROOT
TORSDOF 0
ENDMDL
MODEL 4
REMARK VINA RESULT:    -4.455     13.921     16.396
REMARK INTER + INTRA:          -4.455
REMARK INTER:                  -4.455
REMARK INTRA:                   0.000
REMARK UNBOUND:                 0.000
REMARK  Name = /home/vital/Documents/PhD_2021/Malaria_codes/scripts/../data/pdbqt_ligands/ligand_265_temp.pdb
REMARK                            x       y       z     vdW  Elec       q    Type
REMARK                         _______ _______ _______ _____ _____    ______ ____
ROOT
ATOM      1  C1  UNL     1     138.313 128.582  98.988  0.00  0.00    -0.022 C 
ATOM      2  C2  UNL     1     139.586 129.085  99.624  0.00  0.00    +0.045 A 
ATOM      3  C3  UNL     1     140.090 130.419  99.179  0.00  0.00    -0.000 A 
ATOM      4  C4  UNL     1     141.249 130.855  99.710  0.00  0.00    +0.130 A 
ATOM      5  N1  UNL     1     141.791 132.094  99.370  0.00  0.00    -0.299 N 
ATOM      6  C5  UNL     1     143.107 132.353  98.911  0.00  0.00    +0.033 A 
ATOM      7  C6  UNL     1     144.050 131.360  98.638  0.00  0.00    -0.040 A 
ATOM      8  C7  UNL     1     145.342 131.689  98.211  0.00  0.00    -0.056 A 
ATOM      9  C8  UNL     1     145.733 133.026  98.054  0.00  0.00    -0.036 A 
ATOM     10  C9  UNL     1     147.131 133.335  97.600  0.00  0.00    -0.039 C 
ATOM     11  C10 UNL     1     144.795 134.025  98.343  0.00  0.00    +0.023 A 
ATOM     12 BR1  UNL     1     145.213 135.871  98.180  0.00  0.00    -0.050 Br
ATOM     13  C11 UNL     1     143.502 133.691  98.769  0.00  0.00    -0.026 A 
ATOM     14  N2  UNL     1     141.860 130.044 100.703  0.00  0.00    -0.182 N 
ATOM     15  N3  UNL     1     142.973 130.266 101.458  0.00  0.00    -0.151 NA
ATOM     16  C12 UNL     1     143.033 129.168 102.206  0.00  0.00    +0.141 A 
ATOM     17  N4  UNL     1     142.050 128.255 102.005  0.00  0.00    -0.197 NA
ATOM     18  C13 UNL     1     141.304 128.807 101.073  0.00  0.00    +0.255 A 
ATOM     19  N5  UNL     1     140.159 128.327 100.508  0.00  0.00    -0.216 NA
ATOM     20  H   UNL     1     141.196 132.873  99.459  0.00  0.00    +0.000 HD
ENDROOT
TORSDOF 0
ENDMDL
MODEL 5
REMARK VINA RESULT:    -4.344     13.766     16.869
REMARK INTER + INTRA:          -4.344
REMARK INTER:                  -4.344
REMARK INTRA:                   0.000
REMARK UNBOUND:                 0.000
REMARK  Name = /home/vital/Documents/PhD_2021/Malaria_codes/scripts/../data/pdbqt_ligands/ligand_265_temp.pdb
REMARK                            x       y       z     vdW  Elec       q    Type
REMARK                         _______ _______ _______ _____ _____    ______ ____
ROOT
ATOM      1  C1  UNL     1     138.306 128.600  98.550  0.00  0.00    -0.022 C 
ATOM      2  C2  UNL     1     139.637 129.133  99.019  0.00  0.00    +0.045 A 
ATOM      3  C3  UNL     1     140.692 128.130  99.358  0.00  0.00    -0.000 A 
ATOM      4  C4  UNL     1     141.869 128.597  99.820  0.00  0.00    +0.130 A 
ATOM      5  N1  UNL     1     142.920 127.741 100.147  0.00  0.00    -0.299 N 
ATOM      6  C5  UNL     1     143.641 127.703 101.366  0.00  0.00    +0.033 A 
ATOM      7  C6  UNL     1     143.332 128.482 102.483  0.00  0.00    -0.040 A 
ATOM      8  C7  UNL     1     144.106 128.413 103.648  0.00  0.00    -0.056 A 
ATOM      9  C8  UNL     1     145.220 127.566 103.727  0.00  0.00    -0.036 A 
ATOM     10  C9  UNL     1     146.025 127.526 104.994  0.00  0.00    -0.039 C 
ATOM     11  C10 UNL     1     145.542 126.795 102.603  0.00  0.00    +0.023 A 
ATOM     12 BR1  UNL     1     147.036 125.621 102.586  0.00  0.00    -0.050 Br
ATOM     13  C11 UNL     1     144.765 126.867 101.439  0.00  0.00    -0.026 A 
ATOM     14  N2  UNL     1     142.036 130.005  99.877  0.00  0.00    -0.182 N 
ATOM     15  N3  UNL     1     143.127 130.749 100.218  0.00  0.00    -0.151 NA
ATOM     16  C12 UNL     1     142.681 131.993 100.071  0.00  0.00    +0.141 A 
ATOM     17  N4  UNL     1     141.396 132.121  99.657  0.00  0.00    -0.197 NA
ATOM     18  C13 UNL     1     140.992 130.877  99.520  0.00  0.00    +0.255 A 
ATOM     19  N5  UNL     1     139.777 130.420  99.101  0.00  0.00    -0.216 NA
ATOM     20  H   UNL     1     143.189 127.093  99.457  0.00  0.00    +0.000 HD
ENDROOT
TORSDOF 0
ENDMDL
MODEL 6
REMARK VINA RESULT:    -4.210     14.131     16.072
REMARK INTER + INTRA:          -4.210
REMARK INTER:                  -4.210
REMARK INTRA:                   0.000
REMARK UNBOUND:                 0.000
REMARK  Name = /home/vital/Documents/PhD_2021/Malaria_codes/scripts/../data/pdbqt_ligands/ligand_265_temp.pdb
REMARK                            x       y       z     vdW  Elec       q    Type
REMARK                         _______ _______ _______ _____ _____    ______ ____
ROOT
ATOM      1  C1  UNL     1     141.805 126.308 103.574  0.00  0.00    -0.022 C 
ATOM      2  C2  UNL     1     141.437 127.160 102.384  0.00  0.00    +0.045 A 
ATOM      3  C3  UNL     1     142.560 127.763 101.604  0.00  0.00    -0.000 A 
ATOM      4  C4  UNL     1     142.238 128.561 100.567  0.00  0.00    +0.130 A 
ATOM      5  N1  UNL     1     143.215 129.156  99.769  0.00  0.00    -0.299 N 
ATOM      6  C5  UNL     1     143.333 130.530  99.446  0.00  0.00    +0.033 A 
ATOM      7  C6  UNL     1     142.513 131.531  99.973  0.00  0.00    -0.040 A 
ATOM      8  C7  UNL     1     142.668 132.868  99.588  0.00  0.00    -0.056 A 
ATOM      9  C8  UNL     1     143.646 133.244  98.657  0.00  0.00    -0.036 A 
ATOM     10  C9  UNL     1     143.775 134.689  98.269  0.00  0.00    -0.039 C 
ATOM     11  C10 UNL     1     144.459 132.241  98.114  0.00  0.00    +0.023 A 
ATOM     12 BR1  UNL     1     145.809 132.627  96.834  0.00  0.00    -0.050 Br
ATOM     13  C11 UNL     1     144.300 130.904  98.503  0.00  0.00    -0.026 A 
ATOM     14  N2  UNL     1     140.861 128.705 100.255  0.00  0.00    -0.182 N 
ATOM     15  N3  UNL     1     140.255 129.371  99.231  0.00  0.00    -0.151 NA
ATOM     16  C12 UNL     1     138.967 129.136  99.460  0.00  0.00    +0.141 A 
ATOM     17  N4  UNL     1     138.685 128.369 100.543  0.00  0.00    -0.197 NA
ATOM     18  C13 UNL     1     139.870 128.085 101.036  0.00  0.00    +0.255 A 
ATOM     19  N5  UNL     1     140.176 127.316 102.120  0.00  0.00    -0.216 NA
ATOM     20  H   UNL     1     143.897 128.556  99.389  0.00  0.00    +0.000 HD
ENDROOT
TORSDOF 0
ENDMDL
MODEL 7
REMARK VINA RESULT:    -4.209     12.988     15.829
REMARK INTER + INTRA:          -4.209
REMARK INTER:                  -4.209
REMARK INTRA:                   0.000
REMARK UNBOUND:                 0.000
REMARK  Name = /home/vital/Documents/PhD_2021/Malaria_codes/scripts/../data/pdbqt_ligands/ligand_265_temp.pdb
REMARK                            x       y       z     vdW  Elec       q    Type
REMARK                         _______ _______ _______ _____ _____    ______ ____
ROOT
ATOM      1  C1  UNL     1     144.148 131.448 100.961  0.00  0.00    -0.022 C 
ATOM      2  C2  UNL     1     142.922 130.569 101.001  0.00  0.00    +0.045 A 
ATOM      3  C3  UNL     1     143.142 129.091 101.012  0.00  0.00    -0.000 A 
ATOM      4  C4  UNL     1     142.051 128.300 101.004  0.00  0.00    +0.130 A 
ATOM      5  N1  UNL     1     142.153 126.910 101.030  0.00  0.00    -0.299 N 
ATOM      6  C5  UNL     1     141.548 125.992 100.136  0.00  0.00    +0.033 A 
ATOM      7  C6  UNL     1     140.813 126.367  99.009  0.00  0.00    -0.040 A 
ATOM      8  C7  UNL     1     140.219 125.405  98.182  0.00  0.00    -0.056 A 
ATOM      9  C8  UNL     1     140.337 124.037  98.464  0.00  0.00    -0.036 A 
ATOM     10  C9  UNL     1     139.679 123.040  97.553  0.00  0.00    -0.039 C 
ATOM     11  C10 UNL     1     141.060 123.659  99.602  0.00  0.00    +0.023 A 
ATOM     12 BR1  UNL     1     141.276 121.836 100.093  0.00  0.00    -0.050 Br
ATOM     13  C11 UNL     1     141.653 124.625 100.426  0.00  0.00    -0.026 A 
ATOM     14  N2  UNL     1     140.782 128.934 101.058  0.00  0.00    -0.182 N 
ATOM     15  N3  UNL     1     139.532 128.397 101.142  0.00  0.00    -0.151 NA
ATOM     16  C12 UNL     1     138.758 129.478 101.170  0.00  0.00    +0.141 A 
ATOM     17  N4  UNL     1     139.400 130.672 101.118  0.00  0.00    -0.197 NA
ATOM     18  C13 UNL     1     140.670 130.336 101.062  0.00  0.00    +0.255 A 
ATOM     19  N5  UNL     1     141.762 131.152 101.018  0.00  0.00    -0.216 NA
ATOM     20  H   UNL     1     142.706 126.524 101.748  0.00  0.00    +0.000 HD
ENDROOT
TORSDOF 0
ENDMDL
MODEL 8
REMARK VINA RESULT:    -3.879     28.113     29.130
REMARK INTER + INTRA:          -3.879
REMARK INTER:                  -3.879
REMARK INTRA:                   0.000
REMARK UNBOUND:                 0.000
REMARK  Name = /home/vital/Documents/PhD_2021/Malaria_codes/scripts/../data/pdbqt_ligands/ligand_265_temp.pdb
REMARK                            x       y       z     vdW  Elec       q    Type
REMARK                         _______ _______ _______ _____ _____    ______ ____
ROOT
ATOM      1  C1  UNL     1     146.523 136.732 109.041  0.00  0.00    -0.022 C 
ATOM      2  C2  UNL     1     146.110 138.181 109.126  0.00  0.00    +0.045 A 
ATOM      3  C3  UNL     1     144.684 138.465 109.471  0.00  0.00    -0.000 A 
ATOM      4  C4  UNL     1     144.297 139.755 109.505  0.00  0.00    +0.130 A 
ATOM      5  N1  UNL     1     142.992 140.121 109.833  0.00  0.00    -0.299 N 
ATOM      6  C5  UNL     1     142.129 140.962 109.088  0.00  0.00    +0.033 A 
ATOM      7  C6  UNL     1     142.440 141.489 107.832  0.00  0.00    -0.040 A 
ATOM      8  C7  UNL     1     141.549 142.336 107.163  0.00  0.00    -0.056 A 
ATOM      9  C8  UNL     1     140.320 142.690 107.737  0.00  0.00    -0.036 A 
ATOM     10  C9  UNL     1     139.395 143.606 106.987  0.00  0.00    -0.039 C 
ATOM     11  C10 UNL     1     140.011 142.177 109.003  0.00  0.00    +0.023 A 
ATOM     12 BR1  UNL     1     138.382 142.597 109.886  0.00  0.00    -0.050 Br
ATOM     13  C11 UNL     1     140.906 141.329 109.668  0.00  0.00    -0.026 A 
ATOM     14  N2  UNL     1     145.292 140.743 109.282  0.00  0.00    -0.182 N 
ATOM     15  N3  UNL     1     145.211 142.103 109.335  0.00  0.00    -0.151 NA
ATOM     16  C12 UNL     1     146.455 142.474 109.049  0.00  0.00    +0.141 A 
ATOM     17  N4  UNL     1     147.339 141.471 108.821  0.00  0.00    -0.197 NA
ATOM     18  C13 UNL     1     146.618 140.383 108.980  0.00  0.00    +0.255 A 
ATOM     19  N5  UNL     1     147.014 139.082 108.890  0.00  0.00    -0.216 NA
ATOM     20  H   UNL     1     142.632 139.756 110.673  0.00  0.00    +0.000 HD
ENDROOT
TORSDOF 0
ENDMDL
MODEL 9
REMARK VINA RESULT:    -3.854      1.711      3.376
REMARK INTER + INTRA:          -3.854
REMARK INTER:                  -3.854
REMARK INTRA:                   0.000
REMARK UNBOUND:                 0.000
REMARK  Name = /home/vital/Documents/PhD_2021/Malaria_codes/scripts/../data/pdbqt_ligands/ligand_265_temp.pdb
REMARK                            x       y       z     vdW  Elec       q    Type
REMARK                         _______ _______ _______ _____ _____    ______ ____
ROOT
ATOM      1  C1  UNL     1     130.289 122.586  90.133  0.00  0.00    -0.022 C 
ATOM      2  C2  UNL     1     131.402 122.626  89.114  0.00  0.00    +0.045 A 
ATOM      3  C3  UNL     1     132.562 123.520  89.406  0.00  0.00    -0.000 A 
ATOM      4  C4  UNL     1     133.538 123.595  88.480  0.00  0.00    +0.130 A 
ATOM      5  N1  UNL     1     134.669 124.389  88.670  0.00  0.00    -0.299 N 
ATOM      6  C5  UNL     1     135.182 125.369  87.784  0.00  0.00    +0.033 A 
ATOM      7  C6  UNL     1     134.555 125.756  86.597  0.00  0.00    -0.040 A 
ATOM      8  C7  UNL     1     135.133 126.713  85.754  0.00  0.00    -0.056 A 
ATOM      9  C8  UNL     1     136.362 127.307  86.071  0.00  0.00    -0.036 A 
ATOM     10  C9  UNL     1     136.949 128.326  85.135  0.00  0.00    -0.039 C 
ATOM     11  C10 UNL     1     137.002 126.909  87.252  0.00  0.00    +0.023 A 
ATOM     12 BR1  UNL     1     138.677 127.634  87.778  0.00  0.00    -0.050 Br
ATOM     13  C11 UNL     1     136.419 125.951  88.092  0.00  0.00    -0.026 A 
ATOM     14  N2  UNL     1     133.420 122.763  87.337  0.00  0.00    -0.182 N 
ATOM     15  N3  UNL     1     134.279 122.570  86.295  0.00  0.00    -0.151 NA
ATOM     16  C12 UNL     1     133.631 121.678  85.553  0.00  0.00    +0.141 A 
ATOM     17  N4  UNL     1     132.427 121.269  86.026  0.00  0.00    -0.197 NA
ATOM     18  C13 UNL     1     132.298 121.936  87.152  0.00  0.00    +0.255 A 
ATOM     19  N5  UNL     1     131.276 121.888  88.054  0.00  0.00    -0.216 NA
ATOM     20  H   UNL     1     135.165 124.254  89.509  0.00  0.00    +0.000 HD
ENDROOT
TORSDOF 0
ENDMDL
