MODEL 1
REMARK VINA RESULT:    -4.869      0.000      0.000
REMARK INTER + INTRA:          -4.869
REMARK INTER:                  -4.869
REMARK INTRA:                   0.000
REMARK UNBOUND:                 0.000
REMARK  Name = /home/vital/Documents/PhD_2021/Malaria_codes/scripts/../data/pdbqt_ligands/ligand_443_temp.pdb
REMARK                            x       y       z     vdW  Elec       q    Type
REMARK                         _______ _______ _______ _____ _____    ______ ____
ROOT
ATOM      1  N   UNL     1     146.433 137.462 106.558  0.00  0.00    -0.326 N 
ATOM      2  C   UNL     1     147.264 137.716 107.727  0.00  0.00    +0.019 C 
ATOM      3  C   UNL     1     146.476 138.146 108.926  0.00  0.00    -0.028 C 
ATOM      4  C   UNL     1     145.292 138.690 108.921  0.00  0.00    -0.116 C 
ATOM      5  C   UNL     1     144.106 139.230 108.905  0.00  0.00    +0.039 C 
ATOM      6  C   UNL     1     142.978 138.793 109.765  0.00  0.00    +0.076 C 
ATOM      7  N   UNL     1     141.836 139.694 109.784  0.00  0.00    -0.260 N 
ATOM      8  C   UNL     1     141.706 140.616 108.903  0.00  0.00    +0.156 C 
ATOM      9  C   UNL     1     140.505 141.513 108.947  0.00  0.00    +0.020 A 
ATOM     10  C   UNL     1     139.524 141.312 109.926  0.00  0.00    -0.050 A 
ATOM     11  C   UNL     1     138.398 142.139 109.979  0.00  0.00    -0.041 A 
ATOM     12  C   UNL     1     138.244 143.175 109.054  0.00  0.00    +0.059 A 
ATOM     13 CL   UNL     1     136.830 144.158 109.176  0.00  0.00    -0.082 Cl
ATOM     14  C   UNL     1     139.222 143.381 108.073  0.00  0.00    +0.060 A 
ATOM     15 CL   UNL     1     139.097 144.640 106.896  0.00  0.00    -0.082 Cl
ATOM     16  C   UNL     1     140.349 142.552 108.021  0.00  0.00    -0.031 A 
ATOM     17  N   UNL     1     142.595 140.862 107.894  0.00  0.00    -0.229 NA
ATOM     18  CA  UNL     1     143.739 140.250 107.901  0.00  0.00    +0.081 C 
ATOM     19  C   UNL     1     144.723 140.590 106.776  0.00  0.00    +0.087 C 
ATOM     20  O   UNL     1     144.402 141.840 106.175  0.00  0.00    -0.389 OA
ATOM     21  H   UNL     1     147.023 137.173 105.778  0.00  0.00    +0.000 HD
ATOM     22  H   UNL     1     145.930 138.313 106.307  0.00  0.00    +0.000 HD
ATOM     23  H   UNL     1     145.764 136.722 106.770  0.00  0.00    +0.000 HD
ATOM     24  H   UNL     1     141.152 139.593 110.485  0.00  0.00    +0.000 HD
ATOM     25  H   UNL     1     143.512 141.795 105.793  0.00  0.00    +0.000 HD
ENDROOT
TORSDOF 0
ENDMDL
MODEL 2
REMARK VINA RESULT:    -4.588     13.857     15.209
REMARK INTER + INTRA:          -4.588
REMARK INTER:                  -4.588
REMARK INTRA:                   0.000
REMARK UNBOUND:                 0.000
REMARK  Name = /home/vital/Documents/PhD_2021/Malaria_codes/scripts/../data/pdbqt_ligands/ligand_443_temp.pdb
REMARK                            x       y       z     vdW  Elec       q    Type
REMARK                         _______ _______ _______ _____ _____    ______ ____
ROOT
ATOM      1  N   UNL     1     143.289 130.078  98.567  0.00  0.00    -0.326 N 
ATOM      2  C   UNL     1     143.530 131.356  99.223  0.00  0.00    +0.019 C 
ATOM      3  C   UNL     1     143.798 131.222 100.691  0.00  0.00    -0.028 C 
ATOM      4  C   UNL     1     143.441 130.230 101.456  0.00  0.00    -0.116 C 
ATOM      5  C   UNL     1     143.083 129.232 102.212  0.00  0.00    +0.039 C 
ATOM      6  C   UNL     1     143.987 128.539 103.165  0.00  0.00    +0.076 C 
ATOM      7  N   UNL     1     143.325 127.640 104.097  0.00  0.00    -0.260 N 
ATOM      8  C   UNL     1     142.115 127.260 103.903  0.00  0.00    +0.156 C 
ATOM      9  C   UNL     1     141.474 126.318 104.877  0.00  0.00    +0.020 A 
ATOM     10  C   UNL     1     142.211 125.838 105.967  0.00  0.00    -0.050 A 
ATOM     11  C   UNL     1     141.628 124.959 106.884  0.00  0.00    -0.041 A 
ATOM     12  C   UNL     1     140.301 124.553 106.719  0.00  0.00    +0.059 A 
ATOM     13 CL   UNL     1     139.643 123.465 107.888  0.00  0.00    -0.082 Cl
ATOM     14  C   UNL     1     139.559 125.030 105.632  0.00  0.00    +0.060 A 
ATOM     15 CL   UNL     1     137.914 124.570 105.366  0.00  0.00    -0.082 Cl
ATOM     16  C   UNL     1     140.144 125.911 104.715  0.00  0.00    -0.031 A 
ATOM     17  N   UNL     1     141.333 127.651 102.852  0.00  0.00    -0.229 NA
ATOM     18  CA  UNL     1     141.756 128.599 102.074  0.00  0.00    +0.081 C 
ATOM     19  C   UNL     1     140.827 129.037 100.934  0.00  0.00    +0.087 C 
ATOM     20  O   UNL     1     139.482 128.648 101.192  0.00  0.00    -0.389 OA
ATOM     21  H   UNL     1     143.114 130.233  97.574  0.00  0.00    +0.000 HD
ATOM     22  H   UNL     1     142.477 129.628  98.989  0.00  0.00    +0.000 HD
ATOM     23  H   UNL     1     144.107 129.479  98.678  0.00  0.00    +0.000 HD
ATOM     24  H   UNL     1     143.813 127.318 104.888  0.00  0.00    +0.000 HD
ATOM     25  H   UNL     1     139.433 127.682 101.266  0.00  0.00    +0.000 HD
ENDROOT
TORSDOF 0
ENDMDL
MODEL 3
REMARK VINA RESULT:    -4.478     12.957     14.271
REMARK INTER + INTRA:          -4.478
REMARK INTER:                  -4.478
REMARK INTRA:                   0.000
REMARK UNBOUND:                 0.000
REMARK  Name = /home/vital/Documents/PhD_2021/Malaria_codes/scripts/../data/pdbqt_ligands/ligand_443_temp.pdb
REMARK                            x       y       z     vdW  Elec       q    Type
REMARK                         _______ _______ _______ _____ _____    ______ ____
ROOT
ATOM      1  N   UNL     1     142.930 124.854 107.285  0.00  0.00    -0.326 N 
ATOM      2  C   UNL     1     143.899 123.961 106.663  0.00  0.00    +0.019 C 
ATOM      3  C   UNL     1     144.731 124.635 105.616  0.00  0.00    -0.028 C 
ATOM      4  C   UNL     1     144.420 125.713 104.953  0.00  0.00    -0.116 C 
ATOM      5  C   UNL     1     144.101 126.794 104.299  0.00  0.00    +0.039 C 
ATOM      6  C   UNL     1     145.007 127.955 104.112  0.00  0.00    +0.076 C 
ATOM      7  N   UNL     1     144.558 128.932 103.132  0.00  0.00    -0.260 N 
ATOM      8  C   UNL     1     143.350 128.932 102.703  0.00  0.00    +0.156 C 
ATOM      9  C   UNL     1     142.922 129.967 101.707  0.00  0.00    +0.020 A 
ATOM     10  C   UNL     1     143.835 130.941 101.281  0.00  0.00    -0.050 A 
ATOM     11  C   UNL     1     143.450 131.913 100.354  0.00  0.00    -0.041 A 
ATOM     12  C   UNL     1     142.150 131.919  99.842  0.00  0.00    +0.059 A 
ATOM     13 CL   UNL     1     141.742 133.149  98.699  0.00  0.00    -0.082 Cl
ATOM     14  C   UNL     1     141.234 130.948 100.262  0.00  0.00    +0.060 A 
ATOM     15 CL   UNL     1     139.610 130.895  99.672  0.00  0.00    -0.082 Cl
ATOM     16  C   UNL     1     141.620 129.974 101.191  0.00  0.00    -0.031 A 
ATOM     17  N   UNL     1     142.386 128.041 103.087  0.00  0.00    -0.229 NA
ATOM     18  CA  UNL     1     142.728 127.015 103.802  0.00  0.00    +0.081 C 
ATOM     19  C   UNL     1     141.622 126.018 104.172  0.00  0.00    +0.087 C 
ATOM     20  O   UNL     1     140.506 126.145 103.298  0.00  0.00    -0.389 OA
ATOM     21  H   UNL     1     142.396 124.341 107.986  0.00  0.00    +0.000 HD
ATOM     22  H   UNL     1     142.296 125.216 106.572  0.00  0.00    +0.000 HD
ATOM     23  H   UNL     1     143.419 125.630 107.731  0.00  0.00    +0.000 HD
ATOM     24  H   UNL     1     145.193 129.605 102.794  0.00  0.00    +0.000 HD
ATOM     25  H   UNL     1     140.140 127.041 103.369  0.00  0.00    +0.000 HD
ENDROOT
TORSDOF 0
ENDMDL
MODEL 4
REMARK VINA RESULT:    -4.267     13.428     15.464
REMARK INTER + INTRA:          -4.267
REMARK INTER:                  -4.267
REMARK INTRA:                   0.000
REMARK UNBOUND:                 0.000
REMARK  Name = /home/vital/Documents/PhD_2021/Malaria_codes/scripts/../data/pdbqt_ligands/ligand_443_temp.pdb
REMARK                            x       y       z     vdW  Elec       q    Type
REMARK                         _______ _______ _______ _____ _____    ______ ____
ROOT
ATOM      1  N   UNL     1     143.175 133.613  97.773  0.00  0.00    -0.326 N 
ATOM      2  C   UNL     1     144.536 133.343  97.329  0.00  0.00    +0.019 C 
ATOM      3  C   UNL     1     144.877 131.885  97.334  0.00  0.00    -0.028 C 
ATOM      4  C   UNL     1     144.297 130.955  98.039  0.00  0.00    -0.116 C 
ATOM      5  C   UNL     1     143.707 130.032  98.745  0.00  0.00    +0.039 C 
ATOM      6  C   UNL     1     143.240 128.733  98.199  0.00  0.00    +0.076 C 
ATOM      7  N   UNL     1     142.858 127.749  99.199  0.00  0.00    -0.260 N 
ATOM      8  C   UNL     1     142.659 128.088 100.420  0.00  0.00    +0.156 C 
ATOM      9  C   UNL     1     142.249 127.046 101.416  0.00  0.00    +0.020 A 
ATOM     10  C   UNL     1     142.056 125.723 100.998  0.00  0.00    -0.050 A 
ATOM     11  C   UNL     1     141.673 124.740 101.916  0.00  0.00    -0.041 A 
ATOM     12  C   UNL     1     141.481 125.072 103.259  0.00  0.00    +0.059 A 
ATOM     13 CL   UNL     1     141.007 123.809 104.338  0.00  0.00    -0.082 Cl
ATOM     14  C   UNL     1     141.673 126.392 103.683  0.00  0.00    +0.060 A 
ATOM     15 CL   UNL     1     141.453 126.874 105.328  0.00  0.00    -0.082 Cl
ATOM     16  C   UNL     1     142.057 127.375 102.764  0.00  0.00    -0.031 A 
ATOM     17  N   UNL     1     142.793 129.358 100.908  0.00  0.00    -0.229 NA
ATOM     18  CA  UNL     1     143.316 130.271 100.149  0.00  0.00    +0.081 C 
ATOM     19  C   UNL     1     143.488 131.670 100.753  0.00  0.00    +0.087 C 
ATOM     20  O   UNL     1     143.462 131.620 102.176  0.00  0.00    -0.389 OA
ATOM     21  H   UNL     1     143.002 134.618  97.748  0.00  0.00    +0.000 HD
ATOM     22  H   UNL     1     143.054 133.271  98.726  0.00  0.00    +0.000 HD
ATOM     23  H   UNL     1     142.515 133.140  97.156  0.00  0.00    +0.000 HD
ATOM     24  H   UNL     1     142.751 126.807  98.934  0.00  0.00    +0.000 HD
ATOM     25  H   UNL     1     142.609 131.268 102.471  0.00  0.00    +0.000 HD
ENDROOT
TORSDOF 0
ENDMDL
MODEL 5
REMARK VINA RESULT:    -4.195     15.001     16.574
REMARK INTER + INTRA:          -4.195
REMARK INTER:                  -4.195
REMARK INTRA:                   0.000
REMARK UNBOUND:                 0.000
REMARK  Name = /home/vital/Documents/PhD_2021/Malaria_codes/scripts/../data/pdbqt_ligands/ligand_443_temp.pdb
REMARK                            x       y       z     vdW  Elec       q    Type
REMARK                         _______ _______ _______ _____ _____    ______ ____
ROOT
ATOM      1  N   UNL     1     140.177 122.975 108.212  0.00  0.00    -0.326 N 
ATOM      2  C   UNL     1     140.229 121.680 107.546  0.00  0.00    +0.019 C 
ATOM      3  C   UNL     1     140.956 121.722 106.237  0.00  0.00    -0.028 C 
ATOM      4  C   UNL     1     141.149 122.772 105.489  0.00  0.00    -0.116 C 
ATOM      5  C   UNL     1     141.339 123.828 104.752  0.00  0.00    +0.039 C 
ATOM      6  C   UNL     1     142.648 124.215 104.167  0.00  0.00    +0.076 C 
ATOM      7  N   UNL     1     142.586 125.267 103.165  0.00  0.00    -0.260 N 
ATOM      8  C   UNL     1     141.537 125.992 103.031  0.00  0.00    +0.156 C 
ATOM      9  C   UNL     1     141.520 127.078 101.998  0.00  0.00    +0.020 A 
ATOM     10  C   UNL     1     142.658 127.311 101.215  0.00  0.00    -0.050 A 
ATOM     11  C   UNL     1     142.658 128.321 100.249  0.00  0.00    -0.041 A 
ATOM     12  C   UNL     1     141.519 129.106 100.055  0.00  0.00    +0.059 A 
ATOM     13 CL   UNL     1     141.587 130.336  98.845  0.00  0.00    -0.082 Cl
ATOM     14  C   UNL     1     140.377 128.878 100.834  0.00  0.00    +0.060 A 
ATOM     15 CL   UNL     1     138.934 129.810 100.650  0.00  0.00    -0.082 Cl
ATOM     16  C   UNL     1     140.378 127.866 101.801  0.00  0.00    -0.031 A 
ATOM     17  N   UNL     1     140.395 125.857 103.771  0.00  0.00    -0.229 NA
ATOM     18  CA  UNL     1     140.271 124.830 104.553  0.00  0.00    +0.081 C 
ATOM     19  C   UNL     1     138.956 124.695 105.331  0.00  0.00    +0.087 C 
ATOM     20  O   UNL     1     137.924 125.468 104.728  0.00  0.00    -0.389 OA
ATOM     21  H   UNL     1     139.673 122.883 109.093  0.00  0.00    +0.000 HD
ATOM     22  H   UNL     1     139.697 123.646 107.613  0.00  0.00    +0.000 HD
ATOM     23  H   UNL     1     141.126 123.301 108.396  0.00  0.00    +0.000 HD
ATOM     24  H   UNL     1     143.362 125.425 102.580  0.00  0.00    +0.000 HD
ATOM     25  H   UNL     1     138.179 126.404 104.727  0.00  0.00    +0.000 HD
ENDROOT
TORSDOF 0
ENDMDL
MODEL 6
REMARK VINA RESULT:    -4.114     13.013     14.125
REMARK INTER + INTRA:          -4.114
REMARK INTER:                  -4.114
REMARK INTRA:                   0.000
REMARK UNBOUND:                 0.000
REMARK  Name = /home/vital/Documents/PhD_2021/Malaria_codes/scripts/../data/pdbqt_ligands/ligand_443_temp.pdb
REMARK                            x       y       z     vdW  Elec       q    Type
REMARK                         _______ _______ _______ _____ _____    ______ ____
ROOT
ATOM      1  N   UNL     1     144.596 123.809 105.124  0.00  0.00    -0.326 N 
ATOM      2  C   UNL     1     143.902 124.158 106.356  0.00  0.00    +0.019 C 
ATOM      3  C   UNL     1     142.810 125.163 106.150  0.00  0.00    -0.028 C 
ATOM      4  C   UNL     1     142.709 126.008 105.163  0.00  0.00    -0.116 C 
ATOM      5  C   UNL     1     142.616 126.845 104.169  0.00  0.00    +0.039 C 
ATOM      6  C   UNL     1     141.380 127.065 103.376  0.00  0.00    +0.076 C 
ATOM      7  N   UNL     1     141.413 128.225 102.499  0.00  0.00    -0.260 N 
ATOM      8  C   UNL     1     142.518 128.814 102.222  0.00  0.00    +0.156 C 
ATOM      9  C   UNL     1     142.510 129.996 101.299  0.00  0.00    +0.020 A 
ATOM     10  C   UNL     1     141.306 130.422 100.725  0.00  0.00    -0.050 A 
ATOM     11  C   UNL     1     141.283 131.522  99.863  0.00  0.00    -0.041 A 
ATOM     12  C   UNL     1     142.465 132.206  99.567  0.00  0.00    +0.059 A 
ATOM     13 CL   UNL     1     142.365 133.555  98.493  0.00  0.00    -0.082 Cl
ATOM     14  C   UNL     1     143.672 131.785 100.138  0.00  0.00    +0.060 A 
ATOM     15 CL   UNL     1     145.172 132.582  99.817  0.00  0.00    -0.082 Cl
ATOM     16  C   UNL     1     143.694 130.684 101.002  0.00  0.00    -0.031 A 
ATOM     17  N   UNL     1     143.741 128.448 102.709  0.00  0.00    -0.229 NA
ATOM     18  CA  UNL     1     143.801 127.554 103.648  0.00  0.00    +0.081 C 
ATOM     19  C   UNL     1     145.191 127.206 104.195  0.00  0.00    +0.087 C 
ATOM     20  O   UNL     1     146.129 128.236 103.903  0.00  0.00    -0.389 OA
ATOM     21  H   UNL     1     145.324 123.124 105.327  0.00  0.00    +0.000 HD
ATOM     22  H   UNL     1     145.019 124.647 104.723  0.00  0.00    +0.000 HD
ATOM     23  H   UNL     1     143.932 123.412 104.459  0.00  0.00    +0.000 HD
ATOM     24  H   UNL     1     140.573 128.563 102.112  0.00  0.00    +0.000 HD
ATOM     25  H   UNL     1     146.203 128.343 102.942  0.00  0.00    +0.000 HD
ENDROOT
TORSDOF 0
ENDMDL
MODEL 7
REMARK VINA RESULT:    -4.020     14.793     16.240
REMARK INTER + INTRA:          -4.020
REMARK INTER:                  -4.020
REMARK INTRA:                   0.000
REMARK UNBOUND:                 0.000
REMARK  Name = /home/vital/Documents/PhD_2021/Malaria_codes/scripts/../data/pdbqt_ligands/ligand_443_temp.pdb
REMARK                            x       y       z     vdW  Elec       q    Type
REMARK                         _______ _______ _______ _____ _____    ______ ____
ROOT
ATOM      1  N   UNL     1     144.816 128.023 100.488  0.00  0.00    -0.326 N 
ATOM      2  C   UNL     1     145.210 129.132 101.347  0.00  0.00    +0.019 C 
ATOM      3  C   UNL     1     145.039 128.834 102.806  0.00  0.00    -0.028 C 
ATOM      4  C   UNL     1     144.244 127.944 103.328  0.00  0.00    -0.116 C 
ATOM      5  C   UNL     1     143.448 127.048 103.839  0.00  0.00    +0.039 C 
ATOM      6  C   UNL     1     143.853 126.064 104.874  0.00  0.00    +0.076 C 
ATOM      7  N   UNL     1     142.756 125.341 105.497  0.00  0.00    -0.260 N 
ATOM      8  C   UNL     1     141.583 125.344 104.978  0.00  0.00    +0.156 C 
ATOM      9  C   UNL     1     140.483 124.571 105.642  0.00  0.00    +0.020 A 
ATOM     10  C   UNL     1     140.755 123.830 106.800  0.00  0.00    -0.050 A 
ATOM     11  C   UNL     1     139.740 123.104 107.429  0.00  0.00    -0.041 A 
ATOM     12  C   UNL     1     138.444 123.113 106.907  0.00  0.00    +0.059 A 
ATOM     13 CL   UNL     1     137.238 122.194 107.735  0.00  0.00    -0.082 Cl
ATOM     14  C   UNL     1     138.165 123.853 105.752  0.00  0.00    +0.060 A 
ATOM     15 CL   UNL     1     136.587 123.910 105.051  0.00  0.00    -0.082 Cl
ATOM     16  C   UNL     1     139.182 124.580 105.122  0.00  0.00    -0.031 A 
ATOM     17  N   UNL     1     141.237 126.010 103.837  0.00  0.00    -0.229 NA
ATOM     18  CA  UNL     1     142.084 126.840 103.312  0.00  0.00    +0.081 C 
ATOM     19  C   UNL     1     141.636 127.600 102.057  0.00  0.00    +0.087 C 
ATOM     20  O   UNL     1     140.217 127.604 101.941  0.00  0.00    -0.389 OA
ATOM     21  H   UNL     1     144.955 128.283  99.512  0.00  0.00    +0.000 HD
ATOM     22  H   UNL     1     143.833 127.803 100.646  0.00  0.00    +0.000 HD
ATOM     23  H   UNL     1     145.386 127.205 100.706  0.00  0.00    +0.000 HD
ATOM     24  H   UNL     1     142.916 124.842 106.331  0.00  0.00    +0.000 HD
ATOM     25  H   UNL     1     139.896 126.692 101.871  0.00  0.00    +0.000 HD
ENDROOT
TORSDOF 0
ENDMDL
MODEL 8
REMARK VINA RESULT:    -3.980     25.881     26.915
REMARK INTER + INTRA:          -3.980
REMARK INTER:                  -3.980
REMARK INTRA:                   0.000
REMARK UNBOUND:                 0.000
REMARK  Name = /home/vital/Documents/PhD_2021/Malaria_codes/scripts/../data/pdbqt_ligands/ligand_443_temp.pdb
REMARK                            x       y       z     vdW  Elec       q    Type
REMARK                         _______ _______ _______ _____ _____    ______ ____
ROOT
ATOM      1  N   UNL     1     131.169 122.753  87.211  0.00  0.00    -0.326 N 
ATOM      2  C   UNL     1     131.737 121.857  86.212  0.00  0.00    +0.019 C 
ATOM      3  C   UNL     1     133.232 121.778  86.276  0.00  0.00    -0.028 C 
ATOM      4  C   UNL     1     134.034 122.669  86.786  0.00  0.00    -0.116 C 
ATOM      5  C   UNL     1     134.828 123.564  87.302  0.00  0.00    +0.039 C 
ATOM      6  C   UNL     1     135.931 123.257  88.246  0.00  0.00    +0.076 C 
ATOM      7  N   UNL     1     136.855 124.354  88.487  0.00  0.00    -0.260 N 
ATOM      8  C   UNL     1     136.560 125.555  88.147  0.00  0.00    +0.156 C 
ATOM      9  C   UNL     1     137.533 126.660  88.429  0.00  0.00    +0.020 A 
ATOM     10  C   UNL     1     138.736 126.375  89.089  0.00  0.00    -0.050 A 
ATOM     11  C   UNL     1     139.653 127.395  89.359  0.00  0.00    -0.041 A 
ATOM     12  C   UNL     1     139.376 128.708  88.972  0.00  0.00    +0.059 A 
ATOM     13 CL   UNL     1     140.552 129.919  89.338  0.00  0.00    -0.082 Cl
ATOM     14  C   UNL     1     138.176 128.999  88.312  0.00  0.00    +0.060 A 
ATOM     15 CL   UNL     1     137.767 130.600  87.804  0.00  0.00    -0.082 Cl
ATOM     16  C   UNL     1     137.259 127.977  88.040  0.00  0.00    -0.031 A 
ATOM     17  N   UNL     1     135.399 125.928  87.530  0.00  0.00    -0.229 NA
ATOM     18  CA  UNL     1     134.595 125.008  87.095  0.00  0.00    +0.081 C 
ATOM     19  C   UNL     1     133.326 125.472  86.370  0.00  0.00    +0.087 C 
ATOM     20  O   UNL     1     133.464 126.809  85.901  0.00  0.00    -0.389 OA
ATOM     21  H   UNL     1     130.154 122.764  87.119  0.00  0.00    +0.000 HD
ATOM     22  H   UNL     1     131.535 123.694  87.069  0.00  0.00    +0.000 HD
ATOM     23  H   UNL     1     131.422 122.427  88.144  0.00  0.00    +0.000 HD
ATOM     24  H   UNL     1     137.722 124.171  88.918  0.00  0.00    +0.000 HD
ATOM     25  H   UNL     1     133.614 127.401  86.655  0.00  0.00    +0.000 HD
ENDROOT
TORSDOF 0
ENDMDL
