MODEL 1
REMARK VINA RESULT:    -5.394      0.000      0.000
REMARK INTER + INTRA:          -5.394
REMARK INTER:                  -5.394
REMARK INTRA:                   0.000
REMARK UNBOUND:                 0.000
REMARK  Name = /home/vital/Documents/PhD_2021/Malaria_codes/scripts/../data/pdbqt_ligands/ligand_309_temp.pdb
REMARK                            x       y       z     vdW  Elec       q    Type
REMARK                         _______ _______ _______ _____ _____    ______ ____
ROOT
ATOM      1  C   UNL     1     138.321 127.862  98.351  0.00  0.00    -0.034 C 
ATOM      2  C   UNL     1     139.613 128.553  98.657  0.00  0.00    -0.006 C 
ATOM      3  C   UNL     1     139.709 129.548  99.507  0.00  0.00    +0.010 C 
ATOM      4  N   UNL     1     140.066 130.411 100.222  0.00  0.00    -0.101 NA
ATOM      5  N   UNL     1     140.978 129.863 101.126  0.00  0.00    -0.104 N 
ATOM      6  C   UNL     1     142.241 130.197 101.072  0.00  0.00    +0.242 C 
ATOM      7  N   UNL     1     143.174 129.652 101.923  0.00  0.00    -0.282 N 
ATOM      8  C   UNL     1     143.119 128.533 102.764  0.00  0.00    +0.035 A 
ATOM      9  C   UNL     1     144.182 128.324 103.659  0.00  0.00    -0.039 A 
ATOM     10  C   UNL     1     144.188 127.244 104.548  0.00  0.00    -0.040 A 
ATOM     11  C   UNL     1     143.122 126.348 104.563  0.00  0.00    +0.059 A 
ATOM     12 CL   UNL     1     143.192 125.030 105.679  0.00  0.00    -0.082 Cl
ATOM     13  C   UNL     1     142.048 126.541 103.692  0.00  0.00    +0.061 A 
ATOM     14 CL   UNL     1     140.691 125.471 103.647  0.00  0.00    -0.082 Cl
ATOM     15  C   UNL     1     142.050 127.629 102.807  0.00  0.00    -0.021 A 
ATOM     16  N   UNL     1     142.796 131.146 100.251  0.00  0.00    -0.198 N 
ATOM     17  C   UNL     1     142.875 131.075  98.953  0.00  0.00    +0.122 C 
ATOM     18  N   UNL     1     143.527 132.091  98.284  0.00  0.00    -0.327 N 
ATOM     19  C   UNL     1     144.393 133.050  98.954  0.00  0.00    +0.034 C 
ATOM     20  C   UNL     1     144.812 134.136  97.960  0.00  0.00    +0.060 C 
ATOM     21  O   UNL     1     145.501 133.543  96.856  0.00  0.00    -0.393 OA
ATOM     22  C   UNL     1     142.238 130.046  98.071  0.00  0.00    -0.025 C 
ATOM     23  C   UNL     1     142.106 128.747  98.382  0.00  0.00    -0.076 C 
ATOM     24  C   UNL     1     140.856 128.017  97.939  0.00  0.00    -0.004 C 
ATOM     25  H   UNL     1     140.669 129.223 101.808  0.00  0.00    +0.000 HD
ATOM     26  H   UNL     1     144.032 130.134 101.945  0.00  0.00    +0.000 HD
ATOM     27  H   UNL     1     143.168 131.950 100.680  0.00  0.00    +0.000 HD
ATOM     28  H   UNL     1     143.401 132.170  97.311  0.00  0.00    +0.000 HD
ATOM     29  H   UNL     1     146.292 133.082  97.177  0.00  0.00    +0.000 HD
ENDROOT
TORSDOF 0
ENDMDL
MODEL 2
REMARK VINA RESULT:    -5.119      4.424      6.678
REMARK INTER + INTRA:          -5.119
REMARK INTER:                  -5.119
REMARK INTRA:                   0.000
REMARK UNBOUND:                 0.000
REMARK  Name = /home/vital/Documents/PhD_2021/Malaria_codes/scripts/../data/pdbqt_ligands/ligand_309_temp.pdb
REMARK                            x       y       z     vdW  Elec       q    Type
REMARK                         _______ _______ _______ _____ _____    ______ ____
ROOT
ATOM      1  C   UNL     1     138.677 127.606  97.141  0.00  0.00    -0.034 C 
ATOM      2  C   UNL     1     139.457 127.846  98.396  0.00  0.00    -0.006 C 
ATOM      3  C   UNL     1     140.619 127.287  98.635  0.00  0.00    +0.010 C 
ATOM      4  N   UNL     1     141.659 126.950  99.070  0.00  0.00    -0.101 NA
ATOM      5  N   UNL     1     142.446 128.094  99.220  0.00  0.00    -0.104 N 
ATOM      6  C   UNL     1     142.760 128.525 100.414  0.00  0.00    +0.242 C 
ATOM      7  N   UNL     1     143.503 129.667 100.602  0.00  0.00    -0.282 N 
ATOM      8  C   UNL     1     143.837 130.710  99.728  0.00  0.00    +0.035 A 
ATOM      9  C   UNL     1     144.771 131.666 100.163  0.00  0.00    -0.039 A 
ATOM     10  C   UNL     1     145.174 132.722  99.339  0.00  0.00    -0.040 A 
ATOM     11  C   UNL     1     144.652 132.841  98.053  0.00  0.00    +0.059 A 
ATOM     12 CL   UNL     1     145.185 134.171  97.087  0.00  0.00    -0.082 Cl
ATOM     13  C   UNL     1     143.731 131.897  97.594  0.00  0.00    +0.061 A 
ATOM     14 CL   UNL     1     143.035 131.979  96.014  0.00  0.00    -0.082 Cl
ATOM     15  C   UNL     1     143.337 130.839  98.426  0.00  0.00    -0.021 A 
ATOM     16  N   UNL     1     142.474 127.905 101.604  0.00  0.00    -0.198 N 
ATOM     17  C   UNL     1     141.284 127.729 102.103  0.00  0.00    +0.122 C 
ATOM     18  N   UNL     1     141.180 127.141 103.347  0.00  0.00    -0.327 N 
ATOM     19  C   UNL     1     142.311 127.005 104.253  0.00  0.00    +0.034 C 
ATOM     20  C   UNL     1     141.894 126.161 105.461  0.00  0.00    +0.060 C 
ATOM     21  O   UNL     1     140.798 126.786 106.135  0.00  0.00    -0.393 OA
ATOM     22  C   UNL     1     139.978 128.004 101.424  0.00  0.00    -0.025 C 
ATOM     23  C   UNL     1     139.749 129.034 100.594  0.00  0.00    -0.076 C 
ATOM     24  C   UNL     1     138.838 128.820  99.404  0.00  0.00    -0.004 C 
ATOM     25  H   UNL     1     142.767 128.577  98.425  0.00  0.00    +0.000 HD
ATOM     26  H   UNL     1     143.865 129.769 101.512  0.00  0.00    +0.000 HD
ATOM     27  H   UNL     1     143.235 127.563 102.127  0.00  0.00    +0.000 HD
ATOM     28  H   UNL     1     140.302 126.799 103.634  0.00  0.00    +0.000 HD
ATOM     29  H   UNL     1     141.066 127.668 106.439  0.00  0.00    +0.000 HD
ENDROOT
TORSDOF 0
ENDMDL
MODEL 3
REMARK VINA RESULT:    -5.007      4.625      7.707
REMARK INTER + INTRA:          -5.007
REMARK INTER:                  -5.007
REMARK INTRA:                   0.000
REMARK UNBOUND:                 0.000
REMARK  Name = /home/vital/Documents/PhD_2021/Malaria_codes/scripts/../data/pdbqt_ligands/ligand_309_temp.pdb
REMARK                            x       y       z     vdW  Elec       q    Type
REMARK                         _______ _______ _______ _____ _____    ______ ____
ROOT
ATOM      1  C   UNL     1     138.029 124.107 105.130  0.00  0.00    -0.034 C 
ATOM      2  C   UNL     1     139.438 124.608 105.082  0.00  0.00    -0.006 C 
ATOM      3  C   UNL     1     140.321 124.182 104.211  0.00  0.00    +0.010 C 
ATOM      4  N   UNL     1     141.269 124.000 103.538  0.00  0.00    -0.101 NA
ATOM      5  N   UNL     1     141.582 125.206 102.909  0.00  0.00    -0.104 N 
ATOM      6  C   UNL     1     142.672 125.852 103.229  0.00  0.00    +0.242 C 
ATOM      7  N   UNL     1     142.996 127.060 102.656  0.00  0.00    -0.282 N 
ATOM      8  C   UNL     1     142.232 127.964 101.905  0.00  0.00    +0.035 A 
ATOM      9  C   UNL     1     142.894 129.043 101.296  0.00  0.00    -0.039 A 
ATOM     10  C   UNL     1     142.206 129.973 100.509  0.00  0.00    -0.040 A 
ATOM     11  C   UNL     1     140.833 129.838 100.310  0.00  0.00    +0.059 A 
ATOM     12 CL   UNL     1     140.039 131.022  99.335  0.00  0.00    -0.082 Cl
ATOM     13  C   UNL     1     140.156 128.766 100.896  0.00  0.00    +0.061 A 
ATOM     14 CL   UNL     1     138.454 128.533 100.701  0.00  0.00    -0.082 Cl
ATOM     15  C   UNL     1     140.856 127.837 101.679  0.00  0.00    -0.021 A 
ATOM     16  N   UNL     1     143.651 125.421 104.088  0.00  0.00    -0.198 N 
ATOM     17  C   UNL     1     143.513 125.246 105.371  0.00  0.00    +0.122 C 
ATOM     18  N   UNL     1     144.622 124.868 106.100  0.00  0.00    -0.327 N 
ATOM     19  C   UNL     1     145.979 124.967 105.582  0.00  0.00    +0.034 C 
ATOM     20  C   UNL     1     146.948 124.309 106.568  0.00  0.00    +0.060 C 
ATOM     21  O   UNL     1     146.860 124.958 107.840  0.00  0.00    -0.393 OA
ATOM     22  C   UNL     1     142.237 125.308 106.152  0.00  0.00    -0.025 C 
ATOM     23  C   UNL     1     141.233 126.165 105.909  0.00  0.00    -0.076 C 
ATOM     24  C   UNL     1     139.808 125.690 106.102  0.00  0.00    -0.004 C 
ATOM     25  H   UNL     1     140.980 125.571 102.221  0.00  0.00    +0.000 HD
ATOM     26  H   UNL     1     143.929 127.339 102.798  0.00  0.00    +0.000 HD
ATOM     27  H   UNL     1     144.535 125.227 103.702  0.00  0.00    +0.000 HD
ATOM     28  H   UNL     1     144.490 124.516 107.010  0.00  0.00    +0.000 HD
ATOM     29  H   UNL     1     147.092 125.894 107.742  0.00  0.00    +0.000 HD
ENDROOT
TORSDOF 0
ENDMDL
MODEL 4
REMARK VINA RESULT:    -4.978      1.962      2.430
REMARK INTER + INTRA:          -4.978
REMARK INTER:                  -4.978
REMARK INTRA:                   0.000
REMARK UNBOUND:                 0.000
REMARK  Name = /home/vital/Documents/PhD_2021/Malaria_codes/scripts/../data/pdbqt_ligands/ligand_309_temp.pdb
REMARK                            x       y       z     vdW  Elec       q    Type
REMARK                         _______ _______ _______ _____ _____    ______ ____
ROOT
ATOM      1  C   UNL     1     140.342 124.835  97.024  0.00  0.00    -0.034 C 
ATOM      2  C   UNL     1     140.794 126.023  97.814  0.00  0.00    -0.006 C 
ATOM      3  C   UNL     1     139.972 126.788  98.492  0.00  0.00    +0.010 C 
ATOM      4  N   UNL     1     139.468 127.591  99.188  0.00  0.00    -0.101 NA
ATOM      5  N   UNL     1     140.005 127.441 100.468  0.00  0.00    -0.104 N 
ATOM      6  C   UNL     1     140.781 128.366 100.969  0.00  0.00    +0.242 C 
ATOM      7  N   UNL     1     141.357 128.238 102.211  0.00  0.00    -0.282 N 
ATOM      8  C   UNL     1     141.509 127.127 103.052  0.00  0.00    +0.035 A 
ATOM      9  C   UNL     1     141.988 127.343 104.355  0.00  0.00    -0.039 A 
ATOM     10  C   UNL     1     142.142 126.289 105.261  0.00  0.00    -0.040 A 
ATOM     11  C   UNL     1     141.813 124.989 104.882  0.00  0.00    +0.059 A 
ATOM     12 CL   UNL     1     142.033 123.730 106.044  0.00  0.00    -0.082 Cl
ATOM     13  C   UNL     1     141.324 124.751 103.596  0.00  0.00    +0.061 A 
ATOM     14 CL   UNL     1     140.900 123.167 103.048  0.00  0.00    -0.082 Cl
ATOM     15  C   UNL     1     141.169 125.815 102.696  0.00  0.00    -0.021 A 
ATOM     16  N   UNL     1     141.074 129.579 100.398  0.00  0.00    -0.198 N 
ATOM     17  C   UNL     1     141.756 129.758  99.302  0.00  0.00    +0.122 C 
ATOM     18  N   UNL     1     142.015 131.053  98.902  0.00  0.00    -0.327 N 
ATOM     19  C   UNL     1     141.854 132.200  99.783  0.00  0.00    +0.034 C 
ATOM     20  C   UNL     1     142.056 133.488  98.982  0.00  0.00    +0.060 C 
ATOM     21  O   UNL     1     143.362 133.498  98.399  0.00  0.00    -0.393 OA
ATOM     22  C   UNL     1     142.215 128.699  98.348  0.00  0.00    -0.025 C 
ATOM     23  C   UNL     1     142.641 127.478  98.708  0.00  0.00    -0.076 C 
ATOM     24  C   UNL     1     142.302 126.299  97.822  0.00  0.00    -0.004 C 
ATOM     25  H   UNL     1     139.798 126.636 100.996  0.00  0.00    +0.000 HD
ATOM     26  H   UNL     1     141.727 129.074 102.574  0.00  0.00    +0.000 HD
ATOM     27  H   UNL     1     140.741 130.384 100.855  0.00  0.00    +0.000 HD
ATOM     28  H   UNL     1     142.323 131.207  97.979  0.00  0.00    +0.000 HD
ATOM     29  H   UNL     1     144.030 133.452  99.100  0.00  0.00    +0.000 HD
ENDROOT
TORSDOF 0
ENDMDL
MODEL 5
REMARK VINA RESULT:    -4.577     13.293     15.795
REMARK INTER + INTRA:          -4.577
REMARK INTER:                  -4.577
REMARK INTRA:                   0.000
REMARK UNBOUND:                 0.000
REMARK  Name = /home/vital/Documents/PhD_2021/Malaria_codes/scripts/../data/pdbqt_ligands/ligand_309_temp.pdb
REMARK                            x       y       z     vdW  Elec       q    Type
REMARK                         _______ _______ _______ _____ _____    ______ ____
ROOT
ATOM      1  C   UNL     1     140.145 122.211  89.120  0.00  0.00    -0.034 C 
ATOM      2  C   UNL     1     139.349 123.455  88.877  0.00  0.00    -0.006 C 
ATOM      3  C   UNL     1     139.238 124.016  87.697  0.00  0.00    +0.010 C 
ATOM      4  N   UNL     1     138.958 124.682  86.769  0.00  0.00    -0.101 NA
ATOM      5  N   UNL     1     137.572 124.629  86.609  0.00  0.00    -0.104 N 
ATOM      6  C   UNL     1     136.842 125.689  86.836  0.00  0.00    +0.242 C 
ATOM      7  N   UNL     1     135.471 125.665  86.724  0.00  0.00    -0.282 N 
ATOM      8  C   UNL     1     134.566 124.598  86.645  0.00  0.00    +0.035 A 
ATOM      9  C   UNL     1     133.223 124.890  86.354  0.00  0.00    -0.039 A 
ATOM     10  C   UNL     1     132.265 123.878  86.233  0.00  0.00    -0.040 A 
ATOM     11  C   UNL     1     132.635 122.544  86.395  0.00  0.00    +0.059 A 
ATOM     12 CL   UNL     1     131.405 121.341  86.241  0.00  0.00    -0.082 Cl
ATOM     13  C   UNL     1     133.967 122.229  86.673  0.00  0.00    +0.061 A 
ATOM     14 CL   UNL     1     134.504 120.600  86.893  0.00  0.00    -0.082 Cl
ATOM     15  C   UNL     1     134.921 123.251  86.789  0.00  0.00    -0.021 A 
ATOM     16  N   UNL     1     137.304 126.946  87.136  0.00  0.00    -0.198 N 
ATOM     17  C   UNL     1     137.933 127.284  88.226  0.00  0.00    +0.122 C 
ATOM     18  N   UNL     1     138.271 128.611  88.397  0.00  0.00    -0.327 N 
ATOM     19  C   UNL     1     137.694 129.683  87.599  0.00  0.00    +0.034 C 
ATOM     20  C   UNL     1     138.407 130.998  87.923  0.00  0.00    +0.060 C 
ATOM     21  O   UNL     1     138.269 131.294  89.315  0.00  0.00    -0.393 OA
ATOM     22  C   UNL     1     138.434 126.363  89.294  0.00  0.00    -0.025 C 
ATOM     23  C   UNL     1     137.800 125.255  89.708  0.00  0.00    -0.076 C 
ATOM     24  C   UNL     1     138.625 124.045  90.093  0.00  0.00    -0.004 C 
ATOM     25  H   UNL     1     137.143 123.789  86.325  0.00  0.00    +0.000 HD
ATOM     26  H   UNL     1     135.052 126.555  86.694  0.00  0.00    +0.000 HD
ATOM     27  H   UNL     1     137.147 127.654  86.471  0.00  0.00    +0.000 HD
ATOM     28  H   UNL     1     138.932 128.842  89.089  0.00  0.00    +0.000 HD
ATOM     29  H   UNL     1     137.329 131.380  89.536  0.00  0.00    +0.000 HD
ENDROOT
TORSDOF 0
ENDMDL
MODEL 6
REMARK VINA RESULT:    -4.564      3.615      5.911
REMARK INTER + INTRA:          -4.564
REMARK INTER:                  -4.564
REMARK INTRA:                   0.000
REMARK UNBOUND:                 0.000
REMARK  Name = /home/vital/Documents/PhD_2021/Malaria_codes/scripts/../data/pdbqt_ligands/ligand_309_temp.pdb
REMARK                            x       y       z     vdW  Elec       q    Type
REMARK                         _______ _______ _______ _____ _____    ______ ____
ROOT
ATOM      1  C   UNL     1     141.397 126.314 102.588  0.00  0.00    -0.034 C 
ATOM      2  C   UNL     1     141.457 127.369 101.528  0.00  0.00    -0.006 C 
ATOM      3  C   UNL     1     142.571 127.729 100.937  0.00  0.00    +0.010 C 
ATOM      4  N   UNL     1     143.401 128.201 100.250  0.00  0.00    -0.101 NA
ATOM      5  N   UNL     1     143.073 127.909  98.925  0.00  0.00    -0.104 N 
ATOM      6  C   UNL     1     142.701 128.863  98.113  0.00  0.00    +0.242 C 
ATOM      7  N   UNL     1     142.336 128.609  96.811  0.00  0.00    -0.282 N 
ATOM      8  C   UNL     1     142.011 127.413  96.156  0.00  0.00    +0.035 A 
ATOM      9  C   UNL     1     141.849 127.445  94.761  0.00  0.00    -0.039 A 
ATOM     10  C   UNL     1     141.551 126.289  94.033  0.00  0.00    -0.040 A 
ATOM     11  C   UNL     1     141.413 125.068  94.690  0.00  0.00    +0.059 A 
ATOM     12 CL   UNL     1     141.036 123.677  93.736  0.00  0.00    -0.082 Cl
ATOM     13  C   UNL     1     141.580 125.009  96.075  0.00  0.00    +0.061 A 
ATOM     14 CL   UNL     1     141.420 123.533  96.962  0.00  0.00    -0.082 Cl
ATOM     15  C   UNL     1     141.884 126.173  96.795  0.00  0.00    -0.021 A 
ATOM     16  N   UNL     1     142.683 130.207  98.391  0.00  0.00    -0.198 N 
ATOM     17  C   UNL     1     141.907 130.794  99.256  0.00  0.00    +0.122 C 
ATOM     18  N   UNL     1     141.974 132.168  99.364  0.00  0.00    -0.327 N 
ATOM     19  C   UNL     1     142.615 133.008  98.363  0.00  0.00    +0.034 C 
ATOM     20  C   UNL     1     142.666 134.452  98.870  0.00  0.00    +0.060 C 
ATOM     21  O   UNL     1     141.340 134.922  99.130  0.00  0.00    -0.393 OA
ATOM     22  C   UNL     1     141.000 130.127 100.244  0.00  0.00    -0.025 C 
ATOM     23  C   UNL     1     140.302 129.005 100.006  0.00  0.00    -0.076 C 
ATOM     24  C   UNL     1     140.122 128.008 101.131  0.00  0.00    -0.004 C 
ATOM     25  H   UNL     1     143.121 126.980  98.601  0.00  0.00    +0.000 HD
ATOM     26  H   UNL     1     142.296 129.408  96.238  0.00  0.00    +0.000 HD
ATOM     27  H   UNL     1     143.312 130.777  97.893  0.00  0.00    +0.000 HD
ATOM     28  H   UNL     1     141.571 132.598 100.153  0.00  0.00    +0.000 HD
ATOM     29  H   UNL     1     140.819 134.891  98.312  0.00  0.00    +0.000 HD
ENDROOT
TORSDOF 0
ENDMDL
MODEL 7
REMARK VINA RESULT:    -4.464      5.271      7.655
REMARK INTER + INTRA:          -4.464
REMARK INTER:                  -4.464
REMARK INTRA:                   0.000
REMARK UNBOUND:                 0.000
REMARK  Name = /home/vital/Documents/PhD_2021/Malaria_codes/scripts/../data/pdbqt_ligands/ligand_309_temp.pdb
REMARK                            x       y       z     vdW  Elec       q    Type
REMARK                         _______ _______ _______ _____ _____    ______ ____
ROOT
ATOM      1  C   UNL     1     139.596 124.060  97.959  0.00  0.00    -0.034 C 
ATOM      2  C   UNL     1     140.310 125.374  98.008  0.00  0.00    -0.006 C 
ATOM      3  C   UNL     1     141.604 125.494  97.831  0.00  0.00    +0.010 C 
ATOM      4  N   UNL     1     142.709 125.870  97.681  0.00  0.00    -0.101 NA
ATOM      5  N   UNL     1     142.720 126.724  96.577  0.00  0.00    -0.104 N 
ATOM      6  C   UNL     1     142.939 128.003  96.735  0.00  0.00    +0.242 C 
ATOM      7  N   UNL     1     142.922 128.881  95.676  0.00  0.00    -0.282 N 
ATOM      8  C   UNL     1     142.443 128.743  94.366  0.00  0.00    +0.035 A 
ATOM      9  C   UNL     1     142.730 129.766  93.446  0.00  0.00    -0.039 A 
ATOM     10  C   UNL     1     142.309 129.689  92.114  0.00  0.00    -0.040 A 
ATOM     11  C   UNL     1     141.593 128.578  91.672  0.00  0.00    +0.059 A 
ATOM     12 CL   UNL     1     141.094 128.547  90.018  0.00  0.00    -0.082 Cl
ATOM     13  C   UNL     1     141.306 127.545  92.565  0.00  0.00    +0.061 A 
ATOM     14 CL   UNL     1     140.419 126.137  92.094  0.00  0.00    -0.082 Cl
ATOM     15  C   UNL     1     141.736 127.629  93.897  0.00  0.00    -0.021 A 
ATOM     16  N   UNL     1     143.272 128.632  97.909  0.00  0.00    -0.198 N 
ATOM     17  C   UNL     1     142.504 128.749  98.953  0.00  0.00    +0.122 C 
ATOM     18  N   UNL     1     142.974 129.471 100.030  0.00  0.00    -0.327 N 
ATOM     19  C   UNL     1     144.122 130.362  99.943  0.00  0.00    +0.034 C 
ATOM     20  C   UNL     1     144.480 130.868 101.343  0.00  0.00    +0.060 C 
ATOM     21  O   UNL     1     143.364 131.560 101.909  0.00  0.00    -0.393 OA
ATOM     22  C   UNL     1     141.177 128.088  99.168  0.00  0.00    -0.025 C 
ATOM     23  C   UNL     1     140.261 127.881  98.209  0.00  0.00    -0.076 C 
ATOM     24  C   UNL     1     139.438 126.611  98.251  0.00  0.00    -0.004 C 
ATOM     25  H   UNL     1     142.562 126.362  95.675  0.00  0.00    +0.000 HD
ATOM     26  H   UNL     1     143.317 129.761  95.873  0.00  0.00    +0.000 HD
ATOM     27  H   UNL     1     144.171 129.030  97.966  0.00  0.00    +0.000 HD
ATOM     28  H   UNL     1     142.514 129.380 100.896  0.00  0.00    +0.000 HD
ATOM     29  H   UNL     1     143.134 132.316 101.347  0.00  0.00    +0.000 HD
ENDROOT
TORSDOF 0
ENDMDL
MODEL 8
REMARK VINA RESULT:    -4.328     13.214     15.602
REMARK INTER + INTRA:          -4.328
REMARK INTER:                  -4.328
REMARK INTRA:                   0.000
REMARK UNBOUND:                 0.000
REMARK  Name = /home/vital/Documents/PhD_2021/Malaria_codes/scripts/../data/pdbqt_ligands/ligand_309_temp.pdb
REMARK                            x       y       z     vdW  Elec       q    Type
REMARK                         _______ _______ _______ _____ _____    ______ ____
ROOT
ATOM      1  C   UNL     1     146.317 140.832  98.906  0.00  0.00    -0.034 C 
ATOM      2  C   UNL     1     144.926 141.377  98.805  0.00  0.00    -0.006 C 
ATOM      3  C   UNL     1     144.668 142.647  98.601  0.00  0.00    +0.010 C 
ATOM      4  N   UNL     1     144.176 143.696  98.399  0.00  0.00    -0.101 NA
ATOM      5  N   UNL     1     143.452 143.603  97.208  0.00  0.00    -0.104 N 
ATOM      6  C   UNL     1     142.146 143.661  97.226  0.00  0.00    +0.242 C 
ATOM      7  N   UNL     1     141.397 143.538  96.079  0.00  0.00    -0.282 N 
ATOM      8  C   UNL     1     141.734 143.082  94.797  0.00  0.00    +0.035 A 
ATOM      9  C   UNL     1     140.789 143.241  93.769  0.00  0.00    -0.039 A 
ATOM     10  C   UNL     1     141.061 142.835  92.458  0.00  0.00    -0.040 A 
ATOM     11  C   UNL     1     142.293 142.263  92.146  0.00  0.00    +0.059 A 
ATOM     12 CL   UNL     1     142.565 141.776  90.511  0.00  0.00    -0.082 Cl
ATOM     13  C   UNL     1     143.252 142.106  93.149  0.00  0.00    +0.061 A 
ATOM     14 CL   UNL     1     144.801 141.401  92.843  0.00  0.00    -0.082 Cl
ATOM     15  C   UNL     1     142.971 142.520  94.459  0.00  0.00    -0.021 A 
ATOM     16  N   UNL     1     141.357 143.913  98.321  0.00  0.00    -0.198 N 
ATOM     17  C   UNL     1     141.224 143.133  99.356  0.00  0.00    +0.122 C 
ATOM     18  N   UNL     1     140.337 143.509 100.343  0.00  0.00    -0.327 N 
ATOM     19  C   UNL     1     139.325 144.538 100.147  0.00  0.00    +0.034 C 
ATOM     20  C   UNL     1     138.631 144.828 101.480  0.00  0.00    +0.060 C 
ATOM     21  O   UNL     1     138.025 143.633 101.982  0.00  0.00    -0.393 OA
ATOM     22  C   UNL     1     142.016 141.898  99.656  0.00  0.00    -0.025 C 
ATOM     23  C   UNL     1     142.438 141.017  98.736  0.00  0.00    -0.076 C 
ATOM     24  C   UNL     1     143.788 140.359  98.924  0.00  0.00    -0.004 C 
ATOM     25  H   UNL     1     143.926 143.493  96.353  0.00  0.00    +0.000 HD
ATOM     26  H   UNL     1     140.459 143.820  96.175  0.00  0.00    +0.000 HD
ATOM     27  H   UNL     1     140.848 144.754  98.324  0.00  0.00    +0.000 HD
ATOM     28  H   UNL     1     140.390 143.062 101.219  0.00  0.00    +0.000 HD
ATOM     29  H   UNL     1     137.368 143.311 101.345  0.00  0.00    +0.000 HD
ENDROOT
TORSDOF 0
ENDMDL
