MODEL 1
REMARK VINA RESULT:    -4.160      0.000      0.000
REMARK INTER + INTRA:          -4.160
REMARK INTER:                  -4.160
REMARK INTRA:                   0.000
REMARK UNBOUND:                 0.000
REMARK  Name = /home/vital/Documents/PhD_2021/Malaria_codes/scripts/../data/pdbqt_ligands/ligand_304_temp.pdb
REMARK                            x       y       z     vdW  Elec       q    Type
REMARK                         _______ _______ _______ _____ _____    ______ ____
ROOT
ATOM      1  C   UNL     1     150.969 156.770 157.028  0.00  0.00    +0.079 C 
ATOM      2  O   UNL     1     151.363 157.343 158.267  0.00  0.00    -0.491 OA
ATOM      3  C   UNL     1     151.244 156.569 159.391  0.00  0.00    +0.162 A 
ATOM      4  C   UNL     1     150.756 155.263 159.413  0.00  0.00    -0.016 A 
ATOM      5  C   UNL     1     150.676 154.558 160.619  0.00  0.00    -0.053 A 
ATOM      6  C   UNL     1     151.087 155.135 161.834  0.00  0.00    -0.016 A 
ATOM      7  C   UNL     1     150.952 154.317 163.102  0.00  0.00    +0.023 C 
ATOM      8  N   UNL     1     149.714 154.658 163.802  0.00  0.00    -0.309 N 
ATOM      9  C   UNL     1     149.424 153.775 164.942  0.00  0.00    +0.026 C 
ATOM     10  C   UNL     1     150.506 153.617 166.055  0.00  0.00    +0.093 C 
ATOM     11  O   UNL     1     151.522 152.713 165.595  0.00  0.00    -0.386 OA
ATOM     12  C   UNL     1     151.123 154.900 166.587  0.00  0.00    -0.017 A 
ATOM     13  C   UNL     1     152.486 154.960 166.932  0.00  0.00    -0.056 A 
ATOM     14  C   UNL     1     153.053 156.128 167.448  0.00  0.00    -0.060 A 
ATOM     15  C   UNL     1     152.263 157.258 167.642  0.00  0.00    -0.043 A 
ATOM     16  C   UNL     1     150.910 157.213 167.321  0.00  0.00    +0.041 A 
ATOM     17 CL   UNL     1     149.929 158.606 167.565  0.00  0.00    -0.084 Cl
ATOM     18  C   UNL     1     150.340 156.046 166.807  0.00  0.00    -0.038 A 
ATOM     19  C   UNL     1     151.570 156.454 161.812  0.00  0.00    +0.067 A 
ATOM     20 BR   UNL     1     152.137 157.338 163.405  0.00  0.00    -0.046 Br
ATOM     21  C   UNL     1     151.647 157.157 160.598  0.00  0.00    +0.173 A 
ATOM     22  O   UNL     1     152.120 158.449 160.563  0.00  0.00    -0.503 OA
ATOM     23  H   UNL     1     148.941 154.595 163.139  0.00  0.00    +0.000 HD
ATOM     24  H   UNL     1     149.829 155.601 164.173  0.00  0.00    +0.000 HD
ATOM     25  H   UNL     1     151.974 153.098 164.828  0.00  0.00    +0.000 HD
ATOM     26  H   UNL     1     152.167 158.909 159.748  0.00  0.00    +0.000 HD
ENDROOT
TORSDOF 0
ENDMDL
MODEL 2
REMARK VINA RESULT:    -4.088      2.173      2.700
REMARK INTER + INTRA:          -4.088
REMARK INTER:                  -4.088
REMARK INTRA:                   0.000
REMARK UNBOUND:                 0.000
REMARK  Name = /home/vital/Documents/PhD_2021/Malaria_codes/scripts/../data/pdbqt_ligands/ligand_304_temp.pdb
REMARK                            x       y       z     vdW  Elec       q    Type
REMARK                         _______ _______ _______ _____ _____    ______ ____
ROOT
ATOM      1  C   UNL     1     150.341 159.152 157.651  0.00  0.00    +0.079 C 
ATOM      2  O   UNL     1     150.350 159.803 158.914  0.00  0.00    -0.491 OA
ATOM      3  C   UNL     1     150.677 159.052 160.012  0.00  0.00    +0.162 A 
ATOM      4  C   UNL     1     150.992 157.695 159.987  0.00  0.00    -0.016 A 
ATOM      5  C   UNL     1     151.313 157.020 161.171  0.00  0.00    -0.053 A 
ATOM      6  C   UNL     1     151.333 157.685 162.410  0.00  0.00    -0.016 A 
ATOM      7  C   UNL     1     151.670 156.884 163.651  0.00  0.00    +0.023 C 
ATOM      8  N   UNL     1     150.449 156.459 164.333  0.00  0.00    -0.309 N 
ATOM      9  C   UNL     1     150.693 155.523 165.442  0.00  0.00    +0.026 C 
ATOM     10  C   UNL     1     151.678 155.950 166.573  0.00  0.00    +0.093 C 
ATOM     11  O   UNL     1     153.026 155.775 166.110  0.00  0.00    -0.386 OA
ATOM     12  C   UNL     1     151.482 157.341 167.155  0.00  0.00    -0.017 A 
ATOM     13  C   UNL     1     152.583 158.131 167.530  0.00  0.00    -0.056 A 
ATOM     14  C   UNL     1     152.408 159.399 168.091  0.00  0.00    -0.060 A 
ATOM     15  C   UNL     1     151.124 159.897 168.299  0.00  0.00    -0.043 A 
ATOM     16  C   UNL     1     150.024 159.122 167.949  0.00  0.00    +0.041 A 
ATOM     17 CL   UNL     1     148.435 159.732 168.210  0.00  0.00    -0.084 Cl
ATOM     18  C   UNL     1     150.195 157.854 167.389  0.00  0.00    -0.038 A 
ATOM     19  C   UNL     1     151.006 159.051 162.436  0.00  0.00    +0.067 A 
ATOM     20 BR   UNL     1     150.986 160.044 164.065  0.00  0.00    -0.046 Br
ATOM     21  C   UNL     1     150.684 159.722 161.244  0.00  0.00    +0.173 A 
ATOM     22  O   UNL     1     150.364 161.060 161.256  0.00  0.00    -0.503 OA
ATOM     23  H   UNL     1     149.840 156.003 163.653  0.00  0.00    +0.000 HD
ATOM     24  H   UNL     1     150.022 157.294 164.734  0.00  0.00    +0.000 HD
ATOM     25  H   UNL     1     153.191 156.372 165.364  0.00  0.00    +0.000 HD
ATOM     26  H   UNL     1     150.150 161.498 160.456  0.00  0.00    +0.000 HD
ENDROOT
TORSDOF 0
ENDMDL
MODEL 3
REMARK VINA RESULT:    -3.905      2.842      3.364
REMARK INTER + INTRA:          -3.905
REMARK INTER:                  -3.905
REMARK INTRA:                   0.000
REMARK UNBOUND:                 0.000
REMARK  Name = /home/vital/Documents/PhD_2021/Malaria_codes/scripts/../data/pdbqt_ligands/ligand_304_temp.pdb
REMARK                            x       y       z     vdW  Elec       q    Type
REMARK                         _______ _______ _______ _____ _____    ______ ____
ROOT
ATOM      1  C   UNL     1     149.992 155.863 156.155  0.00  0.00    +0.079 C 
ATOM      2  O   UNL     1     150.172 157.040 156.930  0.00  0.00    -0.491 OA
ATOM      3  C   UNL     1     150.589 156.890 158.226  0.00  0.00    +0.162 A 
ATOM      4  C   UNL     1     150.841 155.667 158.847  0.00  0.00    -0.016 A 
ATOM      5  C   UNL     1     151.264 155.624 160.180  0.00  0.00    -0.053 A 
ATOM      6  C   UNL     1     151.454 156.801 160.927  0.00  0.00    -0.016 A 
ATOM      7  C   UNL     1     151.894 156.675 162.371  0.00  0.00    +0.023 C 
ATOM      8  N   UNL     1     150.741 156.750 163.267  0.00  0.00    -0.309 N 
ATOM      9  C   UNL     1     151.069 156.450 164.669  0.00  0.00    +0.026 C 
ATOM     10  C   UNL     1     152.194 157.278 165.363  0.00  0.00    +0.093 C 
ATOM     11  O   UNL     1     153.472 156.776 164.943  0.00  0.00    -0.386 OA
ATOM     12  C   UNL     1     152.125 158.788 165.200  0.00  0.00    -0.017 A 
ATOM     13  C   UNL     1     153.295 159.554 165.051  0.00  0.00    -0.056 A 
ATOM     14  C   UNL     1     153.239 160.945 164.928  0.00  0.00    -0.060 A 
ATOM     15  C   UNL     1     152.011 161.599 164.964  0.00  0.00    -0.043 A 
ATOM     16  C   UNL     1     150.845 160.858 165.126  0.00  0.00    +0.041 A 
ATOM     17 CL   UNL     1     149.324 161.663 165.177  0.00  0.00    -0.084 Cl
ATOM     18  C   UNL     1     150.896 159.468 165.251  0.00  0.00    -0.038 A 
ATOM     19  C   UNL     1     151.191 158.032 160.304  0.00  0.00    +0.067 A 
ATOM     20 BR   UNL     1     151.398 159.688 161.229  0.00  0.00    -0.046 Br
ATOM     21  C   UNL     1     150.764 158.068 158.965  0.00  0.00    +0.173 A 
ATOM     22  O   UNL     1     150.506 159.268 158.342  0.00  0.00    -0.503 OA
ATOM     23  H   UNL     1     150.041 156.080 162.948  0.00  0.00    +0.000 HD
ATOM     24  H   UNL     1     150.399 157.710 163.237  0.00  0.00    +0.000 HD
ATOM     25  H   UNL     1     153.577 156.918 163.990  0.00  0.00    +0.000 HD
ATOM     26  H   UNL     1     150.222 159.281 157.449  0.00  0.00    +0.000 HD
ENDROOT
TORSDOF 0
ENDMDL
MODEL 4
REMARK VINA RESULT:    -3.828      4.591      6.004
REMARK INTER + INTRA:          -3.828
REMARK INTER:                  -3.828
REMARK INTRA:                   0.000
REMARK UNBOUND:                 0.000
REMARK  Name = /home/vital/Documents/PhD_2021/Malaria_codes/scripts/../data/pdbqt_ligands/ligand_304_temp.pdb
REMARK                            x       y       z     vdW  Elec       q    Type
REMARK                         _______ _______ _______ _____ _____    ______ ____
ROOT
ATOM      1  C   UNL     1     151.142 157.636 158.857  0.00  0.00    +0.079 C 
ATOM      2  O   UNL     1     151.675 157.522 160.168  0.00  0.00    -0.491 OA
ATOM      3  C   UNL     1     151.318 158.476 161.084  0.00  0.00    +0.162 A 
ATOM      4  C   UNL     1     150.479 159.559 160.823  0.00  0.00    -0.016 A 
ATOM      5  C   UNL     1     150.178 160.480 161.832  0.00  0.00    -0.053 A 
ATOM      6  C   UNL     1     150.701 160.342 163.131  0.00  0.00    -0.016 A 
ATOM      7  C   UNL     1     150.347 161.390 164.166  0.00  0.00    +0.023 C 
ATOM      8  N   UNL     1     151.405 162.394 164.261  0.00  0.00    -0.309 N 
ATOM      9  C   UNL     1     151.049 163.542 165.110  0.00  0.00    +0.026 C 
ATOM     10  C   UNL     1     150.596 163.269 166.577  0.00  0.00    +0.093 C 
ATOM     11  O   UNL     1     149.229 162.831 166.571  0.00  0.00    -0.386 OA
ATOM     12  C   UNL     1     151.464 162.323 167.391  0.00  0.00    -0.017 A 
ATOM     13  C   UNL     1     150.892 161.420 168.306  0.00  0.00    -0.056 A 
ATOM     14  C   UNL     1     151.686 160.568 169.076  0.00  0.00    -0.060 A 
ATOM     15  C   UNL     1     153.073 160.609 168.955  0.00  0.00    -0.043 A 
ATOM     16  C   UNL     1     153.656 161.507 168.067  0.00  0.00    +0.041 A 
ATOM     17 CL   UNL     1     155.371 161.566 167.920  0.00  0.00    -0.084 Cl
ATOM     18  C   UNL     1     152.865 162.362 167.296  0.00  0.00    -0.038 A 
ATOM     19  C   UNL     1     151.554 159.256 163.390  0.00  0.00    +0.067 A 
ATOM     20 BR   UNL     1     152.333 158.984 165.111  0.00  0.00    -0.046 Br
ATOM     21  C   UNL     1     151.854 158.335 162.372  0.00  0.00    +0.173 A 
ATOM     22  O   UNL     1     152.686 157.266 162.614  0.00  0.00    -0.503 OA
ATOM     23  H   UNL     1     151.610 162.738 163.322  0.00  0.00    +0.000 HD
ATOM     24  H   UNL     1     152.212 161.941 164.691  0.00  0.00    +0.000 HD
ATOM     25  H   UNL     1     149.163 161.984 166.104  0.00  0.00    +0.000 HD
ATOM     26  H   UNL     1     152.880 156.658 161.928  0.00  0.00    +0.000 HD
ENDROOT
TORSDOF 0
ENDMDL
MODEL 5
REMARK VINA RESULT:    -3.488     11.867     14.838
REMARK INTER + INTRA:          -3.488
REMARK INTER:                  -3.488
REMARK INTRA:                   0.000
REMARK UNBOUND:                 0.000
REMARK  Name = /home/vital/Documents/PhD_2021/Malaria_codes/scripts/../data/pdbqt_ligands/ligand_304_temp.pdb
REMARK                            x       y       z     vdW  Elec       q    Type
REMARK                         _______ _______ _______ _____ _____    ______ ____
ROOT
ATOM      1  C   UNL     1     141.655 139.219 167.103  0.00  0.00    +0.079 C 
ATOM      2  O   UNL     1     142.637 140.240 166.999  0.00  0.00    -0.491 OA
ATOM      3  C   UNL     1     142.199 141.530 166.853  0.00  0.00    +0.162 A 
ATOM      4  C   UNL     1     140.861 141.916 166.788  0.00  0.00    -0.016 A 
ATOM      5  C   UNL     1     140.520 143.265 166.637  0.00  0.00    -0.053 A 
ATOM      6  C   UNL     1     141.506 144.265 166.554  0.00  0.00    -0.016 A 
ATOM      7  C   UNL     1     141.061 145.701 166.371  0.00  0.00    +0.023 C 
ATOM      8  N   UNL     1     141.108 146.076 164.959  0.00  0.00    -0.309 N 
ATOM      9  C   UNL     1     140.515 147.394 164.683  0.00  0.00    +0.026 C 
ATOM     10  C   UNL     1     141.057 148.631 165.464  0.00  0.00    +0.093 C 
ATOM     11  O   UNL     1     140.490 148.637 166.783  0.00  0.00    -0.386 OA
ATOM     12  C   UNL     1     142.567 148.788 165.523  0.00  0.00    -0.017 A 
ATOM     13  C   UNL     1     143.200 149.274 166.682  0.00  0.00    -0.056 A 
ATOM     14  C   UNL     1     144.586 149.446 166.732  0.00  0.00    -0.060 A 
ATOM     15  C   UNL     1     145.366 149.148 165.618  0.00  0.00    -0.043 A 
ATOM     16  C   UNL     1     144.755 148.681 164.459  0.00  0.00    +0.041 A 
ATOM     17 CL   UNL     1     145.716 148.317 163.077  0.00  0.00    -0.084 Cl
ATOM     18  C   UNL     1     143.370 148.509 164.404  0.00  0.00    -0.038 A 
ATOM     19  C   UNL     1     142.854 143.874 166.611  0.00  0.00    +0.067 A 
ATOM     20 BR   UNL     1     144.271 145.146 166.490  0.00  0.00    -0.046 Br
ATOM     21  C   UNL     1     143.189 142.517 166.761  0.00  0.00    +0.173 A 
ATOM     22  O   UNL     1     144.506 142.122 166.820  0.00  0.00    -0.503 OA
ATOM     23  H   UNL     1     140.599 145.374 164.421  0.00  0.00    +0.000 HD
ATOM     24  H   UNL     1     142.091 146.128 164.694  0.00  0.00    +0.000 HD
ATOM     25  H   UNL     1     140.793 147.854 167.268  0.00  0.00    +0.000 HD
ATOM     26  H   UNL     1     144.719 141.215 166.920  0.00  0.00    +0.000 HD
ENDROOT
TORSDOF 0
ENDMDL
MODEL 6
REMARK VINA RESULT:    -3.294     11.898     14.931
REMARK INTER + INTRA:          -3.294
REMARK INTER:                  -3.294
REMARK INTRA:                   0.000
REMARK UNBOUND:                 0.000
REMARK  Name = /home/vital/Documents/PhD_2021/Malaria_codes/scripts/../data/pdbqt_ligands/ligand_304_temp.pdb
REMARK                            x       y       z     vdW  Elec       q    Type
REMARK                         _______ _______ _______ _____ _____    ______ ____
ROOT
ATOM      1  C   UNL     1     142.420 138.863 167.664  0.00  0.00    +0.079 C 
ATOM      2  O   UNL     1     141.762 140.119 167.582  0.00  0.00    -0.491 OA
ATOM      3  C   UNL     1     142.435 141.151 166.982  0.00  0.00    +0.162 A 
ATOM      4  C   UNL     1     143.722 141.064 166.454  0.00  0.00    -0.016 A 
ATOM      5  C   UNL     1     144.320 142.182 165.861  0.00  0.00    -0.053 A 
ATOM      6  C   UNL     1     143.646 143.414 165.773  0.00  0.00    -0.016 A 
ATOM      7  C   UNL     1     144.365 144.584 165.135  0.00  0.00    +0.023 C 
ATOM      8  N   UNL     1     144.977 145.429 166.159  0.00  0.00    -0.309 N 
ATOM      9  C   UNL     1     145.847 146.480 165.608  0.00  0.00    +0.026 C 
ATOM     10  C   UNL     1     145.249 147.464 164.555  0.00  0.00    +0.093 C 
ATOM     11  O   UNL     1     145.205 146.811 163.277  0.00  0.00    -0.386 OA
ATOM     12  C   UNL     1     143.904 148.084 164.893  0.00  0.00    -0.017 A 
ATOM     13  C   UNL     1     142.938 148.307 163.895  0.00  0.00    -0.056 A 
ATOM     14  C   UNL     1     141.709 148.903 164.195  0.00  0.00    -0.060 A 
ATOM     15  C   UNL     1     141.428 149.298 165.500  0.00  0.00    -0.043 A 
ATOM     16  C   UNL     1     142.377 149.099 166.496  0.00  0.00    +0.041 A 
ATOM     17 CL   UNL     1     142.035 149.593 168.110  0.00  0.00    -0.084 Cl
ATOM     18  C   UNL     1     143.607 148.506 166.200  0.00  0.00    -0.038 A 
ATOM     19  C   UNL     1     142.353 143.502 166.314  0.00  0.00    +0.067 A 
ATOM     20 BR   UNL     1     141.356 145.129 166.265  0.00  0.00    -0.046 Br
ATOM     21  C   UNL     1     141.759 142.377 166.910  0.00  0.00    +0.173 A 
ATOM     22  O   UNL     1     140.491 142.450 167.441  0.00  0.00    -0.503 OA
ATOM     23  H   UNL     1     145.536 144.838 166.775  0.00  0.00    +0.000 HD
ATOM     24  H   UNL     1     144.219 145.896 166.656  0.00  0.00    +0.000 HD
ATOM     25  H   UNL     1     144.598 146.056 163.321  0.00  0.00    +0.000 HD
ATOM     26  H   UNL     1     140.104 141.694 167.837  0.00  0.00    +0.000 HD
ENDROOT
TORSDOF 0
ENDMDL
MODEL 7
REMARK VINA RESULT:    -3.130      4.065      5.051
REMARK INTER + INTRA:          -3.130
REMARK INTER:                  -3.130
REMARK INTRA:                   0.000
REMARK UNBOUND:                 0.000
REMARK  Name = /home/vital/Documents/PhD_2021/Malaria_codes/scripts/../data/pdbqt_ligands/ligand_304_temp.pdb
REMARK                            x       y       z     vdW  Elec       q    Type
REMARK                         _______ _______ _______ _____ _____    ______ ____
ROOT
ATOM      1  C   UNL     1     151.012 158.349 158.456  0.00  0.00    +0.079 C 
ATOM      2  O   UNL     1     150.758 159.451 159.314  0.00  0.00    -0.491 OA
ATOM      3  C   UNL     1     151.031 159.293 160.647  0.00  0.00    +0.162 A 
ATOM      4  C   UNL     1     151.531 158.129 161.228  0.00  0.00    -0.016 A 
ATOM      5  C   UNL     1     151.777 158.072 162.605  0.00  0.00    -0.053 A 
ATOM      6  C   UNL     1     151.535 159.180 163.438  0.00  0.00    -0.016 A 
ATOM      7  C   UNL     1     151.806 159.038 164.921  0.00  0.00    +0.023 C 
ATOM      8  N   UNL     1     150.573 158.716 165.638  0.00  0.00    -0.309 N 
ATOM      9  C   UNL     1     150.790 158.381 167.054  0.00  0.00    +0.026 C 
ATOM     10  C   UNL     1     151.542 159.409 167.954  0.00  0.00    +0.093 C 
ATOM     11  O   UNL     1     152.952 159.309 167.701  0.00  0.00    -0.386 OA
ATOM     12  C   UNL     1     151.079 160.854 167.869  0.00  0.00    -0.017 A 
ATOM     13  C   UNL     1     151.999 161.916 167.941  0.00  0.00    -0.056 A 
ATOM     14  C   UNL     1     151.575 163.246 167.891  0.00  0.00    -0.060 A 
ATOM     15  C   UNL     1     150.219 163.542 167.780  0.00  0.00    -0.043 A 
ATOM     16  C   UNL     1     149.294 162.505 167.725  0.00  0.00    +0.041 A 
ATOM     17 CL   UNL     1     147.616 162.866 167.595  0.00  0.00    -0.084 Cl
ATOM     18  C   UNL     1     149.713 161.173 167.776  0.00  0.00    -0.038 A 
ATOM     19  C   UNL     1     151.023 160.350 162.854  0.00  0.00    +0.067 A 
ATOM     20 BR   UNL     1     150.643 161.904 163.893  0.00  0.00    -0.046 Br
ATOM     21  C   UNL     1     150.777 160.399 161.470  0.00  0.00    +0.173 A 
ATOM     22  O   UNL     1     150.277 161.541 160.886  0.00  0.00    -0.503 OA
ATOM     23  H   UNL     1     150.132 157.917 165.181  0.00  0.00    +0.000 HD
ATOM     24  H   UNL     1     149.984 159.549 165.613  0.00  0.00    +0.000 HD
ATOM     25  H   UNL     1     153.134 159.565 166.783  0.00  0.00    +0.000 HD
ATOM     26  H   UNL     1     150.117 161.563 159.963  0.00  0.00    +0.000 HD
ENDROOT
TORSDOF 0
ENDMDL
MODEL 8
REMARK VINA RESULT:    -2.966      2.920      3.762
REMARK INTER + INTRA:          -2.966
REMARK INTER:                  -2.966
REMARK INTRA:                   0.000
REMARK UNBOUND:                 0.000
REMARK  Name = /home/vital/Documents/PhD_2021/Malaria_codes/scripts/../data/pdbqt_ligands/ligand_304_temp.pdb
REMARK                            x       y       z     vdW  Elec       q    Type
REMARK                         _______ _______ _______ _____ _____    ______ ____
ROOT
ATOM      1  C   UNL     1     151.168 155.475 158.626  0.00  0.00    +0.079 C 
ATOM      2  O   UNL     1     151.264 156.753 159.238  0.00  0.00    -0.491 OA
ATOM      3  C   UNL     1     151.412 156.795 160.599  0.00  0.00    +0.162 A 
ATOM      4  C   UNL     1     151.466 155.678 161.432  0.00  0.00    -0.016 A 
ATOM      5  C   UNL     1     151.620 155.832 162.814  0.00  0.00    -0.053 A 
ATOM      6  C   UNL     1     151.731 157.106 163.402  0.00  0.00    -0.016 A 
ATOM      7  C   UNL     1     151.875 157.194 164.907  0.00  0.00    +0.023 C 
ATOM      8  N   UNL     1     150.577 157.442 165.532  0.00  0.00    -0.309 N 
ATOM      9  C   UNL     1     150.608 157.356 167.000  0.00  0.00    +0.026 C 
ATOM     10  C   UNL     1     151.624 158.249 167.776  0.00  0.00    +0.093 C 
ATOM     11  O   UNL     1     152.927 157.651 167.699  0.00  0.00    -0.386 OA
ATOM     12  C   UNL     1     151.678 159.716 167.381  0.00  0.00    -0.017 A 
ATOM     13  C   UNL     1     152.899 160.416 167.358  0.00  0.00    -0.056 A 
ATOM     14  C   UNL     1     152.951 161.771 167.023  0.00  0.00    -0.060 A 
ATOM     15  C   UNL     1     151.779 162.458 166.714  0.00  0.00    -0.043 A 
ATOM     16  C   UNL     1     150.562 161.785 166.747  0.00  0.00    +0.041 A 
ATOM     17 CL   UNL     1     149.111 162.632 166.372  0.00  0.00    -0.084 Cl
ATOM     18  C   UNL     1     150.506 160.431 167.084  0.00  0.00    -0.038 A 
ATOM     19  C   UNL     1     151.667 158.231 162.563  0.00  0.00    +0.067 A 
ATOM     20 BR   UNL     1     151.790 160.004 163.257  0.00  0.00    -0.046 Br
ATOM     21  C   UNL     1     151.511 158.069 161.176  0.00  0.00    +0.173 A 
ATOM     22  O   UNL     1     151.450 159.163 160.344  0.00  0.00    -0.503 OA
ATOM     23  H   UNL     1     149.912 156.751 165.182  0.00  0.00    +0.000 HD
ATOM     24  H   UNL     1     150.305 158.395 165.293  0.00  0.00    +0.000 HD
ATOM     25  H   UNL     1     153.223 157.639 166.776  0.00  0.00    +0.000 HD
ATOM     26  H   UNL     1     151.345 159.045 159.420  0.00  0.00    +0.000 HD
ENDROOT
TORSDOF 0
ENDMDL
