MODEL 1
REMARK VINA RESULT:    -7.173      0.000      0.000
REMARK INTER + INTRA:          -7.173
REMARK INTER:                  -7.173
REMARK INTRA:                   0.000
REMARK UNBOUND:                 0.000
REMARK  Name = /home/vital/Documents/PhD_2021/Malaria_codes/scripts/../data/pdbqt_ligands/ligand_11_temp.pdb
REMARK                            x       y       z     vdW  Elec       q    Type
REMARK                         _______ _______ _______ _____ _____    ______ ____
ROOT
ATOM      1  O   UNL     1     147.308 145.613 167.121  0.00  0.00    -0.389 OA
ATOM      2  C   UNL     1     146.690 146.467 166.147  0.00  0.00    +0.083 C 
ATOM      3  CA  UNL     1     145.410 145.803 165.630  0.00  0.00    +0.049 C 
ATOM      4  C   UNL     1     144.817 146.266 164.505  0.00  0.00    +0.038 C 
ATOM      5 CL   UNL     1     145.467 147.695 163.703  0.00  0.00    -0.087 Cl
ATOM      6  C   UNL     1     143.597 145.764 163.757  0.00  0.00    -0.008 C 
ATOM      7  C   UNL     1     142.991 144.382 164.059  0.00  0.00    -0.004 C 
ATOM      8  C   UNL     1     142.773 144.211 165.590  0.00  0.00    +0.010 C 
ATOM      9  C   UNL     1     144.048 143.782 166.317  0.00  0.00    +0.096 C 
ATOM     10  N   UNL     1     144.304 142.622 166.841  0.00  0.00    -0.254 N 
ATOM     11  C   UNL     1     143.456 141.439 166.720  0.00  0.00    +0.104 C 
ATOM     12  N   UNL     1     143.873 140.438 165.705  0.00  0.00    -0.325 N 
ATOM     13  C   UNL     1     144.147 141.055 164.457  0.00  0.00    +0.029 A 
ATOM     14  C   UNL     1     145.426 141.034 163.901  0.00  0.00    -0.041 A 
ATOM     15  C   UNL     1     145.814 142.073 163.053  0.00  0.00    -0.060 A 
ATOM     16  C   UNL     1     144.983 143.186 162.920  0.00  0.00    -0.058 A 
ATOM     17  C   UNL     1     143.712 143.157 163.500  0.00  0.00    -0.042 A 
ATOM     18  C   UNL     1     143.211 141.938 163.949  0.00  0.00    -0.037 A 
ATOM     19  N   UNL     1     145.037 144.722 166.419  0.00  0.00    -0.304 N 
ATOM     20  H   UNL     1     148.119 146.032 167.451  0.00  0.00    +0.000 HD
ATOM     21  H   UNL     1     145.135 142.533 167.362  0.00  0.00    +0.000 HD
ATOM     22  H   UNL     1     143.950 139.471 165.877  0.00  0.00    +0.000 HD
ATOM     23  H   UNL     1     145.602 144.609 167.217  0.00  0.00    +0.000 HD
ENDROOT
TORSDOF 0
ENDMDL
MODEL 2
REMARK VINA RESULT:    -6.940     17.939     19.603
REMARK INTER + INTRA:          -6.940
REMARK INTER:                  -6.940
REMARK INTRA:                   0.000
REMARK UNBOUND:                 0.000
REMARK  Name = /home/vital/Documents/PhD_2021/Malaria_codes/scripts/../data/pdbqt_ligands/ligand_11_temp.pdb
REMARK                            x       y       z     vdW  Elec       q    Type
REMARK                         _______ _______ _______ _____ _____    ______ ____
ROOT
ATOM      1  O   UNL     1     149.459 158.815 168.891  0.00  0.00    -0.389 OA
ATOM      2  C   UNL     1     150.486 159.559 169.560  0.00  0.00    +0.083 C 
ATOM      3  CA  UNL     1     150.677 160.907 168.857  0.00  0.00    +0.049 C 
ATOM      4  C   UNL     1     151.777 161.653 169.113  0.00  0.00    +0.038 C 
ATOM      5 CL   UNL     1     152.929 161.113 170.333  0.00  0.00    -0.087 Cl
ATOM      6  C   UNL     1     152.231 162.973 168.521  0.00  0.00    -0.008 C 
ATOM      7  C   UNL     1     151.579 163.542 167.249  0.00  0.00    -0.004 C 
ATOM      8  C   UNL     1     150.029 163.537 167.389  0.00  0.00    +0.010 C 
ATOM      9  C   UNL     1     149.417 162.173 167.062  0.00  0.00    +0.096 C 
ATOM     10  N   UNL     1     148.714 161.855 166.018  0.00  0.00    -0.254 N 
ATOM     11  C   UNL     1     148.478 162.722 164.867  0.00  0.00    +0.104 C 
ATOM     12  N   UNL     1     149.322 162.465 163.672  0.00  0.00    -0.325 N 
ATOM     13  C   UNL     1     150.693 162.370 164.022  0.00  0.00    +0.029 A 
ATOM     14  C   UNL     1     151.409 161.185 163.845  0.00  0.00    -0.041 A 
ATOM     15  C   UNL     1     152.492 160.915 164.683  0.00  0.00    -0.060 A 
ATOM     16  C   UNL     1     152.725 161.746 165.780  0.00  0.00    -0.058 A 
ATOM     17  C   UNL     1     151.979 162.920 165.912  0.00  0.00    -0.042 A 
ATOM     18  C   UNL     1     151.231 163.362 164.824  0.00  0.00    -0.037 A 
ATOM     19  N   UNL     1     149.644 161.171 167.966  0.00  0.00    -0.304 N 
ATOM     20  H   UNL     1     149.336 157.960 169.335  0.00  0.00    +0.000 HD
ATOM     21  H   UNL     1     148.309 160.958 166.001  0.00  0.00    +0.000 HD
ATOM     22  H   UNL     1     148.974 162.373 162.755  0.00  0.00    +0.000 HD
ATOM     23  H   UNL     1     148.927 160.498 167.989  0.00  0.00    +0.000 HD
ENDROOT
TORSDOF 0
ENDMDL
MODEL 3
REMARK VINA RESULT:    -6.723     17.428     19.792
REMARK INTER + INTRA:          -6.723
REMARK INTER:                  -6.723
REMARK INTRA:                   0.000
REMARK UNBOUND:                 0.000
REMARK  Name = /home/vital/Documents/PhD_2021/Malaria_codes/scripts/../data/pdbqt_ligands/ligand_11_temp.pdb
REMARK                            x       y       z     vdW  Elec       q    Type
REMARK                         _______ _______ _______ _____ _____    ______ ____
ROOT
ATOM      1  O   UNL     1     148.527 159.353 168.652  0.00  0.00    -0.389 OA
ATOM      2  C   UNL     1     148.384 160.236 167.530  0.00  0.00    +0.083 C 
ATOM      3  CA  UNL     1     149.769 160.712 167.079  0.00  0.00    +0.049 C 
ATOM      4  C   UNL     1     149.880 161.770 166.242  0.00  0.00    +0.038 C 
ATOM      5 CL   UNL     1     148.425 162.526 165.597  0.00  0.00    -0.087 Cl
ATOM      6  C   UNL     1     151.111 162.469 165.697  0.00  0.00    -0.008 C 
ATOM      7  C   UNL     1     152.504 162.211 166.296  0.00  0.00    -0.004 C 
ATOM      8  C   UNL     1     152.773 160.682 166.397  0.00  0.00    +0.010 C 
ATOM      9  C   UNL     1     152.149 160.060 167.647  0.00  0.00    +0.096 C 
ATOM     10  N   UNL     1     152.767 159.621 168.702  0.00  0.00    -0.254 N 
ATOM     11  C   UNL     1     154.199 159.757 168.955  0.00  0.00    +0.104 C 
ATOM     12  N   UNL     1     154.596 160.852 169.877  0.00  0.00    -0.325 N 
ATOM     13  C   UNL     1     153.977 162.077 169.518  0.00  0.00    +0.029 A 
ATOM     14  C   UNL     1     153.072 162.712 170.369  0.00  0.00    -0.041 A 
ATOM     15  C   UNL     1     152.076 163.520 169.820  0.00  0.00    -0.060 A 
ATOM     16  C   UNL     1     151.903 163.537 168.435  0.00  0.00    -0.058 A 
ATOM     17  C   UNL     1     152.837 162.883 167.627  0.00  0.00    -0.042 A 
ATOM     18  C   UNL     1     154.041 162.475 168.194  0.00  0.00    -0.037 A 
ATOM     19  N   UNL     1     150.784 159.965 167.664  0.00  0.00    -0.304 N 
ATOM     20  H   UNL     1     147.651 159.051 168.939  0.00  0.00    +0.000 HD
ATOM     21  H   UNL     1     152.228 159.158 169.384  0.00  0.00    +0.000 HD
ATOM     22  H   UNL     1     155.211 160.742 170.639  0.00  0.00    +0.000 HD
ATOM     23  H   UNL     1     150.453 159.211 168.203  0.00  0.00    +0.000 HD
ENDROOT
TORSDOF 0
ENDMDL
MODEL 4
REMARK VINA RESULT:    -6.648     14.947     18.300
REMARK INTER + INTRA:          -6.648
REMARK INTER:                  -6.648
REMARK INTRA:                   0.000
REMARK UNBOUND:                 0.000
REMARK  Name = /home/vital/Documents/PhD_2021/Malaria_codes/scripts/../data/pdbqt_ligands/ligand_11_temp.pdb
REMARK                            x       y       z     vdW  Elec       q    Type
REMARK                         _______ _______ _______ _____ _____    ______ ____
ROOT
ATOM      1  O   UNL     1     149.535 156.650 165.831  0.00  0.00    -0.389 OA
ATOM      2  C   UNL     1     150.720 156.389 166.597  0.00  0.00    +0.083 C 
ATOM      3  CA  UNL     1     151.164 157.676 167.299  0.00  0.00    +0.049 C 
ATOM      4  C   UNL     1     152.405 157.761 167.834  0.00  0.00    +0.038 C 
ATOM      5 CL   UNL     1     153.462 156.350 167.806  0.00  0.00    -0.087 Cl
ATOM      6  C   UNL     1     153.105 158.918 168.520  0.00  0.00    -0.008 C 
ATOM      7  C   UNL     1     152.541 160.347 168.445  0.00  0.00    -0.004 C 
ATOM      8  C   UNL     1     151.031 160.352 168.820  0.00  0.00    +0.010 C 
ATOM      9  C   UNL     1     150.135 159.964 167.643  0.00  0.00    +0.096 C 
ATOM     10  N   UNL     1     149.343 160.739 166.966  0.00  0.00    -0.254 N 
ATOM     11  C   UNL     1     149.252 162.189 167.119  0.00  0.00    +0.104 C 
ATOM     12  N   UNL     1     149.979 162.999 166.109  0.00  0.00    -0.325 N 
ATOM     13  C   UNL     1     151.312 162.540 165.945  0.00  0.00    +0.029 A 
ATOM     14  C   UNL     1     151.755 162.011 164.732  0.00  0.00    -0.041 A 
ATOM     15  C   UNL     1     152.787 161.071 164.739  0.00  0.00    -0.060 A 
ATOM     16  C   UNL     1     153.230 160.559 165.959  0.00  0.00    -0.058 A 
ATOM     17  C   UNL     1     152.752 161.123 167.145  0.00  0.00    -0.042 A 
ATOM     18  C   UNL     1     152.075 162.337 167.082  0.00  0.00    -0.037 A 
ATOM     19  N   UNL     1     150.179 158.654 167.250  0.00  0.00    -0.304 N 
ATOM     20  H   UNL     1     149.252 155.836 165.385  0.00  0.00    +0.000 HD
ATOM     21  H   UNL     1     148.757 160.317 166.297  0.00  0.00    +0.000 HD
ATOM     22  H   UNL     1     149.587 163.756 165.616  0.00  0.00    +0.000 HD
ATOM     23  H   UNL     1     149.337 158.340 166.848  0.00  0.00    +0.000 HD
ENDROOT
TORSDOF 0
ENDMDL
MODEL 5
REMARK VINA RESULT:    -6.622     16.013     19.164
REMARK INTER + INTRA:          -6.622
REMARK INTER:                  -6.622
REMARK INTRA:                   0.000
REMARK UNBOUND:                 0.000
REMARK  Name = /home/vital/Documents/PhD_2021/Malaria_codes/scripts/../data/pdbqt_ligands/ligand_11_temp.pdb
REMARK                            x       y       z     vdW  Elec       q    Type
REMARK                         _______ _______ _______ _____ _____    ______ ____
ROOT
ATOM      1  O   UNL     1     150.529 157.188 167.909  0.00  0.00    -0.389 OA
ATOM      2  C   UNL     1     151.374 157.458 166.781  0.00  0.00    +0.083 C 
ATOM      3  CA  UNL     1     151.882 158.901 166.862  0.00  0.00    +0.049 C 
ATOM      4  C   UNL     1     152.446 159.481 165.776  0.00  0.00    +0.038 C 
ATOM      5 CL   UNL     1     152.684 158.532 164.309  0.00  0.00    -0.087 Cl
ATOM      6  C   UNL     1     152.969 160.889 165.571  0.00  0.00    -0.008 C 
ATOM      7  C   UNL     1     152.646 162.012 166.573  0.00  0.00    -0.004 C 
ATOM      8  C   UNL     1     152.954 161.545 168.025  0.00  0.00    +0.010 C 
ATOM      9  C   UNL     1     151.818 160.717 168.626  0.00  0.00    +0.096 C 
ATOM     10  N   UNL     1     150.995 161.072 169.566  0.00  0.00    -0.254 N 
ATOM     11  C   UNL     1     150.914 162.407 170.151  0.00  0.00    +0.104 C 
ATOM     12  N   UNL     1     149.818 163.275 169.648  0.00  0.00    -0.325 N 
ATOM     13  C   UNL     1     149.783 163.288 168.229  0.00  0.00    +0.029 A 
ATOM     14  C   UNL     1     148.688 162.787 167.524  0.00  0.00    -0.041 A 
ATOM     15  C   UNL     1     148.885 162.271 166.243  0.00  0.00    -0.060 A 
ATOM     16  C   UNL     1     150.188 162.112 165.768  0.00  0.00    -0.058 A 
ATOM     17  C   UNL     1     151.250 162.630 166.515  0.00  0.00    -0.042 A 
ATOM     18  C   UNL     1     150.968 163.516 167.551  0.00  0.00    -0.037 A 
ATOM     19  N   UNL     1     151.638 159.463 168.109  0.00  0.00    -0.304 N 
ATOM     20  H   UNL     1     150.206 156.274 167.860  0.00  0.00    +0.000 HD
ATOM     21  H   UNL     1     150.378 160.387 169.911  0.00  0.00    +0.000 HD
ATOM     22  H   UNL     1     149.197 163.776 170.224  0.00  0.00    +0.000 HD
ATOM     23  H   UNL     1     151.257 158.825 168.755  0.00  0.00    +0.000 HD
ENDROOT
TORSDOF 0
ENDMDL
MODEL 6
REMARK VINA RESULT:    -6.241      2.603      3.567
REMARK INTER + INTRA:          -6.241
REMARK INTER:                  -6.241
REMARK INTRA:                   0.000
REMARK UNBOUND:                 0.000
REMARK  Name = /home/vital/Documents/PhD_2021/Malaria_codes/scripts/../data/pdbqt_ligands/ligand_11_temp.pdb
REMARK                            x       y       z     vdW  Elec       q    Type
REMARK                         _______ _______ _______ _____ _____    ______ ____
ROOT
ATOM      1  O   UNL     1     142.505 146.989 162.879  0.00  0.00    -0.389 OA
ATOM      2  C   UNL     1     142.534 147.182 164.301  0.00  0.00    +0.083 C 
ATOM      3  CA  UNL     1     143.353 146.061 164.948  0.00  0.00    +0.049 C 
ATOM      4  C   UNL     1     143.280 145.857 166.285  0.00  0.00    +0.038 C 
ATOM      5 CL   UNL     1     142.320 146.950 167.280  0.00  0.00    -0.087 Cl
ATOM      6  C   UNL     1     143.929 144.799 167.156  0.00  0.00    -0.008 C 
ATOM      7  C   UNL     1     144.592 143.556 166.539  0.00  0.00    -0.004 C 
ATOM      8  C   UNL     1     145.573 143.974 165.405  0.00  0.00    +0.010 C 
ATOM      9  C   UNL     1     144.857 144.220 164.076  0.00  0.00    +0.096 C 
ATOM     10  N   UNL     1     144.901 143.482 163.008  0.00  0.00    -0.254 N 
ATOM     11  C   UNL     1     145.552 142.179 162.913  0.00  0.00    +0.104 C 
ATOM     12  N   UNL     1     144.660 140.995 163.005  0.00  0.00    -0.325 N 
ATOM     13  C   UNL     1     143.783 141.098 164.116  0.00  0.00    +0.029 A 
ATOM     14  C   UNL     1     142.401 141.181 163.946  0.00  0.00    -0.041 A 
ATOM     15  C   UNL     1     141.638 141.846 164.907  0.00  0.00    -0.060 A 
ATOM     16  C   UNL     1     142.288 142.555 165.918  0.00  0.00    -0.058 A 
ATOM     17  C   UNL     1     143.675 142.439 166.043  0.00  0.00    -0.042 A 
ATOM     18  C   UNL     1     144.326 141.424 165.346  0.00  0.00    -0.037 A 
ATOM     19  N   UNL     1     144.073 145.339 164.005  0.00  0.00    -0.304 N 
ATOM     20  H   UNL     1     141.987 147.698 162.467  0.00  0.00    +0.000 HD
ATOM     21  H   UNL     1     144.460 143.829 162.199  0.00  0.00    +0.000 HD
ATOM     22  H   UNL     1     144.675 140.237 162.377  0.00  0.00    +0.000 HD
ATOM     23  H   UNL     1     144.004 145.710 163.095  0.00  0.00    +0.000 HD
ENDROOT
TORSDOF 0
ENDMDL
MODEL 7
REMARK VINA RESULT:    -6.110     17.865     19.495
REMARK INTER + INTRA:          -6.110
REMARK INTER:                  -6.110
REMARK INTRA:                   0.000
REMARK UNBOUND:                 0.000
REMARK  Name = /home/vital/Documents/PhD_2021/Malaria_codes/scripts/../data/pdbqt_ligands/ligand_11_temp.pdb
REMARK                            x       y       z     vdW  Elec       q    Type
REMARK                         _______ _______ _______ _____ _____    ______ ____
ROOT
ATOM      1  O   UNL     1     147.984 163.110 167.316  0.00  0.00    -0.389 OA
ATOM      2  C   UNL     1     148.541 162.452 166.170  0.00  0.00    +0.083 C 
ATOM      3  CA  UNL     1     149.634 161.479 166.624  0.00  0.00    +0.049 C 
ATOM      4  C   UNL     1     150.501 160.967 165.719  0.00  0.00    +0.038 C 
ATOM      5 CL   UNL     1     150.298 161.345 164.010  0.00  0.00    -0.087 Cl
ATOM      6  C   UNL     1     151.691 160.046 165.908  0.00  0.00    -0.008 C 
ATOM      7  C   UNL     1     152.274 159.774 167.305  0.00  0.00    -0.004 C 
ATOM      8  C   UNL     1     151.142 159.375 168.295  0.00  0.00    +0.010 C 
ATOM      9  C   UNL     1     150.409 160.591 168.865  0.00  0.00    +0.096 C 
ATOM     10  N   UNL     1     150.472 161.052 170.078  0.00  0.00    -0.254 N 
ATOM     11  C   UNL     1     151.374 160.564 171.117  0.00  0.00    +0.104 C 
ATOM     12  N   UNL     1     152.596 161.374 171.353  0.00  0.00    -0.325 N 
ATOM     13  C   UNL     1     153.261 161.669 170.135  0.00  0.00    +0.029 A 
ATOM     14  C   UNL     1     153.396 162.980 169.679  0.00  0.00    -0.041 A 
ATOM     15  C   UNL     1     153.491 163.215 168.306  0.00  0.00    -0.060 A 
ATOM     16  C   UNL     1     153.278 162.157 167.421  0.00  0.00    -0.058 A 
ATOM     17  C   UNL     1     153.147 160.862 167.930  0.00  0.00    -0.042 A 
ATOM     18  C   UNL     1     153.501 160.627 169.256  0.00  0.00    -0.037 A 
ATOM     19  N   UNL     1     149.604 161.279 167.999  0.00  0.00    -0.304 N 
ATOM     20  H   UNL     1     147.291 163.727 167.031  0.00  0.00    +0.000 HD
ATOM     21  H   UNL     1     149.863 161.788 170.315  0.00  0.00    +0.000 HD
ATOM     22  H   UNL     1     152.905 161.668 172.241  0.00  0.00    +0.000 HD
ATOM     23  H   UNL     1     148.846 161.724 168.441  0.00  0.00    +0.000 HD
ENDROOT
TORSDOF 0
ENDMDL
MODEL 8
REMARK VINA RESULT:    -5.732     17.276     19.291
REMARK INTER + INTRA:          -5.732
REMARK INTER:                  -5.732
REMARK INTRA:                   0.000
REMARK UNBOUND:                 0.000
REMARK  Name = /home/vital/Documents/PhD_2021/Malaria_codes/scripts/../data/pdbqt_ligands/ligand_11_temp.pdb
REMARK                            x       y       z     vdW  Elec       q    Type
REMARK                         _______ _______ _______ _____ _____    ______ ____
ROOT
ATOM      1  O   UNL     1     151.377 162.582 163.090  0.00  0.00    -0.389 OA
ATOM      2  C   UNL     1     151.519 161.154 163.108  0.00  0.00    +0.083 C 
ATOM      3  CA  UNL     1     151.206 160.631 164.514  0.00  0.00    +0.049 C 
ATOM      4  C   UNL     1     151.554 159.369 164.858  0.00  0.00    +0.038 C 
ATOM      5 CL   UNL     1     152.273 158.306 163.650  0.00  0.00    -0.087 Cl
ATOM      6  C   UNL     1     151.416 158.634 166.177  0.00  0.00    -0.008 C 
ATOM      7  C   UNL     1     151.083 159.387 167.477  0.00  0.00    -0.004 C 
ATOM      8  C   UNL     1     149.852 160.314 167.263  0.00  0.00    +0.010 C 
ATOM      9  C   UNL     1     150.230 161.648 166.617  0.00  0.00    +0.096 C 
ATOM     10  N   UNL     1     150.246 162.819 167.179  0.00  0.00    -0.254 N 
ATOM     11  C   UNL     1     150.027 163.073 168.600  0.00  0.00    +0.104 C 
ATOM     12  N   UNL     1     151.246 163.292 169.419  0.00  0.00    -0.325 N 
ATOM     13  C   UNL     1     152.215 162.283 169.179  0.00  0.00    +0.029 A 
ATOM     14  C   UNL     1     153.456 162.586 168.618  0.00  0.00    -0.041 A 
ATOM     15  C   UNL     1     154.119 161.611 167.871  0.00  0.00    -0.060 A 
ATOM     16  C   UNL     1     153.452 160.425 167.560  0.00  0.00    -0.058 A 
ATOM     17  C   UNL     1     152.209 160.172 168.147  0.00  0.00    -0.042 A 
ATOM     18  C   UNL     1     151.803 160.963 169.219  0.00  0.00    -0.037 A 
ATOM     19  N   UNL     1     150.604 161.604 165.302  0.00  0.00    -0.304 N 
ATOM     20  H   UNL     1     151.574 162.916 162.201  0.00  0.00    +0.000 HD
ATOM     21  H   UNL     1     150.420 163.597 166.601  0.00  0.00    +0.000 HD
ATOM     22  H   UNL     1     151.366 164.040 170.049  0.00  0.00    +0.000 HD
ATOM     23  H   UNL     1     150.406 162.435 164.812  0.00  0.00    +0.000 HD
ENDROOT
TORSDOF 0
ENDMDL
