MODEL 1
REMARK VINA RESULT:    -7.763      0.000      0.000
REMARK INTER + INTRA:          -7.763
REMARK INTER:                  -7.763
REMARK INTRA:                   0.000
REMARK UNBOUND:                 0.000
REMARK  Name = /home/vital/Documents/PhD_2021/Malaria_codes/scripts/../data/pdbqt_ligands/ligand_464_temp.pdb
REMARK                            x       y       z     vdW  Elec       q    Type
REMARK                         _______ _______ _______ _____ _____    ______ ____
ROOT
ATOM      1  N   UNL     1     141.746 148.394 163.705  0.00  0.00    +0.380 N 
ATOM      2  C   UNL     1     141.262 148.099 162.329  0.00  0.00    -0.072 C 
ATOM      3  C   UNL     1     141.298 146.590 162.100  0.00  0.00    +0.032 C 
ATOM      4  O   UNL     1     140.554 146.002 163.172  0.00  0.00    -0.379 OA
ATOM      5  C   UNL     1     141.240 144.954 163.866  0.00  0.00    +0.071 C 
ATOM      6  C   UNL     1     141.044 145.188 165.364  0.00  0.00    +0.071 C 
ATOM      7  O   UNL     1     141.574 146.496 165.689  0.00  0.00    -0.376 OA
ATOM      8  C   UNL     1     141.552 146.753 167.107  0.00  0.00    +0.063 C 
ATOM      9  C   UNL     1     142.636 146.000 167.906  0.00  0.00    +0.034 C 
ATOM     10  N   UNL     1     144.004 146.542 167.715  0.00  0.00    -0.326 N 
ATOM     11  C   UNL     1     144.484 146.318 166.404  0.00  0.00    +0.130 A 
ATOM     12  N   UNL     1     144.639 145.043 166.022  0.00  0.00    -0.212 NA
ATOM     13  C   UNL     1     145.070 144.828 164.768  0.00  0.00    +0.162 A 
ATOM     14  C   UNL     1     145.197 143.431 164.308  0.00  0.00    +0.019 A 
ATOM     15  C   UNL     1     144.916 142.344 165.159  0.00  0.00    -0.051 A 
ATOM     16  C   UNL     1     145.030 141.022 164.718  0.00  0.00    -0.061 A 
ATOM     17  C   UNL     1     145.430 140.754 163.414  0.00  0.00    -0.062 A 
ATOM     18  C   UNL     1     145.720 141.805 162.551  0.00  0.00    -0.061 A 
ATOM     19  C   UNL     1     145.604 143.126 162.994  0.00  0.00    -0.051 A 
ATOM     20  N   UNL     1     145.326 145.804 163.876  0.00  0.00    -0.227 NA
ATOM     21  C   UNL     1     145.223 147.067 164.290  0.00  0.00    +0.077 A 
ATOM     22  C   UNL     1     145.543 148.090 163.405  0.00  0.00    -0.036 A 
ATOM     23  C   UNL     1     145.435 149.438 163.765  0.00  0.00    -0.060 A 
ATOM     24  C   UNL     1     144.996 149.780 165.038  0.00  0.00    -0.061 A 
ATOM     25  C   UNL     1     144.669 148.769 165.940  0.00  0.00    -0.049 A 
ATOM     26  C   UNL     1     144.780 147.405 165.572  0.00  0.00    +0.040 A 
ATOM     27  H   UNL     1     141.724 149.401 163.864  0.00  0.00    +0.000 HD
ATOM     28  H   UNL     1     142.702 148.054 163.810  0.00  0.00    +0.000 HD
ATOM     29  H   UNL     1     141.144 147.929 164.384  0.00  0.00    +0.000 HD
ATOM     30  H   UNL     1     144.516 147.003 168.418  0.00  0.00    +0.000 HD
ENDROOT
TORSDOF 0
ENDMDL
MODEL 2
REMARK VINA RESULT:    -7.732     14.369     17.092
REMARK INTER + INTRA:          -7.732
REMARK INTER:                  -7.732
REMARK INTRA:                   0.000
REMARK UNBOUND:                 0.000
REMARK  Name = /home/vital/Documents/PhD_2021/Malaria_codes/scripts/../data/pdbqt_ligands/ligand_464_temp.pdb
REMARK                            x       y       z     vdW  Elec       q    Type
REMARK                         _______ _______ _______ _____ _____    ______ ____
ROOT
ATOM      1  N   UNL     1     150.728 162.165 169.150  0.00  0.00    +0.380 N 
ATOM      2  C   UNL     1     150.287 163.542 168.796  0.00  0.00    -0.072 C 
ATOM      3  C   UNL     1     149.707 163.532 167.385  0.00  0.00    +0.032 C 
ATOM      4  O   UNL     1     148.694 162.521 167.372  0.00  0.00    -0.379 OA
ATOM      5  C   UNL     1     148.813 161.575 166.304  0.00  0.00    +0.071 C 
ATOM      6  C   UNL     1     148.603 160.182 166.898  0.00  0.00    +0.071 C 
ATOM      7  O   UNL     1     149.602 159.974 167.925  0.00  0.00    -0.376 OA
ATOM      8  C   UNL     1     149.566 158.633 168.453  0.00  0.00    +0.063 C 
ATOM      9  C   UNL     1     150.160 157.564 167.513  0.00  0.00    +0.034 C 
ATOM     10  N   UNL     1     151.640 157.607 167.418  0.00  0.00    -0.326 N 
ATOM     11  C   UNL     1     152.094 158.773 166.760  0.00  0.00    +0.130 A 
ATOM     12  N   UNL     1     151.733 158.928 165.479  0.00  0.00    -0.212 NA
ATOM     13  C   UNL     1     152.142 160.047 164.859  0.00  0.00    +0.162 A 
ATOM     14  C   UNL     1     151.710 160.265 163.464  0.00  0.00    +0.019 A 
ATOM     15  C   UNL     1     150.926 159.318 162.777  0.00  0.00    -0.051 A 
ATOM     16  C   UNL     1     150.512 159.531 161.457  0.00  0.00    -0.061 A 
ATOM     17  C   UNL     1     150.876 160.697 160.793  0.00  0.00    -0.062 A 
ATOM     18  C   UNL     1     151.654 161.648 161.443  0.00  0.00    -0.061 A 
ATOM     19  C   UNL     1     152.065 161.434 162.761  0.00  0.00    -0.051 A 
ATOM     20  N   UNL     1     152.861 161.021 165.449  0.00  0.00    -0.227 NA
ATOM     21  C   UNL     1     153.261 160.824 166.705  0.00  0.00    +0.077 A 
ATOM     22  C   UNL     1     154.057 161.788 167.313  0.00  0.00    -0.036 A 
ATOM     23  C   UNL     1     154.494 161.658 168.636  0.00  0.00    -0.060 A 
ATOM     24  C   UNL     1     154.129 160.540 169.376  0.00  0.00    -0.061 A 
ATOM     25  C   UNL     1     153.330 159.562 168.785  0.00  0.00    -0.049 A 
ATOM     26  C   UNL     1     152.890 159.698 167.445  0.00  0.00    +0.040 A 
ATOM     27  H   UNL     1     151.117 162.164 170.093  0.00  0.00    +0.000 HD
ATOM     28  H   UNL     1     151.440 161.855 168.489  0.00  0.00    +0.000 HD
ATOM     29  H   UNL     1     149.929 161.532 169.112  0.00  0.00    +0.000 HD
ATOM     30  H   UNL     1     152.235 156.906 167.772  0.00  0.00    +0.000 HD
ENDROOT
TORSDOF 0
ENDMDL
MODEL 3
REMARK VINA RESULT:    -7.690     13.219     16.200
REMARK INTER + INTRA:          -7.690
REMARK INTER:                  -7.690
REMARK INTRA:                   0.000
REMARK UNBOUND:                 0.000
REMARK  Name = /home/vital/Documents/PhD_2021/Malaria_codes/scripts/../data/pdbqt_ligands/ligand_464_temp.pdb
REMARK                            x       y       z     vdW  Elec       q    Type
REMARK                         _______ _______ _______ _____ _____    ______ ____
ROOT
ATOM      1  N   UNL     1     149.553 162.533 165.953  0.00  0.00    +0.380 N 
ATOM      2  C   UNL     1     148.157 162.158 166.311  0.00  0.00    -0.072 C 
ATOM      3  C   UNL     1     148.183 160.881 167.146  0.00  0.00    +0.032 C 
ATOM      4  O   UNL     1     149.069 161.133 168.240  0.00  0.00    -0.379 OA
ATOM      5  C   UNL     1     150.084 160.139 168.424  0.00  0.00    +0.071 C 
ATOM      6  C   UNL     1     151.406 160.869 168.658  0.00  0.00    +0.071 C 
ATOM      7  O   UNL     1     151.667 161.710 167.508  0.00  0.00    -0.376 OA
ATOM      8  C   UNL     1     152.962 162.340 167.580  0.00  0.00    +0.063 C 
ATOM      9  C   UNL     1     154.146 161.394 167.288  0.00  0.00    +0.034 C 
ATOM     10  N   UNL     1     154.279 161.028 165.857  0.00  0.00    -0.326 N 
ATOM     11  C   UNL     1     153.213 160.208 165.419  0.00  0.00    +0.130 A 
ATOM     12  N   UNL     1     153.092 159.006 165.999  0.00  0.00    -0.212 NA
ATOM     13  C   UNL     1     152.065 158.236 165.604  0.00  0.00    +0.162 A 
ATOM     14  C   UNL     1     151.881 156.930 166.268  0.00  0.00    +0.019 A 
ATOM     15  C   UNL     1     152.770 156.474 167.261  0.00  0.00    -0.051 A 
ATOM     16  C   UNL     1     152.588 155.240 167.894  0.00  0.00    -0.061 A 
ATOM     17  C   UNL     1     151.512 154.430 167.546  0.00  0.00    -0.062 A 
ATOM     18  C   UNL     1     150.620 154.850 166.565  0.00  0.00    -0.061 A 
ATOM     19  C   UNL     1     150.804 156.085 165.936  0.00  0.00    -0.051 A 
ATOM     20  N   UNL     1     151.147 158.606 164.690  0.00  0.00    -0.227 NA
ATOM     21  C   UNL     1     151.316 159.780 164.081  0.00  0.00    +0.077 A 
ATOM     22  C   UNL     1     150.416 160.154 163.090  0.00  0.00    -0.036 A 
ATOM     23  C   UNL     1     150.518 161.382 162.425  0.00  0.00    -0.060 A 
ATOM     24  C   UNL     1     151.542 162.262 162.755  0.00  0.00    -0.061 A 
ATOM     25  C   UNL     1     152.454 161.905 163.747  0.00  0.00    -0.049 A 
ATOM     26  C   UNL     1     152.346 160.661 164.417  0.00  0.00    +0.040 A 
ATOM     27  H   UNL     1     149.543 163.386 165.394  0.00  0.00    +0.000 HD
ATOM     28  H   UNL     1     149.981 161.779 165.415  0.00  0.00    +0.000 HD
ATOM     29  H   UNL     1     150.091 162.691 166.805  0.00  0.00    +0.000 HD
ATOM     30  H   UNL     1     155.021 161.321 165.280  0.00  0.00    +0.000 HD
ENDROOT
TORSDOF 0
ENDMDL
MODEL 4
REMARK VINA RESULT:    -7.136     13.845     17.019
REMARK INTER + INTRA:          -7.136
REMARK INTER:                  -7.136
REMARK INTRA:                   0.000
REMARK UNBOUND:                 0.000
REMARK  Name = /home/vital/Documents/PhD_2021/Malaria_codes/scripts/../data/pdbqt_ligands/ligand_464_temp.pdb
REMARK                            x       y       z     vdW  Elec       q    Type
REMARK                         _______ _______ _______ _____ _____    ______ ____
ROOT
ATOM      1  N   UNL     1     151.266 162.791 169.494  0.00  0.00    +0.380 N 
ATOM      2  C   UNL     1     150.716 162.344 170.803  0.00  0.00    -0.072 C 
ATOM      3  C   UNL     1     151.122 160.893 171.045  0.00  0.00    +0.032 C 
ATOM      4  O   UNL     1     152.545 160.843 170.908  0.00  0.00    -0.379 OA
ATOM      5  C   UNL     1     153.021 159.830 170.016  0.00  0.00    +0.071 C 
ATOM      6  C   UNL     1     154.091 160.465 169.127  0.00  0.00    +0.071 C 
ATOM      7  O   UNL     1     153.488 161.575 168.420  0.00  0.00    -0.376 OA
ATOM      8  C   UNL     1     154.389 162.157 167.455  0.00  0.00    +0.063 C 
ATOM      9  C   UNL     1     154.582 161.313 166.178  0.00  0.00    +0.034 C 
ATOM     10  N   UNL     1     153.413 161.334 165.266  0.00  0.00    -0.326 N 
ATOM     11  C   UNL     1     152.298 160.663 165.820  0.00  0.00    +0.130 A 
ATOM     12  N   UNL     1     152.434 159.353 166.061  0.00  0.00    -0.212 NA
ATOM     13  C   UNL     1     151.384 158.720 166.612  0.00  0.00    +0.162 A 
ATOM     14  C   UNL     1     151.531 157.286 166.936  0.00  0.00    +0.019 A 
ATOM     15  C   UNL     1     152.715 156.581 166.647  0.00  0.00    -0.051 A 
ATOM     16  C   UNL     1     152.853 155.225 166.963  0.00  0.00    -0.061 A 
ATOM     17  C   UNL     1     151.807 154.542 167.574  0.00  0.00    -0.062 A 
ATOM     18  C   UNL     1     150.624 155.210 167.867  0.00  0.00    -0.061 A 
ATOM     19  C   UNL     1     150.489 156.565 167.551  0.00  0.00    -0.051 A 
ATOM     20  N   UNL     1     150.230 159.322 166.955  0.00  0.00    -0.227 NA
ATOM     21  C   UNL     1     150.090 160.613 166.654  0.00  0.00    +0.077 A 
ATOM     22  C   UNL     1     148.883 161.240 166.942  0.00  0.00    -0.036 A 
ATOM     23  C   UNL     1     148.674 162.598 166.675  0.00  0.00    -0.060 A 
ATOM     24  C   UNL     1     149.693 163.354 166.109  0.00  0.00    -0.061 A 
ATOM     25  C   UNL     1     150.911 162.745 165.813  0.00  0.00    -0.049 A 
ATOM     26  C   UNL     1     151.118 161.369 166.085  0.00  0.00    +0.040 A 
ATOM     27  H   UNL     1     150.999 163.761 169.326  0.00  0.00    +0.000 HD
ATOM     28  H   UNL     1     150.894 162.202 168.749  0.00  0.00    +0.000 HD
ATOM     29  H   UNL     1     152.284 162.716 169.510  0.00  0.00    +0.000 HD
ATOM     30  H   UNL     1     153.413 161.763 164.380  0.00  0.00    +0.000 HD
ENDROOT
TORSDOF 0
ENDMDL
MODEL 5
REMARK VINA RESULT:    -7.003     13.651     16.849
REMARK INTER + INTRA:          -7.003
REMARK INTER:                  -7.003
REMARK INTRA:                   0.000
REMARK UNBOUND:                 0.000
REMARK  Name = /home/vital/Documents/PhD_2021/Malaria_codes/scripts/../data/pdbqt_ligands/ligand_464_temp.pdb
REMARK                            x       y       z     vdW  Elec       q    Type
REMARK                         _______ _______ _______ _____ _____    ______ ____
ROOT
ATOM      1  N   UNL     1     153.366 162.834 167.595  0.00  0.00    +0.380 N 
ATOM      2  C   UNL     1     154.769 162.376 167.786  0.00  0.00    -0.072 C 
ATOM      3  C   UNL     1     154.935 160.997 167.152  0.00  0.00    +0.032 C 
ATOM      4  O   UNL     1     154.490 161.120 165.798  0.00  0.00    -0.379 OA
ATOM      5  C   UNL     1     153.527 160.138 165.398  0.00  0.00    +0.071 C 
ATOM      6  C   UNL     1     152.418 160.865 164.637  0.00  0.00    +0.071 C 
ATOM      7  O   UNL     1     151.846 161.862 165.518  0.00  0.00    -0.376 OA
ATOM      8  C   UNL     1     150.700 162.511 164.931  0.00  0.00    +0.063 C 
ATOM      9  C   UNL     1     149.422 161.647 164.909  0.00  0.00    +0.034 C 
ATOM     10  N   UNL     1     148.789 161.485 166.240  0.00  0.00    -0.326 N 
ATOM     11  C   UNL     1     149.582 160.704 167.113  0.00  0.00    +0.130 A 
ATOM     12  N   UNL     1     149.804 159.431 166.758  0.00  0.00    -0.212 NA
ATOM     13  C   UNL     1     150.579 158.695 167.572  0.00  0.00    +0.162 A 
ATOM     14  C   UNL     1     150.881 157.306 167.173  0.00  0.00    +0.019 A 
ATOM     15  C   UNL     1     150.349 156.742 165.997  0.00  0.00    -0.051 A 
ATOM     16  C   UNL     1     150.643 155.428 165.618  0.00  0.00    -0.061 A 
ATOM     17  C   UNL     1     151.477 154.645 166.409  0.00  0.00    -0.062 A 
ATOM     18  C   UNL     1     152.014 155.172 167.578  0.00  0.00    -0.061 A 
ATOM     19  C   UNL     1     151.719 156.485 167.954  0.00  0.00    -0.051 A 
ATOM     20  N   UNL     1     151.159 159.163 168.694  0.00  0.00    -0.227 NA
ATOM     21  C   UNL     1     150.881 160.413 169.062  0.00  0.00    +0.077 A 
ATOM     22  C   UNL     1     151.418 160.896 170.250  0.00  0.00    -0.036 A 
ATOM     23  C   UNL     1     151.187 162.205 170.687  0.00  0.00    -0.060 A 
ATOM     24  C   UNL     1     150.401 163.059 169.922  0.00  0.00    -0.061 A 
ATOM     25  C   UNL     1     149.853 162.594 168.728  0.00  0.00    -0.049 A 
ATOM     26  C   UNL     1     150.090 161.267 168.289  0.00  0.00    +0.040 A 
ATOM     27  H   UNL     1     153.249 163.755 168.016  0.00  0.00    +0.000 HD
ATOM     28  H   UNL     1     152.728 162.173 168.039  0.00  0.00    +0.000 HD
ATOM     29  H   UNL     1     153.159 162.887 166.597  0.00  0.00    +0.000 HD
ATOM     30  H   UNL     1     147.918 161.874 166.487  0.00  0.00    +0.000 HD
ENDROOT
TORSDOF 0
ENDMDL
MODEL 6
REMARK VINA RESULT:    -6.982      0.913      0.989
REMARK INTER + INTRA:          -6.982
REMARK INTER:                  -6.982
REMARK INTRA:                   0.000
REMARK UNBOUND:                 0.000
REMARK  Name = /home/vital/Documents/PhD_2021/Malaria_codes/scripts/../data/pdbqt_ligands/ligand_464_temp.pdb
REMARK                            x       y       z     vdW  Elec       q    Type
REMARK                         _______ _______ _______ _____ _____    ______ ____
ROOT
ATOM      1  N   UNL     1     142.075 149.044 163.196  0.00  0.00    +0.380 N 
ATOM      2  C   UNL     1     141.548 148.567 161.888  0.00  0.00    -0.072 C 
ATOM      3  C   UNL     1     141.325 147.058 161.962  0.00  0.00    +0.032 C 
ATOM      4  O   UNL     1     140.490 146.830 163.101  0.00  0.00    -0.379 OA
ATOM      5  C   UNL     1     140.985 145.840 164.011  0.00  0.00    +0.071 C 
ATOM      6  C   UNL     1     140.830 146.398 165.426  0.00  0.00    +0.071 C 
ATOM      7  O   UNL     1     141.577 147.636 165.506  0.00  0.00    -0.376 OA
ATOM      8  C   UNL     1     141.599 148.170 166.845  0.00  0.00    +0.063 C 
ATOM      9  C   UNL     1     142.536 147.420 167.814  0.00  0.00    +0.034 C 
ATOM     10  N   UNL     1     143.977 147.675 167.568  0.00  0.00    -0.326 N 
ATOM     11  C   UNL     1     144.413 147.117 166.344  0.00  0.00    +0.130 A 
ATOM     12  N   UNL     1     144.346 145.784 166.226  0.00  0.00    -0.212 NA
ATOM     13  C   UNL     1     144.735 145.254 165.054  0.00  0.00    +0.162 A 
ATOM     14  C   UNL     1     144.620 143.792 164.883  0.00  0.00    +0.019 A 
ATOM     15  C   UNL     1     144.156 142.960 165.920  0.00  0.00    -0.051 A 
ATOM     16  C   UNL     1     144.041 141.576 165.751  0.00  0.00    -0.061 A 
ATOM     17  C   UNL     1     144.390 140.990 164.539  0.00  0.00    -0.062 A 
ATOM     18  C   UNL     1     144.857 141.785 163.498  0.00  0.00    -0.061 A 
ATOM     19  C   UNL     1     144.970 143.167 163.669  0.00  0.00    -0.051 A 
ATOM     20  N   UNL     1     145.156 145.975 163.998  0.00  0.00    -0.227 NA
ATOM     21  C   UNL     1     145.271 147.294 164.152  0.00  0.00    +0.077 A 
ATOM     22  C   UNL     1     145.764 148.051 163.095  0.00  0.00    -0.036 A 
ATOM     23  C   UNL     1     145.889 149.443 163.179  0.00  0.00    -0.060 A 
ATOM     24  C   UNL     1     145.513 150.100 164.344  0.00  0.00    -0.061 A 
ATOM     25  C   UNL     1     145.017 149.359 165.416  0.00  0.00    -0.049 A 
ATOM     26  C   UNL     1     144.892 147.950 165.326  0.00  0.00    +0.040 A 
ATOM     27  H   UNL     1     142.227 150.052 163.154  0.00  0.00    +0.000 HD
ATOM     28  H   UNL     1     142.958 148.576 163.399  0.00  0.00    +0.000 HD
ATOM     29  H   UNL     1     141.401 148.832 163.932  0.00  0.00    +0.000 HD
ATOM     30  H   UNL     1     144.561 148.174 168.185  0.00  0.00    +0.000 HD
ENDROOT
TORSDOF 0
ENDMDL
MODEL 7
REMARK VINA RESULT:    -6.278      2.188      6.070
REMARK INTER + INTRA:          -6.278
REMARK INTER:                  -6.278
REMARK INTRA:                   0.000
REMARK UNBOUND:                 0.000
REMARK  Name = /home/vital/Documents/PhD_2021/Malaria_codes/scripts/../data/pdbqt_ligands/ligand_464_temp.pdb
REMARK                            x       y       z     vdW  Elec       q    Type
REMARK                         _______ _______ _______ _____ _____    ______ ____
ROOT
ATOM      1  N   UNL     1     144.049 143.329 166.101  0.00  0.00    +0.380 N 
ATOM      2  C   UNL     1     144.912 142.749 165.037  0.00  0.00    -0.072 C 
ATOM      3  C   UNL     1     144.922 143.689 163.834  0.00  0.00    +0.032 C 
ATOM      4  O   UNL     1     145.307 144.974 164.330  0.00  0.00    -0.379 OA
ATOM      5  C   UNL     1     144.431 146.043 163.954  0.00  0.00    +0.071 C 
ATOM      6  C   UNL     1     144.181 146.892 165.200  0.00  0.00    +0.071 C 
ATOM      7  O   UNL     1     143.599 146.041 166.217  0.00  0.00    -0.376 OA
ATOM      8  C   UNL     1     143.205 146.785 167.387  0.00  0.00    +0.063 C 
ATOM      9  C   UNL     1     141.922 147.623 167.206  0.00  0.00    +0.034 C 
ATOM     10  N   UNL     1     140.680 146.812 167.166  0.00  0.00    -0.326 N 
ATOM     11  C   UNL     1     140.605 146.017 165.999  0.00  0.00    +0.130 A 
ATOM     12  N   UNL     1     140.549 146.661 164.826  0.00  0.00    -0.212 NA
ATOM     13  C   UNL     1     140.504 145.906 163.715  0.00  0.00    +0.162 A 
ATOM     14  C   UNL     1     140.496 146.595 162.409  0.00  0.00    +0.019 A 
ATOM     15  C   UNL     1     140.497 148.000 162.314  0.00  0.00    -0.051 A 
ATOM     16  C   UNL     1     140.498 148.649 161.075  0.00  0.00    -0.061 A 
ATOM     17  C   UNL     1     140.496 147.907 159.899  0.00  0.00    -0.062 A 
ATOM     18  C   UNL     1     140.490 146.518 159.960  0.00  0.00    -0.061 A 
ATOM     19  C   UNL     1     140.490 145.872 161.200  0.00  0.00    -0.051 A 
ATOM     20  N   UNL     1     140.537 144.560 163.711  0.00  0.00    -0.227 NA
ATOM     21  C   UNL     1     140.534 143.935 164.888  0.00  0.00    +0.077 A 
ATOM     22  C   UNL     1     140.504 142.545 164.907  0.00  0.00    -0.036 A 
ATOM     23  C   UNL     1     140.522 141.823 166.106  0.00  0.00    -0.060 A 
ATOM     24  C   UNL     1     140.572 142.500 167.318  0.00  0.00    -0.061 A 
ATOM     25  C   UNL     1     140.602 143.893 167.321  0.00  0.00    -0.049 A 
ATOM     26  C   UNL     1     140.584 144.620 166.104  0.00  0.00    +0.040 A 
ATOM     27  H   UNL     1     144.038 142.706 166.908  0.00  0.00    +0.000 HD
ATOM     28  H   UNL     1     143.099 143.441 165.745  0.00  0.00    +0.000 HD
ATOM     29  H   UNL     1     144.416 144.239 166.379  0.00  0.00    +0.000 HD
ATOM     30  H   UNL     1     139.990 146.827 167.868  0.00  0.00    +0.000 HD
ENDROOT
TORSDOF 0
ENDMDL
