MODEL 1
REMARK VINA RESULT:    -4.243      0.000      0.000
REMARK INTER + INTRA:          -4.243
REMARK INTER:                  -4.243
REMARK INTRA:                   0.000
REMARK UNBOUND:                 0.000
REMARK  Name = /home/vital/Documents/PhD_2021/Malaria_codes/scripts/../data/pdbqt_ligands/ligand_114_temp.pdb
REMARK                            x       y       z     vdW  Elec       q    Type
REMARK                         _______ _______ _______ _____ _____    ______ ____
ROOT
ATOM      1  N1  UNL     1     155.204 162.784 167.909  0.00  0.00    -0.331 N 
ATOM      2  C1  UNL     1     154.262 161.860 168.340  0.00  0.00    +0.160 C 
ATOM      3  C2  UNL     1     154.626 160.806 169.096  0.00  0.00    -0.012 C 
ATOM      4  C3  UNL     1     153.697 159.712 169.548  0.00  0.00    +0.041 C 
ATOM      5  N2  UNL     1     152.410 159.834 168.856  0.00  0.00    -0.264 N 
ATOM      6  C4  UNL     1     152.327 159.058 167.681  0.00  0.00    +0.135 A 
ATOM      7  C5  UNL     1     152.510 157.683 167.734  0.00  0.00    +0.049 A 
ATOM      8  C6  UNL     1     152.416 156.903 166.581  0.00  0.00    +0.048 A 
ATOM      9  N3  UNL     1     152.675 155.521 166.629  0.00  0.00    -0.341 N 
ATOM     10  C7  UNL     1     152.565 154.827 167.920  0.00  0.00    +0.032 C 
ATOM     11  C8  UNL     1     152.717 153.317 167.690  0.00  0.00    +0.060 C 
ATOM     12  O1  UNL     1     151.695 152.869 166.797  0.00  0.00    -0.393 OA
ATOM     13  C9  UNL     1     152.208 157.571 165.348  0.00  0.00    +0.022 A 
ATOM     14  C10 UNL     1     152.181 156.916 164.093  0.00  0.00    -0.051 A 
ATOM     15  C11 UNL     1     151.951 157.619 162.912  0.00  0.00    -0.061 A 
ATOM     16  C12 UNL     1     151.748 158.990 162.963  0.00  0.00    -0.060 A 
ATOM     17  C13 UNL     1     151.787 159.649 164.192  0.00  0.00    -0.036 A 
ATOM     18  C14 UNL     1     152.021 158.972 165.383  0.00  0.00    +0.075 A 
ATOM     19  N4  UNL     1     152.072 159.696 166.521  0.00  0.00    -0.231 NA
ATOM     20  C15 UNL     1     151.941 161.211 168.617  0.00  0.00    +0.230 C 
ATOM     21 CL1  UNL     1     151.576 161.933 170.231  0.00  0.00    -0.058 Cl
ATOM     22  O2  UNL     1     152.892 161.982 167.875  0.00  0.00    -0.497 OA
ATOM     23 CL2  UNL     1     152.384 163.542 167.479  0.00  0.00    +0.098 Cl
ATOM     24  H   UNL     1     156.137 162.714 168.216  0.00  0.00    +0.000 HD
ATOM     25  H   UNL     1     154.939 163.509 167.297  0.00  0.00    +0.000 HD
ATOM     26  H   UNL     1     152.925 155.028 165.814  0.00  0.00    +0.000 HD
ATOM     27  H   UNL     1     150.825 153.052 167.183  0.00  0.00    +0.000 HD
ENDROOT
TORSDOF 0
ENDMDL
MODEL 2
REMARK VINA RESULT:    -3.981      4.148      6.428
REMARK INTER + INTRA:          -3.981
REMARK INTER:                  -3.981
REMARK INTRA:                   0.000
REMARK UNBOUND:                 0.000
REMARK  Name = /home/vital/Documents/PhD_2021/Malaria_codes/scripts/../data/pdbqt_ligands/ligand_114_temp.pdb
REMARK                            x       y       z     vdW  Elec       q    Type
REMARK                         _______ _______ _______ _____ _____    ______ ____
ROOT
ATOM      1  N1  UNL     1     149.375 160.565 166.760  0.00  0.00    -0.331 N 
ATOM      2  C1  UNL     1     150.247 160.565 165.680  0.00  0.00    +0.160 C 
ATOM      3  C2  UNL     1     150.022 161.357 164.614  0.00  0.00    -0.012 C 
ATOM      4  C3  UNL     1     150.864 161.376 163.366  0.00  0.00    +0.041 C 
ATOM      5  N2  UNL     1     151.808 160.253 163.386  0.00  0.00    -0.264 N 
ATOM      6  C4  UNL     1     151.326 159.102 162.727  0.00  0.00    +0.135 A 
ATOM      7  C5  UNL     1     150.956 159.162 161.390  0.00  0.00    +0.049 A 
ATOM      8  C6  UNL     1     150.493 158.027 160.724  0.00  0.00    +0.048 A 
ATOM      9  N3  UNL     1     150.051 158.110 159.391  0.00  0.00    -0.341 N 
ATOM     10  C7  UNL     1     150.516 159.232 158.562  0.00  0.00    +0.032 C 
ATOM     11  C8  UNL     1     150.049 159.012 157.117  0.00  0.00    +0.060 C 
ATOM     12  O1  UNL     1     150.584 157.780 156.629  0.00  0.00    -0.393 OA
ATOM     13  C9  UNL     1     150.336 156.838 161.479  0.00  0.00    +0.022 A 
ATOM     14  C10 UNL     1     149.793 155.639 160.956  0.00  0.00    -0.051 A 
ATOM     15  C11 UNL     1     149.681 154.491 161.737  0.00  0.00    -0.061 A 
ATOM     16  C12 UNL     1     150.106 154.519 163.056  0.00  0.00    -0.060 A 
ATOM     17  C13 UNL     1     150.629 155.699 163.589  0.00  0.00    -0.036 A 
ATOM     18  C14 UNL     1     150.746 156.859 162.833  0.00  0.00    +0.075 A 
ATOM     19  N4  UNL     1     151.234 157.961 163.439  0.00  0.00    -0.231 NA
ATOM     20  C15 UNL     1     152.370 159.914 164.705  0.00  0.00    +0.230 C 
ATOM     21 CL1  UNL     1     153.415 161.297 165.206  0.00  0.00    -0.058 Cl
ATOM     22  O2  UNL     1     151.350 159.621 165.666  0.00  0.00    -0.497 OA
ATOM     23 CL2  UNL     1     151.920 159.129 167.176  0.00  0.00    +0.098 Cl
ATOM     24  H   UNL     1     148.622 161.199 166.785  0.00  0.00    +0.000 HD
ATOM     25  H   UNL     1     149.508 159.930 167.501  0.00  0.00    +0.000 HD
ATOM     26  H   UNL     1     149.443 157.430 159.020  0.00  0.00    +0.000 HD
ATOM     27  H   UNL     1     151.552 157.814 156.656  0.00  0.00    +0.000 HD
ENDROOT
TORSDOF 0
ENDMDL
MODEL 3
REMARK VINA RESULT:    -3.821      3.397      5.815
REMARK INTER + INTRA:          -3.821
REMARK INTER:                  -3.821
REMARK INTRA:                   0.000
REMARK UNBOUND:                 0.000
REMARK  Name = /home/vital/Documents/PhD_2021/Malaria_codes/scripts/../data/pdbqt_ligands/ligand_114_temp.pdb
REMARK                            x       y       z     vdW  Elec       q    Type
REMARK                         _______ _______ _______ _____ _____    ______ ____
ROOT
ATOM      1  N1  UNL     1     147.818 161.189 167.762  0.00  0.00    -0.331 N 
ATOM      2  C1  UNL     1     148.900 161.663 167.033  0.00  0.00    +0.160 C 
ATOM      3  C2  UNL     1     148.714 162.473 165.972  0.00  0.00    -0.012 C 
ATOM      4  C3  UNL     1     149.812 162.977 165.075  0.00  0.00    +0.041 C 
ATOM      5  N2  UNL     1     151.064 162.277 165.379  0.00  0.00    -0.264 N 
ATOM      6  C4  UNL     1     151.284 161.143 164.570  0.00  0.00    +0.135 A 
ATOM      7  C5  UNL     1     151.336 161.266 163.188  0.00  0.00    +0.049 A 
ATOM      8  C6  UNL     1     151.568 160.153 162.378  0.00  0.00    +0.048 A 
ATOM      9  N3  UNL     1     151.546 160.271 160.976  0.00  0.00    -0.341 N 
ATOM     10  C7  UNL     1     151.764 161.596 160.377  0.00  0.00    +0.032 C 
ATOM     11  C8  UNL     1     151.871 161.443 158.854  0.00  0.00    +0.060 C 
ATOM     12  O1  UNL     1     152.959 160.572 158.540  0.00  0.00    -0.393 OA
ATOM     13  C9  UNL     1     151.667 158.888 163.009  0.00  0.00    +0.022 A 
ATOM     14  C10 UNL     1     151.812 157.667 162.306  0.00  0.00    -0.051 A 
ATOM     15  C11 UNL     1     151.927 156.452 162.977  0.00  0.00    -0.061 A 
ATOM     16  C12 UNL     1     151.895 156.432 164.363  0.00  0.00    -0.060 A 
ATOM     17  C13 UNL     1     151.737 157.627 165.067  0.00  0.00    -0.036 A 
ATOM     18  C14 UNL     1     151.615 158.851 164.422  0.00  0.00    +0.075 A 
ATOM     19  N4  UNL     1     151.434 159.951 165.182  0.00  0.00    -0.231 NA
ATOM     20  C15 UNL     1     151.295 161.968 166.802  0.00  0.00    +0.230 C 
ATOM     21 CL1  UNL     1     151.523 163.541 167.655  0.00  0.00    -0.058 Cl
ATOM     22  O2  UNL     1     150.232 161.189 167.362  0.00  0.00    -0.497 OA
ATOM     23 CL2  UNL     1     150.471 160.713 168.963  0.00  0.00    +0.098 Cl
ATOM     24  H   UNL     1     146.908 161.501 167.551  0.00  0.00    +0.000 HD
ATOM     25  H   UNL     1     147.960 160.540 168.489  0.00  0.00    +0.000 HD
ATOM     26  H   UNL     1     151.388 159.483 160.408  0.00  0.00    +0.000 HD
ATOM     27  H   UNL     1     153.784 160.946 158.888  0.00  0.00    +0.000 HD
ENDROOT
TORSDOF 0
ENDMDL
MODEL 4
REMARK VINA RESULT:    -3.711      2.239      2.421
REMARK INTER + INTRA:          -3.711
REMARK INTER:                  -3.711
REMARK INTRA:                   0.000
REMARK UNBOUND:                 0.000
REMARK  Name = /home/vital/Documents/PhD_2021/Malaria_codes/scripts/../data/pdbqt_ligands/ligand_114_temp.pdb
REMARK                            x       y       z     vdW  Elec       q    Type
REMARK                         _______ _______ _______ _____ _____    ______ ____
ROOT
ATOM      1  N1  UNL     1     151.819 163.542 166.569  0.00  0.00    -0.331 N 
ATOM      2  C1  UNL     1     151.159 162.362 166.883  0.00  0.00    +0.160 C 
ATOM      3  C2  UNL     1     151.540 161.620 167.941  0.00  0.00    -0.012 C 
ATOM      4  C3  UNL     1     150.939 160.293 168.319  0.00  0.00    +0.041 C 
ATOM      5  N2  UNL     1     150.056 159.822 167.247  0.00  0.00    -0.264 N 
ATOM      6  C4  UNL     1     150.699 158.971 166.323  0.00  0.00    +0.135 A 
ATOM      7  C5  UNL     1     151.302 157.796 166.753  0.00  0.00    +0.049 A 
ATOM      8  C6  UNL     1     151.927 156.940 165.847  0.00  0.00    +0.048 A 
ATOM      9  N3  UNL     1     152.601 155.789 166.298  0.00  0.00    -0.341 N 
ATOM     10  C7  UNL     1     152.247 155.234 167.613  0.00  0.00    +0.032 C 
ATOM     11  C8  UNL     1     152.977 153.899 167.804  0.00  0.00    +0.060 C 
ATOM     12  O1  UNL     1     152.593 152.995 166.765  0.00  0.00    -0.393 OA
ATOM     13  C9  UNL     1     151.995 157.349 164.492  0.00  0.00    +0.022 A 
ATOM     14  C10 UNL     1     152.674 156.622 163.483  0.00  0.00    -0.051 A 
ATOM     15  C11 UNL     1     152.691 157.059 162.160  0.00  0.00    -0.061 A 
ATOM     16  C12 UNL     1     152.032 158.231 161.820  0.00  0.00    -0.060 A 
ATOM     17  C13 UNL     1     151.371 158.963 162.807  0.00  0.00    -0.036 A 
ATOM     18  C14 UNL     1     151.345 158.553 164.135  0.00  0.00    +0.075 A 
ATOM     19  N4  UNL     1     150.708 159.340 165.026  0.00  0.00    -0.231 NA
ATOM     20  C15 UNL     1     149.278 160.866 166.555  0.00  0.00    +0.230 C 
ATOM     21 CL1  UNL     1     148.102 161.528 167.753  0.00  0.00    -0.058 Cl
ATOM     22  O2  UNL     1     150.118 161.880 165.993  0.00  0.00    -0.497 OA
ATOM     23 CL2  UNL     1     149.305 163.059 165.102  0.00  0.00    +0.098 Cl
ATOM     24  H   UNL     1     152.527 163.882 167.163  0.00  0.00    +0.000 HD
ATOM     25  H   UNL     1     151.581 164.038 165.753  0.00  0.00    +0.000 HD
ATOM     26  H   UNL     1     153.294 155.363 165.744  0.00  0.00    +0.000 HD
ATOM     27  H   UNL     1     151.635 152.850 166.801  0.00  0.00    +0.000 HD
ENDROOT
TORSDOF 0
ENDMDL
MODEL 5
REMARK VINA RESULT:    -3.707     14.306     17.027
REMARK INTER + INTRA:          -3.707
REMARK INTER:                  -3.707
REMARK INTRA:                   0.000
REMARK UNBOUND:                 0.000
REMARK  Name = /home/vital/Documents/PhD_2021/Malaria_codes/scripts/../data/pdbqt_ligands/ligand_114_temp.pdb
REMARK                            x       y       z     vdW  Elec       q    Type
REMARK                         _______ _______ _______ _____ _____    ______ ____
ROOT
ATOM      1  N1  UNL     1     141.484 149.539 164.672  0.00  0.00    -0.331 N 
ATOM      2  C1  UNL     1     142.598 148.735 164.874  0.00  0.00    +0.160 C 
ATOM      3  C2  UNL     1     143.323 148.288 163.831  0.00  0.00    -0.012 C 
ATOM      4  C3  UNL     1     144.498 147.354 163.941  0.00  0.00    +0.041 C 
ATOM      5  N2  UNL     1     144.586 146.823 165.305  0.00  0.00    -0.264 N 
ATOM      6  C4  UNL     1     143.926 145.588 165.471  0.00  0.00    +0.135 A 
ATOM      7  C5  UNL     1     144.282 144.491 164.698  0.00  0.00    +0.049 A 
ATOM      8  C6  UNL     1     143.646 143.261 164.864  0.00  0.00    +0.048 A 
ATOM      9  N3  UNL     1     143.961 142.174 164.028  0.00  0.00    -0.341 N 
ATOM     10  C7  UNL     1     145.255 142.172 163.330  0.00  0.00    +0.032 C 
ATOM     11  C8  UNL     1     145.443 140.821 162.629  0.00  0.00    +0.060 C 
ATOM     12  O1  UNL     1     145.402 139.773 163.601  0.00  0.00    -0.393 OA
ATOM     13  C9  UNL     1     142.573 143.193 165.788  0.00  0.00    +0.022 A 
ATOM     14  C10 UNL     1     141.783 142.035 165.992  0.00  0.00    -0.051 A 
ATOM     15  C11 UNL     1     140.752 142.016 166.930  0.00  0.00    -0.061 A 
ATOM     16  C12 UNL     1     140.490 143.153 167.679  0.00  0.00    -0.060 A 
ATOM     17  C13 UNL     1     141.252 144.305 167.476  0.00  0.00    -0.036 A 
ATOM     18  C14 UNL     1     142.281 144.352 166.543  0.00  0.00    +0.075 A 
ATOM     19  N4  UNL     1     142.944 145.517 166.393  0.00  0.00    -0.231 NA
ATOM     20  C15 UNL     1     144.231 147.765 166.382  0.00  0.00    +0.230 C 
ATOM     21 CL1  UNL     1     145.493 149.055 166.393  0.00  0.00    -0.058 Cl
ATOM     22  O2  UNL     1     142.910 148.292 166.221  0.00  0.00    -0.497 OA
ATOM     23 CL2  UNL     1     142.395 149.305 167.469  0.00  0.00    +0.098 Cl
ATOM     24  H   UNL     1     141.259 149.847 163.764  0.00  0.00    +0.000 HD
ATOM     25  H   UNL     1     140.919 149.799 165.435  0.00  0.00    +0.000 HD
ATOM     26  H   UNL     1     143.327 141.429 163.912  0.00  0.00    +0.000 HD
ATOM     27  H   UNL     1     146.112 139.905 164.248  0.00  0.00    +0.000 HD
ENDROOT
TORSDOF 0
ENDMDL
MODEL 6
REMARK VINA RESULT:    -3.529      3.652      5.767
REMARK INTER + INTRA:          -3.529
REMARK INTER:                  -3.529
REMARK INTRA:                   0.000
REMARK UNBOUND:                 0.000
REMARK  Name = /home/vital/Documents/PhD_2021/Malaria_codes/scripts/../data/pdbqt_ligands/ligand_114_temp.pdb
REMARK                            x       y       z     vdW  Elec       q    Type
REMARK                         _______ _______ _______ _____ _____    ______ ____
ROOT
ATOM      1  N1  UNL     1     149.527 161.127 166.406  0.00  0.00    -0.331 N 
ATOM      2  C1  UNL     1     150.505 160.709 165.515  0.00  0.00    +0.160 C 
ATOM      3  C2  UNL     1     150.502 161.137 164.238  0.00  0.00    -0.012 C 
ATOM      4  C3  UNL     1     151.470 160.684 163.179  0.00  0.00    +0.041 C 
ATOM      5  N2  UNL     1     152.254 159.548 163.674  0.00  0.00    -0.264 N 
ATOM      6  C4  UNL     1     151.704 158.294 163.334  0.00  0.00    +0.135 A 
ATOM      7  C5  UNL     1     151.494 157.958 162.003  0.00  0.00    +0.049 A 
ATOM      8  C6  UNL     1     150.965 156.715 161.654  0.00  0.00    +0.048 A 
ATOM      9  N3  UNL     1     150.685 156.408 160.309  0.00  0.00    -0.341 N 
ATOM     10  C7  UNL     1     151.379 157.163 159.255  0.00  0.00    +0.032 C 
ATOM     11  C8  UNL     1     151.049 156.537 157.894  0.00  0.00    +0.060 C 
ATOM     12  O1  UNL     1     151.471 155.172 157.885  0.00  0.00    -0.393 OA
ATOM     13  C9  UNL     1     150.575 155.846 162.704  0.00  0.00    +0.022 A 
ATOM     14  C10 UNL     1     149.943 154.595 162.497  0.00  0.00    -0.051 A 
ATOM     15  C11 UNL     1     149.600 153.770 163.565  0.00  0.00    -0.061 A 
ATOM     16  C12 UNL     1     149.879 154.179 164.860  0.00  0.00    -0.060 A 
ATOM     17  C13 UNL     1     150.487 155.416 165.079  0.00  0.00    -0.036 A 
ATOM     18  C14 UNL     1     150.833 156.260 164.031  0.00  0.00    +0.075 A 
ATOM     19  N4  UNL     1     151.389 157.451 164.337  0.00  0.00    -0.231 NA
ATOM     20  C15 UNL     1     152.621 159.598 165.101  0.00  0.00    +0.230 C 
ATOM     21 CL1  UNL     1     153.773 160.972 165.303  0.00  0.00    -0.058 Cl
ATOM     22  O2  UNL     1     151.472 159.716 165.948  0.00  0.00    -0.497 OA
ATOM     23 CL2  UNL     1     151.806 159.682 167.601  0.00  0.00    +0.098 Cl
ATOM     24  H   UNL     1     148.863 161.800 166.128  0.00  0.00    +0.000 HD
ATOM     25  H   UNL     1     149.496 160.752 167.316  0.00  0.00    +0.000 HD
ATOM     26  H   UNL     1     150.040 155.702 160.079  0.00  0.00    +0.000 HD
ATOM     27  H   UNL     1     152.428 155.128 158.040  0.00  0.00    +0.000 HD
ENDROOT
TORSDOF 0
ENDMDL
MODEL 7
REMARK VINA RESULT:    -3.466      2.430      4.326
REMARK INTER + INTRA:          -3.466
REMARK INTER:                  -3.466
REMARK INTRA:                   0.000
REMARK UNBOUND:                 0.000
REMARK  Name = /home/vital/Documents/PhD_2021/Malaria_codes/scripts/../data/pdbqt_ligands/ligand_114_temp.pdb
REMARK                            x       y       z     vdW  Elec       q    Type
REMARK                         _______ _______ _______ _____ _____    ______ ____
ROOT
ATOM      1  N1  UNL     1     150.485 161.717 169.779  0.00  0.00    -0.331 N 
ATOM      2  C1  UNL     1     151.358 161.523 168.717  0.00  0.00    +0.160 C 
ATOM      3  C2  UNL     1     151.115 162.083 167.515  0.00  0.00    -0.012 C 
ATOM      4  C3  UNL     1     151.956 161.873 166.285  0.00  0.00    +0.041 C 
ATOM      5  N2  UNL     1     152.927 160.799 166.523  0.00  0.00    -0.264 N 
ATOM      6  C4  UNL     1     152.472 159.529 166.107  0.00  0.00    +0.135 A 
ATOM      7  C5  UNL     1     152.102 159.314 164.787  0.00  0.00    +0.049 A 
ATOM      8  C6  UNL     1     151.666 158.059 164.361  0.00  0.00    +0.048 A 
ATOM      9  N3  UNL     1     151.223 157.866 163.040  0.00  0.00    -0.341 N 
ATOM     10  C7  UNL     1     151.661 158.812 162.003  0.00  0.00    +0.032 C 
ATOM     11  C8  UNL     1     151.201 158.299 160.632  0.00  0.00    +0.060 C 
ATOM     12  O1  UNL     1     151.765 157.007 160.396  0.00  0.00    -0.393 OA
ATOM     13  C9  UNL     1     151.537 157.040 165.338  0.00  0.00    +0.022 A 
ATOM     14  C10 UNL     1     151.023 155.749 165.064  0.00  0.00    -0.051 A 
ATOM     15  C11 UNL     1     150.938 154.776 166.058  0.00  0.00    -0.061 A 
ATOM     16  C12 UNL     1     151.361 155.075 167.344  0.00  0.00    -0.060 A 
ATOM     17  C13 UNL     1     151.856 156.349 167.630  0.00  0.00    -0.036 A 
ATOM     18  C14 UNL     1     151.945 157.338 166.658  0.00  0.00    +0.075 A 
ATOM     19  N4  UNL     1     152.407 158.550 167.032  0.00  0.00    -0.231 NA
ATOM     20  C15 UNL     1     153.496 160.741 167.881  0.00  0.00    +0.230 C 
ATOM     21 CL1  UNL     1     154.508 162.220 168.093  0.00  0.00    -0.058 Cl
ATOM     22  O2  UNL     1     152.483 160.621 168.885  0.00  0.00    -0.497 OA
ATOM     23 CL2  UNL     1     153.064 160.452 170.460  0.00  0.00    +0.098 Cl
ATOM     24  H   UNL     1     149.718 162.326 169.680  0.00  0.00    +0.000 HD
ATOM     25  H   UNL     1     150.634 161.244 170.630  0.00  0.00    +0.000 HD
ATOM     26  H   UNL     1     150.631 157.112 162.813  0.00  0.00    +0.000 HD
ATOM     27  H   UNL     1     152.732 157.069 160.411  0.00  0.00    +0.000 HD
ENDROOT
TORSDOF 0
ENDMDL
MODEL 8
REMARK VINA RESULT:    -3.106     15.164     18.196
REMARK INTER + INTRA:          -3.106
REMARK INTER:                  -3.106
REMARK INTRA:                   0.000
REMARK UNBOUND:                 0.000
REMARK  Name = /home/vital/Documents/PhD_2021/Malaria_codes/scripts/../data/pdbqt_ligands/ligand_114_temp.pdb
REMARK                            x       y       z     vdW  Elec       q    Type
REMARK                         _______ _______ _______ _____ _____    ______ ____
ROOT
ATOM      1  N1  UNL     1     142.532 140.480 162.917  0.00  0.00    -0.331 N 
ATOM      2  C1  UNL     1     142.551 141.164 164.125  0.00  0.00    +0.160 C 
ATOM      3  C2  UNL     1     141.428 141.719 164.621  0.00  0.00    -0.012 C 
ATOM      4  C3  UNL     1     141.361 142.542 165.879  0.00  0.00    +0.041 C 
ATOM      5  N2  UNL     1     142.717 142.845 166.349  0.00  0.00    -0.264 N 
ATOM      6  C4  UNL     1     143.210 144.081 165.882  0.00  0.00    +0.135 A 
ATOM      7  C5  UNL     1     142.527 145.258 166.155  0.00  0.00    +0.049 A 
ATOM      8  C6  UNL     1     143.014 146.487 165.710  0.00  0.00    +0.048 A 
ATOM      9  N3  UNL     1     142.279 147.669 165.927  0.00  0.00    -0.341 N 
ATOM     10  C7  UNL     1     141.283 147.691 167.007  0.00  0.00    +0.032 C 
ATOM     11  C8  UNL     1     140.746 149.120 167.162  0.00  0.00    +0.060 C 
ATOM     12  O1  UNL     1     141.829 150.002 167.467  0.00  0.00    -0.393 OA
ATOM     13  C9  UNL     1     144.180 146.483 164.905  0.00  0.00    +0.022 A 
ATOM     14  C10 UNL     1     144.733 147.645 164.313  0.00  0.00    -0.051 A 
ATOM     15  C11 UNL     1     145.895 147.587 163.547  0.00  0.00    -0.061 A 
ATOM     16  C12 UNL     1     146.525 146.368 163.355  0.00  0.00    -0.060 A 
ATOM     17  C13 UNL     1     145.983 145.213 163.921  0.00  0.00    -0.036 A 
ATOM     18  C14 UNL     1     144.822 145.242 164.683  0.00  0.00    +0.075 A 
ATOM     19  N4  UNL     1     144.352 144.073 165.164  0.00  0.00    -0.231 NA
ATOM     20  C15 UNL     1     143.711 141.772 166.167  0.00  0.00    +0.230 C 
ATOM     21 CL1  UNL     1     143.227 140.413 167.251  0.00  0.00    -0.058 Cl
ATOM     22  O2  UNL     1     143.822 141.368 164.798  0.00  0.00    -0.497 OA
ATOM     23 CL2  UNL     1     145.011 140.209 164.496  0.00  0.00    +0.098 Cl
ATOM     24  H   UNL     1     141.678 140.334 162.449  0.00  0.00    +0.000 HD
ATOM     25  H   UNL     1     143.371 140.142 162.529  0.00  0.00    +0.000 HD
ATOM     26  H   UNL     1     142.430 148.464 165.366  0.00  0.00    +0.000 HD
ATOM     27  H   UNL     1     142.250 149.723 168.294  0.00  0.00    +0.000 HD
ENDROOT
TORSDOF 0
ENDMDL
