MODEL 1
REMARK VINA RESULT:    -4.953      0.000      0.000
REMARK INTER + INTRA:          -4.953
REMARK INTER:                  -4.953
REMARK INTRA:                   0.000
REMARK UNBOUND:                 0.000
REMARK  Name = /home/vital/Documents/PhD_2021/Malaria_codes/scripts/../data/pdbqt_ligands/ligand_107_temp.pdb
REMARK                            x       y       z     vdW  Elec       q    Type
REMARK                         _______ _______ _______ _____ _____    ______ ____
ROOT
ATOM      1  C   UNL     1     151.348 152.361 166.492  0.00  0.00    -0.080 C 
ATOM      2  C   UNL     1     151.050 152.525 165.014  0.00  0.00    -0.094 C 
ATOM      3  N   UNL     1     149.860 153.444 164.788  0.00  0.00    +0.379 N 
ATOM      4  C   UNL     1     148.555 152.967 165.411  0.00  0.00    -0.094 C 
ATOM      5  C   UNL     1     148.084 151.639 164.849  0.00  0.00    -0.080 C 
ATOM      6  C   UNL     1     149.683 153.813 163.322  0.00  0.00    -0.091 C 
ATOM      7  C   UNL     1     150.703 154.850 162.846  0.00  0.00    -0.066 C 
ATOM      8  C   UNL     1     150.550 156.225 163.518  0.00  0.00    -0.037 C 
ATOM      9  C   UNL     1     151.400 157.347 162.872  0.00  0.00    +0.018 C 
ATOM     10  C   UNL     1     152.890 156.995 162.914  0.00  0.00    -0.047 C 
ATOM     11  N   UNL     1     150.927 157.536 161.494  0.00  0.00    -0.341 N 
ATOM     12  C   UNL     1     151.527 158.531 160.680  0.00  0.00    +0.038 A 
ATOM     13  C   UNL     1     151.954 159.754 161.197  0.00  0.00    -0.022 A 
ATOM     14  C   UNL     1     152.437 160.714 160.326  0.00  0.00    +0.030 A 
ATOM     15  N   UNL     1     152.497 160.554 158.992  0.00  0.00    -0.255 NA
ATOM     16  C   UNL     1     152.054 159.401 158.474  0.00  0.00    +0.073 A 
ATOM     17  C   UNL     1     152.094 159.244 157.095  0.00  0.00    -0.024 A 
ATOM     18  C   UNL     1     151.649 158.072 156.460  0.00  0.00    +0.057 A 
ATOM     19  C   UNL     1     151.691 157.958 154.958  0.00  0.00    +0.417 C 
ATOM     20  F   UNL     1     150.573 158.466 154.372  0.00  0.00    -0.166 F 
ATOM     21  F   UNL     1     152.744 158.613 154.398  0.00  0.00    -0.166 F 
ATOM     22  F   UNL     1     151.785 156.668 154.528  0.00  0.00    -0.166 F 
ATOM     23  C   UNL     1     151.138 157.039 157.247  0.00  0.00    -0.049 A 
ATOM     24  C   UNL     1     151.091 157.175 158.634  0.00  0.00    -0.050 A 
ATOM     25  C   UNL     1     151.544 158.353 159.271  0.00  0.00    +0.021 A 
ATOM     26  H   UNL     1     150.100 154.294 165.298  0.00  0.00    +0.000 HD
ATOM     27  H   UNL     1     150.199 156.977 161.139  0.00  0.00    +0.000 HD
ENDROOT
TORSDOF 0
ENDMDL
MODEL 2
REMARK VINA RESULT:    -4.780      1.322      1.656
REMARK INTER + INTRA:          -4.780
REMARK INTER:                  -4.780
REMARK INTRA:                   0.000
REMARK UNBOUND:                 0.000
REMARK  Name = /home/vital/Documents/PhD_2021/Malaria_codes/scripts/../data/pdbqt_ligands/ligand_107_temp.pdb
REMARK                            x       y       z     vdW  Elec       q    Type
REMARK                         _______ _______ _______ _____ _____    ______ ____
ROOT
ATOM      1  C   UNL     1     150.897 153.410 166.459  0.00  0.00    -0.080 C 
ATOM      2  C   UNL     1     150.865 153.150 164.964  0.00  0.00    -0.094 C 
ATOM      3  N   UNL     1     149.628 153.756 164.323  0.00  0.00    +0.379 N 
ATOM      4  C   UNL     1     148.304 153.221 164.852  0.00  0.00    -0.094 C 
ATOM      5  C   UNL     1     148.131 151.733 164.611  0.00  0.00    -0.080 C 
ATOM      6  C   UNL     1     149.684 153.715 162.802  0.00  0.00    -0.091 C 
ATOM      7  C   UNL     1     150.628 154.770 162.218  0.00  0.00    -0.066 C 
ATOM      8  C   UNL     1     150.167 156.217 162.459  0.00  0.00    -0.037 C 
ATOM      9  C   UNL     1     150.966 157.280 161.664  0.00  0.00    +0.018 C 
ATOM     10  C   UNL     1     152.454 157.223 162.021  0.00  0.00    -0.047 C 
ATOM     11  N   UNL     1     150.742 157.037 160.233  0.00  0.00    -0.341 N 
ATOM     12  C   UNL     1     151.347 157.893 159.276  0.00  0.00    +0.038 A 
ATOM     13  C   UNL     1     151.500 159.262 159.497  0.00  0.00    -0.022 A 
ATOM     14  C   UNL     1     152.006 160.048 158.479  0.00  0.00    +0.030 A 
ATOM     15  N   UNL     1     152.340 159.580 157.263  0.00  0.00    -0.255 NA
ATOM     16  C   UNL     1     152.161 158.274 157.019  0.00  0.00    +0.073 A 
ATOM     17  C   UNL     1     152.484 157.793 155.758  0.00  0.00    -0.024 A 
ATOM     18  C   UNL     1     152.329 156.441 155.409  0.00  0.00    +0.057 A 
ATOM     19  C   UNL     1     152.670 155.971 154.017  0.00  0.00    +0.417 C 
ATOM     20  F   UNL     1     151.626 156.110 153.156  0.00  0.00    -0.166 F 
ATOM     21  F   UNL     1     153.713 156.647 153.463  0.00  0.00    -0.166 F 
ATOM     22  F   UNL     1     153.016 154.654 153.975  0.00  0.00    -0.166 F 
ATOM     23  C   UNL     1     151.821 155.558 156.362  0.00  0.00    -0.049 A 
ATOM     24  C   UNL     1     151.494 156.021 157.637  0.00  0.00    -0.050 A 
ATOM     25  C   UNL     1     151.655 157.380 157.988  0.00  0.00    +0.021 A 
ATOM     26  H   UNL     1     149.650 154.734 164.611  0.00  0.00    +0.000 HD
ATOM     27  H   UNL     1     150.176 156.286 159.940  0.00  0.00    +0.000 HD
ENDROOT
TORSDOF 0
ENDMDL
MODEL 3
REMARK VINA RESULT:    -4.486      3.125      5.574
REMARK INTER + INTRA:          -4.486
REMARK INTER:                  -4.486
REMARK INTRA:                   0.000
REMARK UNBOUND:                 0.000
REMARK  Name = /home/vital/Documents/PhD_2021/Malaria_codes/scripts/../data/pdbqt_ligands/ligand_107_temp.pdb
REMARK                            x       y       z     vdW  Elec       q    Type
REMARK                         _______ _______ _______ _____ _____    ______ ____
ROOT
ATOM      1  C   UNL     1     146.435 146.657 165.890  0.00  0.00    -0.080 C 
ATOM      2  C   UNL     1     146.524 147.535 164.656  0.00  0.00    -0.094 C 
ATOM      3  N   UNL     1     145.711 148.809 164.823  0.00  0.00    +0.379 N 
ATOM      4  C   UNL     1     144.222 148.593 165.055  0.00  0.00    -0.094 C 
ATOM      5  C   UNL     1     143.539 147.891 163.897  0.00  0.00    -0.080 C 
ATOM      6  C   UNL     1     145.967 149.811 163.705  0.00  0.00    -0.091 C 
ATOM      7  C   UNL     1     147.310 150.528 163.852  0.00  0.00    -0.066 C 
ATOM      8  C   UNL     1     147.397 151.437 165.091  0.00  0.00    -0.037 C 
ATOM      9  C   UNL     1     148.642 152.358 165.118  0.00  0.00    +0.018 C 
ATOM     10  C   UNL     1     149.931 151.533 165.082  0.00  0.00    -0.047 C 
ATOM     11  N   UNL     1     148.552 153.274 163.973  0.00  0.00    -0.341 N 
ATOM     12  C   UNL     1     149.565 154.248 163.776  0.00  0.00    +0.038 A 
ATOM     13  C   UNL     1     150.187 154.897 164.843  0.00  0.00    -0.022 A 
ATOM     14  C   UNL     1     151.093 155.906 164.572  0.00  0.00    +0.030 A 
ATOM     15  N   UNL     1     151.398 156.328 163.332  0.00  0.00    -0.255 NA
ATOM     16  C   UNL     1     150.780 155.744 162.297  0.00  0.00    +0.073 A 
ATOM     17  C   UNL     1     151.076 156.194 161.017  0.00  0.00    -0.024 A 
ATOM     18  C   UNL     1     150.478 155.645 159.871  0.00  0.00    +0.057 A 
ATOM     19  C   UNL     1     150.814 156.184 158.504  0.00  0.00    +0.417 C 
ATOM     20  F   UNL     1     150.034 157.246 158.164  0.00  0.00    -0.166 F 
ATOM     21  F   UNL     1     152.103 156.609 158.397  0.00  0.00    -0.166 F 
ATOM     22  F   UNL     1     150.643 155.262 157.516  0.00  0.00    -0.166 F 
ATOM     23  C   UNL     1     149.543 154.621 160.031  0.00  0.00    -0.049 A 
ATOM     24  C   UNL     1     149.234 154.151 161.308  0.00  0.00    -0.050 A 
ATOM     25  C   UNL     1     149.841 154.702 162.458  0.00  0.00    +0.021 A 
ATOM     26  H   UNL     1     146.057 149.214 165.693  0.00  0.00    +0.000 HD
ATOM     27  H   UNL     1     147.795 153.212 163.347  0.00  0.00    +0.000 HD
ENDROOT
TORSDOF 0
ENDMDL
MODEL 4
REMARK VINA RESULT:    -4.059      3.660      5.658
REMARK INTER + INTRA:          -4.059
REMARK INTER:                  -4.059
REMARK INTRA:                   0.000
REMARK UNBOUND:                 0.000
REMARK  Name = /home/vital/Documents/PhD_2021/Malaria_codes/scripts/../data/pdbqt_ligands/ligand_107_temp.pdb
REMARK                            x       y       z     vdW  Elec       q    Type
REMARK                         _______ _______ _______ _____ _____    ______ ____
ROOT
ATOM      1  C   UNL     1     151.296 160.323 169.565  0.00  0.00    -0.080 C 
ATOM      2  C   UNL     1     151.294 160.669 168.088  0.00  0.00    -0.094 C 
ATOM      3  N   UNL     1     152.637 160.362 167.445  0.00  0.00    +0.379 N 
ATOM      4  C   UNL     1     153.817 161.121 168.034  0.00  0.00    -0.094 C 
ATOM      5  C   UNL     1     153.689 162.625 167.876  0.00  0.00    -0.080 C 
ATOM      6  C   UNL     1     152.593 160.476 165.928  0.00  0.00    -0.091 C 
ATOM      7  C   UNL     1     151.890 159.288 165.266  0.00  0.00    -0.066 C 
ATOM      8  C   UNL     1     152.631 157.952 165.442  0.00  0.00    -0.037 C 
ATOM      9  C   UNL     1     152.074 156.797 164.573  0.00  0.00    +0.018 C 
ATOM     10  C   UNL     1     150.601 156.533 164.896  0.00  0.00    -0.047 C 
ATOM     11  N   UNL     1     152.263 157.160 163.162  0.00  0.00    -0.341 N 
ATOM     12  C   UNL     1     151.857 156.256 162.147  0.00  0.00    +0.038 A 
ATOM     13  C   UNL     1     151.981 154.874 162.292  0.00  0.00    -0.022 A 
ATOM     14  C   UNL     1     151.657 154.060 161.221  0.00  0.00    +0.030 A 
ATOM     15  N   UNL     1     151.252 154.520 160.024  0.00  0.00    -0.255 NA
ATOM     16  C   UNL     1     151.166 155.847 159.854  0.00  0.00    +0.073 A 
ATOM     17  C   UNL     1     150.770 156.324 158.612  0.00  0.00    -0.024 A 
ATOM     18  C   UNL     1     150.652 157.697 158.339  0.00  0.00    +0.057 A 
ATOM     19  C   UNL     1     150.241 158.167 156.966  0.00  0.00    +0.417 C 
ATOM     20  F   UNL     1     151.304 158.289 156.125  0.00  0.00    -0.166 F 
ATOM     21  F   UNL     1     149.364 157.328 156.352  0.00  0.00    -0.166 F 
ATOM     22  F   UNL     1     149.636 159.388 156.986  0.00  0.00    -0.166 F 
ATOM     23  C   UNL     1     150.959 158.609 159.350  0.00  0.00    -0.049 A 
ATOM     24  C   UNL     1     151.356 158.150 160.606  0.00  0.00    -0.050 A 
ATOM     25  C   UNL     1     151.468 156.769 160.880  0.00  0.00    +0.021 A 
ATOM     26  H   UNL     1     152.809 159.384 167.681  0.00  0.00    +0.000 HD
ATOM     27  H   UNL     1     152.669 158.025 162.923  0.00  0.00    +0.000 HD
ENDROOT
TORSDOF 0
ENDMDL
MODEL 5
REMARK VINA RESULT:    -3.568      2.454      3.806
REMARK INTER + INTRA:          -3.568
REMARK INTER:                  -3.568
REMARK INTRA:                   0.000
REMARK UNBOUND:                 0.000
REMARK  Name = /home/vital/Documents/PhD_2021/Malaria_codes/scripts/../data/pdbqt_ligands/ligand_107_temp.pdb
REMARK                            x       y       z     vdW  Elec       q    Type
REMARK                         _______ _______ _______ _____ _____    ______ ____
ROOT
ATOM      1  C   UNL     1     148.596 152.549 166.308  0.00  0.00    -0.080 C 
ATOM      2  C   UNL     1     149.075 153.917 165.860  0.00  0.00    -0.094 C 
ATOM      3  N   UNL     1     150.544 153.891 165.472  0.00  0.00    +0.379 N 
ATOM      4  C   UNL     1     151.494 153.479 166.588  0.00  0.00    -0.094 C 
ATOM      5  C   UNL     1     151.461 154.428 167.771  0.00  0.00    -0.080 C 
ATOM      6  C   UNL     1     150.990 155.182 164.800  0.00  0.00    -0.091 C 
ATOM      7  C   UNL     1     150.505 155.293 163.353  0.00  0.00    -0.066 C 
ATOM      8  C   UNL     1     151.117 154.241 162.411  0.00  0.00    -0.037 C 
ATOM      9  C   UNL     1     150.837 154.494 160.909  0.00  0.00    +0.018 C 
ATOM     10  C   UNL     1     149.332 154.516 160.630  0.00  0.00    -0.047 C 
ATOM     11  N   UNL     1     151.476 155.764 160.537  0.00  0.00    -0.341 N 
ATOM     12  C   UNL     1     151.392 156.222 159.197  0.00  0.00    +0.038 A 
ATOM     13  C   UNL     1     151.428 155.348 158.110  0.00  0.00    -0.022 A 
ATOM     14  C   UNL     1     151.442 155.875 156.831  0.00  0.00    +0.030 A 
ATOM     15  N   UNL     1     151.452 157.193 156.562  0.00  0.00    -0.255 NA
ATOM     16  C   UNL     1     151.458 158.047 157.594  0.00  0.00    +0.073 A 
ATOM     17  C   UNL     1     151.491 159.407 157.318  0.00  0.00    -0.024 A 
ATOM     18  C   UNL     1     151.502 160.378 158.333  0.00  0.00    +0.057 A 
ATOM     19  C   UNL     1     151.562 161.844 157.984  0.00  0.00    +0.417 C 
ATOM     20  F   UNL     1     152.840 162.282 157.821  0.00  0.00    -0.166 F 
ATOM     21  F   UNL     1     150.906 162.148 156.831  0.00  0.00    -0.166 F 
ATOM     22  F   UNL     1     151.014 162.639 158.945  0.00  0.00    -0.166 F 
ATOM     23  C   UNL     1     151.493 159.956 159.663  0.00  0.00    -0.049 A 
ATOM     24  C   UNL     1     151.456 158.593 159.962  0.00  0.00    -0.050 A 
ATOM     25  C   UNL     1     151.440 157.619 158.940  0.00  0.00    +0.021 A 
ATOM     26  H   UNL     1     150.607 153.141 164.783  0.00  0.00    +0.000 HD
ATOM     27  H   UNL     1     151.958 156.292 161.213  0.00  0.00    +0.000 HD
ENDROOT
TORSDOF 0
ENDMDL
MODEL 6
REMARK VINA RESULT:    -3.445      9.809     15.239
REMARK INTER + INTRA:          -3.445
REMARK INTER:                  -3.445
REMARK INTRA:                   0.000
REMARK UNBOUND:                 0.000
REMARK  Name = /home/vital/Documents/PhD_2021/Malaria_codes/scripts/../data/pdbqt_ligands/ligand_107_temp.pdb
REMARK                            x       y       z     vdW  Elec       q    Type
REMARK                         _______ _______ _______ _____ _____    ______ ____
ROOT
ATOM      1  C   UNL     1     146.769 153.331 162.470  0.00  0.00    -0.080 C 
ATOM      2  C   UNL     1     147.196 151.889 162.676  0.00  0.00    -0.094 C 
ATOM      3  N   UNL     1     147.215 151.523 164.151  0.00  0.00    +0.379 N 
ATOM      4  C   UNL     1     148.166 152.350 165.005  0.00  0.00    -0.094 C 
ATOM      5  C   UNL     1     149.617 152.197 164.588  0.00  0.00    -0.080 C 
ATOM      6  C   UNL     1     147.410 150.030 164.375  0.00  0.00    -0.091 C 
ATOM      7  C   UNL     1     146.144 149.219 164.086  0.00  0.00    -0.066 C 
ATOM      8  C   UNL     1     144.983 149.515 165.051  0.00  0.00    -0.037 C 
ATOM      9  C   UNL     1     143.793 148.531 164.933  0.00  0.00    +0.018 C 
ATOM     10  C   UNL     1     143.209 148.547 163.518  0.00  0.00    -0.047 C 
ATOM     11  N   UNL     1     144.273 147.193 165.305  0.00  0.00    -0.341 N 
ATOM     12  C   UNL     1     143.367 146.101 165.306  0.00  0.00    +0.038 A 
ATOM     13  C   UNL     1     142.035 146.241 165.696  0.00  0.00    -0.022 A 
ATOM     14  C   UNL     1     141.239 145.113 165.766  0.00  0.00    +0.030 A 
ATOM     15  N   UNL     1     141.677 143.868 165.508  0.00  0.00    -0.255 NA
ATOM     16  C   UNL     1     142.964 143.709 165.172  0.00  0.00    +0.073 A 
ATOM     17  C   UNL     1     143.423 142.421 164.927  0.00  0.00    -0.024 A 
ATOM     18  C   UNL     1     144.755 142.156 164.570  0.00  0.00    +0.057 A 
ATOM     19  C   UNL     1     145.212 140.738 164.337  0.00  0.00    +0.417 C 
ATOM     20  F   UNL     1     145.604 140.128 165.489  0.00  0.00    -0.166 F 
ATOM     21  F   UNL     1     144.248 139.945 163.797  0.00  0.00    -0.166 F 
ATOM     22  F   UNL     1     146.277 140.658 163.491  0.00  0.00    -0.166 F 
ATOM     23  C   UNL     1     145.648 143.224 164.473  0.00  0.00    -0.049 A 
ATOM     24  C   UNL     1     145.206 144.526 164.712  0.00  0.00    -0.050 A 
ATOM     25  C   UNL     1     143.864 144.791 165.065  0.00  0.00    +0.021 A 
ATOM     26  H   UNL     1     146.282 151.770 164.482  0.00  0.00    +0.000 HD
ATOM     27  H   UNL     1     145.216 147.056 165.553  0.00  0.00    +0.000 HD
ENDROOT
TORSDOF 0
ENDMDL
MODEL 7
REMARK VINA RESULT:    -3.287      4.121      4.801
REMARK INTER + INTRA:          -3.287
REMARK INTER:                  -3.287
REMARK INTRA:                   0.000
REMARK UNBOUND:                 0.000
REMARK  Name = /home/vital/Documents/PhD_2021/Malaria_codes/scripts/../data/pdbqt_ligands/ligand_107_temp.pdb
REMARK                            x       y       z     vdW  Elec       q    Type
REMARK                         _______ _______ _______ _____ _____    ______ ____
ROOT
ATOM      1  C   UNL     1     152.624 161.597 167.854  0.00  0.00    -0.080 C 
ATOM      2  C   UNL     1     152.295 160.475 166.887  0.00  0.00    -0.094 C 
ATOM      3  N   UNL     1     150.923 160.667 166.262  0.00  0.00    +0.379 N 
ATOM      4  C   UNL     1     149.767 160.695 167.252  0.00  0.00    -0.094 C 
ATOM      5  C   UNL     1     149.621 159.399 168.026  0.00  0.00    -0.080 C 
ATOM      6  C   UNL     1     150.665 159.693 165.121  0.00  0.00    -0.091 C 
ATOM      7  C   UNL     1     151.413 160.071 163.841  0.00  0.00    -0.066 C 
ATOM      8  C   UNL     1     150.941 161.394 163.214  0.00  0.00    -0.037 C 
ATOM      9  C   UNL     1     151.504 161.662 161.796  0.00  0.00    +0.018 C 
ATOM     10  C   UNL     1     153.034 161.702 161.815  0.00  0.00    -0.047 C 
ATOM     11  N   UNL     1     151.000 160.611 160.903  0.00  0.00    -0.341 N 
ATOM     12  C   UNL     1     151.349 160.635 159.528  0.00  0.00    +0.038 A 
ATOM     13  C   UNL     1     151.477 161.828 158.816  0.00  0.00    -0.022 A 
ATOM     14  C   UNL     1     151.721 161.770 157.456  0.00  0.00    +0.030 A 
ATOM     15  N   UNL     1     151.817 160.623 156.759  0.00  0.00    -0.255 NA
ATOM     16  C   UNL     1     151.657 159.468 157.419  0.00  0.00    +0.073 A 
ATOM     17  C   UNL     1     151.734 158.285 156.697  0.00  0.00    -0.024 A 
ATOM     18  C   UNL     1     151.577 157.026 157.302  0.00  0.00    +0.057 A 
ATOM     19  C   UNL     1     151.645 155.770 156.471  0.00  0.00    +0.417 C 
ATOM     20  F   UNL     1     150.439 155.444 155.932  0.00  0.00    -0.166 F 
ATOM     21  F   UNL     1     152.515 155.861 155.429  0.00  0.00    -0.166 F 
ATOM     22  F   UNL     1     152.039 154.682 157.190  0.00  0.00    -0.166 F 
ATOM     23  C   UNL     1     151.322 156.970 158.673  0.00  0.00    -0.049 A 
ATOM     24  C   UNL     1     151.245 158.147 159.417  0.00  0.00    -0.050 A 
ATOM     25  C   UNL     1     151.408 159.412 158.808  0.00  0.00    +0.021 A 
ATOM     26  H   UNL     1     150.957 161.608 165.869  0.00  0.00    +0.000 HD
ATOM     27  H   UNL     1     150.423 159.895 161.256  0.00  0.00    +0.000 HD
ENDROOT
TORSDOF 0
ENDMDL
MODEL 8
REMARK VINA RESULT:    -3.099      4.566      7.215
REMARK INTER + INTRA:          -3.099
REMARK INTER:                  -3.099
REMARK INTRA:                   0.000
REMARK UNBOUND:                 0.000
REMARK  Name = /home/vital/Documents/PhD_2021/Malaria_codes/scripts/../data/pdbqt_ligands/ligand_107_temp.pdb
REMARK                            x       y       z     vdW  Elec       q    Type
REMARK                         _______ _______ _______ _____ _____    ______ ____
ROOT
ATOM      1  C   UNL     1     151.405 162.016 170.288  0.00  0.00    -0.080 C 
ATOM      2  C   UNL     1     151.673 161.737 168.821  0.00  0.00    -0.094 C 
ATOM      3  N   UNL     1     152.845 160.785 168.643  0.00  0.00    +0.379 N 
ATOM      4  C   UNL     1     154.168 161.285 169.205  0.00  0.00    -0.094 C 
ATOM      5  C   UNL     1     154.649 162.559 168.538  0.00  0.00    -0.080 C 
ATOM      6  C   UNL     1     152.988 160.305 167.206  0.00  0.00    -0.091 C 
ATOM      7  C   UNL     1     151.944 159.253 166.827  0.00  0.00    -0.066 C 
ATOM      8  C   UNL     1     152.088 157.929 167.597  0.00  0.00    -0.037 C 
ATOM      9  C   UNL     1     151.209 156.777 167.052  0.00  0.00    +0.018 C 
ATOM     10  C   UNL     1     149.726 157.154 167.094  0.00  0.00    -0.047 C 
ATOM     11  N   UNL     1     151.653 156.478 165.684  0.00  0.00    -0.341 N 
ATOM     12  C   UNL     1     151.023 155.434 164.957  0.00  0.00    +0.038 A 
ATOM     13  C   UNL     1     150.587 154.260 165.571  0.00  0.00    -0.022 A 
ATOM     14  C   UNL     1     150.073 153.247 164.783  0.00  0.00    +0.030 A 
ATOM     15  N   UNL     1     149.990 153.308 163.441  0.00  0.00    -0.255 NA
ATOM     16  C   UNL     1     150.442 154.412 162.831  0.00  0.00    +0.073 A 
ATOM     17  C   UNL     1     150.378 154.467 161.445  0.00  0.00    -0.024 A 
ATOM     18  C   UNL     1     150.828 155.581 160.717  0.00  0.00    +0.057 A 
ATOM     19  C   UNL     1     150.760 155.583 159.211  0.00  0.00    +0.417 C 
ATOM     20  F   UNL     1     151.859 155.015 158.645  0.00  0.00    -0.166 F 
ATOM     21  F   UNL     1     149.686 154.906 158.721  0.00  0.00    -0.166 F 
ATOM     22  F   UNL     1     150.678 156.839 158.689  0.00  0.00    -0.166 F 
ATOM     23  C   UNL     1     151.370 156.661 161.415  0.00  0.00    -0.049 A 
ATOM     24  C   UNL     1     151.440 156.627 162.808  0.00  0.00    -0.050 A 
ATOM     25  C   UNL     1     150.982 155.508 163.538  0.00  0.00    +0.021 A 
ATOM     26  H   UNL     1     152.601 159.979 169.220  0.00  0.00    +0.000 HD
ATOM     27  H   UNL     1     152.383 156.996 165.275  0.00  0.00    +0.000 HD
ENDROOT
TORSDOF 0
ENDMDL
