MODEL 1
REMARK VINA RESULT:    -4.677      0.000      0.000
REMARK INTER + INTRA:          -4.677
REMARK INTER:                  -4.677
REMARK INTRA:                   0.000
REMARK UNBOUND:                 0.000
REMARK  Name = /home/vital/Documents/PhD_2021/Malaria_codes/scripts/../data/pdbqt_ligands/ligand_125_temp.pdb
REMARK                            x       y       z     vdW  Elec       q    Type
REMARK                         _______ _______ _______ _____ _____    ______ ____
ROOT
ATOM      1  C   UNL     1     153.597 160.636 169.265  0.00  0.00    +0.079 C 
ATOM      2  O   UNL     1     152.436 161.314 168.804  0.00  0.00    -0.491 OA
ATOM      3  C   UNL     1     152.300 161.483 167.450  0.00  0.00    +0.163 A 
ATOM      4  C   UNL     1     153.289 161.192 166.512  0.00  0.00    -0.016 A 
ATOM      5  C   UNL     1     153.045 161.382 165.147  0.00  0.00    -0.052 A 
ATOM      6  C   UNL     1     151.805 161.856 164.681  0.00  0.00    -0.011 A 
ATOM      7  C   UNL     1     151.621 162.035 163.185  0.00  0.00    +0.026 C 
ATOM      8  N   UNL     1     151.905 160.808 162.422  0.00  0.00    -0.296 N 
ATOM      9  C   UNL     1     150.859 159.776 162.599  0.00  0.00    +0.012 C 
ATOM     10  C   UNL     1     149.845 159.681 161.435  0.00  0.00    +0.012 C 
ATOM     11  N   UNL     1     150.450 159.447 160.107  0.00  0.00    -0.296 N 
ATOM     12  C   UNL     1     150.354 158.032 159.714  0.00  0.00    +0.024 C 
ATOM     13  C   UNL     1     150.767 157.778 158.281  0.00  0.00    -0.030 A 
ATOM     14  C   UNL     1     150.077 158.388 157.221  0.00  0.00    -0.057 A 
ATOM     15  C   UNL     1     150.454 158.150 155.897  0.00  0.00    -0.058 A 
ATOM     16  C   UNL     1     151.522 157.299 155.616  0.00  0.00    -0.020 A 
ATOM     17  C   UNL     1     152.206 156.694 156.665  0.00  0.00    +0.117 A 
ATOM     18  O   UNL     1     153.257 155.855 156.437  0.00  0.00    -0.507 OA
ATOM     19  C   UNL     1     151.839 156.924 157.988  0.00  0.00    -0.016 A 
ATOM     20  C   UNL     1     151.854 159.919 160.070  0.00  0.00    +0.012 C 
ATOM     21  C   UNL     1     152.090 161.134 160.990  0.00  0.00    +0.012 C 
ATOM     22  C   UNL     1     150.812 162.163 165.627  0.00  0.00    +0.091 A 
ATOM     23 CL   UNL     1     149.256 162.752 165.130  0.00  0.00    -0.079 Cl
ATOM     24  C   UNL     1     151.070 161.994 167.001  0.00  0.00    +0.180 A 
ATOM     25  O   UNL     1     150.070 162.261 167.913  0.00  0.00    -0.490 OA
ATOM     26  C   UNL     1     150.271 163.542 168.509  0.00  0.00    +0.079 C 
ATOM     27  H   UNL     1     152.769 160.410 162.790  0.00  0.00    +0.000 HD
ATOM     28  H   UNL     1     149.919 159.990 159.427  0.00  0.00    +0.000 HD
ATOM     29  H   UNL     1     153.532 155.677 155.558  0.00  0.00    +0.000 HD
ENDROOT
TORSDOF 0
ENDMDL
MODEL 2
REMARK VINA RESULT:    -4.658      2.334      9.727
REMARK INTER + INTRA:          -4.658
REMARK INTER:                  -4.658
REMARK INTRA:                   0.000
REMARK UNBOUND:                 0.000
REMARK  Name = /home/vital/Documents/PhD_2021/Malaria_codes/scripts/../data/pdbqt_ligands/ligand_125_temp.pdb
REMARK                            x       y       z     vdW  Elec       q    Type
REMARK                         _______ _______ _______ _____ _____    ______ ____
ROOT
ATOM      1  C   UNL     1     150.709 155.752 158.424  0.00  0.00    +0.079 C 
ATOM      2  O   UNL     1     151.255 157.047 158.213  0.00  0.00    -0.491 OA
ATOM      3  C   UNL     1     150.985 158.007 159.154  0.00  0.00    +0.163 A 
ATOM      4  C   UNL     1     150.082 157.854 160.205  0.00  0.00    -0.016 A 
ATOM      5  C   UNL     1     149.890 158.889 161.126  0.00  0.00    -0.052 A 
ATOM      6  C   UNL     1     150.601 160.099 161.031  0.00  0.00    -0.011 A 
ATOM      7  C   UNL     1     150.334 161.173 162.071  0.00  0.00    +0.026 C 
ATOM      8  N   UNL     1     150.521 160.693 163.451  0.00  0.00    -0.296 N 
ATOM      9  C   UNL     1     151.946 160.481 163.789  0.00  0.00    +0.012 C 
ATOM     10  C   UNL     1     152.587 161.618 164.617  0.00  0.00    +0.012 C 
ATOM     11  N   UNL     1     151.894 161.925 165.885  0.00  0.00    -0.296 N 
ATOM     12  C   UNL     1     152.576 161.310 167.035  0.00  0.00    +0.024 C 
ATOM     13  C   UNL     1     152.029 161.764 168.371  0.00  0.00    -0.030 A 
ATOM     14  C   UNL     1     152.078 163.119 168.737  0.00  0.00    -0.057 A 
ATOM     15  C   UNL     1     151.579 163.539 169.972  0.00  0.00    -0.058 A 
ATOM     16  C   UNL     1     151.029 162.612 170.856  0.00  0.00    -0.020 A 
ATOM     17  C   UNL     1     150.982 161.270 170.495  0.00  0.00    +0.117 A 
ATOM     18  O   UNL     1     150.451 160.329 171.328  0.00  0.00    -0.507 OA
ATOM     19  C   UNL     1     151.475 160.840 169.267  0.00  0.00    -0.016 A 
ATOM     20  C   UNL     1     150.470 161.518 165.826  0.00  0.00    +0.012 C 
ATOM     21  C   UNL     1     149.885 161.630 164.404  0.00  0.00    +0.012 C 
ATOM     22  C   UNL     1     151.502 160.260 159.965  0.00  0.00    +0.091 A 
ATOM     23 CL   UNL     1     152.416 161.724 159.780  0.00  0.00    -0.079 Cl
ATOM     24  C   UNL     1     151.674 159.226 159.025  0.00  0.00    +0.180 A 
ATOM     25  O   UNL     1     152.592 159.384 158.008  0.00  0.00    -0.490 OA
ATOM     26  C   UNL     1     151.931 159.743 156.795  0.00  0.00    +0.079 C 
ATOM     27  H   UNL     1     150.068 159.781 163.524  0.00  0.00    +0.000 HD
ATOM     28  H   UNL     1     151.925 162.936 166.017  0.00  0.00    +0.000 HD
ATOM     29  H   UNL     1     150.110 160.582 172.164  0.00  0.00    +0.000 HD
ENDROOT
TORSDOF 0
ENDMDL
MODEL 3
REMARK VINA RESULT:    -4.423      0.919      0.928
REMARK INTER + INTRA:          -4.423
REMARK INTER:                  -4.423
REMARK INTRA:                   0.000
REMARK UNBOUND:                 0.000
REMARK  Name = /home/vital/Documents/PhD_2021/Malaria_codes/scripts/../data/pdbqt_ligands/ligand_125_temp.pdb
REMARK                            x       y       z     vdW  Elec       q    Type
REMARK                         _______ _______ _______ _____ _____    ______ ____
ROOT
ATOM      1  C   UNL     1     152.136 159.624 168.994  0.00  0.00    +0.079 C 
ATOM      2  O   UNL     1     151.228 160.539 168.396  0.00  0.00    -0.491 OA
ATOM      3  C   UNL     1     151.372 160.786 167.055  0.00  0.00    +0.163 A 
ATOM      4  C   UNL     1     152.439 160.340 166.278  0.00  0.00    -0.016 A 
ATOM      5  C   UNL     1     152.485 160.630 164.910  0.00  0.00    -0.052 A 
ATOM      6  C   UNL     1     151.462 161.362 164.278  0.00  0.00    -0.011 A 
ATOM      7  C   UNL     1     151.588 161.634 162.790  0.00  0.00    +0.026 C 
ATOM      8  N   UNL     1     151.765 160.406 161.996  0.00  0.00    -0.296 N 
ATOM      9  C   UNL     1     150.528 159.598 161.916  0.00  0.00    +0.012 C 
ATOM     10  C   UNL     1     149.741 159.756 160.595  0.00  0.00    +0.012 C 
ATOM     11  N   UNL     1     150.519 159.458 159.374  0.00  0.00    -0.296 N 
ATOM     12  C   UNL     1     150.227 158.108 158.866  0.00  0.00    +0.024 C 
ATOM     13  C   UNL     1     150.836 157.834 157.508  0.00  0.00    -0.030 A 
ATOM     14  C   UNL     1     150.477 158.612 156.395  0.00  0.00    -0.057 A 
ATOM     15  C   UNL     1     151.033 158.357 155.140  0.00  0.00    -0.058 A 
ATOM     16  C   UNL     1     151.952 157.321 154.980  0.00  0.00    -0.020 A 
ATOM     17  C   UNL     1     152.309 156.550 156.081  0.00  0.00    +0.117 A 
ATOM     18  O   UNL     1     153.205 155.527 155.970  0.00  0.00    -0.507 OA
ATOM     19  C   UNL     1     151.760 156.795 157.336  0.00  0.00    -0.016 A 
ATOM     20  C   UNL     1     151.970 159.641 159.610  0.00  0.00    +0.012 C 
ATOM     21  C   UNL     1     152.264 160.745 160.644  0.00  0.00    +0.012 C 
ATOM     22  C   UNL     1     150.392 161.823 165.063  0.00  0.00    +0.091 A 
ATOM     23 CL   UNL     1     149.093 162.732 164.358  0.00  0.00    -0.079 Cl
ATOM     24  C   UNL     1     150.362 161.551 166.445  0.00  0.00    +0.180 A 
ATOM     25  O   UNL     1     149.284 161.976 167.192  0.00  0.00    -0.490 OA
ATOM     26  C   UNL     1     149.615 163.166 167.908  0.00  0.00    +0.079 C 
ATOM     27  H   UNL     1     152.458 159.829 162.474  0.00  0.00    +0.000 HD
ATOM     28  H   UNL     1     150.232 160.124 158.656  0.00  0.00    +0.000 HD
ATOM     29  H   UNL     1     153.594 155.332 155.140  0.00  0.00    +0.000 HD
ENDROOT
TORSDOF 0
ENDMDL
MODEL 4
REMARK VINA RESULT:    -3.829     11.968     14.456
REMARK INTER + INTRA:          -3.829
REMARK INTER:                  -3.829
REMARK INTRA:                   0.000
REMARK UNBOUND:                 0.000
REMARK  Name = /home/vital/Documents/PhD_2021/Malaria_codes/scripts/../data/pdbqt_ligands/ligand_125_temp.pdb
REMARK                            x       y       z     vdW  Elec       q    Type
REMARK                         _______ _______ _______ _____ _____    ______ ____
ROOT
ATOM      1  C   UNL     1     144.381 142.941 164.712  0.00  0.00    +0.079 C 
ATOM      2  O   UNL     1     143.679 144.046 164.159  0.00  0.00    -0.491 OA
ATOM      3  C   UNL     1     143.964 145.289 164.661  0.00  0.00    +0.163 A 
ATOM      4  C   UNL     1     144.758 145.529 165.780  0.00  0.00    -0.016 A 
ATOM      5  C   UNL     1     145.004 146.840 166.204  0.00  0.00    -0.052 A 
ATOM      6  C   UNL     1     144.474 147.947 165.515  0.00  0.00    -0.011 A 
ATOM      7  C   UNL     1     144.788 149.337 166.039  0.00  0.00    +0.026 C 
ATOM      8  N   UNL     1     146.234 149.587 166.169  0.00  0.00    -0.296 N 
ATOM      9  C   UNL     1     146.902 149.745 164.858  0.00  0.00    +0.012 C 
ATOM     10  C   UNL     1     147.180 151.211 164.452  0.00  0.00    +0.012 C 
ATOM     11  N   UNL     1     147.978 151.981 165.428  0.00  0.00    -0.296 N 
ATOM     12  C   UNL     1     149.389 152.070 165.020  0.00  0.00    +0.024 C 
ATOM     13  C   UNL     1     150.201 153.021 165.872  0.00  0.00    -0.030 A 
ATOM     14  C   UNL     1     149.866 154.383 165.939  0.00  0.00    -0.057 A 
ATOM     15  C   UNL     1     150.618 155.262 166.720  0.00  0.00    -0.058 A 
ATOM     16  C   UNL     1     151.715 154.794 167.442  0.00  0.00    -0.020 A 
ATOM     17  C   UNL     1     152.049 153.445 167.376  0.00  0.00    +0.117 A 
ATOM     18  O   UNL     1     153.113 152.943 168.067  0.00  0.00    -0.507 OA
ATOM     19  C   UNL     1     151.306 152.560 166.601  0.00  0.00    -0.016 A 
ATOM     20  C   UNL     1     147.848 151.412 166.790  0.00  0.00    +0.012 C 
ATOM     21  C   UNL     1     146.468 150.768 167.029  0.00  0.00    +0.012 C 
ATOM     22  C   UNL     1     143.662 147.706 164.394  0.00  0.00    +0.091 A 
ATOM     23 CL   UNL     1     142.972 149.019 163.492  0.00  0.00    -0.079 Cl
ATOM     24  C   UNL     1     143.396 146.385 163.986  0.00  0.00    +0.180 A 
ATOM     25  O   UNL     1     142.630 146.168 162.859  0.00  0.00    -0.490 OA
ATOM     26  C   UNL     1     141.293 145.828 163.226  0.00  0.00    +0.079 C 
ATOM     27  H   UNL     1     146.650 148.765 166.608  0.00  0.00    +0.000 HD
ATOM     28  H   UNL     1     147.605 152.931 165.449  0.00  0.00    +0.000 HD
ATOM     29  H   UNL     1     153.636 153.510 168.599  0.00  0.00    +0.000 HD
ENDROOT
TORSDOF 0
ENDMDL
MODEL 5
REMARK VINA RESULT:    -3.439      2.236      3.004
REMARK INTER + INTRA:          -3.439
REMARK INTER:                  -3.439
REMARK INTRA:                   0.000
REMARK UNBOUND:                 0.000
REMARK  Name = /home/vital/Documents/PhD_2021/Malaria_codes/scripts/../data/pdbqt_ligands/ligand_125_temp.pdb
REMARK                            x       y       z     vdW  Elec       q    Type
REMARK                         _______ _______ _______ _____ _____    ______ ____
ROOT
ATOM      1  C   UNL     1     151.422 158.231 167.093  0.00  0.00    +0.079 C 
ATOM      2  O   UNL     1     150.719 159.283 166.446  0.00  0.00    -0.491 OA
ATOM      3  C   UNL     1     151.060 159.564 165.148  0.00  0.00    +0.163 A 
ATOM      4  C   UNL     1     152.150 159.014 164.477  0.00  0.00    -0.016 A 
ATOM      5  C   UNL     1     152.403 159.351 163.144  0.00  0.00    -0.052 A 
ATOM      6  C   UNL     1     151.569 160.239 162.439  0.00  0.00    -0.011 A 
ATOM      7  C   UNL     1     151.913 160.554 160.994  0.00  0.00    +0.026 C 
ATOM      8  N   UNL     1     152.030 159.348 160.157  0.00  0.00    -0.296 N 
ATOM      9  C   UNL     1     150.719 158.717 159.885  0.00  0.00    +0.012 C 
ATOM     10  C   UNL     1     150.130 159.033 158.492  0.00  0.00    +0.012 C 
ATOM     11  N   UNL     1     151.009 158.686 157.356  0.00  0.00    -0.296 N 
ATOM     12  C   UNL     1     150.614 157.409 156.740  0.00  0.00    +0.024 C 
ATOM     13  C   UNL     1     151.347 157.114 155.449  0.00  0.00    -0.030 A 
ATOM     14  C   UNL     1     151.232 157.979 154.349  0.00  0.00    -0.057 A 
ATOM     15  C   UNL     1     151.903 157.704 153.156  0.00  0.00    -0.058 A 
ATOM     16  C   UNL     1     152.696 156.563 153.046  0.00  0.00    -0.020 A 
ATOM     17  C   UNL     1     152.811 155.705 154.134  0.00  0.00    +0.117 A 
ATOM     18  O   UNL     1     153.576 154.577 154.072  0.00  0.00    -0.507 OA
ATOM     19  C   UNL     1     152.146 155.969 155.328  0.00  0.00    -0.016 A 
ATOM     20  C   UNL     1     152.431 158.663 157.771  0.00  0.00    +0.012 C 
ATOM     21  C   UNL     1     152.732 159.674 158.896  0.00  0.00    +0.012 C 
ATOM     22  C   UNL     1     150.477 160.806 163.118  0.00  0.00    +0.091 A 
ATOM     23 CL   UNL     1     149.402 161.909 162.317  0.00  0.00    -0.079 Cl
ATOM     24  C   UNL     1     150.240 160.483 164.468  0.00  0.00    +0.180 A 
ATOM     25  O   UNL     1     149.140 161.016 165.106  0.00  0.00    -0.490 OA
ATOM     26  C   UNL     1     149.528 162.120 165.924  0.00  0.00    +0.079 C 
ATOM     27  H   UNL     1     152.578 158.664 160.679  0.00  0.00    +0.000 HD
ATOM     28  H   UNL     1     150.902 159.413 156.649  0.00  0.00    +0.000 HD
ATOM     29  H   UNL     1     154.038 154.367 153.284  0.00  0.00    +0.000 HD
ENDROOT
TORSDOF 0
ENDMDL
MODEL 6
REMARK VINA RESULT:    -3.391      2.008      2.206
REMARK INTER + INTRA:          -3.391
REMARK INTER:                  -3.391
REMARK INTRA:                   0.000
REMARK UNBOUND:                 0.000
REMARK  Name = /home/vital/Documents/PhD_2021/Malaria_codes/scripts/../data/pdbqt_ligands/ligand_125_temp.pdb
REMARK                            x       y       z     vdW  Elec       q    Type
REMARK                         _______ _______ _______ _____ _____    ______ ____
ROOT
ATOM      1  C   UNL     1     155.323 161.494 167.942  0.00  0.00    +0.079 C 
ATOM      2  O   UNL     1     154.040 160.914 168.133  0.00  0.00    -0.491 OA
ATOM      3  C   UNL     1     153.259 160.728 167.021  0.00  0.00    +0.163 A 
ATOM      4  C   UNL     1     153.560 161.217 165.751  0.00  0.00    -0.016 A 
ATOM      5  C   UNL     1     152.706 160.957 164.674  0.00  0.00    -0.052 A 
ATOM      6  C   UNL     1     151.535 160.193 164.832  0.00  0.00    -0.011 A 
ATOM      7  C   UNL     1     150.661 159.956 163.613  0.00  0.00    +0.026 C 
ATOM      8  N   UNL     1     151.398 159.353 162.489  0.00  0.00    -0.296 N 
ATOM      9  C   UNL     1     151.738 157.933 162.731  0.00  0.00    +0.012 C 
ATOM     10  C   UNL     1     150.807 156.920 162.028  0.00  0.00    +0.012 C 
ATOM     11  N   UNL     1     150.707 157.086 160.563  0.00  0.00    -0.296 N 
ATOM     12  C   UNL     1     151.558 156.118 159.852  0.00  0.00    +0.024 C 
ATOM     13  C   UNL     1     151.332 156.108 158.355  0.00  0.00    -0.030 A 
ATOM     14  C   UNL     1     150.073 155.782 157.826  0.00  0.00    -0.057 A 
ATOM     15  C   UNL     1     149.866 155.766 156.445  0.00  0.00    -0.058 A 
ATOM     16  C   UNL     1     150.913 156.072 155.577  0.00  0.00    -0.020 A 
ATOM     17  C   UNL     1     152.161 156.394 156.100  0.00  0.00    +0.117 A 
ATOM     18  O   UNL     1     153.213 156.701 155.288  0.00  0.00    -0.507 OA
ATOM     19  C   UNL     1     152.379 156.413 157.474  0.00  0.00    -0.016 A 
ATOM     20  C   UNL     1     151.026 158.476 160.162  0.00  0.00    +0.012 C 
ATOM     21  C   UNL     1     150.624 159.506 161.237  0.00  0.00    +0.012 C 
ATOM     22  C   UNL     1     151.224 159.711 166.114  0.00  0.00    +0.091 A 
ATOM     23 CL   UNL     1     149.797 158.760 166.390  0.00  0.00    -0.079 Cl
ATOM     24  C   UNL     1     152.072 159.996 167.201  0.00  0.00    +0.180 A 
ATOM     25  O   UNL     1     151.773 159.480 168.445  0.00  0.00    -0.490 OA
ATOM     26  C   UNL     1     151.163 160.479 169.262  0.00  0.00    +0.079 C 
ATOM     27  H   UNL     1     152.284 159.852 162.399  0.00  0.00    +0.000 HD
ATOM     28  H   UNL     1     149.741 156.898 160.296  0.00  0.00    +0.000 HD
ATOM     29  H   UNL     1     153.103 156.698 154.357  0.00  0.00    +0.000 HD
ENDROOT
TORSDOF 0
ENDMDL
MODEL 7
REMARK VINA RESULT:    -3.069     13.593     15.977
REMARK INTER + INTRA:          -3.069
REMARK INTER:                  -3.069
REMARK INTRA:                   0.000
REMARK UNBOUND:                 0.000
REMARK  Name = /home/vital/Documents/PhD_2021/Malaria_codes/scripts/../data/pdbqt_ligands/ligand_125_temp.pdb
REMARK                            x       y       z     vdW  Elec       q    Type
REMARK                         _______ _______ _______ _____ _____    ______ ____
ROOT
ATOM      1  C   UNL     1     144.198 140.832 164.688  0.00  0.00    +0.079 C 
ATOM      2  O   UNL     1     143.268 141.760 164.146  0.00  0.00    -0.491 OA
ATOM      3  C   UNL     1     143.390 143.071 164.528  0.00  0.00    +0.163 A 
ATOM      4  C   UNL     1     144.244 143.528 165.530  0.00  0.00    -0.016 A 
ATOM      5  C   UNL     1     144.309 144.892 165.834  0.00  0.00    -0.052 A 
ATOM      6  C   UNL     1     143.534 145.838 165.138  0.00  0.00    -0.011 A 
ATOM      7  C   UNL     1     143.663 147.300 165.529  0.00  0.00    +0.026 C 
ATOM      8  N   UNL     1     145.052 147.787 165.474  0.00  0.00    -0.296 N 
ATOM      9  C   UNL     1     145.546 147.938 164.088  0.00  0.00    +0.012 C 
ATOM     10  C   UNL     1     145.533 149.389 163.555  0.00  0.00    +0.012 C 
ATOM     11  N   UNL     1     146.286 150.356 164.379  0.00  0.00    -0.296 N 
ATOM     12  C   UNL     1     147.613 150.633 163.806  0.00  0.00    +0.024 C 
ATOM     13  C   UNL     1     148.338 151.770 164.494  0.00  0.00    -0.030 A 
ATOM     14  C   UNL     1     147.788 153.062 164.508  0.00  0.00    -0.057 A 
ATOM     15  C   UNL     1     148.458 154.113 165.137  0.00  0.00    -0.058 A 
ATOM     16  C   UNL     1     149.686 153.888 165.758  0.00  0.00    -0.020 A 
ATOM     17  C   UNL     1     150.232 152.609 165.745  0.00  0.00    +0.117 A 
ATOM     18  O   UNL     1     151.430 152.342 166.340  0.00  0.00    -0.507 OA
ATOM     19  C   UNL     1     149.573 151.554 165.121  0.00  0.00    -0.016 A 
ATOM     20  C   UNL     1     146.393 149.891 165.782  0.00  0.00    +0.012 C 
ATOM     21  C   UNL     1     145.172 149.059 166.221  0.00  0.00    +0.012 C 
ATOM     22  C   UNL     1     142.663 145.377 164.136  0.00  0.00    +0.091 A 
ATOM     23 CL   UNL     1     141.674 146.483 163.234  0.00  0.00    -0.079 Cl
ATOM     24  C   UNL     1     142.581 144.001 163.851  0.00  0.00    +0.180 A 
ATOM     25  O   UNL     1     141.752 143.571 162.837  0.00  0.00    -0.490 OA
ATOM     26  C   UNL     1     140.535 143.055 163.377  0.00  0.00    +0.079 C 
ATOM     27  H   UNL     1     145.643 147.082 165.917  0.00  0.00    +0.000 HD
ATOM     28  H   UNL     1     145.764 151.233 164.380  0.00  0.00    +0.000 HD
ATOM     29  H   UNL     1     151.903 153.028 166.770  0.00  0.00    +0.000 HD
ENDROOT
TORSDOF 0
ENDMDL
MODEL 8
REMARK VINA RESULT:    -3.036      2.400      3.210
REMARK INTER + INTRA:          -3.036
REMARK INTER:                  -3.036
REMARK INTRA:                   0.000
REMARK UNBOUND:                 0.000
REMARK  Name = /home/vital/Documents/PhD_2021/Malaria_codes/scripts/../data/pdbqt_ligands/ligand_125_temp.pdb
REMARK                            x       y       z     vdW  Elec       q    Type
REMARK                         _______ _______ _______ _____ _____    ______ ____
ROOT
ATOM      1  C   UNL     1     154.469 163.001 170.885  0.00  0.00    +0.079 C 
ATOM      2  O   UNL     1     153.357 162.116 170.920  0.00  0.00    -0.491 OA
ATOM      3  C   UNL     1     152.602 162.006 169.781  0.00  0.00    +0.163 A 
ATOM      4  C   UNL     1     152.742 162.816 168.656  0.00  0.00    -0.016 A 
ATOM      5  C   UNL     1     151.934 162.611 167.533  0.00  0.00    -0.052 A 
ATOM      6  C   UNL     1     150.972 161.584 167.498  0.00  0.00    -0.011 A 
ATOM      7  C   UNL     1     150.134 161.427 166.241  0.00  0.00    +0.026 C 
ATOM      8  N   UNL     1     150.950 161.269 165.024  0.00  0.00    -0.296 N 
ATOM      9  C   UNL     1     151.611 159.947 164.953  0.00  0.00    +0.012 C 
ATOM     10  C   UNL     1     150.910 158.927 164.027  0.00  0.00    +0.012 C 
ATOM     11  N   UNL     1     150.727 159.383 162.633  0.00  0.00    -0.296 N 
ATOM     12  C   UNL     1     151.750 158.815 161.742  0.00  0.00    +0.024 C 
ATOM     13  C   UNL     1     151.483 159.081 160.276  0.00  0.00    -0.030 A 
ATOM     14  C   UNL     1     150.314 158.602 159.665  0.00  0.00    -0.057 A 
ATOM     15  C   UNL     1     150.069 158.842 158.311  0.00  0.00    -0.058 A 
ATOM     16  C   UNL     1     150.990 159.561 157.551  0.00  0.00    -0.020 A 
ATOM     17  C   UNL     1     152.150 160.036 158.155  0.00  0.00    +0.117 A 
ATOM     18  O   UNL     1     153.077 160.745 157.449  0.00  0.00    -0.507 OA
ATOM     19  C   UNL     1     152.403 159.803 159.503  0.00  0.00    -0.016 A 
ATOM     20  C   UNL     1     150.709 160.863 162.555  0.00  0.00    +0.012 C 
ATOM     21  C   UNL     1     150.120 161.512 163.824  0.00  0.00    +0.012 C 
ATOM     22  C   UNL     1     150.821 160.774 168.636  0.00  0.00    +0.091 A 
ATOM     23 CL   UNL     1     149.656 159.487 168.669  0.00  0.00    -0.079 Cl
ATOM     24  C   UNL     1     151.619 161.000 169.774  0.00  0.00    +0.180 A 
ATOM     25  O   UNL     1     151.486 160.170 170.867  0.00  0.00    -0.490 OA
ATOM     26  C   UNL     1     150.693 160.800 171.874  0.00  0.00    +0.079 C 
ATOM     27  H   UNL     1     151.697 161.964 165.063  0.00  0.00    +0.000 HD
ATOM     28  H   UNL     1     149.820 159.042 162.314  0.00  0.00    +0.000 HD
ATOM     29  H   UNL     1     152.940 160.921 156.539  0.00  0.00    +0.000 HD
ENDROOT
TORSDOF 0
ENDMDL
MODEL 9
REMARK VINA RESULT:    -2.993      7.840      8.773
REMARK INTER + INTRA:          -2.993
REMARK INTER:                  -2.993
REMARK INTRA:                   0.000
REMARK UNBOUND:                 0.000
REMARK  Name = /home/vital/Documents/PhD_2021/Malaria_codes/scripts/../data/pdbqt_ligands/ligand_125_temp.pdb
REMARK                            x       y       z     vdW  Elec       q    Type
REMARK                         _______ _______ _______ _____ _____    ______ ____
ROOT
ATOM      1  C   UNL     1     149.958 160.929 167.949  0.00  0.00    +0.079 C 
ATOM      2  O   UNL     1     150.733 160.471 166.850  0.00  0.00    -0.491 OA
ATOM      3  C   UNL     1     150.835 159.116 166.672  0.00  0.00    +0.163 A 
ATOM      4  C   UNL     1     150.380 158.160 167.579  0.00  0.00    -0.016 A 
ATOM      5  C   UNL     1     150.515 156.797 167.295  0.00  0.00    -0.052 A 
ATOM      6  C   UNL     1     151.097 156.350 166.094  0.00  0.00    -0.011 A 
ATOM      7  C   UNL     1     151.206 154.853 165.863  0.00  0.00    +0.026 C 
ATOM      8  N   UNL     1     149.912 154.160 165.976  0.00  0.00    -0.296 N 
ATOM      9  C   UNL     1     149.015 154.443 164.833  0.00  0.00    +0.012 C 
ATOM     10  C   UNL     1     148.966 153.328 163.763  0.00  0.00    +0.012 C 
ATOM     11  N   UNL     1     148.587 151.995 164.278  0.00  0.00    -0.296 N 
ATOM     12  C   UNL     1     147.171 151.698 164.010  0.00  0.00    +0.024 C 
ATOM     13  C   UNL     1     146.788 150.268 164.327  0.00  0.00    -0.030 A 
ATOM     14  C   UNL     1     147.407 149.199 163.661  0.00  0.00    -0.057 A 
ATOM     15  C   UNL     1     147.050 147.880 163.948  0.00  0.00    -0.058 A 
ATOM     16  C   UNL     1     146.070 147.613 164.903  0.00  0.00    -0.020 A 
ATOM     17  C   UNL     1     145.456 148.671 165.564  0.00  0.00    +0.117 A 
ATOM     18  O   UNL     1     144.492 148.456 166.506  0.00  0.00    -0.507 OA
ATOM     19  C   UNL     1     145.803 149.989 165.285  0.00  0.00    -0.016 A 
ATOM     20  C   UNL     1     148.896 151.874 165.722  0.00  0.00    +0.012 C 
ATOM     21  C   UNL     1     150.129 152.704 166.131  0.00  0.00    +0.012 C 
ATOM     22  C   UNL     1     151.568 157.312 165.185  0.00  0.00    +0.091 A 
ATOM     23 CL   UNL     1     152.297 156.839 163.682  0.00  0.00    -0.079 Cl
ATOM     24  C   UNL     1     151.454 158.683 165.485  0.00  0.00    +0.180 A 
ATOM     25  O   UNL     1     151.884 159.613 164.563  0.00  0.00    -0.490 OA
ATOM     26  C   UNL     1     153.167 160.118 164.930  0.00  0.00    +0.079 C 
ATOM     27  H   UNL     1     149.442 154.519 166.808  0.00  0.00    +0.000 HD
ATOM     28  H   UNL     1     149.145 151.302 163.779  0.00  0.00    +0.000 HD
ATOM     29  H   UNL     1     144.232 147.581 166.719  0.00  0.00    +0.000 HD
ENDROOT
TORSDOF 0
ENDMDL
