MODEL 1
REMARK VINA RESULT:    -5.344      0.000      0.000
REMARK INTER + INTRA:          -5.344
REMARK INTER:                  -5.344
REMARK INTRA:                   0.000
REMARK UNBOUND:                 0.000
REMARK  Name = /home/vital/Documents/PhD_2021/Malaria_codes/scripts/../data/pdbqt_ligands/ligand_154_temp.pdb
REMARK                            x       y       z     vdW  Elec       q    Type
REMARK                         _______ _______ _______ _____ _____    ______ ____
ROOT
ATOM      1  C1  UNL     1     150.437 159.920 161.968  0.00  0.00    -0.080 C 
ATOM      2  C2  UNL     1     150.186 159.760 160.667  0.00  0.00    +0.022 C 
ATOM      3  N1  UNL     1     150.931 160.393 159.714  0.00  0.00    -0.244 NA
ATOM      4  C3  UNL     1     151.189 159.806 158.584  0.00  0.00    +0.136 C 
ATOM      5 CL1  UNL     1     152.038 160.806 157.442  0.00  0.00    -0.061 Cl
ATOM      6  C4  UNL     1     150.856 158.411 158.201  0.00  0.00    +0.013 A 
ATOM      7  C5  UNL     1     150.125 158.174 157.030  0.00  0.00    -0.052 A 
ATOM      8  C6  UNL     1     149.826 156.864 156.655  0.00  0.00    -0.060 A 
ATOM      9  C7  UNL     1     150.260 155.797 157.443  0.00  0.00    -0.043 A 
ATOM     10  C8  UNL     1     150.998 156.041 158.602  0.00  0.00    +0.042 A 
ATOM     11 CL2  UNL     1     151.537 154.720 159.562  0.00  0.00    -0.084 Cl
ATOM     12  C9  UNL     1     151.304 157.344 158.986  0.00  0.00    -0.033 A 
ENDROOT
TORSDOF 0
ENDMDL
MODEL 2
REMARK VINA RESULT:    -5.232      2.058      3.014
REMARK INTER + INTRA:          -5.232
REMARK INTER:                  -5.232
REMARK INTRA:                   0.000
REMARK UNBOUND:                 0.000
REMARK  Name = /home/vital/Documents/PhD_2021/Malaria_codes/scripts/../data/pdbqt_ligands/ligand_154_temp.pdb
REMARK                            x       y       z     vdW  Elec       q    Type
REMARK                         _______ _______ _______ _____ _____    ______ ____
ROOT
ATOM      1  C1  UNL     1     151.966 161.159 157.036  0.00  0.00    -0.080 C 
ATOM      2  C2  UNL     1     151.952 160.276 158.037  0.00  0.00    +0.022 C 
ATOM      3  N1  UNL     1     151.076 160.392 159.077  0.00  0.00    -0.244 NA
ATOM      4  C3  UNL     1     150.570 159.331 159.633  0.00  0.00    +0.136 C 
ATOM      5 CL1  UNL     1     149.578 159.662 161.022  0.00  0.00    -0.061 Cl
ATOM      6  C4  UNL     1     150.742 157.923 159.197  0.00  0.00    +0.013 A 
ATOM      7  C5  UNL     1     151.218 156.973 160.110  0.00  0.00    -0.052 A 
ATOM      8  C6  UNL     1     151.363 155.644 159.712  0.00  0.00    -0.060 A 
ATOM      9  C7  UNL     1     151.027 155.265 158.411  0.00  0.00    -0.043 A 
ATOM     10  C8  UNL     1     150.541 156.215 157.511  0.00  0.00    +0.042 A 
ATOM     11 CL2  UNL     1     150.121 155.739 155.913  0.00  0.00    -0.084 Cl
ATOM     12  C9  UNL     1     150.392 157.545 157.897  0.00  0.00    -0.033 A 
ENDROOT
TORSDOF 0
ENDMDL
MODEL 3
REMARK VINA RESULT:    -5.221      2.067      3.187
REMARK INTER + INTRA:          -5.221
REMARK INTER:                  -5.221
REMARK INTRA:                   0.000
REMARK UNBOUND:                 0.000
REMARK  Name = /home/vital/Documents/PhD_2021/Malaria_codes/scripts/../data/pdbqt_ligands/ligand_154_temp.pdb
REMARK                            x       y       z     vdW  Elec       q    Type
REMARK                         _______ _______ _______ _____ _____    ______ ____
ROOT
ATOM      1  C1  UNL     1     152.488 161.105 159.861  0.00  0.00    -0.080 C 
ATOM      2  C2  UNL     1     152.377 159.774 159.865  0.00  0.00    +0.022 C 
ATOM      3  N1  UNL     1     151.315 159.150 160.454  0.00  0.00    -0.244 NA
ATOM      4  C3  UNL     1     150.824 158.062 159.940  0.00  0.00    +0.136 C 
ATOM      5 CL1  UNL     1     149.562 157.335 160.890  0.00  0.00    -0.061 Cl
ATOM      6  C4  UNL     1     151.213 157.420 158.660  0.00  0.00    +0.013 A 
ATOM      7  C5  UNL     1     151.604 156.075 158.655  0.00  0.00    -0.052 A 
ATOM      8  C6  UNL     1     151.952 155.460 157.452  0.00  0.00    -0.060 A 
ATOM      9  C7  UNL     1     151.904 156.185 156.260  0.00  0.00    -0.043 A 
ATOM     10  C8  UNL     1     151.501 157.521 156.271  0.00  0.00    +0.042 A 
ATOM     11 CL2  UNL     1     151.436 158.404 154.797  0.00  0.00    -0.084 Cl
ATOM     12  C9  UNL     1     151.150 158.146 157.466  0.00  0.00    -0.033 A 
ENDROOT
TORSDOF 0
ENDMDL
MODEL 4
REMARK VINA RESULT:    -5.216      2.638      3.670
REMARK INTER + INTRA:          -5.216
REMARK INTER:                  -5.216
REMARK INTRA:                   0.000
REMARK UNBOUND:                 0.000
REMARK  Name = /home/vital/Documents/PhD_2021/Malaria_codes/scripts/../data/pdbqt_ligands/ligand_154_temp.pdb
REMARK                            x       y       z     vdW  Elec       q    Type
REMARK                         _______ _______ _______ _____ _____    ______ ____
ROOT
ATOM      1  C1  UNL     1     149.433 153.767 161.040  0.00  0.00    -0.080 C 
ATOM      2  C2  UNL     1     149.514 155.071 160.765  0.00  0.00    +0.022 C 
ATOM      3  N1  UNL     1     150.549 155.833 161.224  0.00  0.00    -0.244 NA
ATOM      4  C3  UNL     1     151.026 156.801 160.499  0.00  0.00    +0.136 C 
ATOM      5 CL1  UNL     1     152.252 157.744 161.292  0.00  0.00    -0.061 Cl
ATOM      6  C4  UNL     1     150.646 157.149 159.107  0.00  0.00    +0.013 A 
ATOM      7  C5  UNL     1     150.225 158.452 158.814  0.00  0.00    -0.052 A 
ATOM      8  C6  UNL     1     149.886 158.790 157.504  0.00  0.00    -0.060 A 
ATOM      9  C7  UNL     1     149.973 157.833 156.492  0.00  0.00    -0.043 A 
ATOM     10  C8  UNL     1     150.406 156.540 156.790  0.00  0.00    +0.042 A 
ATOM     11 CL2  UNL     1     150.520 155.369 155.536  0.00  0.00    -0.084 Cl
ATOM     12  C9  UNL     1     150.748 156.190 158.094  0.00  0.00    -0.033 A 
ENDROOT
TORSDOF 0
ENDMDL
MODEL 5
REMARK VINA RESULT:    -5.109      1.869      4.782
REMARK INTER + INTRA:          -5.109
REMARK INTER:                  -5.109
REMARK INTRA:                   0.000
REMARK UNBOUND:                 0.000
REMARK  Name = /home/vital/Documents/PhD_2021/Malaria_codes/scripts/../data/pdbqt_ligands/ligand_154_temp.pdb
REMARK                            x       y       z     vdW  Elec       q    Type
REMARK                         _______ _______ _______ _____ _____    ______ ____
ROOT
ATOM      1  C1  UNL     1     151.603 158.522 155.150  0.00  0.00    -0.080 C 
ATOM      2  C2  UNL     1     150.924 158.223 156.260  0.00  0.00    +0.022 C 
ATOM      3  N1  UNL     1     151.214 157.110 156.995  0.00  0.00    -0.244 NA
ATOM      4  C3  UNL     1     151.112 157.131 158.290  0.00  0.00    +0.136 C 
ATOM      5 CL1  UNL     1     151.394 155.593 159.051  0.00  0.00    -0.061 Cl
ATOM      6  C4  UNL     1     150.806 158.305 159.146  0.00  0.00    +0.013 A 
ATOM      7  C5  UNL     1     149.735 158.241 160.045  0.00  0.00    -0.052 A 
ATOM      8  C6  UNL     1     149.454 159.333 160.866  0.00  0.00    -0.060 A 
ATOM      9  C7  UNL     1     150.245 160.481 160.792  0.00  0.00    -0.043 A 
ATOM     10  C8  UNL     1     151.319 160.533 159.902  0.00  0.00    +0.042 A 
ATOM     11 CL2  UNL     1     152.293 161.947 159.823  0.00  0.00    -0.084 Cl
ATOM     12  C9  UNL     1     151.609 159.448 159.078  0.00  0.00    -0.033 A 
ENDROOT
TORSDOF 0
ENDMDL
MODEL 6
REMARK VINA RESULT:    -5.066      2.527      4.230
REMARK INTER + INTRA:          -5.066
REMARK INTER:                  -5.066
REMARK INTRA:                   0.000
REMARK UNBOUND:                 0.000
REMARK  Name = /home/vital/Documents/PhD_2021/Malaria_codes/scripts/../data/pdbqt_ligands/ligand_154_temp.pdb
REMARK                            x       y       z     vdW  Elec       q    Type
REMARK                         _______ _______ _______ _____ _____    ______ ____
ROOT
ATOM      1  C1  UNL     1     151.028 154.734 160.459  0.00  0.00    -0.080 C 
ATOM      2  C2  UNL     1     151.386 155.572 159.483  0.00  0.00    +0.022 C 
ATOM      3  N1  UNL     1     150.786 155.535 158.257  0.00  0.00    -0.244 NA
ATOM      4  C3  UNL     1     150.587 156.631 157.588  0.00  0.00    +0.136 C 
ATOM      5 CL1  UNL     1     149.932 156.383 155.996  0.00  0.00    -0.061 Cl
ATOM      6  C4  UNL     1     150.840 158.019 158.047  0.00  0.00    +0.013 A 
ATOM      7  C5  UNL     1     151.655 158.860 157.279  0.00  0.00    -0.052 A 
ATOM      8  C6  UNL     1     151.881 160.173 157.695  0.00  0.00    -0.060 A 
ATOM      9  C7  UNL     1     151.290 160.643 158.869  0.00  0.00    -0.043 A 
ATOM     10  C8  UNL     1     150.469 159.803 159.623  0.00  0.00    +0.042 A 
ATOM     11 CL2  UNL     1     149.738 160.392 161.063  0.00  0.00    -0.084 Cl
ATOM     12  C9  UNL     1     150.235 158.490 159.217  0.00  0.00    -0.033 A 
ENDROOT
TORSDOF 0
ENDMDL
MODEL 7
REMARK VINA RESULT:    -4.979      2.335      4.087
REMARK INTER + INTRA:          -4.979
REMARK INTER:                  -4.979
REMARK INTRA:                   0.000
REMARK UNBOUND:                 0.000
REMARK  Name = /home/vital/Documents/PhD_2021/Malaria_codes/scripts/../data/pdbqt_ligands/ligand_154_temp.pdb
REMARK                            x       y       z     vdW  Elec       q    Type
REMARK                         _______ _______ _______ _____ _____    ______ ____
ROOT
ATOM      1  C1  UNL     1     152.493 155.646 154.952  0.00  0.00    -0.080 C 
ATOM      2  C2  UNL     1     152.394 156.537 155.942  0.00  0.00    +0.022 C 
ATOM      3  N1  UNL     1     151.368 157.436 155.993  0.00  0.00    -0.244 NA
ATOM      4  C3  UNL     1     150.863 157.795 157.135  0.00  0.00    +0.136 C 
ATOM      5 CL1  UNL     1     149.656 159.040 157.018  0.00  0.00    -0.061 Cl
ATOM      6  C4  UNL     1     151.196 157.248 158.474  0.00  0.00    +0.013 A 
ATOM      7  C5  UNL     1     151.599 158.119 159.493  0.00  0.00    -0.052 A 
ATOM      8  C6  UNL     1     151.895 157.614 160.759  0.00  0.00    -0.060 A 
ATOM      9  C7  UNL     1     151.782 156.244 161.006  0.00  0.00    -0.043 A 
ATOM     10  C8  UNL     1     151.368 155.383 159.989  0.00  0.00    +0.042 A 
ATOM     11 CL2  UNL     1     151.223 153.699 160.304  0.00  0.00    -0.084 Cl
ATOM     12  C9  UNL     1     151.069 155.877 158.721  0.00  0.00    -0.033 A 
ENDROOT
TORSDOF 0
ENDMDL
MODEL 8
REMARK VINA RESULT:    -4.777      2.586      3.780
REMARK INTER + INTRA:          -4.777
REMARK INTER:                  -4.777
REMARK INTRA:                   0.000
REMARK UNBOUND:                 0.000
REMARK  Name = /home/vital/Documents/PhD_2021/Malaria_codes/scripts/../data/pdbqt_ligands/ligand_154_temp.pdb
REMARK                            x       y       z     vdW  Elec       q    Type
REMARK                         _______ _______ _______ _____ _____    ______ ____
ROOT
ATOM      1  C1  UNL     1     150.447 159.874 157.994  0.00  0.00    -0.080 C 
ATOM      2  C2  UNL     1     150.228 158.557 158.032  0.00  0.00    +0.022 C 
ATOM      3  N1  UNL     1     151.066 157.677 157.412  0.00  0.00    -0.244 NA
ATOM      4  C3  UNL     1     151.305 156.513 157.938  0.00  0.00    +0.136 C 
ATOM      5 CL1  UNL     1     152.290 155.475 156.950  0.00  0.00    -0.061 Cl
ATOM      6  C4  UNL     1     150.846 156.015 159.259  0.00  0.00    +0.013 A 
ATOM      7  C5  UNL     1     150.137 154.810 159.332  0.00  0.00    -0.052 A 
ATOM      8  C6  UNL     1     149.720 154.327 160.573  0.00  0.00    -0.060 A 
ATOM      9  C7  UNL     1     150.016 155.043 161.734  0.00  0.00    -0.043 A 
ATOM     10  C8  UNL     1     150.733 156.237 161.654  0.00  0.00    +0.042 A 
ATOM     11 CL2  UNL     1     151.101 157.109 163.090  0.00  0.00    -0.084 Cl
ATOM     12  C9  UNL     1     151.155 156.729 160.421  0.00  0.00    -0.033 A 
ENDROOT
TORSDOF 0
ENDMDL
MODEL 9
REMARK VINA RESULT:    -4.743      2.294      3.990
REMARK INTER + INTRA:          -4.743
REMARK INTER:                  -4.743
REMARK INTRA:                   0.000
REMARK UNBOUND:                 0.000
REMARK  Name = /home/vital/Documents/PhD_2021/Malaria_codes/scripts/../data/pdbqt_ligands/ligand_154_temp.pdb
REMARK                            x       y       z     vdW  Elec       q    Type
REMARK                         _______ _______ _______ _____ _____    ______ ____
ROOT
ATOM      1  C1  UNL     1     152.424 157.515 162.940  0.00  0.00    -0.080 C 
ATOM      2  C2  UNL     1     152.264 156.722 161.878  0.00  0.00    +0.022 C 
ATOM      3  N1  UNL     1     151.195 155.879 161.773  0.00  0.00    -0.244 NA
ATOM      4  C3  UNL     1     150.650 155.648 160.616  0.00  0.00    +0.136 C 
ATOM      5 CL1  UNL     1     149.388 154.453 160.651  0.00  0.00    -0.061 Cl
ATOM      6  C4  UNL     1     150.982 156.297 159.323  0.00  0.00    +0.013 A 
ATOM      7  C5  UNL     1     151.323 155.503 158.221  0.00  0.00    -0.052 A 
ATOM      8  C6  UNL     1     151.617 156.106 156.998  0.00  0.00    -0.060 A 
ATOM      9  C7  UNL     1     151.565 157.496 156.876  0.00  0.00    -0.043 A 
ATOM     10  C8  UNL     1     151.213 158.280 157.976  0.00  0.00    +0.042 A 
ATOM     11 CL2  UNL     1     151.142 159.990 157.815  0.00  0.00    -0.084 Cl
ATOM     12  C9  UNL     1     150.916 157.689 159.202  0.00  0.00    -0.033 A 
ENDROOT
TORSDOF 0
ENDMDL
