MODEL 1
REMARK VINA RESULT:    -4.229      0.000      0.000
REMARK INTER + INTRA:          -4.229
REMARK INTER:                  -4.229
REMARK INTRA:                   0.000
REMARK UNBOUND:                 0.000
REMARK  Name = /home/vital/Documents/PhD_2021/Malaria_codes/scripts/../data/pdbqt_ligands/ligand_135_temp.pdb
REMARK                            x       y       z     vdW  Elec       q    Type
REMARK                         _______ _______ _______ _____ _____    ______ ____
ROOT
ATOM      1  C1  UNL     1     151.852 157.651 166.305  0.00  0.00    -0.082 C 
ATOM      2  C2  UNL     1     152.478 157.638 167.493  0.00  0.00    -0.002 C 
ATOM      3  C3  UNL     1     152.639 158.943 168.239  0.00  0.00    -0.027 C 
ATOM      4  N1  UNL     1     153.065 156.551 168.105  0.00  0.00    -0.316 N 
ATOM      5  C4  UNL     1     152.904 155.163 167.934  0.00  0.00    +0.074 A 
ATOM      6  C5  UNL     1     151.768 154.574 167.372  0.00  0.00    -0.023 A 
ATOM      7  C6  UNL     1     151.685 153.182 167.204  0.00  0.00    +0.061 A 
ATOM      8  C7  UNL     1     150.490 152.521 166.610  0.00  0.00    +0.339 C 
ATOM      9  O1  UNL     1     150.380 151.310 166.497  0.00  0.00    -0.245 OA
ATOM     10  O2  UNL     1     149.573 153.440 166.220  0.00  0.00    -0.464 OA
ATOM     11  C8  UNL     1     148.396 152.876 165.638  0.00  0.00    +0.082 C 
ATOM     12  C9  UNL     1     152.750 152.367 167.613  0.00  0.00    -0.044 A 
ATOM     13  C10 UNL     1     153.887 152.932 168.190  0.00  0.00    -0.018 A 
ATOM     14  C11 UNL     1     153.952 154.316 168.345  0.00  0.00    +0.138 A 
ATOM     15  O3  UNL     1     155.058 154.894 168.922  0.00  0.00    -0.505 OA
ATOM     16  H   UNL     1     153.724 156.793 168.794  0.00  0.00    +0.000 HD
ATOM     17  H   UNL     1     155.099 155.824 169.025  0.00  0.00    +0.000 HD
ENDROOT
TORSDOF 0
ENDMDL
MODEL 2
REMARK VINA RESULT:    -3.793      6.503      8.326
REMARK INTER + INTRA:          -3.793
REMARK INTER:                  -3.793
REMARK INTRA:                   0.000
REMARK UNBOUND:                 0.000
REMARK  Name = /home/vital/Documents/PhD_2021/Malaria_codes/scripts/../data/pdbqt_ligands/ligand_135_temp.pdb
REMARK                            x       y       z     vdW  Elec       q    Type
REMARK                         _______ _______ _______ _____ _____    ______ ____
ROOT
ATOM      1  C1  UNL     1     149.819 161.692 164.293  0.00  0.00    -0.082 C 
ATOM      2  C2  UNL     1     150.904 162.427 163.999  0.00  0.00    -0.002 C 
ATOM      3  C3  UNL     1     151.312 163.528 164.951  0.00  0.00    -0.027 C 
ATOM      4  N1  UNL     1     151.680 162.334 162.863  0.00  0.00    -0.316 N 
ATOM      5  C4  UNL     1     151.848 161.315 161.906  0.00  0.00    +0.074 A 
ATOM      6  C5  UNL     1     151.559 159.968 162.146  0.00  0.00    -0.023 A 
ATOM      7  C6  UNL     1     151.722 159.005 161.137  0.00  0.00    +0.061 A 
ATOM      8  C7  UNL     1     151.426 157.562 161.357  0.00  0.00    +0.339 C 
ATOM      9  O1  UNL     1     151.604 156.703 160.507  0.00  0.00    -0.245 OA
ATOM     10  O2  UNL     1     150.939 157.353 162.605  0.00  0.00    -0.464 OA
ATOM     11  C8  UNL     1     150.631 155.987 162.888  0.00  0.00    +0.082 C 
ATOM     12  C9  UNL     1     152.188 159.393 159.873  0.00  0.00    -0.044 A 
ATOM     13  C10 UNL     1     152.495 160.729 159.616  0.00  0.00    -0.018 A 
ATOM     14  C11 UNL     1     152.324 161.671 160.629  0.00  0.00    +0.138 A 
ATOM     15  O3  UNL     1     152.631 162.991 160.404  0.00  0.00    -0.505 OA
ATOM     16  H   UNL     1     152.221 163.137 162.686  0.00  0.00    +0.000 HD
ATOM     17  H   UNL     1     152.516 163.622 161.086  0.00  0.00    +0.000 HD
ENDROOT
TORSDOF 0
ENDMDL
MODEL 3
REMARK VINA RESULT:    -3.716      9.431     11.132
REMARK INTER + INTRA:          -3.716
REMARK INTER:                  -3.716
REMARK INTRA:                   0.000
REMARK UNBOUND:                 0.000
REMARK  Name = /home/vital/Documents/PhD_2021/Malaria_codes/scripts/../data/pdbqt_ligands/ligand_135_temp.pdb
REMARK                            x       y       z     vdW  Elec       q    Type
REMARK                         _______ _______ _______ _____ _____    ______ ____
ROOT
ATOM      1  C1  UNL     1     152.907 156.702 155.362  0.00  0.00    -0.082 C 
ATOM      2  C2  UNL     1     152.327 157.804 154.859  0.00  0.00    -0.002 C 
ATOM      3  C3  UNL     1     152.217 157.942 153.358  0.00  0.00    -0.027 C 
ATOM      4  N1  UNL     1     151.860 158.888 155.571  0.00  0.00    -0.316 N 
ATOM      5  C4  UNL     1     151.498 159.055 156.922  0.00  0.00    +0.074 A 
ATOM      6  C5  UNL     1     151.133 158.001 157.765  0.00  0.00    -0.023 A 
ATOM      7  C6  UNL     1     150.811 158.235 159.112  0.00  0.00    +0.061 A 
ATOM      8  C7  UNL     1     150.416 157.137 160.038  0.00  0.00    +0.339 C 
ATOM      9  O1  UNL     1     150.090 157.325 161.200  0.00  0.00    -0.245 OA
ATOM     10  O2  UNL     1     150.478 155.934 159.416  0.00  0.00    -0.464 OA
ATOM     11  C8  UNL     1     150.112 154.831 160.248  0.00  0.00    +0.082 C 
ATOM     12  C9  UNL     1     150.847 159.541 159.620  0.00  0.00    -0.044 A 
ATOM     13  C10 UNL     1     151.195 160.608 158.793  0.00  0.00    -0.018 A 
ATOM     14  C11 UNL     1     151.514 160.357 157.460  0.00  0.00    +0.138 A 
ATOM     15  O3  UNL     1     151.849 161.394 156.623  0.00  0.00    -0.505 OA
ATOM     16  H   UNL     1     151.760 159.704 155.030  0.00  0.00    +0.000 HD
ATOM     17  H   UNL     1     152.063 161.223 155.727  0.00  0.00    +0.000 HD
ENDROOT
TORSDOF 0
ENDMDL
MODEL 4
REMARK VINA RESULT:    -3.709      7.990      9.305
REMARK INTER + INTRA:          -3.709
REMARK INTER:                  -3.709
REMARK INTRA:                   0.000
REMARK UNBOUND:                 0.000
REMARK  Name = /home/vital/Documents/PhD_2021/Malaria_codes/scripts/../data/pdbqt_ligands/ligand_135_temp.pdb
REMARK                            x       y       z     vdW  Elec       q    Type
REMARK                         _______ _______ _______ _____ _____    ______ ____
ROOT
ATOM      1  C1  UNL     1     152.075 160.241 160.226  0.00  0.00    -0.082 C 
ATOM      2  C2  UNL     1     150.895 159.925 160.782  0.00  0.00    -0.002 C 
ATOM      3  C3  UNL     1     150.110 161.011 161.482  0.00  0.00    -0.027 C 
ATOM      4  N1  UNL     1     150.323 158.672 160.847  0.00  0.00    -0.316 N 
ATOM      5  C4  UNL     1     150.534 157.490 160.111  0.00  0.00    +0.074 A 
ATOM      6  C5  UNL     1     151.103 157.460 158.835  0.00  0.00    -0.023 A 
ATOM      7  C6  UNL     1     151.313 156.243 158.167  0.00  0.00    +0.061 A 
ATOM      8  C7  UNL     1     151.915 156.174 156.807  0.00  0.00    +0.339 C 
ATOM      9  O1  UNL     1     152.064 155.128 156.192  0.00  0.00    -0.245 OA
ATOM     10  O2  UNL     1     152.267 157.408 156.370  0.00  0.00    -0.464 OA
ATOM     11  C8  UNL     1     152.855 157.418 155.068  0.00  0.00    +0.082 C 
ATOM     12  C9  UNL     1     150.940 155.039 158.782  0.00  0.00    -0.044 A 
ATOM     13  C10 UNL     1     150.358 155.047 160.049  0.00  0.00    -0.018 A 
ATOM     14  C11 UNL     1     150.160 156.265 160.697  0.00  0.00    +0.138 A 
ATOM     15  O3  UNL     1     149.577 156.298 161.941  0.00  0.00    -0.505 OA
ATOM     16  H   UNL     1     149.632 158.587 161.544  0.00  0.00    +0.000 HD
ATOM     17  H   UNL     1     149.446 157.118 162.374  0.00  0.00    +0.000 HD
ENDROOT
TORSDOF 0
ENDMDL
MODEL 5
REMARK VINA RESULT:    -3.650      6.713      9.220
REMARK INTER + INTRA:          -3.650
REMARK INTER:                  -3.650
REMARK INTRA:                   0.000
REMARK UNBOUND:                 0.000
REMARK  Name = /home/vital/Documents/PhD_2021/Malaria_codes/scripts/../data/pdbqt_ligands/ligand_135_temp.pdb
REMARK                            x       y       z     vdW  Elec       q    Type
REMARK                         _______ _______ _______ _____ _____    ______ ____
ROOT
ATOM      1  C1  UNL     1     151.377 156.399 162.558  0.00  0.00    -0.082 C 
ATOM      2  C2  UNL     1     151.229 156.469 161.225  0.00  0.00    -0.002 C 
ATOM      3  C3  UNL     1     150.790 155.230 160.479  0.00  0.00    -0.027 C 
ATOM      4  N1  UNL     1     151.497 157.557 160.422  0.00  0.00    -0.316 N 
ATOM      5  C4  UNL     1     151.625 158.933 160.695  0.00  0.00    +0.074 A 
ATOM      6  C5  UNL     1     151.076 159.557 161.819  0.00  0.00    -0.023 A 
ATOM      7  C6  UNL     1     151.266 160.930 162.046  0.00  0.00    +0.061 A 
ATOM      8  C7  UNL     1     150.696 161.627 163.231  0.00  0.00    +0.339 C 
ATOM      9  O1  UNL     1     150.812 162.828 163.423  0.00  0.00    -0.245 OA
ATOM     10  O2  UNL     1     150.052 160.753 164.044  0.00  0.00    -0.464 OA
ATOM     11  C8  UNL     1     149.479 161.355 165.205  0.00  0.00    +0.082 C 
ATOM     12  C9  UNL     1     152.009 161.690 161.131  0.00  0.00    -0.044 A 
ATOM     13  C10 UNL     1     152.553 161.090 159.996  0.00  0.00    -0.018 A 
ATOM     14  C11 UNL     1     152.356 159.726 159.789  0.00  0.00    +0.138 A 
ATOM     15  O3  UNL     1     152.873 159.116 158.671  0.00  0.00    -0.505 OA
ATOM     16  H   UNL     1     151.624 157.327 159.473  0.00  0.00    +0.000 HD
ATOM     17  H   UNL     1     152.739 158.199 158.535  0.00  0.00    +0.000 HD
ENDROOT
TORSDOF 0
ENDMDL
MODEL 6
REMARK VINA RESULT:    -3.644      7.462      9.090
REMARK INTER + INTRA:          -3.644
REMARK INTER:                  -3.644
REMARK INTRA:                   0.000
REMARK UNBOUND:                 0.000
REMARK  Name = /home/vital/Documents/PhD_2021/Malaria_codes/scripts/../data/pdbqt_ligands/ligand_135_temp.pdb
REMARK                            x       y       z     vdW  Elec       q    Type
REMARK                         _______ _______ _______ _____ _____    ______ ____
ROOT
ATOM      1  C1  UNL     1     150.149 157.136 156.745  0.00  0.00    -0.082 C 
ATOM      2  C2  UNL     1     151.109 156.207 156.871  0.00  0.00    -0.002 C 
ATOM      3  C3  UNL     1     151.838 155.747 155.628  0.00  0.00    -0.027 C 
ATOM      4  N1  UNL     1     151.480 155.554 158.027  0.00  0.00    -0.316 N 
ATOM      5  C4  UNL     1     151.299 155.858 159.390  0.00  0.00    +0.074 A 
ATOM      6  C5  UNL     1     151.054 157.147 159.874  0.00  0.00    -0.023 A 
ATOM      7  C6  UNL     1     150.854 157.376 161.245  0.00  0.00    +0.061 A 
ATOM      8  C7  UNL     1     150.592 158.734 161.796  0.00  0.00    +0.339 C 
ATOM      9  O1  UNL     1     150.459 158.961 162.989  0.00  0.00    -0.245 OA
ATOM     10  O2  UNL     1     150.519 159.654 160.801  0.00  0.00    -0.464 OA
ATOM     11  C8  UNL     1     150.267 160.984 161.257  0.00  0.00    +0.082 C 
ATOM     12  C9  UNL     1     150.907 156.303 162.145  0.00  0.00    -0.044 A 
ATOM     13  C10 UNL     1     151.164 155.011 161.686  0.00  0.00    -0.018 A 
ATOM     14  C11 UNL     1     151.358 154.803 160.322  0.00  0.00    +0.138 A 
ATOM     15  O3  UNL     1     151.625 153.541 159.847  0.00  0.00    -0.505 OA
ATOM     16  H   UNL     1     151.966 154.713 157.870  0.00  0.00    +0.000 HD
ATOM     17  H   UNL     1     151.754 153.404 158.930  0.00  0.00    +0.000 HD
ENDROOT
TORSDOF 0
ENDMDL
MODEL 7
REMARK VINA RESULT:    -3.526      7.903      9.716
REMARK INTER + INTRA:          -3.526
REMARK INTER:                  -3.526
REMARK INTRA:                   0.000
REMARK UNBOUND:                 0.000
REMARK  Name = /home/vital/Documents/PhD_2021/Malaria_codes/scripts/../data/pdbqt_ligands/ligand_135_temp.pdb
REMARK                            x       y       z     vdW  Elec       q    Type
REMARK                         _______ _______ _______ _____ _____    ______ ____
ROOT
ATOM      1  C1  UNL     1     149.457 154.183 160.736  0.00  0.00    -0.082 C 
ATOM      2  C2  UNL     1     150.024 154.994 161.643  0.00  0.00    -0.002 C 
ATOM      3  C3  UNL     1     150.443 154.410 162.974  0.00  0.00    -0.027 C 
ATOM      4  N1  UNL     1     150.221 156.353 161.526  0.00  0.00    -0.316 N 
ATOM      5  C4  UNL     1     150.264 157.216 160.414  0.00  0.00    +0.074 A 
ATOM      6  C5  UNL     1     150.537 156.791 159.110  0.00  0.00    -0.023 A 
ATOM      7  C6  UNL     1     150.536 157.701 158.041  0.00  0.00    +0.061 A 
ATOM      8  C7  UNL     1     150.824 157.284 156.641  0.00  0.00    +0.339 C 
ATOM      9  O1  UNL     1     150.872 158.067 155.704  0.00  0.00    -0.245 OA
ATOM     10  O2  UNL     1     151.014 155.944 156.564  0.00  0.00    -0.464 OA
ATOM     11  C8  UNL     1     151.294 155.471 155.245  0.00  0.00    +0.082 C 
ATOM     12  C9  UNL     1     150.267 159.056 158.280  0.00  0.00    -0.044 A 
ATOM     13  C10 UNL     1     150.005 159.503 159.574  0.00  0.00    -0.018 A 
ATOM     14  C11 UNL     1     150.008 158.586 160.623  0.00  0.00    +0.138 A 
ATOM     15  O3  UNL     1     149.765 159.005 161.908  0.00  0.00    -0.505 OA
ATOM     16  H   UNL     1     150.357 156.810 162.388  0.00  0.00    +0.000 HD
ATOM     17  H   UNL     1     149.767 158.386 162.611  0.00  0.00    +0.000 HD
ENDROOT
TORSDOF 0
ENDMDL
MODEL 8
REMARK VINA RESULT:    -3.500     13.708     16.191
REMARK INTER + INTRA:          -3.500
REMARK INTER:                  -3.500
REMARK INTRA:                   0.000
REMARK UNBOUND:                 0.000
REMARK  Name = /home/vital/Documents/PhD_2021/Malaria_codes/scripts/../data/pdbqt_ligands/ligand_135_temp.pdb
REMARK                            x       y       z     vdW  Elec       q    Type
REMARK                         _______ _______ _______ _____ _____    ______ ____
ROOT
ATOM      1  C1  UNL     1     140.638 140.782 165.290  0.00  0.00    -0.082 C 
ATOM      2  C2  UNL     1     141.256 139.956 164.431  0.00  0.00    -0.002 C 
ATOM      3  C3  UNL     1     140.518 138.728 163.950  0.00  0.00    -0.027 C 
ATOM      4  N1  UNL     1     142.550 140.066 163.968  0.00  0.00    -0.316 N 
ATOM      5  C4  UNL     1     143.451 141.146 163.910  0.00  0.00    +0.074 A 
ATOM      6  C5  UNL     1     143.060 142.488 163.936  0.00  0.00    -0.023 A 
ATOM      7  C6  UNL     1     144.014 143.518 163.904  0.00  0.00    +0.061 A 
ATOM      8  C7  UNL     1     143.633 144.957 163.928  0.00  0.00    +0.339 C 
ATOM      9  O1  UNL     1     144.445 145.868 163.857  0.00  0.00    -0.245 OA
ATOM     10  O2  UNL     1     142.290 145.101 164.045  0.00  0.00    -0.464 OA
ATOM     11  C8  UNL     1     141.851 146.460 164.076  0.00  0.00    +0.082 C 
ATOM     12  C9  UNL     1     145.378 143.201 163.838  0.00  0.00    -0.044 A 
ATOM     13  C10 UNL     1     145.790 141.870 163.797  0.00  0.00    -0.018 A 
ATOM     14  C11 UNL     1     144.829 140.861 163.832  0.00  0.00    +0.138 A 
ATOM     15  O3  UNL     1     145.211 139.542 163.781  0.00  0.00    -0.505 OA
ATOM     16  H   UNL     1     142.915 139.225 163.608  0.00  0.00    +0.000 HD
ATOM     17  H   UNL     1     144.562 138.866 163.805  0.00  0.00    +0.000 HD
ENDROOT
TORSDOF 0
ENDMDL
MODEL 9
REMARK VINA RESULT:    -3.162      7.329      8.703
REMARK INTER + INTRA:          -3.162
REMARK INTER:                  -3.162
REMARK INTRA:                   0.000
REMARK UNBOUND:                 0.000
REMARK  Name = /home/vital/Documents/PhD_2021/Malaria_codes/scripts/../data/pdbqt_ligands/ligand_135_temp.pdb
REMARK                            x       y       z     vdW  Elec       q    Type
REMARK                         _______ _______ _______ _____ _____    ______ ____
ROOT
ATOM      1  C1  UNL     1     150.481 160.271 161.275  0.00  0.00    -0.082 C 
ATOM      2  C2  UNL     1     151.444 160.420 160.352  0.00  0.00    -0.002 C 
ATOM      3  C3  UNL     1     152.315 161.655 160.408  0.00  0.00    -0.027 C 
ATOM      4  N1  UNL     1     151.702 159.585 159.286  0.00  0.00    -0.316 N 
ATOM      5  C4  UNL     1     151.366 158.242 159.027  0.00  0.00    +0.074 A 
ATOM      6  C5  UNL     1     151.039 157.316 160.022  0.00  0.00    -0.023 A 
ATOM      7  C6  UNL     1     150.685 155.998 159.692  0.00  0.00    +0.061 A 
ATOM      8  C7  UNL     1     150.332 154.986 160.725  0.00  0.00    +0.339 C 
ATOM      9  O1  UNL     1     150.065 153.823 160.461  0.00  0.00    -0.245 OA
ATOM     10  O2  UNL     1     150.347 155.534 161.965  0.00  0.00    -0.464 OA
ATOM     11  C8  UNL     1     150.016 154.618 163.009  0.00  0.00    +0.082 C 
ATOM     12  C9  UNL     1     150.665 155.599 158.348  0.00  0.00    -0.044 A 
ATOM     13  C10 UNL     1     151.001 156.502 157.340  0.00  0.00    -0.018 A 
ATOM     14  C11 UNL     1     151.348 157.807 157.687  0.00  0.00    +0.138 A 
ATOM     15  O3  UNL     1     151.694 158.711 156.712  0.00  0.00    -0.505 OA
ATOM     16  H   UNL     1     152.222 160.010 158.566  0.00  0.00    +0.000 HD
ATOM     17  H   UNL     1     151.926 159.587 156.948  0.00  0.00    +0.000 HD
ENDROOT
TORSDOF 0
ENDMDL
