MODEL 1
REMARK VINA RESULT:    -8.464      0.000      0.000
REMARK INTER + INTRA:          -8.464
REMARK INTER:                  -8.464
REMARK INTRA:                   0.000
REMARK UNBOUND:                 0.000
REMARK  Name = /home/vital/Documents/PhD_2021/Malaria_codes/scripts/../data/pdbqt_ligands/ligand_443_temp.pdb
REMARK                            x       y       z     vdW  Elec       q    Type
REMARK                         _______ _______ _______ _____ _____    ______ ____
ROOT
ATOM      1  N   UNL     1     151.564 161.337 161.752  0.00  0.00    -0.326 N 
ATOM      2  C   UNL     1     150.110 161.353 161.829  0.00  0.00    +0.019 C 
ATOM      3  C   UNL     1     149.468 160.230 161.074  0.00  0.00    -0.028 C 
ATOM      4  C   UNL     1     149.994 159.558 160.089  0.00  0.00    -0.116 C 
ATOM      5  C   UNL     1     150.530 158.891 159.107  0.00  0.00    +0.039 C 
ATOM      6  C   UNL     1     150.537 157.409 159.010  0.00  0.00    +0.076 C 
ATOM      7  N   UNL     1     150.942 156.881 157.717  0.00  0.00    -0.260 N 
ATOM      8  C   UNL     1     151.526 157.625 156.851  0.00  0.00    +0.156 C 
ATOM      9  C   UNL     1     151.944 157.038 155.537  0.00  0.00    +0.020 A 
ATOM     10  C   UNL     1     151.723 155.678 155.282  0.00  0.00    -0.050 A 
ATOM     11  C   UNL     1     152.108 155.115 154.062  0.00  0.00    -0.041 A 
ATOM     12  C   UNL     1     152.716 155.907 153.085  0.00  0.00    +0.059 A 
ATOM     13 CL   UNL     1     153.167 155.148 151.601  0.00  0.00    -0.082 Cl
ATOM     14  C   UNL     1     152.939 157.267 153.333  0.00  0.00    +0.060 A 
ATOM     15 CL   UNL     1     153.686 158.306 152.172  0.00  0.00    -0.082 Cl
ATOM     16  C   UNL     1     152.553 157.830 154.555  0.00  0.00    -0.031 A 
ATOM     17  N   UNL     1     151.810 158.951 157.027  0.00  0.00    -0.229 NA
ATOM     18  CA  UNL     1     151.320 159.567 158.058  0.00  0.00    +0.081 C 
ATOM     19  C   UNL     1     151.627 161.063 158.192  0.00  0.00    +0.087 C 
ATOM     20  O   UNL     1     152.016 161.620 156.940  0.00  0.00    -0.389 OA
ATOM     21  H   UNL     1     151.942 162.121 162.283  0.00  0.00    +0.000 HD
ATOM     22  H   UNL     1     151.853 161.415 160.777  0.00  0.00    +0.000 HD
ATOM     23  H   UNL     1     151.916 160.462 162.142  0.00  0.00    +0.000 HD
ATOM     24  H   UNL     1     150.765 155.936 157.503  0.00  0.00    +0.000 HD
ATOM     25  H   UNL     1     152.817 161.175 156.624  0.00  0.00    +0.000 HD
ENDROOT
TORSDOF 0
ENDMDL
MODEL 2
REMARK VINA RESULT:    -7.960      3.469      4.317
REMARK INTER + INTRA:          -7.960
REMARK INTER:                  -7.960
REMARK INTRA:                   0.000
REMARK UNBOUND:                 0.000
REMARK  Name = /home/vital/Documents/PhD_2021/Malaria_codes/scripts/../data/pdbqt_ligands/ligand_443_temp.pdb
REMARK                            x       y       z     vdW  Elec       q    Type
REMARK                         _______ _______ _______ _____ _____    ______ ____
ROOT
ATOM      1  N   UNL     1     149.897 154.795 163.928  0.00  0.00    -0.326 N 
ATOM      2  C   UNL     1     150.982 155.521 164.577  0.00  0.00    +0.019 C 
ATOM      3  C   UNL     1     151.501 156.660 163.754  0.00  0.00    -0.028 C 
ATOM      4  C   UNL     1     151.400 156.792 162.461  0.00  0.00    -0.116 C 
ATOM      5  C   UNL     1     151.290 156.916 161.169  0.00  0.00    +0.039 C 
ATOM      6  C   UNL     1     150.834 158.152 160.485  0.00  0.00    +0.076 C 
ATOM      7  N   UNL     1     151.040 158.168 159.045  0.00  0.00    -0.260 N 
ATOM      8  C   UNL     1     151.311 157.091 158.403  0.00  0.00    +0.156 C 
ATOM      9  C   UNL     1     151.499 157.147 156.917  0.00  0.00    +0.020 A 
ATOM     10  C   UNL     1     151.344 158.366 156.243  0.00  0.00    -0.050 A 
ATOM     11  C   UNL     1     151.516 158.434 154.857  0.00  0.00    -0.041 A 
ATOM     12  C   UNL     1     151.844 157.285 154.134  0.00  0.00    +0.059 A 
ATOM     13 CL   UNL     1     152.040 157.440 152.425  0.00  0.00    -0.082 Cl
ATOM     14  C   UNL     1     152.001 156.064 154.802  0.00  0.00    +0.060 A 
ATOM     15 CL   UNL     1     152.406 154.604 153.972  0.00  0.00    -0.082 Cl
ATOM     16  C   UNL     1     151.830 155.997 156.189  0.00  0.00    -0.031 A 
ATOM     17  N   UNL     1     151.448 155.857 158.974  0.00  0.00    -0.229 NA
ATOM     18  CA  UNL     1     151.478 155.762 160.267  0.00  0.00    +0.081 C 
ATOM     19  C   UNL     1     151.678 154.363 160.863  0.00  0.00    +0.087 C 
ATOM     20  O   UNL     1     152.243 153.474 159.905  0.00  0.00    -0.389 OA
ATOM     21  H   UNL     1     149.587 154.036 164.534  0.00  0.00    +0.000 HD
ATOM     22  H   UNL     1     150.228 154.411 163.043  0.00  0.00    +0.000 HD
ATOM     23  H   UNL     1     149.119 155.431 163.754  0.00  0.00    +0.000 HD
ATOM     24  H   UNL     1     150.971 159.019 158.556  0.00  0.00    +0.000 HD
ATOM     25  H   UNL     1     151.646 153.395 159.145  0.00  0.00    +0.000 HD
ENDROOT
TORSDOF 0
ENDMDL
MODEL 3
REMARK VINA RESULT:    -7.905      1.659      2.216
REMARK INTER + INTRA:          -7.905
REMARK INTER:                  -7.905
REMARK INTRA:                   0.000
REMARK UNBOUND:                 0.000
REMARK  Name = /home/vital/Documents/PhD_2021/Malaria_codes/scripts/../data/pdbqt_ligands/ligand_443_temp.pdb
REMARK                            x       y       z     vdW  Elec       q    Type
REMARK                         _______ _______ _______ _____ _____    ______ ____
ROOT
ATOM      1  N   UNL     1     152.453 161.872 163.535  0.00  0.00    -0.326 N 
ATOM      2  C   UNL     1     151.057 162.227 163.755  0.00  0.00    +0.019 C 
ATOM      3  C   UNL     1     150.099 161.260 163.130  0.00  0.00    -0.028 C 
ATOM      4  C   UNL     1     150.347 160.455 162.136  0.00  0.00    -0.116 C 
ATOM      5  C   UNL     1     150.607 159.652 161.144  0.00  0.00    +0.039 C 
ATOM      6  C   UNL     1     150.267 158.207 161.128  0.00  0.00    +0.076 C 
ATOM      7  N   UNL     1     150.398 157.560 159.832  0.00  0.00    -0.260 N 
ATOM      8  C   UNL     1     151.037 158.122 158.873  0.00  0.00    +0.156 C 
ATOM      9  C   UNL     1     151.164 157.414 157.558  0.00  0.00    +0.020 A 
ATOM     10  C   UNL     1     150.614 156.135 157.402  0.00  0.00    -0.050 A 
ATOM     11  C   UNL     1     150.725 155.461 156.182  0.00  0.00    -0.041 A 
ATOM     12  C   UNL     1     151.387 156.061 155.107  0.00  0.00    +0.059 A 
ATOM     13 CL   UNL     1     151.488 155.173 153.629  0.00  0.00    -0.082 Cl
ATOM     14  C   UNL     1     151.938 157.339 155.257  0.00  0.00    +0.060 A 
ATOM     15 CL   UNL     1     152.770 158.141 153.972  0.00  0.00    -0.082 Cl
ATOM     16  C   UNL     1     151.826 158.013 156.479  0.00  0.00    -0.031 A 
ATOM     17  N   UNL     1     151.632 159.350 158.947  0.00  0.00    -0.229 NA
ATOM     18  CA  UNL     1     151.411 160.094 159.986  0.00  0.00    +0.081 C 
ATOM     19  C   UNL     1     152.063 161.483 160.006  0.00  0.00    +0.087 C 
ATOM     20  O   UNL     1     152.428 161.895 158.694  0.00  0.00    -0.389 OA
ATOM     21  H   UNL     1     153.054 162.563 163.982  0.00  0.00    +0.000 HD
ATOM     22  H   UNL     1     152.644 161.851 162.533  0.00  0.00    +0.000 HD
ATOM     23  H   UNL     1     152.637 160.952 163.935  0.00  0.00    +0.000 HD
ATOM     24  H   UNL     1     149.989 156.676 159.689  0.00  0.00    +0.000 HD
ATOM     25  H   UNL     1     153.068 161.268 158.324  0.00  0.00    +0.000 HD
ENDROOT
TORSDOF 0
ENDMDL
MODEL 4
REMARK VINA RESULT:    -7.568      5.831      8.660
REMARK INTER + INTRA:          -7.568
REMARK INTER:                  -7.568
REMARK INTRA:                   0.000
REMARK UNBOUND:                 0.000
REMARK  Name = /home/vital/Documents/PhD_2021/Malaria_codes/scripts/../data/pdbqt_ligands/ligand_443_temp.pdb
REMARK                            x       y       z     vdW  Elec       q    Type
REMARK                         _______ _______ _______ _____ _____    ______ ____
ROOT
ATOM      1  N   UNL     1     150.435 158.602 156.531  0.00  0.00    -0.326 N 
ATOM      2  C   UNL     1     151.200 157.412 156.183  0.00  0.00    +0.019 C 
ATOM      3  C   UNL     1     151.441 156.506 157.352  0.00  0.00    -0.028 C 
ATOM      4  C   UNL     1     151.424 156.842 158.610  0.00  0.00    -0.116 C 
ATOM      5  C   UNL     1     151.400 157.188 159.866  0.00  0.00    +0.039 C 
ATOM      6  C   UNL     1     150.670 156.445 160.924  0.00  0.00    +0.076 C 
ATOM      7  N   UNL     1     150.992 156.840 162.286  0.00  0.00    -0.260 N 
ATOM      8  C   UNL     1     151.619 157.933 162.527  0.00  0.00    +0.156 C 
ATOM      9  C   UNL     1     151.916 158.313 163.946  0.00  0.00    +0.020 A 
ATOM     10  C   UNL     1     151.478 157.491 164.992  0.00  0.00    -0.050 A 
ATOM     11  C   UNL     1     151.746 157.833 166.321  0.00  0.00    -0.041 A 
ATOM     12  C   UNL     1     152.456 159.000 166.615  0.00  0.00    +0.059 A 
ATOM     13 CL   UNL     1     152.753 159.362 168.277  0.00  0.00    -0.082 Cl
ATOM     14  C   UNL     1     152.898 159.825 165.574  0.00  0.00    +0.060 A 
ATOM     15 CL   UNL     1     153.780 161.283 165.863  0.00  0.00    -0.082 Cl
ATOM     16  C   UNL     1     152.629 159.482 164.244  0.00  0.00    -0.031 A 
ATOM     17  N   UNL     1     152.054 158.810 161.573  0.00  0.00    -0.229 NA
ATOM     18  CA  UNL     1     151.993 158.461 160.325  0.00  0.00    +0.081 C 
ATOM     19  C   UNL     1     152.533 159.457 159.291  0.00  0.00    +0.087 C 
ATOM     20  O   UNL     1     153.416 160.396 159.898  0.00  0.00    -0.389 OA
ATOM     21  H   UNL     1     150.303 159.177 155.699  0.00  0.00    +0.000 HD
ATOM     22  H   UNL     1     150.940 159.137 157.238  0.00  0.00    +0.000 HD
ATOM     23  H   UNL     1     149.525 158.326 156.901  0.00  0.00    +0.000 HD
ATOM     24  H   UNL     1     150.724 156.260 163.034  0.00  0.00    +0.000 HD
ATOM     25  H   UNL     1     152.938 160.896 160.577  0.00  0.00    +0.000 HD
ENDROOT
TORSDOF 0
ENDMDL
MODEL 5
REMARK VINA RESULT:    -7.373      5.051      6.024
REMARK INTER + INTRA:          -7.373
REMARK INTER:                  -7.373
REMARK INTRA:                   0.000
REMARK UNBOUND:                 0.000
REMARK  Name = /home/vital/Documents/PhD_2021/Malaria_codes/scripts/../data/pdbqt_ligands/ligand_443_temp.pdb
REMARK                            x       y       z     vdW  Elec       q    Type
REMARK                         _______ _______ _______ _____ _____    ______ ____
ROOT
ATOM      1  N   UNL     1     152.360 154.699 166.878  0.00  0.00    -0.326 N 
ATOM      2  C   UNL     1     150.964 154.551 167.268  0.00  0.00    +0.019 C 
ATOM      3  C   UNL     1     150.048 154.345 166.101  0.00  0.00    -0.028 C 
ATOM      4  C   UNL     1     150.276 154.688 164.865  0.00  0.00    -0.116 C 
ATOM      5  C   UNL     1     150.517 155.031 163.631  0.00  0.00    +0.039 C 
ATOM      6  C   UNL     1     150.316 154.139 162.461  0.00  0.00    +0.076 C 
ATOM      7  N   UNL     1     150.385 154.799 161.167  0.00  0.00    -0.260 N 
ATOM      8  C   UNL     1     150.875 155.978 161.051  0.00  0.00    +0.156 C 
ATOM      9  C   UNL     1     150.945 156.617 159.697  0.00  0.00    +0.020 A 
ATOM     10  C   UNL     1     150.506 155.908 158.571  0.00  0.00    -0.050 A 
ATOM     11  C   UNL     1     150.566 156.489 157.301  0.00  0.00    -0.041 A 
ATOM     12  C   UNL     1     151.064 157.785 157.146  0.00  0.00    +0.059 A 
ATOM     13 CL   UNL     1     151.110 158.443 155.550  0.00  0.00    -0.082 Cl
ATOM     14  C   UNL     1     151.503 158.500 158.267  0.00  0.00    +0.060 A 
ATOM     15 CL   UNL     1     152.131 160.105 158.150  0.00  0.00    -0.082 Cl
ATOM     16  C   UNL     1     151.443 157.917 159.538  0.00  0.00    -0.031 A 
ATOM     17  N   UNL     1     151.356 156.729 162.088  0.00  0.00    -0.229 NA
ATOM     18  CA  UNL     1     151.163 156.318 163.303  0.00  0.00    +0.081 C 
ATOM     19  C   UNL     1     151.679 157.214 164.436  0.00  0.00    +0.087 C 
ATOM     20  O   UNL     1     151.879 158.548 163.983  0.00  0.00    -0.389 OA
ATOM     21  H   UNL     1     152.933 154.835 167.711  0.00  0.00    +0.000 HD
ATOM     22  H   UNL     1     152.458 155.506 166.263  0.00  0.00    +0.000 HD
ATOM     23  H   UNL     1     152.668 153.858 166.388  0.00  0.00    +0.000 HD
ATOM     24  H   UNL     1     150.050 154.333 160.368  0.00  0.00    +0.000 HD
ATOM     25  H   UNL     1     152.538 158.553 163.271  0.00  0.00    +0.000 HD
ENDROOT
TORSDOF 0
ENDMDL
MODEL 6
REMARK VINA RESULT:    -7.230      6.203      9.075
REMARK INTER + INTRA:          -7.230
REMARK INTER:                  -7.230
REMARK INTRA:                   0.000
REMARK UNBOUND:                 0.000
REMARK  Name = /home/vital/Documents/PhD_2021/Malaria_codes/scripts/../data/pdbqt_ligands/ligand_443_temp.pdb
REMARK                            x       y       z     vdW  Elec       q    Type
REMARK                         _______ _______ _______ _____ _____    ______ ____
ROOT
ATOM      1  N   UNL     1     152.503 155.538 156.612  0.00  0.00    -0.326 N 
ATOM      2  C   UNL     1     151.138 155.885 156.239  0.00  0.00    +0.019 C 
ATOM      3  C   UNL     1     150.536 156.933 157.123  0.00  0.00    -0.028 C 
ATOM      4  C   UNL     1     150.901 157.226 158.339  0.00  0.00    -0.116 C 
ATOM      5  C   UNL     1     151.278 157.513 159.553  0.00  0.00    +0.039 C 
ATOM      6  C   UNL     1     151.524 158.891 160.047  0.00  0.00    +0.076 C 
ATOM      7  N   UNL     1     151.671 159.009 161.489  0.00  0.00    -0.260 N 
ATOM      8  C   UNL     1     151.870 157.975 162.221  0.00  0.00    +0.156 C 
ATOM      9  C   UNL     1     152.034 158.141 163.701  0.00  0.00    +0.020 A 
ATOM     10  C   UNL     1     152.002 159.424 164.265  0.00  0.00    -0.050 A 
ATOM     11  C   UNL     1     152.154 159.595 165.643  0.00  0.00    -0.041 A 
ATOM     12  C   UNL     1     152.339 158.485 166.472  0.00  0.00    +0.059 A 
ATOM     13 CL   UNL     1     152.522 158.768 168.166  0.00  0.00    -0.082 Cl
ATOM     14  C   UNL     1     152.372 157.201 165.915  0.00  0.00    +0.060 A 
ATOM     15 CL   UNL     1     152.598 155.783 166.878  0.00  0.00    -0.082 Cl
ATOM     16  C   UNL     1     152.219 157.030 164.534  0.00  0.00    -0.031 A 
ATOM     17  N   UNL     1     151.949 156.693 161.754  0.00  0.00    -0.229 NA
ATOM     18  CA  UNL     1     151.638 156.454 160.517  0.00  0.00    +0.081 C 
ATOM     19  C   UNL     1     151.697 154.995 160.048  0.00  0.00    +0.087 C 
ATOM     20  O   UNL     1     151.645 154.100 161.154  0.00  0.00    -0.389 OA
ATOM     21  H   UNL     1     152.858 154.824 155.977  0.00  0.00    +0.000 HD
ATOM     22  H   UNL     1     152.513 155.180 157.567  0.00  0.00    +0.000 HD
ATOM     23  H   UNL     1     153.093 156.368 156.554  0.00  0.00    +0.000 HD
ATOM     24  H   UNL     1     151.617 159.898 161.910  0.00  0.00    +0.000 HD
ATOM     25  H   UNL     1     152.404 154.260 161.736  0.00  0.00    +0.000 HD
ENDROOT
TORSDOF 0
ENDMDL
MODEL 7
REMARK VINA RESULT:    -7.215      5.267      8.588
REMARK INTER + INTRA:          -7.215
REMARK INTER:                  -7.215
REMARK INTRA:                   0.000
REMARK UNBOUND:                 0.000
REMARK  Name = /home/vital/Documents/PhD_2021/Malaria_codes/scripts/../data/pdbqt_ligands/ligand_443_temp.pdb
REMARK                            x       y       z     vdW  Elec       q    Type
REMARK                         _______ _______ _______ _____ _____    ______ ____
ROOT
ATOM      1  N   UNL     1     152.518 155.552 156.536  0.00  0.00    -0.326 N 
ATOM      2  C   UNL     1     151.187 155.682 155.959  0.00  0.00    +0.019 C 
ATOM      3  C   UNL     1     150.482 156.934 156.383  0.00  0.00    -0.028 C 
ATOM      4  C   UNL     1     150.727 157.638 157.452  0.00  0.00    -0.116 C 
ATOM      5  C   UNL     1     150.984 158.337 158.522  0.00  0.00    +0.039 C 
ATOM      6  C   UNL     1     151.153 159.811 158.536  0.00  0.00    +0.076 C 
ATOM      7  N   UNL     1     151.163 160.416 159.858  0.00  0.00    -0.260 N 
ATOM      8  C   UNL     1     151.316 159.700 160.912  0.00  0.00    +0.156 C 
ATOM      9  C   UNL     1     151.338 160.364 162.255  0.00  0.00    +0.020 A 
ATOM     10  C   UNL     1     151.226 161.757 162.345  0.00  0.00    -0.050 A 
ATOM     11  C   UNL     1     151.246 162.390 163.591  0.00  0.00    -0.041 A 
ATOM     12  C   UNL     1     151.378 161.636 164.759  0.00  0.00    +0.059 A 
ATOM     13 CL   UNL     1     151.396 162.482 166.264  0.00  0.00    -0.082 Cl
ATOM     14  C   UNL     1     151.490 160.243 164.677  0.00  0.00    +0.060 A 
ATOM     15 CL   UNL     1     151.656 159.246 166.079  0.00  0.00    -0.082 Cl
ATOM     16  C   UNL     1     151.469 159.609 163.429  0.00  0.00    -0.031 A 
ATOM     17  N   UNL     1     151.465 158.341 160.917  0.00  0.00    -0.229 NA
ATOM     18  CA  UNL     1     151.275 157.684 159.814  0.00  0.00    +0.081 C 
ATOM     19  C   UNL     1     151.409 156.158 159.876  0.00  0.00    +0.087 C 
ATOM     20  O   UNL     1     151.274 155.686 161.213  0.00  0.00    -0.389 OA
ATOM     21  H   UNL     1     152.946 154.685 156.212  0.00  0.00    +0.000 HD
ATOM     22  H   UNL     1     152.448 155.538 157.553  0.00  0.00    +0.000 HD
ATOM     23  H   UNL     1     153.093 156.344 156.246  0.00  0.00    +0.000 HD
ATOM     24  H   UNL     1     151.051 161.390 159.946  0.00  0.00    +0.000 HD
ATOM     25  H   UNL     1     151.973 156.072 161.764  0.00  0.00    +0.000 HD
ENDROOT
TORSDOF 0
ENDMDL
MODEL 8
REMARK VINA RESULT:    -7.138      4.118      6.083
REMARK INTER + INTRA:          -7.138
REMARK INTER:                  -7.138
REMARK INTRA:                   0.000
REMARK UNBOUND:                 0.000
REMARK  Name = /home/vital/Documents/PhD_2021/Malaria_codes/scripts/../data/pdbqt_ligands/ligand_443_temp.pdb
REMARK                            x       y       z     vdW  Elec       q    Type
REMARK                         _______ _______ _______ _____ _____    ______ ____
ROOT
ATOM      1  N   UNL     1     150.844 160.381 167.675  0.00  0.00    -0.326 N 
ATOM      2  C   UNL     1     151.894 161.381 167.538  0.00  0.00    +0.019 C 
ATOM      3  C   UNL     1     152.016 161.918 166.145  0.00  0.00    -0.028 C 
ATOM      4  C   UNL     1     151.622 161.331 165.051  0.00  0.00    -0.116 C 
ATOM      5  C   UNL     1     151.220 160.737 163.963  0.00  0.00    +0.039 C 
ATOM      6  C   UNL     1     150.417 161.393 162.901  0.00  0.00    +0.076 C 
ATOM      7  N   UNL     1     150.307 160.641 161.661  0.00  0.00    -0.260 N 
ATOM      8  C   UNL     1     150.622 159.398 161.611  0.00  0.00    +0.156 C 
ATOM      9  C   UNL     1     150.478 158.654 160.318  0.00  0.00    +0.020 A 
ATOM     10  C   UNL     1     149.970 159.312 159.190  0.00  0.00    -0.050 A 
ATOM     11  C   UNL     1     149.828 158.631 157.977  0.00  0.00    -0.041 A 
ATOM     12  C   UNL     1     150.194 157.287 157.881  0.00  0.00    +0.059 A 
ATOM     13 CL   UNL     1     149.993 156.506 156.354  0.00  0.00    -0.082 Cl
ATOM     14  C   UNL     1     150.704 156.623 159.004  0.00  0.00    +0.060 A 
ATOM     15 CL   UNL     1     151.176 154.962 158.959  0.00  0.00    -0.082 Cl
ATOM     16  C   UNL     1     150.845 157.306 160.218  0.00  0.00    -0.031 A 
ATOM     17  N   UNL     1     151.094 158.670 162.667  0.00  0.00    -0.229 NA
ATOM     18  CA  UNL     1     151.414 159.286 163.762  0.00  0.00    +0.081 C 
ATOM     19  C   UNL     1     151.981 158.435 164.905  0.00  0.00    +0.087 C 
ATOM     20  O   UNL     1     152.480 157.193 164.420  0.00  0.00    -0.389 OA
ATOM     21  H   UNL     1     150.808 160.055 168.641  0.00  0.00    +0.000 HD
ATOM     22  H   UNL     1     151.041 159.594 167.058  0.00  0.00    +0.000 HD
ATOM     23  H   UNL     1     149.945 160.794 167.423  0.00  0.00    +0.000 HD
ATOM     24  H   UNL     1     149.985 161.092 160.848  0.00  0.00    +0.000 HD
ATOM     25  H   UNL     1     151.758 156.696 164.004  0.00  0.00    +0.000 HD
ENDROOT
TORSDOF 0
ENDMDL
MODEL 9
REMARK VINA RESULT:    -7.116      3.808      5.161
REMARK INTER + INTRA:          -7.116
REMARK INTER:                  -7.116
REMARK INTRA:                   0.000
REMARK UNBOUND:                 0.000
REMARK  Name = /home/vital/Documents/PhD_2021/Malaria_codes/scripts/../data/pdbqt_ligands/ligand_443_temp.pdb
REMARK                            x       y       z     vdW  Elec       q    Type
REMARK                         _______ _______ _______ _____ _____    ______ ____
ROOT
ATOM      1  N   UNL     1     153.247 161.540 166.166  0.00  0.00    -0.326 N 
ATOM      2  C   UNL     1     152.231 161.020 167.072  0.00  0.00    +0.019 C 
ATOM      3  C   UNL     1     151.681 159.695 166.640  0.00  0.00    -0.028 C 
ATOM      4  C   UNL     1     151.691 159.208 165.431  0.00  0.00    -0.116 C 
ATOM      5  C   UNL     1     151.710 158.729 164.220  0.00  0.00    +0.039 C 
ATOM      6  C   UNL     1     152.146 157.353 163.873  0.00  0.00    +0.076 C 
ATOM      7  N   UNL     1     151.836 156.935 162.515  0.00  0.00    -0.260 N 
ATOM      8  C   UNL     1     151.492 157.789 161.622  0.00  0.00    +0.156 C 
ATOM      9  C   UNL     1     151.198 157.320 160.229  0.00  0.00    +0.020 A 
ATOM     10  C   UNL     1     151.333 155.963 159.909  0.00  0.00    -0.050 A 
ATOM     11  C   UNL     1     151.063 155.510 158.615  0.00  0.00    -0.041 A 
ATOM     12  C   UNL     1     150.654 156.411 157.628  0.00  0.00    +0.059 A 
ATOM     13 CL   UNL     1     150.337 155.785 156.050  0.00  0.00    -0.082 Cl
ATOM     14  C   UNL     1     150.516 157.769 157.941  0.00  0.00    +0.060 A 
ATOM     15 CL   UNL     1     150.015 158.938 156.772  0.00  0.00    -0.082 Cl
ATOM     16  C   UNL     1     150.786 158.221 159.238  0.00  0.00    -0.031 A 
ATOM     17  N   UNL     1     151.366 159.133 161.836  0.00  0.00    -0.229 NA
ATOM     18  CA  UNL     1     151.428 159.585 163.050  0.00  0.00    +0.081 C 
ATOM     19  C   UNL     1     151.237 161.094 163.248  0.00  0.00    +0.087 C 
ATOM     20  O   UNL     1     150.581 161.678 162.127  0.00  0.00    -0.389 OA
ATOM     21  H   UNL     1     153.582 162.439 166.511  0.00  0.00    +0.000 HD
ATOM     22  H   UNL     1     152.843 161.661 165.237  0.00  0.00    +0.000 HD
ATOM     23  H   UNL     1     154.026 160.884 166.115  0.00  0.00    +0.000 HD
ATOM     24  H   UNL     1     151.890 155.981 162.277  0.00  0.00    +0.000 HD
ATOM     25  H   UNL     1     151.120 161.544 161.332  0.00  0.00    +0.000 HD
ENDROOT
TORSDOF 0
ENDMDL
