MODEL 1
REMARK VINA RESULT:    -9.012      0.000      0.000
REMARK INTER + INTRA:          -9.012
REMARK INTER:                  -9.012
REMARK INTRA:                   0.000
REMARK UNBOUND:                 0.000
REMARK  Name = /home/vital/Documents/PhD_2021/Malaria_codes/scripts/../data/pdbqt_ligands/ligand_80_temp.pdb
REMARK                            x       y       z     vdW  Elec       q    Type
REMARK                         _______ _______ _______ _____ _____    ______ ____
ROOT
ATOM      1  C   UNL     1     149.912 158.260 156.873  0.00  0.00    -0.013 C 
ATOM      2  N   UNL     1     151.150 159.040 156.831  0.00  0.00    -0.304 N 
ATOM      3  C   UNL     1     151.286 159.826 158.057  0.00  0.00    -0.013 C 
ATOM      4  C   UNL     1     152.328 158.169 156.659  0.00  0.00    +0.023 C 
ATOM      5  C   UNL     1     152.398 157.503 155.300  0.00  0.00    -0.033 A 
ATOM      6  C   UNL     1     152.484 156.109 155.191  0.00  0.00    -0.057 A 
ATOM      7  C   UNL     1     152.567 155.500 153.937  0.00  0.00    -0.057 A 
ATOM      8  C   UNL     1     152.573 156.270 152.766  0.00  0.00    -0.034 A 
ATOM      9  C   UNL     1     152.648 155.608 151.410  0.00  0.00    +0.021 C 
ATOM     10  N   UNL     1     153.827 154.755 151.234  0.00  0.00    -0.309 N 
ATOM     11  C   UNL     1     155.066 155.549 151.127  0.00  0.00    +0.026 C 
ATOM     12  C   UNL     1     156.323 154.681 150.870  0.00  0.00    +0.093 C 
ATOM     13  O   UNL     1     157.484 155.520 150.872  0.00  0.00    -0.386 OA
ATOM     14  C   UNL     1     156.270 153.915 149.560  0.00  0.00    -0.018 A 
ATOM     15  C   UNL     1     156.370 154.582 148.328  0.00  0.00    -0.056 A 
ATOM     16  C   UNL     1     156.310 153.870 147.129  0.00  0.00    -0.061 A 
ATOM     17  C   UNL     1     156.148 152.487 147.147  0.00  0.00    -0.062 A 
ATOM     18  C   UNL     1     156.044 151.813 148.363  0.00  0.00    -0.061 A 
ATOM     19  C   UNL     1     156.105 152.523 149.563  0.00  0.00    -0.056 A 
ATOM     20  C   UNL     1     152.489 157.664 152.874  0.00  0.00    -0.057 A 
ATOM     21  C   UNL     1     152.405 158.274 154.129  0.00  0.00    -0.057 A 
ATOM     22  H   UNL     1     151.102 159.668 156.027  0.00  0.00    +0.000 HD
ATOM     23  H   UNL     1     153.713 154.206 150.383  0.00  0.00    +0.000 HD
ATOM     24  H   UNL     1     153.907 154.151 152.052  0.00  0.00    +0.000 HD
ATOM     25  H   UNL     1     157.418 156.164 150.150  0.00  0.00    +0.000 HD
ENDROOT
TORSDOF 0
ENDMDL
MODEL 2
REMARK VINA RESULT:    -8.330      2.307      8.925
REMARK INTER + INTRA:          -8.330
REMARK INTER:                  -8.330
REMARK INTRA:                   0.000
REMARK UNBOUND:                 0.000
REMARK  Name = /home/vital/Documents/PhD_2021/Malaria_codes/scripts/../data/pdbqt_ligands/ligand_80_temp.pdb
REMARK                            x       y       z     vdW  Elec       q    Type
REMARK                         _______ _______ _______ _____ _____    ______ ____
ROOT
ATOM      1  C   UNL     1     155.815 154.745 147.485  0.00  0.00    -0.013 C 
ATOM      2  N   UNL     1     155.260 153.530 148.085  0.00  0.00    -0.304 N 
ATOM      3  C   UNL     1     155.855 152.349 147.459  0.00  0.00    -0.013 C 
ATOM      4  C   UNL     1     155.490 153.497 149.542  0.00  0.00    +0.023 C 
ATOM      5  C   UNL     1     154.704 154.542 150.305  0.00  0.00    -0.033 A 
ATOM      6  C   UNL     1     155.355 155.460 151.138  0.00  0.00    -0.057 A 
ATOM      7  C   UNL     1     154.624 156.410 151.855  0.00  0.00    -0.057 A 
ATOM      8  C   UNL     1     153.227 156.460 151.760  0.00  0.00    -0.034 A 
ATOM      9  C   UNL     1     152.440 157.498 152.524  0.00  0.00    +0.021 C 
ATOM     10  N   UNL     1     152.657 157.455 153.973  0.00  0.00    -0.309 N 
ATOM     11  C   UNL     1     152.040 156.261 154.583  0.00  0.00    +0.026 C 
ATOM     12  C   UNL     1     152.191 156.221 156.124  0.00  0.00    +0.093 C 
ATOM     13  O   UNL     1     151.647 154.991 156.619  0.00  0.00    -0.386 OA
ATOM     14  C   UNL     1     151.508 157.380 156.828  0.00  0.00    -0.018 A 
ATOM     15  C   UNL     1     150.108 157.472 156.879  0.00  0.00    -0.056 A 
ATOM     16  C   UNL     1     149.490 158.547 157.520  0.00  0.00    -0.061 A 
ATOM     17  C   UNL     1     150.263 159.542 158.114  0.00  0.00    -0.062 A 
ATOM     18  C   UNL     1     151.654 159.464 158.068  0.00  0.00    -0.061 A 
ATOM     19  C   UNL     1     152.274 158.389 157.429  0.00  0.00    -0.056 A 
ATOM     20  C   UNL     1     152.575 155.542 150.928  0.00  0.00    -0.057 A 
ATOM     21  C   UNL     1     153.305 154.591 150.210  0.00  0.00    -0.057 A 
ATOM     22  H   UNL     1     154.252 153.529 147.925  0.00  0.00    +0.000 HD
ATOM     23  H   UNL     1     152.248 158.288 154.394  0.00  0.00    +0.000 HD
ATOM     24  H   UNL     1     153.662 157.414 154.143  0.00  0.00    +0.000 HD
ATOM     25  H   UNL     1     150.700 154.951 156.414  0.00  0.00    +0.000 HD
ENDROOT
TORSDOF 0
ENDMDL
MODEL 3
REMARK VINA RESULT:    -7.782      6.549     12.545
REMARK INTER + INTRA:          -7.782
REMARK INTER:                  -7.782
REMARK INTRA:                   0.000
REMARK UNBOUND:                 0.000
REMARK  Name = /home/vital/Documents/PhD_2021/Malaria_codes/scripts/../data/pdbqt_ligands/ligand_80_temp.pdb
REMARK                            x       y       z     vdW  Elec       q    Type
REMARK                         _______ _______ _______ _____ _____    ______ ____
ROOT
ATOM      1  C   UNL     1     150.247 155.195 155.119  0.00  0.00    -0.013 C 
ATOM      2  N   UNL     1     151.670 154.932 155.346  0.00  0.00    -0.304 N 
ATOM      3  C   UNL     1     152.376 154.875 154.065  0.00  0.00    -0.013 C 
ATOM      4  C   UNL     1     152.276 155.963 156.209  0.00  0.00    +0.023 C 
ATOM      5  C   UNL     1     151.779 155.927 157.639  0.00  0.00    -0.033 A 
ATOM      6  C   UNL     1     151.209 157.064 158.226  0.00  0.00    -0.057 A 
ATOM      7  C   UNL     1     150.769 157.032 159.551  0.00  0.00    -0.057 A 
ATOM      8  C   UNL     1     150.893 155.867 160.320  0.00  0.00    -0.034 A 
ATOM      9  C   UNL     1     150.402 155.831 161.748  0.00  0.00    +0.021 C 
ATOM     10  N   UNL     1     151.017 156.845 162.609  0.00  0.00    -0.309 N 
ATOM     11  C   UNL     1     152.434 156.542 162.887  0.00  0.00    +0.026 C 
ATOM     12  C   UNL     1     153.094 157.557 163.853  0.00  0.00    +0.093 C 
ATOM     13  O   UNL     1     154.484 157.240 163.992  0.00  0.00    -0.386 OA
ATOM     14  C   UNL     1     152.454 157.586 165.228  0.00  0.00    -0.018 A 
ATOM     15  C   UNL     1     152.603 156.510 166.119  0.00  0.00    -0.056 A 
ATOM     16  C   UNL     1     152.002 156.542 167.378  0.00  0.00    -0.061 A 
ATOM     17  C   UNL     1     151.245 157.646 167.761  0.00  0.00    -0.062 A 
ATOM     18  C   UNL     1     151.087 158.720 166.886  0.00  0.00    -0.061 A 
ATOM     19  C   UNL     1     151.688 158.691 165.627  0.00  0.00    -0.056 A 
ATOM     20  C   UNL     1     151.464 154.730 159.734  0.00  0.00    -0.057 A 
ATOM     21  C   UNL     1     151.905 154.761 158.408  0.00  0.00    -0.057 A 
ATOM     22  H   UNL     1     151.755 154.033 155.821  0.00  0.00    +0.000 HD
ATOM     23  H   UNL     1     150.508 156.881 163.492  0.00  0.00    +0.000 HD
ATOM     24  H   UNL     1     150.974 157.742 162.125  0.00  0.00    +0.000 HD
ATOM     25  H   UNL     1     154.576 156.357 164.385  0.00  0.00    +0.000 HD
ENDROOT
TORSDOF 0
ENDMDL
MODEL 4
REMARK VINA RESULT:    -7.542      8.846     13.203
REMARK INTER + INTRA:          -7.542
REMARK INTER:                  -7.542
REMARK INTRA:                   0.000
REMARK UNBOUND:                 0.000
REMARK  Name = /home/vital/Documents/PhD_2021/Malaria_codes/scripts/../data/pdbqt_ligands/ligand_80_temp.pdb
REMARK                            x       y       z     vdW  Elec       q    Type
REMARK                         _______ _______ _______ _____ _____    ______ ____
ROOT
ATOM      1  C   UNL     1     154.024 160.493 169.887  0.00  0.00    -0.013 C 
ATOM      2  N   UNL     1     152.706 161.130 169.864  0.00  0.00    -0.304 N 
ATOM      3  C   UNL     1     152.527 161.948 171.064  0.00  0.00    -0.013 C 
ATOM      4  C   UNL     1     152.532 161.961 168.658  0.00  0.00    +0.023 C 
ATOM      5  C   UNL     1     152.451 161.160 167.375  0.00  0.00    -0.033 A 
ATOM      6  C   UNL     1     153.334 161.415 166.317  0.00  0.00    -0.057 A 
ATOM      7  C   UNL     1     153.244 160.687 165.129  0.00  0.00    -0.057 A 
ATOM      8  C   UNL     1     152.267 159.694 164.969  0.00  0.00    -0.034 A 
ATOM      9  C   UNL     1     152.183 158.898 163.688  0.00  0.00    +0.021 C 
ATOM     10  N   UNL     1     151.993 159.723 162.491  0.00  0.00    -0.309 N 
ATOM     11  C   UNL     1     150.641 160.311 162.440  0.00  0.00    +0.026 C 
ATOM     12  C   UNL     1     150.385 161.133 161.152  0.00  0.00    +0.093 C 
ATOM     13  O   UNL     1     149.090 161.739 161.229  0.00  0.00    -0.386 OA
ATOM     14  C   UNL     1     150.468 160.305 159.882  0.00  0.00    -0.018 A 
ATOM     15  C   UNL     1     149.484 159.351 159.575  0.00  0.00    -0.056 A 
ATOM     16  C   UNL     1     149.574 158.588 158.410  0.00  0.00    -0.061 A 
ATOM     17  C   UNL     1     150.648 158.768 157.540  0.00  0.00    -0.062 A 
ATOM     18  C   UNL     1     151.633 159.709 157.835  0.00  0.00    -0.061 A 
ATOM     19  C   UNL     1     151.543 160.474 158.999  0.00  0.00    -0.056 A 
ATOM     20  C   UNL     1     151.384 159.440 166.025  0.00  0.00    -0.057 A 
ATOM     21  C   UNL     1     151.474 160.168 167.215  0.00  0.00    -0.057 A 
ATOM     22  H   UNL     1     151.998 160.395 169.846  0.00  0.00    +0.000 HD
ATOM     23  H   UNL     1     152.132 159.143 161.665  0.00  0.00    +0.000 HD
ATOM     24  H   UNL     1     152.670 160.486 162.521  0.00  0.00    +0.000 HD
ATOM     25  H   UNL     1     148.412 161.047 161.277  0.00  0.00    +0.000 HD
ENDROOT
TORSDOF 0
ENDMDL
MODEL 5
REMARK VINA RESULT:    -7.380     12.317     15.765
REMARK INTER + INTRA:          -7.380
REMARK INTER:                  -7.380
REMARK INTRA:                   0.000
REMARK UNBOUND:                 0.000
REMARK  Name = /home/vital/Documents/PhD_2021/Malaria_codes/scripts/../data/pdbqt_ligands/ligand_80_temp.pdb
REMARK                            x       y       z     vdW  Elec       q    Type
REMARK                         _______ _______ _______ _____ _____    ______ ____
ROOT
ATOM      1  C   UNL     1     143.000 145.881 166.865  0.00  0.00    -0.013 C 
ATOM      2  N   UNL     1     142.102 146.630 165.984  0.00  0.00    -0.304 N 
ATOM      3  C   UNL     1     140.710 146.361 166.346  0.00  0.00    -0.013 C 
ATOM      4  C   UNL     1     142.368 148.079 166.052  0.00  0.00    +0.023 C 
ATOM      5  C   UNL     1     143.703 148.480 165.458  0.00  0.00    -0.033 A 
ATOM      6  C   UNL     1     144.638 149.192 166.219  0.00  0.00    -0.057 A 
ATOM      7  C   UNL     1     145.860 149.577 165.662  0.00  0.00    -0.057 A 
ATOM      8  C   UNL     1     146.171 149.263 164.332  0.00  0.00    -0.034 A 
ATOM      9  C   UNL     1     147.499 149.666 163.737  0.00  0.00    +0.021 C 
ATOM     10  N   UNL     1     147.757 151.108 163.790  0.00  0.00    -0.309 N 
ATOM     11  C   UNL     1     146.894 151.853 162.853  0.00  0.00    +0.026 C 
ATOM     12  C   UNL     1     147.190 153.374 162.834  0.00  0.00    +0.093 C 
ATOM     13  O   UNL     1     146.251 154.026 161.971  0.00  0.00    -0.386 OA
ATOM     14  C   UNL     1     148.597 153.709 162.374  0.00  0.00    -0.018 A 
ATOM     15  C   UNL     1     148.984 153.528 161.036  0.00  0.00    -0.056 A 
ATOM     16  C   UNL     1     150.283 153.829 160.626  0.00  0.00    -0.061 A 
ATOM     17  C   UNL     1     151.210 154.313 161.546  0.00  0.00    -0.062 A 
ATOM     18  C   UNL     1     150.840 154.495 162.877  0.00  0.00    -0.061 A 
ATOM     19  C   UNL     1     149.541 154.195 163.290  0.00  0.00    -0.056 A 
ATOM     20  C   UNL     1     145.236 148.552 163.571  0.00  0.00    -0.057 A 
ATOM     21  C   UNL     1     144.013 148.166 164.127  0.00  0.00    -0.057 A 
ATOM     22  H   UNL     1     142.269 146.323 165.025  0.00  0.00    +0.000 HD
ATOM     23  H   UNL     1     148.732 151.279 163.547  0.00  0.00    +0.000 HD
ATOM     24  H   UNL     1     147.553 151.433 164.735  0.00  0.00    +0.000 HD
ATOM     25  H   UNL     1     146.358 153.693 161.067  0.00  0.00    +0.000 HD
ENDROOT
TORSDOF 0
ENDMDL
MODEL 6
REMARK VINA RESULT:    -7.126      8.466     12.787
REMARK INTER + INTRA:          -7.126
REMARK INTER:                  -7.126
REMARK INTRA:                   0.000
REMARK UNBOUND:                 0.000
REMARK  Name = /home/vital/Documents/PhD_2021/Malaria_codes/scripts/../data/pdbqt_ligands/ligand_80_temp.pdb
REMARK                            x       y       z     vdW  Elec       q    Type
REMARK                         _______ _______ _______ _____ _____    ______ ____
ROOT
ATOM      1  C   UNL     1     153.207 163.542 168.886  0.00  0.00    -0.013 C 
ATOM      2  N   UNL     1     153.301 162.109 169.177  0.00  0.00    -0.304 N 
ATOM      3  C   UNL     1     153.298 161.894 170.625  0.00  0.00    -0.013 C 
ATOM      4  C   UNL     1     152.192 161.362 168.555  0.00  0.00    +0.023 C 
ATOM      5  C   UNL     1     152.259 161.321 167.043  0.00  0.00    -0.033 A 
ATOM      6  C   UNL     1     151.186 161.776 166.267  0.00  0.00    -0.057 A 
ATOM      7  C   UNL     1     151.245 161.719 164.872  0.00  0.00    -0.057 A 
ATOM      8  C   UNL     1     152.375 161.201 164.224  0.00  0.00    -0.034 A 
ATOM      9  C   UNL     1     152.442 161.155 162.716  0.00  0.00    +0.021 C 
ATOM     10  N   UNL     1     151.348 160.398 162.099  0.00  0.00    -0.309 N 
ATOM     11  C   UNL     1     151.482 158.949 162.340  0.00  0.00    +0.026 C 
ATOM     12  C   UNL     1     150.380 158.114 161.641  0.00  0.00    +0.093 C 
ATOM     13  O   UNL     1     150.532 156.736 162.003  0.00  0.00    -0.386 OA
ATOM     14  C   UNL     1     150.401 158.232 160.128  0.00  0.00    -0.018 A 
ATOM     15  C   UNL     1     151.437 157.659 159.372  0.00  0.00    -0.056 A 
ATOM     16  C   UNL     1     151.453 157.782 157.982  0.00  0.00    -0.061 A 
ATOM     17  C   UNL     1     150.436 158.479 157.332  0.00  0.00    -0.062 A 
ATOM     18  C   UNL     1     149.403 159.054 158.071  0.00  0.00    -0.061 A 
ATOM     19  C   UNL     1     149.385 158.931 159.461  0.00  0.00    -0.056 A 
ATOM     20  C   UNL     1     153.448 160.745 164.999  0.00  0.00    -0.057 A 
ATOM     21  C   UNL     1     153.390 160.802 166.395  0.00  0.00    -0.057 A 
ATOM     22  H   UNL     1     154.175 161.762 168.783  0.00  0.00    +0.000 HD
ATOM     23  H   UNL     1     151.356 160.567 161.093  0.00  0.00    +0.000 HD
ATOM     24  H   UNL     1     150.471 160.710 162.516  0.00  0.00    +0.000 HD
ATOM     25  H   UNL     1     151.391 156.413 161.689  0.00  0.00    +0.000 HD
ENDROOT
TORSDOF 0
ENDMDL
MODEL 7
REMARK VINA RESULT:    -7.003      7.219     14.179
REMARK INTER + INTRA:          -7.003
REMARK INTER:                  -7.003
REMARK INTRA:                   0.000
REMARK UNBOUND:                 0.000
REMARK  Name = /home/vital/Documents/PhD_2021/Malaria_codes/scripts/../data/pdbqt_ligands/ligand_80_temp.pdb
REMARK                            x       y       z     vdW  Elec       q    Type
REMARK                         _______ _______ _______ _____ _____    ______ ____
ROOT
ATOM      1  C   UNL     1     151.022 158.537 155.952  0.00  0.00    -0.013 C 
ATOM      2  N   UNL     1     150.644 157.364 156.744  0.00  0.00    -0.304 N 
ATOM      3  C   UNL     1     150.808 156.149 155.945  0.00  0.00    -0.013 C 
ATOM      4  C   UNL     1     151.448 157.267 157.977  0.00  0.00    +0.023 C 
ATOM      5  C   UNL     1     151.153 158.361 158.982  0.00  0.00    -0.033 A 
ATOM      6  C   UNL     1     152.177 159.187 159.461  0.00  0.00    -0.057 A 
ATOM      7  C   UNL     1     151.904 160.182 160.402  0.00  0.00    -0.057 A 
ATOM      8  C   UNL     1     150.603 160.369 160.890  0.00  0.00    -0.034 A 
ATOM      9  C   UNL     1     150.308 161.456 161.896  0.00  0.00    +0.021 C 
ATOM     10  N   UNL     1     151.095 161.350 163.128  0.00  0.00    -0.309 N 
ATOM     11  C   UNL     1     150.668 160.205 163.954  0.00  0.00    +0.026 C 
ATOM     12  C   UNL     1     151.434 160.106 165.297  0.00  0.00    +0.093 C 
ATOM     13  O   UNL     1     151.022 158.921 165.988  0.00  0.00    -0.386 OA
ATOM     14  C   UNL     1     151.220 161.305 166.203  0.00  0.00    -0.018 A 
ATOM     15  C   UNL     1     149.981 161.530 166.825  0.00  0.00    -0.056 A 
ATOM     16  C   UNL     1     149.792 162.640 167.649  0.00  0.00    -0.061 A 
ATOM     17  C   UNL     1     150.835 163.539 167.858  0.00  0.00    -0.062 A 
ATOM     18  C   UNL     1     152.069 163.329 167.245  0.00  0.00    -0.061 A 
ATOM     19  C   UNL     1     152.261 162.218 166.422  0.00  0.00    -0.056 A 
ATOM     20  C   UNL     1     149.579 159.543 160.413  0.00  0.00    -0.057 A 
ATOM     21  C   UNL     1     149.851 158.547 159.471  0.00  0.00    -0.057 A 
ATOM     22  H   UNL     1     149.665 157.465 157.013  0.00  0.00    +0.000 HD
ATOM     23  H   UNL     1     150.980 162.207 163.668  0.00  0.00    +0.000 HD
ATOM     24  H   UNL     1     152.072 161.208 162.870  0.00  0.00    +0.000 HD
ATOM     25  H   UNL     1     150.076 158.978 166.192  0.00  0.00    +0.000 HD
ENDROOT
TORSDOF 0
ENDMDL
MODEL 8
REMARK VINA RESULT:    -6.968      7.031     14.035
REMARK INTER + INTRA:          -6.968
REMARK INTER:                  -6.968
REMARK INTRA:                   0.000
REMARK UNBOUND:                 0.000
REMARK  Name = /home/vital/Documents/PhD_2021/Malaria_codes/scripts/../data/pdbqt_ligands/ligand_80_temp.pdb
REMARK                            x       y       z     vdW  Elec       q    Type
REMARK                         _______ _______ _______ _____ _____    ______ ____
ROOT
ATOM      1  C   UNL     1     151.412 156.830 156.463  0.00  0.00    -0.013 C 
ATOM      2  N   UNL     1     151.647 158.255 156.214  0.00  0.00    -0.304 N 
ATOM      3  C   UNL     1     151.490 158.543 154.789  0.00  0.00    -0.013 C 
ATOM      4  C   UNL     1     150.728 159.096 157.003  0.00  0.00    +0.023 C 
ATOM      5  C   UNL     1     150.989 159.050 158.493  0.00  0.00    -0.033 A 
ATOM      6  C   UNL     1     149.972 158.688 159.386  0.00  0.00    -0.057 A 
ATOM      7  C   UNL     1     150.212 158.665 160.762  0.00  0.00    -0.057 A 
ATOM      8  C   UNL     1     151.470 159.009 161.276  0.00  0.00    -0.034 A 
ATOM      9  C   UNL     1     151.731 158.969 162.763  0.00  0.00    +0.021 C 
ATOM     10  N   UNL     1     150.827 159.818 163.544  0.00  0.00    -0.309 N 
ATOM     11  C   UNL     1     151.110 161.252 163.340  0.00  0.00    +0.026 C 
ATOM     12  C   UNL     1     150.218 162.176 164.206  0.00  0.00    +0.093 C 
ATOM     13  O   UNL     1     150.496 163.542 163.878  0.00  0.00    -0.386 OA
ATOM     14  C   UNL     1     150.413 161.978 165.698  0.00  0.00    -0.018 A 
ATOM     15  C   UNL     1     151.600 162.382 166.333  0.00  0.00    -0.056 A 
ATOM     16  C   UNL     1     151.774 162.186 167.703  0.00  0.00    -0.061 A 
ATOM     17  C   UNL     1     150.767 161.583 168.455  0.00  0.00    -0.062 A 
ATOM     18  C   UNL     1     149.586 161.176 167.837  0.00  0.00    -0.061 A 
ATOM     19  C   UNL     1     149.410 161.371 166.467  0.00  0.00    -0.056 A 
ATOM     20  C   UNL     1     152.486 159.373 160.384  0.00  0.00    -0.057 A 
ATOM     21  C   UNL     1     152.247 159.396 159.007  0.00  0.00    -0.057 A 
ATOM     22  H   UNL     1     152.601 158.473 156.503  0.00  0.00    +0.000 HD
ATOM     23  H   UNL     1     150.939 159.597 164.533  0.00  0.00    +0.000 HD
ATOM     24  H   UNL     1     149.873 159.636 163.234  0.00  0.00    +0.000 HD
ATOM     25  H   UNL     1     151.421 163.743 164.088  0.00  0.00    +0.000 HD
ENDROOT
TORSDOF 0
ENDMDL
MODEL 9
REMARK VINA RESULT:    -6.910     14.213     17.269
REMARK INTER + INTRA:          -6.910
REMARK INTER:                  -6.910
REMARK INTRA:                   0.000
REMARK UNBOUND:                 0.000
REMARK  Name = /home/vital/Documents/PhD_2021/Malaria_codes/scripts/../data/pdbqt_ligands/ligand_80_temp.pdb
REMARK                            x       y       z     vdW  Elec       q    Type
REMARK                         _______ _______ _______ _____ _____    ______ ____
ROOT
ATOM      1  C   UNL     1     150.492 151.541 164.881  0.00  0.00    -0.013 C 
ATOM      2  N   UNL     1     149.235 152.265 164.675  0.00  0.00    -0.304 N 
ATOM      3  C   UNL     1     148.154 151.317 164.399  0.00  0.00    -0.013 C 
ATOM      4  C   UNL     1     148.893 153.090 165.849  0.00  0.00    +0.023 C 
ATOM      5  C   UNL     1     149.830 154.260 166.063  0.00  0.00    -0.033 A 
ATOM      6  C   UNL     1     150.503 154.424 167.280  0.00  0.00    -0.057 A 
ATOM      7  C   UNL     1     151.352 155.515 167.480  0.00  0.00    -0.057 A 
ATOM      8  C   UNL     1     151.542 156.469 166.470  0.00  0.00    -0.034 A 
ATOM      9  C   UNL     1     152.472 157.640 166.684  0.00  0.00    +0.021 C 
ATOM     10  N   UNL     1     152.122 158.469 167.841  0.00  0.00    -0.309 N 
ATOM     11  C   UNL     1     150.890 159.245 167.605  0.00  0.00    +0.026 C 
ATOM     12  C   UNL     1     150.531 160.186 168.782  0.00  0.00    +0.093 C 
ATOM     13  O   UNL     1     149.280 160.827 168.508  0.00  0.00    -0.386 OA
ATOM     14  C   UNL     1     151.582 161.248 169.049  0.00  0.00    -0.018 A 
ATOM     15  C   UNL     1     151.785 162.307 168.149  0.00  0.00    -0.056 A 
ATOM     16  C   UNL     1     152.760 163.273 168.398  0.00  0.00    -0.061 A 
ATOM     17  C   UNL     1     153.546 163.191 169.546  0.00  0.00    -0.062 A 
ATOM     18  C   UNL     1     153.357 162.144 170.445  0.00  0.00    -0.061 A 
ATOM     19  C   UNL     1     152.380 161.177 170.199  0.00  0.00    -0.056 A 
ATOM     20  C   UNL     1     150.868 156.306 165.254  0.00  0.00    -0.057 A 
ATOM     21  C   UNL     1     150.019 155.215 165.053  0.00  0.00    -0.057 A 
ATOM     22  H   UNL     1     149.354 152.887 163.876  0.00  0.00    +0.000 HD
ATOM     23  H   UNL     1     152.889 159.115 168.028  0.00  0.00    +0.000 HD
ATOM     24  H   UNL     1     151.961 157.852 168.637  0.00  0.00    +0.000 HD
ATOM     25  H   UNL     1     149.365 161.373 167.710  0.00  0.00    +0.000 HD
ENDROOT
TORSDOF 0
ENDMDL
