MODEL 1
REMARK VINA RESULT:    -8.424      0.000      0.000
REMARK INTER + INTRA:          -8.424
REMARK INTER:                  -8.424
REMARK INTRA:                   0.000
REMARK UNBOUND:                 0.000
REMARK  Name = /home/vital/Documents/PhD_2021/Malaria_codes/scripts/../data/pdbqt_ligands/ligand_202_temp.pdb
REMARK                            x       y       z     vdW  Elec       q    Type
REMARK                         _______ _______ _______ _____ _____    ______ ____
ROOT
ATOM      1  C1  UNL     1     150.233 161.417 161.435  0.00  0.00    -0.040 C 
ATOM      2  C2  UNL     1     150.945 160.294 162.128  0.00  0.00    -0.045 A 
ATOM      3  C3  UNL     1     151.006 159.022 161.542  0.00  0.00    -0.017 A 
ATOM      4  C4  UNL     1     151.629 157.976 162.219  0.00  0.00    +0.119 A 
ATOM      5  O1  UNL     1     151.705 156.726 161.677  0.00  0.00    -0.507 OA
ATOM      6  C5  UNL     1     152.190 158.170 163.475  0.00  0.00    +0.002 A 
ATOM      7  C6  UNL     1     152.124 159.430 164.064  0.00  0.00    +0.052 A 
ATOM      8  N1  UNL     1     152.650 159.624 165.372  0.00  0.00    -0.216 N 
ATOM      9  S1  UNL     1     151.609 159.385 166.683  0.00  0.00    +0.072 S 
ATOM     10  O2  UNL     1     152.292 159.932 167.838  0.00  0.00    -0.150 OA
ATOM     11  O3  UNL     1     150.276 159.825 166.334  0.00  0.00    -0.150 OA
ATOM     12  C7  UNL     1     151.604 157.616 166.860  0.00  0.00    +0.109 A 
ATOM     13  C8  UNL     1     152.681 156.996 167.522  0.00  0.00    -0.030 A 
ATOM     14  C9  UNL     1     152.654 155.620 167.640  0.00  0.00    -0.022 A 
ATOM     15  C10 UNL     1     151.571 154.916 167.138  0.00  0.00    +0.043 A 
ATOM     16  C11 UNL     1     150.499 155.488 166.485  0.00  0.00    -0.023 A 
ATOM     17  C12 UNL     1     150.515 156.875 166.344  0.00  0.00    -0.030 A 
ATOM     18  C13 UNL     1     149.481 154.573 165.877  0.00  0.00    -0.018 C 
ATOM     19  C14 UNL     1     149.406 153.231 166.616  0.00  0.00    +0.029 C 
ATOM     20  C15 UNL     1     150.763 152.636 166.988  0.00  0.00    +0.220 C 
ATOM     21  O4  UNL     1     150.938 151.421 167.064  0.00  0.00    -0.275 OA
ATOM     22  N2  UNL     1     151.717 153.556 167.337  0.00  0.00    -0.271 N 
ATOM     23  C16 UNL     1     153.040 153.293 167.902  0.00  0.00    +0.024 C 
ATOM     24  C17 UNL     1     153.636 154.675 168.265  0.00  0.00    -0.010 C 
ATOM     25  C18 UNL     1     151.497 160.486 163.403  0.00  0.00    -0.036 A 
ATOM     26  H   UNL     1     151.337 156.559 160.831  0.00  0.00    +0.000 HD
ATOM     27  H   UNL     1     153.588 159.888 165.509  0.00  0.00    +0.000 HD
ENDROOT
TORSDOF 0
ENDMDL
MODEL 2
REMARK VINA RESULT:    -8.416      2.593      4.356
REMARK INTER + INTRA:          -8.416
REMARK INTER:                  -8.416
REMARK INTRA:                   0.000
REMARK UNBOUND:                 0.000
REMARK  Name = /home/vital/Documents/PhD_2021/Malaria_codes/scripts/../data/pdbqt_ligands/ligand_202_temp.pdb
REMARK                            x       y       z     vdW  Elec       q    Type
REMARK                         _______ _______ _______ _____ _____    ______ ____
ROOT
ATOM      1  C1  UNL     1     152.477 163.542 168.174  0.00  0.00    -0.040 C 
ATOM      2  C2  UNL     1     151.765 162.270 167.821  0.00  0.00    -0.045 A 
ATOM      3  C3  UNL     1     151.224 161.456 168.825  0.00  0.00    -0.017 A 
ATOM      4  C4  UNL     1     150.607 160.253 168.486  0.00  0.00    +0.119 A 
ATOM      5  O1  UNL     1     150.071 159.438 169.439  0.00  0.00    -0.507 OA
ATOM      6  C5  UNL     1     150.522 159.841 167.162  0.00  0.00    +0.002 A 
ATOM      7  C6  UNL     1     151.065 160.644 166.162  0.00  0.00    +0.052 A 
ATOM      8  N1  UNL     1     151.029 160.204 164.809  0.00  0.00    -0.216 N 
ATOM      9  S1  UNL     1     152.333 159.288 164.243  0.00  0.00    +0.072 S 
ATOM     10  O2  UNL     1     152.188 159.241 162.802  0.00  0.00    -0.150 OA
ATOM     11  O3  UNL     1     153.559 159.758 164.850  0.00  0.00    -0.150 OA
ATOM     12  C7  UNL     1     151.967 157.663 164.865  0.00  0.00    +0.109 A 
ATOM     13  C8  UNL     1     151.030 156.867 164.179  0.00  0.00    -0.030 A 
ATOM     14  C9  UNL     1     150.760 155.612 164.688  0.00  0.00    -0.022 A 
ATOM     15  C10 UNL     1     151.436 155.178 165.818  0.00  0.00    +0.043 A 
ATOM     16  C11 UNL     1     152.360 155.928 166.515  0.00  0.00    -0.023 A 
ATOM     17  C12 UNL     1     152.634 157.204 166.025  0.00  0.00    -0.030 A 
ATOM     18  C13 UNL     1     152.891 155.366 167.798  0.00  0.00    -0.018 C 
ATOM     19  C14 UNL     1     152.865 153.833 167.804  0.00  0.00    +0.029 C 
ATOM     20  C15 UNL     1     151.587 153.219 167.237  0.00  0.00    +0.220 C 
ATOM     21  O4  UNL     1     151.159 152.137 167.632  0.00  0.00    -0.275 OA
ATOM     22  N2  UNL     1     151.036 153.907 166.187  0.00  0.00    -0.271 N 
ATOM     23  C16 UNL     1     149.928 153.485 165.332  0.00  0.00    +0.024 C 
ATOM     24  C17 UNL     1     149.821 154.546 164.209  0.00  0.00    -0.010 C 
ATOM     25  C18 UNL     1     151.694 161.847 166.486  0.00  0.00    -0.036 A 
ATOM     26  H   UNL     1     150.110 159.684 170.343  0.00  0.00    +0.000 HD
ATOM     27  H   UNL     1     150.270 160.426 164.222  0.00  0.00    +0.000 HD
ENDROOT
TORSDOF 0
ENDMDL
MODEL 3
REMARK VINA RESULT:    -8.276      3.731      7.684
REMARK INTER + INTRA:          -8.276
REMARK INTER:                  -8.276
REMARK INTRA:                   0.000
REMARK UNBOUND:                 0.000
REMARK  Name = /home/vital/Documents/PhD_2021/Malaria_codes/scripts/../data/pdbqt_ligands/ligand_202_temp.pdb
REMARK                            x       y       z     vdW  Elec       q    Type
REMARK                         _______ _______ _______ _____ _____    ______ ____
ROOT
ATOM      1  C1  UNL     1     146.609 149.029 164.514  0.00  0.00    -0.040 C 
ATOM      2  C2  UNL     1     146.913 150.475 164.255  0.00  0.00    -0.045 A 
ATOM      3  C3  UNL     1     146.374 151.126 163.137  0.00  0.00    -0.017 A 
ATOM      4  C4  UNL     1     146.703 152.456 162.884  0.00  0.00    +0.119 A 
ATOM      5  O1  UNL     1     146.196 153.118 161.804  0.00  0.00    -0.507 OA
ATOM      6  C5  UNL     1     147.565 153.152 163.721  0.00  0.00    +0.002 A 
ATOM      7  C6  UNL     1     148.109 152.507 164.829  0.00  0.00    +0.052 A 
ATOM      8  N1  UNL     1     149.033 153.197 165.662  0.00  0.00    -0.216 N 
ATOM      9  S1  UNL     1     150.676 153.085 165.278  0.00  0.00    +0.072 S 
ATOM     10  O2  UNL     1     151.389 153.605 166.427  0.00  0.00    -0.150 OA
ATOM     11  O3  UNL     1     150.967 151.766 164.760  0.00  0.00    -0.150 OA
ATOM     12  C7  UNL     1     150.851 154.271 163.965  0.00  0.00    +0.109 A 
ATOM     13  C8  UNL     1     150.956 155.637 164.292  0.00  0.00    -0.030 A 
ATOM     14  C9  UNL     1     151.085 156.536 163.252  0.00  0.00    -0.022 A 
ATOM     15  C10 UNL     1     151.137 156.066 161.949  0.00  0.00    +0.043 A 
ATOM     16  C11 UNL     1     151.037 154.737 161.591  0.00  0.00    -0.023 A 
ATOM     17  C12 UNL     1     150.892 153.816 162.626  0.00  0.00    -0.030 A 
ATOM     18  C13 UNL     1     150.966 154.411 160.131  0.00  0.00    -0.018 C 
ATOM     19  C14 UNL     1     151.669 155.470 159.274  0.00  0.00    +0.029 C 
ATOM     20  C15 UNL     1     151.389 156.912 159.692  0.00  0.00    +0.220 C 
ATOM     21  O4  UNL     1     151.388 157.833 158.878  0.00  0.00    -0.275 OA
ATOM     22  N2  UNL     1     151.259 157.103 161.043  0.00  0.00    -0.271 N 
ATOM     23  C16 UNL     1     151.163 158.376 161.755  0.00  0.00    +0.024 C 
ATOM     24  C17 UNL     1     151.203 158.031 163.264  0.00  0.00    -0.010 C 
ATOM     25  C18 UNL     1     147.796 151.173 165.092  0.00  0.00    -0.036 A 
ATOM     26  H   UNL     1     145.611 152.680 161.217  0.00  0.00    +0.000 HD
ATOM     27  H   UNL     1     148.727 153.722 166.437  0.00  0.00    +0.000 HD
ENDROOT
TORSDOF 0
ENDMDL
MODEL 4
REMARK VINA RESULT:    -8.245      2.197      6.729
REMARK INTER + INTRA:          -8.245
REMARK INTER:                  -8.245
REMARK INTRA:                   0.000
REMARK UNBOUND:                 0.000
REMARK  Name = /home/vital/Documents/PhD_2021/Malaria_codes/scripts/../data/pdbqt_ligands/ligand_202_temp.pdb
REMARK                            x       y       z     vdW  Elec       q    Type
REMARK                         _______ _______ _______ _____ _____    ______ ____
ROOT
ATOM      1  C1  UNL     1     151.122 151.718 167.427  0.00  0.00    -0.040 C 
ATOM      2  C2  UNL     1     150.634 153.025 166.877  0.00  0.00    -0.045 A 
ATOM      3  C3  UNL     1     149.893 153.063 165.688  0.00  0.00    -0.017 A 
ATOM      4  C4  UNL     1     149.487 154.288 165.163  0.00  0.00    +0.119 A 
ATOM      5  O1  UNL     1     148.765 154.360 164.008  0.00  0.00    -0.507 OA
ATOM      6  C5  UNL     1     149.809 155.481 165.799  0.00  0.00    +0.002 A 
ATOM      7  C6  UNL     1     150.551 155.448 166.976  0.00  0.00    +0.052 A 
ATOM      8  N1  UNL     1     150.930 156.666 167.604  0.00  0.00    -0.216 N 
ATOM      9  S1  UNL     1     152.404 157.361 167.153  0.00  0.00    +0.072 S 
ATOM     10  O2  UNL     1     152.676 158.391 168.136  0.00  0.00    -0.150 OA
ATOM     11  O3  UNL     1     153.372 156.320 166.884  0.00  0.00    -0.150 OA
ATOM     12  C7  UNL     1     151.999 158.180 165.628  0.00  0.00    +0.109 A 
ATOM     13  C8  UNL     1     151.353 159.431 165.678  0.00  0.00    -0.030 A 
ATOM     14  C9  UNL     1     151.045 160.041 164.477  0.00  0.00    -0.022 A 
ATOM     15  C10 UNL     1     151.404 159.424 163.289  0.00  0.00    +0.043 A 
ATOM     16  C11 UNL     1     152.037 158.201 163.202  0.00  0.00    -0.023 A 
ATOM     17  C12 UNL     1     152.343 157.564 164.402  0.00  0.00    -0.030 A 
ATOM     18  C13 UNL     1     152.225 157.609 161.839  0.00  0.00    -0.018 C 
ATOM     19  C14 UNL     1     152.311 158.688 160.753  0.00  0.00    +0.029 C 
ATOM     20  C15 UNL     1     151.293 159.817 160.901  0.00  0.00    +0.220 C 
ATOM     21  O4  UNL     1     150.851 160.422 159.926  0.00  0.00    -0.275 OA
ATOM     22  N2  UNL     1     151.011 160.171 162.195  0.00  0.00    -0.271 N 
ATOM     23  C16 UNL     1     150.223 161.315 162.652  0.00  0.00    +0.024 C 
ATOM     24  C17 UNL     1     150.359 161.344 164.194  0.00  0.00    -0.010 C 
ATOM     25  C18 UNL     1     150.973 154.229 167.510  0.00  0.00    -0.036 A 
ATOM     26  H   UNL     1     148.530 153.576 163.552  0.00  0.00    +0.000 HD
ATOM     27  H   UNL     1     150.353 157.092 168.280  0.00  0.00    +0.000 HD
ENDROOT
TORSDOF 0
ENDMDL
MODEL 5
REMARK VINA RESULT:    -8.031      3.472      5.651
REMARK INTER + INTRA:          -8.031
REMARK INTER:                  -8.031
REMARK INTRA:                   0.000
REMARK UNBOUND:                 0.000
REMARK  Name = /home/vital/Documents/PhD_2021/Malaria_codes/scripts/../data/pdbqt_ligands/ligand_202_temp.pdb
REMARK                            x       y       z     vdW  Elec       q    Type
REMARK                         _______ _______ _______ _____ _____    ______ ____
ROOT
ATOM      1  C1  UNL     1     152.535 159.600 158.206  0.00  0.00    -0.040 C 
ATOM      2  C2  UNL     1     151.954 159.789 159.576  0.00  0.00    -0.045 A 
ATOM      3  C3  UNL     1     151.798 161.076 160.110  0.00  0.00    -0.017 A 
ATOM      4  C4  UNL     1     151.301 161.234 161.402  0.00  0.00    +0.119 A 
ATOM      5  O1  UNL     1     151.137 162.473 161.951  0.00  0.00    -0.507 OA
ATOM      6  C5  UNL     1     150.961 160.134 162.179  0.00  0.00    +0.002 A 
ATOM      7  C6  UNL     1     151.122 158.854 161.654  0.00  0.00    +0.052 A 
ATOM      8  N1  UNL     1     150.825 157.721 162.461  0.00  0.00    -0.216 N 
ATOM      9  S1  UNL     1     152.074 157.072 163.399  0.00  0.00    +0.072 S 
ATOM     10  O2  UNL     1     151.595 155.786 163.865  0.00  0.00    -0.150 OA
ATOM     11  O3  UNL     1     153.327 157.181 162.685  0.00  0.00    -0.150 OA
ATOM     12  C7  UNL     1     152.113 158.162 164.804  0.00  0.00    +0.109 A 
ATOM     13  C8  UNL     1     151.166 157.983 165.830  0.00  0.00    -0.030 A 
ATOM     14  C9  UNL     1     151.216 158.849 166.905  0.00  0.00    -0.022 A 
ATOM     15  C10 UNL     1     152.201 159.823 166.948  0.00  0.00    +0.043 A 
ATOM     16  C11 UNL     1     153.144 160.027 165.963  0.00  0.00    -0.023 A 
ATOM     17  C12 UNL     1     153.101 159.173 164.863  0.00  0.00    -0.030 A 
ATOM     18  C13 UNL     1     154.047 161.215 166.096  0.00  0.00    -0.018 C 
ATOM     19  C14 UNL     1     154.249 161.618 167.562  0.00  0.00    +0.029 C 
ATOM     20  C15 UNL     1     152.977 161.596 168.406  0.00  0.00    +0.220 C 
ATOM     21  O4  UNL     1     152.821 162.355 169.361  0.00  0.00    -0.275 OA
ATOM     22  N2  UNL     1     152.094 160.598 168.088  0.00  0.00    -0.271 N 
ATOM     23  C16 UNL     1     150.886 160.213 168.818  0.00  0.00    +0.024 C 
ATOM     24  C17 UNL     1     150.356 158.931 168.131  0.00  0.00    -0.010 C 
ATOM     25  C18 UNL     1     151.625 158.678 160.365  0.00  0.00    -0.036 A 
ATOM     26  H   UNL     1     151.357 163.238 161.456  0.00  0.00    +0.000 HD
ATOM     27  H   UNL     1     149.923 157.326 162.474  0.00  0.00    +0.000 HD
ENDROOT
TORSDOF 0
ENDMDL
MODEL 6
REMARK VINA RESULT:    -7.897      2.788      7.042
REMARK INTER + INTRA:          -7.897
REMARK INTER:                  -7.897
REMARK INTRA:                   0.000
REMARK UNBOUND:                 0.000
REMARK  Name = /home/vital/Documents/PhD_2021/Malaria_codes/scripts/../data/pdbqt_ligands/ligand_202_temp.pdb
REMARK                            x       y       z     vdW  Elec       q    Type
REMARK                         _______ _______ _______ _____ _____    ______ ____
ROOT
ATOM      1  C1  UNL     1     151.525 153.065 167.851  0.00  0.00    -0.040 C 
ATOM      2  C2  UNL     1     150.914 153.969 166.821  0.00  0.00    -0.045 A 
ATOM      3  C3  UNL     1     150.014 153.462 165.875  0.00  0.00    -0.017 A 
ATOM      4  C4  UNL     1     149.492 154.304 164.894  0.00  0.00    +0.119 A 
ATOM      5  O1  UNL     1     148.613 153.842 163.958  0.00  0.00    -0.507 OA
ATOM      6  C5  UNL     1     149.854 155.644 164.834  0.00  0.00    +0.002 A 
ATOM      7  C6  UNL     1     150.754 156.149 165.768  0.00  0.00    +0.052 A 
ATOM      8  N1  UNL     1     151.170 157.507 165.682  0.00  0.00    -0.216 N 
ATOM      9  S1  UNL     1     152.539 157.854 164.752  0.00  0.00    +0.072 S 
ATOM     10  O2  UNL     1     152.905 159.217 165.078  0.00  0.00    -0.150 OA
ATOM     11  O3  UNL     1     153.498 156.779 164.876  0.00  0.00    -0.150 OA
ATOM     12  C7  UNL     1     151.893 157.863 163.095  0.00  0.00    +0.109 A 
ATOM     13  C8  UNL     1     151.213 159.007 162.636  0.00  0.00    -0.030 A 
ATOM     14  C9  UNL     1     150.717 158.983 161.347  0.00  0.00    -0.022 A 
ATOM     15  C10 UNL     1     150.930 157.865 160.557  0.00  0.00    +0.043 A 
ATOM     16  C11 UNL     1     151.590 156.727 160.972  0.00  0.00    -0.023 A 
ATOM     17  C12 UNL     1     152.086 156.727 162.275  0.00  0.00    -0.030 A 
ATOM     18  C13 UNL     1     151.609 155.552 160.044  0.00  0.00    -0.018 C 
ATOM     19  C14 UNL     1     151.500 155.982 158.575  0.00  0.00    +0.029 C 
ATOM     20  C15 UNL     1     150.471 157.079 158.311  0.00  0.00    +0.220 C 
ATOM     21  O4  UNL     1     149.874 157.161 157.239  0.00  0.00    -0.275 OA
ATOM     22  N2  UNL     1     150.360 158.014 159.307  0.00  0.00    -0.271 N 
ATOM     23  C16 UNL     1     149.600 159.263 159.272  0.00  0.00    +0.024 C 
ATOM     24  C17 UNL     1     149.949 160.017 160.579  0.00  0.00    -0.010 C 
ATOM     25  C18 UNL     1     151.292 155.318 166.751  0.00  0.00    -0.036 A 
ATOM     26  H   UNL     1     148.347 152.943 163.968  0.00  0.00    +0.000 HD
ATOM     27  H   UNL     1     150.677 158.221 166.148  0.00  0.00    +0.000 HD
ENDROOT
TORSDOF 0
ENDMDL
MODEL 7
REMARK VINA RESULT:    -7.801      3.337      6.027
REMARK INTER + INTRA:          -7.801
REMARK INTER:                  -7.801
REMARK INTRA:                   0.000
REMARK UNBOUND:                 0.000
REMARK  Name = /home/vital/Documents/PhD_2021/Malaria_codes/scripts/../data/pdbqt_ligands/ligand_202_temp.pdb
REMARK                            x       y       z     vdW  Elec       q    Type
REMARK                         _______ _______ _______ _____ _____    ______ ____
ROOT
ATOM      1  C1  UNL     1     149.476 154.315 163.305  0.00  0.00    -0.040 C 
ATOM      2  C2  UNL     1     150.478 155.090 164.108  0.00  0.00    -0.045 A 
ATOM      3  C3  UNL     1     150.733 154.753 165.444  0.00  0.00    -0.017 A 
ATOM      4  C4  UNL     1     151.631 155.512 166.191  0.00  0.00    +0.119 A 
ATOM      5  O1  UNL     1     151.901 155.211 167.494  0.00  0.00    -0.507 OA
ATOM      6  C5  UNL     1     152.280 156.607 165.634  0.00  0.00    +0.002 A 
ATOM      7  C6  UNL     1     152.024 156.949 164.309  0.00  0.00    +0.052 A 
ATOM      8  N1  UNL     1     152.645 158.099 163.747  0.00  0.00    -0.216 N 
ATOM      9  S1  UNL     1     151.832 159.577 163.878  0.00  0.00    +0.072 S 
ATOM     10  O2  UNL     1     152.516 160.487 162.982  0.00  0.00    -0.150 OA
ATOM     11  O3  UNL     1     150.406 159.360 163.769  0.00  0.00    -0.150 OA
ATOM     12  C7  UNL     1     152.212 160.085 165.540  0.00  0.00    +0.109 A 
ATOM     13  C8  UNL     1     153.462 160.678 165.800  0.00  0.00    -0.030 A 
ATOM     14  C9  UNL     1     153.733 161.056 167.101  0.00  0.00    -0.022 A 
ATOM     15  C10 UNL     1     152.768 160.870 168.078  0.00  0.00    +0.043 A 
ATOM     16  C11 UNL     1     151.533 160.294 167.860  0.00  0.00    -0.023 A 
ATOM     17  C12 UNL     1     151.248 159.892 166.556  0.00  0.00    -0.030 A 
ATOM     18  C13 UNL     1     150.664 160.035 169.051  0.00  0.00    -0.018 C 
ATOM     19  C14 UNL     1     150.952 161.017 170.193  0.00  0.00    +0.029 C 
ATOM     20  C15 UNL     1     152.435 161.281 170.442  0.00  0.00    +0.220 C 
ATOM     21  O4  UNL     1     152.864 161.559 171.561  0.00  0.00    -0.275 OA
ATOM     22  N2  UNL     1     153.213 161.299 169.314  0.00  0.00    -0.271 N 
ATOM     23  C16 UNL     1     154.617 161.692 169.209  0.00  0.00    +0.024 C 
ATOM     24  C17 UNL     1     154.954 161.690 167.697  0.00  0.00    -0.010 C 
ATOM     25  C18 UNL     1     151.121 156.204 163.550  0.00  0.00    -0.036 A 
ATOM     26  H   UNL     1     151.481 154.479 167.903  0.00  0.00    +0.000 HD
ATOM     27  H   UNL     1     153.518 158.038 163.296  0.00  0.00    +0.000 HD
ENDROOT
TORSDOF 0
ENDMDL
MODEL 8
REMARK VINA RESULT:    -7.223     11.017     14.413
REMARK INTER + INTRA:          -7.223
REMARK INTER:                  -7.223
REMARK INTRA:                   0.000
REMARK UNBOUND:                 0.000
REMARK  Name = /home/vital/Documents/PhD_2021/Malaria_codes/scripts/../data/pdbqt_ligands/ligand_202_temp.pdb
REMARK                            x       y       z     vdW  Elec       q    Type
REMARK                         _______ _______ _______ _____ _____    ______ ____
ROOT
ATOM      1  C1  UNL     1     146.436 150.616 163.301  0.00  0.00    -0.040 C 
ATOM      2  C2  UNL     1     145.981 149.451 164.129  0.00  0.00    -0.045 A 
ATOM      3  C3  UNL     1     146.909 148.521 164.618  0.00  0.00    -0.017 A 
ATOM      4  C4  UNL     1     146.467 147.418 165.345  0.00  0.00    +0.119 A 
ATOM      5  O1  UNL     1     147.344 146.494 165.836  0.00  0.00    -0.507 OA
ATOM      6  C5  UNL     1     145.114 147.218 165.592  0.00  0.00    +0.002 A 
ATOM      7  C6  UNL     1     144.189 148.135 165.102  0.00  0.00    +0.052 A 
ATOM      8  N1  UNL     1     142.799 147.911 165.305  0.00  0.00    -0.216 N 
ATOM      9  S1  UNL     1     141.964 147.027 164.130  0.00  0.00    +0.072 S 
ATOM     10  O2  UNL     1     140.556 147.208 164.423  0.00  0.00    -0.150 OA
ATOM     11  O3  UNL     1     142.493 147.336 162.819  0.00  0.00    -0.150 OA
ATOM     12  C7  UNL     1     142.377 145.346 164.538  0.00  0.00    +0.109 A 
ATOM     13  C8  UNL     1     141.690 144.714 165.591  0.00  0.00    -0.030 A 
ATOM     14  C9  UNL     1     142.036 143.411 165.891  0.00  0.00    -0.022 A 
ATOM     15  C10 UNL     1     143.008 142.775 165.135  0.00  0.00    +0.043 A 
ATOM     16  C11 UNL     1     143.701 143.362 164.096  0.00  0.00    -0.023 A 
ATOM     17  C12 UNL     1     143.376 144.682 163.789  0.00  0.00    -0.030 A 
ATOM     18  C13 UNL     1     144.820 142.584 163.476  0.00  0.00    -0.018 C 
ATOM     19  C14 UNL     1     144.605 141.071 163.604  0.00  0.00    +0.029 C 
ATOM     20  C15 UNL     1     144.098 140.617 164.971  0.00  0.00    +0.220 C 
ATOM     21  O4  UNL     1     144.376 139.510 165.429  0.00  0.00    -0.275 OA
ATOM     22  N2  UNL     1     143.229 141.485 165.579  0.00  0.00    -0.271 N 
ATOM     23  C16 UNL     1     142.449 141.256 166.794  0.00  0.00    +0.024 C 
ATOM     24  C17 UNL     1     141.513 142.480 166.943  0.00  0.00    -0.010 C 
ATOM     25  C18 UNL     1     144.615 149.241 164.364  0.00  0.00    -0.036 A 
ATOM     26  H   UNL     1     148.264 146.597 165.688  0.00  0.00    +0.000 HD
ATOM     27  H   UNL     1     142.339 148.258 166.103  0.00  0.00    +0.000 HD
ENDROOT
TORSDOF 0
ENDMDL
MODEL 9
REMARK VINA RESULT:    -6.911     10.874     14.199
REMARK INTER + INTRA:          -6.911
REMARK INTER:                  -6.911
REMARK INTRA:                   0.000
REMARK UNBOUND:                 0.000
REMARK  Name = /home/vital/Documents/PhD_2021/Malaria_codes/scripts/../data/pdbqt_ligands/ligand_202_temp.pdb
REMARK                            x       y       z     vdW  Elec       q    Type
REMARK                         _______ _______ _______ _____ _____    ______ ____
ROOT
ATOM      1  C1  UNL     1     146.907 150.681 163.900  0.00  0.00    -0.040 C 
ATOM      2  C2  UNL     1     146.400 149.371 164.425  0.00  0.00    -0.045 A 
ATOM      3  C3  UNL     1     146.818 148.164 163.848  0.00  0.00    -0.017 A 
ATOM      4  C4  UNL     1     146.302 146.957 164.314  0.00  0.00    +0.119 A 
ATOM      5  O1  UNL     1     146.688 145.765 163.774  0.00  0.00    -0.507 OA
ATOM      6  C5  UNL     1     145.370 146.927 165.345  0.00  0.00    +0.002 A 
ATOM      7  C6  UNL     1     144.947 148.124 165.916  0.00  0.00    +0.052 A 
ATOM      8  N1  UNL     1     143.956 148.106 166.936  0.00  0.00    -0.216 N 
ATOM      9  S1  UNL     1     142.336 148.210 166.462  0.00  0.00    +0.072 S 
ATOM     10  O2  UNL     1     141.584 148.473 167.672  0.00  0.00    -0.150 OA
ATOM     11  O3  UNL     1     142.219 149.081 165.313  0.00  0.00    -0.150 OA
ATOM     12  C7  UNL     1     141.967 146.543 165.963  0.00  0.00    +0.109 A 
ATOM     13  C8  UNL     1     141.681 145.584 166.953  0.00  0.00    -0.030 A 
ATOM     14  C9  UNL     1     141.406 144.296 166.536  0.00  0.00    -0.022 A 
ATOM     15  C10 UNL     1     141.390 144.009 165.180  0.00  0.00    +0.043 A 
ATOM     16  C11 UNL     1     141.665 144.922 164.183  0.00  0.00    -0.023 A 
ATOM     17  C12 UNL     1     141.959 146.223 164.585  0.00  0.00    -0.030 A 
ATOM     18  C13 UNL     1     141.747 144.415 162.776  0.00  0.00    -0.018 C 
ATOM     19  C14 UNL     1     140.884 143.165 162.567  0.00  0.00    +0.029 C 
ATOM     20  C15 UNL     1     140.971 142.140 163.696  0.00  0.00    +0.220 C 
ATOM     21  O4  UNL     1     140.825 140.936 163.490  0.00  0.00    -0.275 OA
ATOM     22  N2  UNL     1     141.104 142.677 164.950  0.00  0.00    -0.271 N 
ATOM     23  C16 UNL     1     141.039 141.972 166.230  0.00  0.00    +0.024 C 
ATOM     24  C17 UNL     1     141.081 143.064 167.327  0.00  0.00    -0.010 C 
ATOM     25  C18 UNL     1     145.448 149.342 165.455  0.00  0.00    -0.036 A 
ATOM     26  H   UNL     1     147.314 145.747 163.077  0.00  0.00    +0.000 HD
ATOM     27  H   UNL     1     144.204 148.035 167.886  0.00  0.00    +0.000 HD
ENDROOT
TORSDOF 0
ENDMDL
