MODEL 1
REMARK VINA RESULT:    -7.457      0.000      0.000
REMARK INTER + INTRA:          -7.457
REMARK INTER:                  -7.457
REMARK INTRA:                   0.000
REMARK UNBOUND:                 0.000
REMARK  Name = /home/vital/Documents/PhD_2021/Malaria_codes/scripts/../data/pdbqt_ligands/ligand_57_temp.pdb
REMARK                            x       y       z     vdW  Elec       q    Type
REMARK                         _______ _______ _______ _____ _____    ______ ____
ROOT
ATOM      1  N   UNL     1     152.565 153.574 161.672  0.00  0.00    -0.195 NA
ATOM      2  C   UNL     1     151.836 154.473 161.779  0.00  0.00    +0.078 C 
ATOM      3  C   UNL     1     150.901 155.602 161.976  0.00  0.00    +0.086 C 
ATOM      4  N   UNL     1     150.063 155.504 163.189  0.00  0.00    -0.273 N 
ATOM      5  C   UNL     1     150.868 155.483 164.416  0.00  0.00    +0.164 C 
ATOM      6  C   UNL     1     149.937 155.545 165.598  0.00  0.00    +0.004 C 
ATOM      7  C   UNL     1     150.227 155.014 166.752  0.00  0.00    -0.120 C 
ATOM      8  C   UNL     1     150.682 154.500 167.856  0.00  0.00    -0.018 C 
ATOM      9  C   UNL     1     152.103 154.404 168.104  0.00  0.00    -0.036 C 
ATOM     10  C   UNL     1     153.017 155.386 168.013  0.00  0.00    +0.031 C 
ATOM     11  N   UNL     1     152.774 156.710 167.767  0.00  0.00    -0.235 N 
ATOM     12  C   UNL     1     152.702 157.170 166.534  0.00  0.00    +0.171 C 
ATOM     13  C   UNL     1     152.469 158.700 166.481  0.00  0.00    +0.065 C 
ATOM     14  N   UNL     1     152.250 159.312 167.713  0.00  0.00    -0.355 N 
ATOM     15  C   UNL     1     152.473 159.364 165.313  0.00  0.00    -0.056 C 
ATOM     16  C   UNL     1     152.270 160.844 165.152  0.00  0.00    -0.013 C 
ATOM     17  C   UNL     1     150.813 161.175 164.995  0.00  0.00    -0.069 C 
ATOM     18  C   UNL     1     150.163 162.035 165.785  0.00  0.00    +0.001 C 
ATOM     19 CL   UNL     1     148.489 162.363 165.619  0.00  0.00    -0.092 Cl
ATOM     20  N   UNL     1     152.818 156.384 165.387  0.00  0.00    -0.245 N 
ATOM     21  O   UNL     1     151.763 156.611 164.462  0.00  0.00    -0.249 OA
ATOM     22  H   UNL     1     153.161 152.840 161.585  0.00  0.00    +0.000 HD
ATOM     23  H   UNL     1     149.514 154.646 163.141  0.00  0.00    +0.000 HD
ATOM     24  H   UNL     1     149.462 156.328 163.222  0.00  0.00    +0.000 HD
ATOM     25  H   UNL     1     152.650 157.328 168.524  0.00  0.00    +0.000 HD
ATOM     26  H   UNL     1     152.259 158.775 168.538  0.00  0.00    +0.000 HD
ATOM     27  H   UNL     1     152.088 160.283 167.759  0.00  0.00    +0.000 HD
ATOM     28  H   UNL     1     153.550 155.744 165.235  0.00  0.00    +0.000 HD
ENDROOT
TORSDOF 0
ENDMDL
MODEL 2
REMARK VINA RESULT:    -7.388      3.331      4.911
REMARK INTER + INTRA:          -7.388
REMARK INTER:                  -7.388
REMARK INTRA:                   0.000
REMARK UNBOUND:                 0.000
REMARK  Name = /home/vital/Documents/PhD_2021/Malaria_codes/scripts/../data/pdbqt_ligands/ligand_57_temp.pdb
REMARK                            x       y       z     vdW  Elec       q    Type
REMARK                         _______ _______ _______ _____ _____    ______ ____
ROOT
ATOM      1  N   UNL     1     153.289 159.710 157.613  0.00  0.00    -0.195 NA
ATOM      2  C   UNL     1     152.652 160.179 158.465  0.00  0.00    +0.078 C 
ATOM      3  C   UNL     1     151.816 160.720 159.558  0.00  0.00    +0.086 C 
ATOM      4  N   UNL     1     150.647 159.889 159.908  0.00  0.00    -0.273 N 
ATOM      5  C   UNL     1     151.037 158.554 160.379  0.00  0.00    +0.164 C 
ATOM      6  C   UNL     1     149.805 157.839 160.862  0.00  0.00    +0.004 C 
ATOM      7  C   UNL     1     149.680 156.542 160.819  0.00  0.00    -0.120 C 
ATOM      8  C   UNL     1     149.729 155.244 160.778  0.00  0.00    -0.018 C 
ATOM      9  C   UNL     1     150.992 154.543 160.822  0.00  0.00    -0.036 C 
ATOM     10  C   UNL     1     151.982 154.698 161.719  0.00  0.00    +0.031 C 
ATOM     11  N   UNL     1     151.954 155.479 162.842  0.00  0.00    -0.235 N 
ATOM     12  C   UNL     1     152.303 156.749 162.795  0.00  0.00    +0.171 C 
ATOM     13  C   UNL     1     152.246 157.435 164.181  0.00  0.00    +0.065 C 
ATOM     14  N   UNL     1     151.727 156.655 165.212  0.00  0.00    -0.355 N 
ATOM     15  C   UNL     1     152.666 158.700 164.349  0.00  0.00    -0.056 C 
ATOM     16  C   UNL     1     152.667 159.452 165.650  0.00  0.00    -0.013 C 
ATOM     17  C   UNL     1     151.364 160.172 165.857  0.00  0.00    -0.069 C 
ATOM     18  C   UNL     1     150.593 160.006 166.936  0.00  0.00    +0.001 C 
ATOM     19 CL   UNL     1     149.087 160.801 167.131  0.00  0.00    -0.092 Cl
ATOM     20  N   UNL     1     152.682 157.424 161.633  0.00  0.00    -0.245 N 
ATOM     21  O   UNL     1     151.982 158.649 161.462  0.00  0.00    -0.249 OA
ATOM     22  H   UNL     1     153.809 159.327 156.917  0.00  0.00    +0.000 HD
ATOM     23  H   UNL     1     150.057 159.786 159.083  0.00  0.00    +0.000 HD
ATOM     24  H   UNL     1     150.147 160.354 160.666  0.00  0.00    +0.000 HD
ATOM     25  H   UNL     1     151.669 155.085 163.698  0.00  0.00    +0.000 HD
ATOM     26  H   UNL     1     151.434 155.733 165.031  0.00  0.00    +0.000 HD
ATOM     27  H   UNL     1     151.654 157.025 166.121  0.00  0.00    +0.000 HD
ATOM     28  H   UNL     1     153.360 157.089 161.003  0.00  0.00    +0.000 HD
ENDROOT
TORSDOF 0
ENDMDL
MODEL 3
REMARK VINA RESULT:    -7.153      3.150      6.517
REMARK INTER + INTRA:          -7.153
REMARK INTER:                  -7.153
REMARK INTRA:                   0.000
REMARK UNBOUND:                 0.000
REMARK  Name = /home/vital/Documents/PhD_2021/Malaria_codes/scripts/../data/pdbqt_ligands/ligand_57_temp.pdb
REMARK                            x       y       z     vdW  Elec       q    Type
REMARK                         _______ _______ _______ _____ _____    ______ ____
ROOT
ATOM      1  N   UNL     1     148.338 163.542 167.993  0.00  0.00    -0.195 NA
ATOM      2  C   UNL     1     148.474 162.854 167.066  0.00  0.00    +0.078 C 
ATOM      3  C   UNL     1     148.709 161.976 165.898  0.00  0.00    +0.086 C 
ATOM      4  N   UNL     1     150.110 161.927 165.437  0.00  0.00    -0.273 N 
ATOM      5  C   UNL     1     151.015 161.405 166.469  0.00  0.00    +0.164 C 
ATOM      6  C   UNL     1     152.383 161.239 165.864  0.00  0.00    +0.004 C 
ATOM      7  C   UNL     1     153.479 161.336 166.563  0.00  0.00    -0.120 C 
ATOM      8  C   UNL     1     154.474 161.391 167.398  0.00  0.00    -0.018 C 
ATOM      9  C   UNL     1     154.296 161.066 168.794  0.00  0.00    -0.036 C 
ATOM     10  C   UNL     1     153.734 159.959 169.311  0.00  0.00    +0.031 C 
ATOM     11  N   UNL     1     153.308 158.859 168.619  0.00  0.00    -0.235 N 
ATOM     12  C   UNL     1     152.087 158.797 168.125  0.00  0.00    +0.171 C 
ATOM     13  C   UNL     1     151.795 157.449 167.423  0.00  0.00    +0.065 C 
ATOM     14  N   UNL     1     152.883 156.585 167.316  0.00  0.00    -0.355 N 
ATOM     15  C   UNL     1     150.571 157.161 166.950  0.00  0.00    -0.056 C 
ATOM     16  C   UNL     1     150.179 155.882 166.267  0.00  0.00    -0.013 C 
ATOM     17  C   UNL     1     150.406 155.971 164.784  0.00  0.00    -0.069 C 
ATOM     18  C   UNL     1     151.161 155.107 164.100  0.00  0.00    +0.001 C 
ATOM     19 CL   UNL     1     151.445 155.255 162.416  0.00  0.00    -0.092 Cl
ATOM     20  N   UNL     1     151.145 159.823 168.211  0.00  0.00    -0.245 N 
ATOM     21  O   UNL     1     150.556 160.129 166.954  0.00  0.00    -0.249 OA
ATOM     22  H   UNL     1     148.227 164.104 168.750  0.00  0.00    +0.000 HD
ATOM     23  H   UNL     1     150.408 162.870 165.186  0.00  0.00    +0.000 HD
ATOM     24  H   UNL     1     150.155 161.299 164.635  0.00  0.00    +0.000 HD
ATOM     25  H   UNL     1     153.923 158.101 168.488  0.00  0.00    +0.000 HD
ATOM     26  H   UNL     1     153.758 156.848 167.681  0.00  0.00    +0.000 HD
ATOM     27  H   UNL     1     152.776 155.710 166.875  0.00  0.00    +0.000 HD
ATOM     28  H   UNL     1     150.913 160.283 169.050  0.00  0.00    +0.000 HD
ENDROOT
TORSDOF 0
ENDMDL
MODEL 4
REMARK VINA RESULT:    -6.707      3.282      7.315
REMARK INTER + INTRA:          -6.707
REMARK INTER:                  -6.707
REMARK INTRA:                   0.000
REMARK UNBOUND:                 0.000
REMARK  Name = /home/vital/Documents/PhD_2021/Malaria_codes/scripts/../data/pdbqt_ligands/ligand_57_temp.pdb
REMARK                            x       y       z     vdW  Elec       q    Type
REMARK                         _______ _______ _______ _____ _____    ______ ____
ROOT
ATOM      1  N   UNL     1     153.046 162.778 170.878  0.00  0.00    -0.195 NA
ATOM      2  C   UNL     1     152.469 161.785 170.702  0.00  0.00    +0.078 C 
ATOM      3  C   UNL     1     151.704 160.548 170.430  0.00  0.00    +0.086 C 
ATOM      4  N   UNL     1     150.487 160.743 169.615  0.00  0.00    -0.273 N 
ATOM      5  C   UNL     1     150.793 161.279 168.283  0.00  0.00    +0.164 C 
ATOM      6  C   UNL     1     149.526 161.293 167.472  0.00  0.00    +0.004 C 
ATOM      7  C   UNL     1     149.306 162.158 166.522  0.00  0.00    -0.120 C 
ATOM      8  C   UNL     1     149.260 163.035 165.564  0.00  0.00    -0.018 C 
ATOM      9  C   UNL     1     150.470 163.542 164.958  0.00  0.00    -0.036 C 
ATOM     10  C   UNL     1     151.492 162.829 164.453  0.00  0.00    +0.031 C 
ATOM     11  N   UNL     1     151.552 161.470 164.314  0.00  0.00    -0.235 N 
ATOM     12  C   UNL     1     151.990 160.705 165.294  0.00  0.00    +0.171 C 
ATOM     13  C   UNL     1     152.021 159.205 164.912  0.00  0.00    +0.065 C 
ATOM     14  N   UNL     1     151.476 158.895 163.669  0.00  0.00    -0.355 N 
ATOM     15  C   UNL     1     152.536 158.285 165.745  0.00  0.00    -0.056 C 
ATOM     16  C   UNL     1     152.627 156.812 165.467  0.00  0.00    -0.013 C 
ATOM     17  C   UNL     1     151.386 156.099 165.926  0.00  0.00    -0.069 C 
ATOM     18  C   UNL     1     150.635 155.337 165.125  0.00  0.00    +0.001 C 
ATOM     19 CL   UNL     1     149.197 154.571 165.656  0.00  0.00    -0.092 Cl
ATOM     20  N   UNL     1     152.385 161.173 166.548  0.00  0.00    -0.245 N 
ATOM     21  O   UNL     1     151.771 160.460 167.614  0.00  0.00    -0.249 OA
ATOM     22  H   UNL     1     153.517 163.589 171.022  0.00  0.00    +0.000 HD
ATOM     23  H   UNL     1     149.869 161.395 170.098  0.00  0.00    +0.000 HD
ATOM     24  H   UNL     1     150.043 159.833 169.493  0.00  0.00    +0.000 HD
ATOM     25  H   UNL     1     151.263 161.057 163.469  0.00  0.00    +0.000 HD
ATOM     26  H   UNL     1     151.112 159.611 163.099  0.00  0.00    +0.000 HD
ATOM     27  H   UNL     1     151.454 157.961 163.359  0.00  0.00    +0.000 HD
ATOM     28  H   UNL     1     153.020 161.914 166.680  0.00  0.00    +0.000 HD
ENDROOT
TORSDOF 0
ENDMDL
MODEL 5
REMARK VINA RESULT:    -6.500     12.797     14.630
REMARK INTER + INTRA:          -6.500
REMARK INTER:                  -6.500
REMARK INTRA:                   0.000
REMARK UNBOUND:                 0.000
REMARK  Name = /home/vital/Documents/PhD_2021/Malaria_codes/scripts/../data/pdbqt_ligands/ligand_57_temp.pdb
REMARK                            x       y       z     vdW  Elec       q    Type
REMARK                         _______ _______ _______ _____ _____    ______ ____
ROOT
ATOM      1  N   UNL     1     145.443 139.783 164.751  0.00  0.00    -0.195 NA
ATOM      2  C   UNL     1     145.656 140.703 164.073  0.00  0.00    +0.078 C 
ATOM      3  C   UNL     1     145.870 141.894 163.222  0.00  0.00    +0.086 C 
ATOM      4  N   UNL     1     144.631 142.572 162.790  0.00  0.00    -0.273 N 
ATOM      5  C   UNL     1     143.850 143.075 163.927  0.00  0.00    +0.164 C 
ATOM      6  C   UNL     1     142.699 143.884 163.394  0.00  0.00    +0.004 C 
ATOM      7  C   UNL     1     141.564 143.998 164.026  0.00  0.00    -0.120 C 
ATOM      8  C   UNL     1     140.524 144.076 164.800  0.00  0.00    -0.018 C 
ATOM      9  C   UNL     1     140.644 143.911 166.231  0.00  0.00    -0.036 C 
ATOM     10  C   UNL     1     141.489 144.550 167.059  0.00  0.00    +0.031 C 
ATOM     11  N   UNL     1     142.341 145.568 166.732  0.00  0.00    -0.235 N 
ATOM     12  C   UNL     1     143.557 145.321 166.285  0.00  0.00    +0.171 C 
ATOM     13  C   UNL     1     144.370 146.612 166.022  0.00  0.00    +0.065 C 
ATOM     14  N   UNL     1     143.664 147.803 166.175  0.00  0.00    -0.355 N 
ATOM     15  C   UNL     1     145.664 146.558 165.664  0.00  0.00    -0.056 C 
ATOM     16  C   UNL     1     146.544 147.746 165.399  0.00  0.00    -0.013 C 
ATOM     17  C   UNL     1     146.470 148.161 163.956  0.00  0.00    -0.069 C 
ATOM     18  C   UNL     1     146.138 149.394 163.560  0.00  0.00    +0.001 C 
ATOM     19 CL   UNL     1     146.012 149.834 161.909  0.00  0.00    -0.092 Cl
ATOM     20  N   UNL     1     144.074 144.044 166.064  0.00  0.00    -0.245 N 
ATOM     21  O   UNL     1     144.660 143.910 164.775  0.00  0.00    -0.249 OA
ATOM     22  H   UNL     1     145.269 139.031 165.304  0.00  0.00    +0.000 HD
ATOM     23  H   UNL     1     144.059 141.910 162.266  0.00  0.00    +0.000 HD
ATOM     24  H   UNL     1     144.895 143.370 162.213  0.00  0.00    +0.000 HD
ATOM     25  H   UNL     1     142.042 146.501 166.832  0.00  0.00    +0.000 HD
ATOM     26  H   UNL     1     142.716 147.782 166.439  0.00  0.00    +0.000 HD
ATOM     27  H   UNL     1     144.112 148.665 166.018  0.00  0.00    +0.000 HD
ATOM     28  H   UNL     1     144.038 143.317 166.726  0.00  0.00    +0.000 HD
ENDROOT
TORSDOF 0
ENDMDL
MODEL 6
REMARK VINA RESULT:    -6.471     11.704     14.203
REMARK INTER + INTRA:          -6.471
REMARK INTER:                  -6.471
REMARK INTRA:                   0.000
REMARK UNBOUND:                 0.000
REMARK  Name = /home/vital/Documents/PhD_2021/Malaria_codes/scripts/../data/pdbqt_ligands/ligand_57_temp.pdb
REMARK                            x       y       z     vdW  Elec       q    Type
REMARK                         _______ _______ _______ _____ _____    ______ ____
ROOT
ATOM      1  N   UNL     1     145.736 150.932 161.874  0.00  0.00    -0.195 NA
ATOM      2  C   UNL     1     146.073 149.885 162.251  0.00  0.00    +0.078 C 
ATOM      3  C   UNL     1     146.469 148.563 162.783  0.00  0.00    +0.086 C 
ATOM      4  N   UNL     1     146.312 148.415 164.244  0.00  0.00    -0.273 N 
ATOM      5  C   UNL     1     144.915 148.572 164.669  0.00  0.00    +0.164 C 
ATOM      6  C   UNL     1     144.824 148.249 166.136  0.00  0.00    +0.004 C 
ATOM      7  C   UNL     1     143.933 148.786 166.922  0.00  0.00    -0.120 C 
ATOM      8  C   UNL     1     142.950 149.346 167.562  0.00  0.00    -0.018 C 
ATOM      9  C   UNL     1     141.749 149.757 166.873  0.00  0.00    -0.036 C 
ATOM     10  C   UNL     1     140.984 149.018 166.050  0.00  0.00    +0.031 C 
ATOM     11  N   UNL     1     141.127 147.686 165.778  0.00  0.00    -0.235 N 
ATOM     12  C   UNL     1     141.918 147.271 164.808  0.00  0.00    +0.171 C 
ATOM     13  C   UNL     1     141.897 145.732 164.637  0.00  0.00    +0.065 C 
ATOM     14  N   UNL     1     141.162 145.037 165.594  0.00  0.00    -0.355 N 
ATOM     15  C   UNL     1     142.559 145.135 163.632  0.00  0.00    -0.056 C 
ATOM     16  C   UNL     1     142.593 143.656 163.369  0.00  0.00    -0.013 C 
ATOM     17  C   UNL     1     143.727 143.003 164.108  0.00  0.00    -0.069 C 
ATOM     18  C   UNL     1     143.564 141.985 164.958  0.00  0.00    +0.001 C 
ATOM     19 CL   UNL     1     144.866 141.286 165.827  0.00  0.00    -0.092 Cl
ATOM     20  N   UNL     1     142.700 148.108 164.011  0.00  0.00    -0.245 N 
ATOM     21  O   UNL     1     144.053 147.681 163.936  0.00  0.00    -0.249 OA
ATOM     22  H   UNL     1     145.462 151.786 161.566  0.00  0.00    +0.000 HD
ATOM     23  H   UNL     1     146.878 149.124 164.709  0.00  0.00    +0.000 HD
ATOM     24  H   UNL     1     146.613 147.474 164.498  0.00  0.00    +0.000 HD
ATOM     25  H   UNL     1     140.632 147.026 166.315  0.00  0.00    +0.000 HD
ATOM     26  H   UNL     1     140.697 145.527 166.309  0.00  0.00    +0.000 HD
ATOM     27  H   UNL     1     141.108 144.054 165.555  0.00  0.00    +0.000 HD
ATOM     28  H   UNL     1     142.352 148.907 163.551  0.00  0.00    +0.000 HD
ENDROOT
TORSDOF 0
ENDMDL
MODEL 7
REMARK VINA RESULT:    -6.428      3.546      6.417
REMARK INTER + INTRA:          -6.428
REMARK INTER:                  -6.428
REMARK INTRA:                   0.000
REMARK UNBOUND:                 0.000
REMARK  Name = /home/vital/Documents/PhD_2021/Malaria_codes/scripts/../data/pdbqt_ligands/ligand_57_temp.pdb
REMARK                            x       y       z     vdW  Elec       q    Type
REMARK                         _______ _______ _______ _____ _____    ______ ____
ROOT
ATOM      1  N   UNL     1     147.496 162.764 167.845  0.00  0.00    -0.195 NA
ATOM      2  C   UNL     1     147.945 162.854 166.776  0.00  0.00    +0.078 C 
ATOM      3  C   UNL     1     148.572 162.956 165.441  0.00  0.00    +0.086 C 
ATOM      4  N   UNL     1     150.036 163.149 165.461  0.00  0.00    -0.273 N 
ATOM      5  C   UNL     1     150.734 162.029 166.104  0.00  0.00    +0.164 C 
ATOM      6  C   UNL     1     152.216 162.231 165.938  0.00  0.00    +0.004 C 
ATOM      7  C   UNL     1     153.089 161.783 166.796  0.00  0.00    -0.120 C 
ATOM      8  C   UNL     1     153.839 161.220 167.696  0.00  0.00    -0.018 C 
ATOM      9  C   UNL     1     153.381 160.064 168.432  0.00  0.00    -0.036 C 
ATOM     10  C   UNL     1     152.875 158.923 167.930  0.00  0.00    +0.031 C 
ATOM     11  N   UNL     1     152.786 158.579 166.609  0.00  0.00    -0.235 N 
ATOM     12  C   UNL     1     151.739 158.924 165.886  0.00  0.00    +0.171 C 
ATOM     13  C   UNL     1     151.817 158.394 164.433  0.00  0.00    +0.065 C 
ATOM     14  N   UNL     1     153.009 157.760 164.093  0.00  0.00    -0.355 N 
ATOM     15  C   UNL     1     150.793 158.556 163.578  0.00  0.00    -0.056 C 
ATOM     16  C   UNL     1     150.760 158.070 162.157  0.00  0.00    -0.013 C 
ATOM     17  C   UNL     1     151.318 159.105 161.220  0.00  0.00    -0.069 C 
ATOM     18  C   UNL     1     152.329 158.869 160.379  0.00  0.00    +0.001 C 
ATOM     19 CL   UNL     1     152.982 160.077 159.353  0.00  0.00    -0.092 Cl
ATOM     20  N   UNL     1     150.668 159.686 166.355  0.00  0.00    -0.245 N 
ATOM     21  O   UNL     1     150.358 160.776 165.498  0.00  0.00    -0.249 OA
ATOM     22  H   UNL     1     147.129 162.691 168.718  0.00  0.00    +0.000 HD
ATOM     23  H   UNL     1     150.248 164.005 165.974  0.00  0.00    +0.000 HD
ATOM     24  H   UNL     1     150.358 163.206 164.495  0.00  0.00    +0.000 HD
ATOM     25  H   UNL     1     153.515 158.066 166.193  0.00  0.00    +0.000 HD
ATOM     26  H   UNL     1     153.726 157.670 164.762  0.00  0.00    +0.000 HD
ATOM     27  H   UNL     1     153.136 157.402 163.185  0.00  0.00    +0.000 HD
ATOM     28  H   UNL     1     150.180 159.489 167.188  0.00  0.00    +0.000 HD
ENDROOT
TORSDOF 0
ENDMDL
MODEL 8
REMARK VINA RESULT:    -6.361      4.021      6.684
REMARK INTER + INTRA:          -6.361
REMARK INTER:                  -6.361
REMARK INTRA:                   0.000
REMARK UNBOUND:                 0.000
REMARK  Name = /home/vital/Documents/PhD_2021/Malaria_codes/scripts/../data/pdbqt_ligands/ligand_57_temp.pdb
REMARK                            x       y       z     vdW  Elec       q    Type
REMARK                         _______ _______ _______ _____ _____    ______ ____
ROOT
ATOM      1  N   UNL     1     153.566 160.474 169.555  0.00  0.00    -0.195 NA
ATOM      2  C   UNL     1     153.171 159.647 168.840  0.00  0.00    +0.078 C 
ATOM      3  C   UNL     1     152.616 158.627 167.924  0.00  0.00    +0.086 C 
ATOM      4  N   UNL     1     151.148 158.670 167.772  0.00  0.00    -0.273 N 
ATOM      5  C   UNL     1     150.686 159.947 167.214  0.00  0.00    +0.164 C 
ATOM      6  C   UNL     1     149.209 159.843 166.944  0.00  0.00    +0.004 C 
ATOM      7  C   UNL     1     148.411 160.874 166.984  0.00  0.00    -0.120 C 
ATOM      8  C   UNL     1     147.758 161.997 166.990  0.00  0.00    -0.018 C 
ATOM      9  C   UNL     1     148.422 163.249 166.708  0.00  0.00    -0.036 C 
ATOM     10  C   UNL     1     149.202 163.541 165.652  0.00  0.00    +0.031 C 
ATOM     11  N   UNL     1     149.443 162.742 164.567  0.00  0.00    -0.235 N 
ATOM     12  C   UNL     1     150.424 161.862 164.576  0.00  0.00    +0.171 C 
ATOM     13  C   UNL     1     150.553 161.099 163.235  0.00  0.00    +0.065 C 
ATOM     14  N   UNL     1     149.557 161.366 162.299  0.00  0.00    -0.355 N 
ATOM     15  C   UNL     1     151.561 160.237 163.020  0.00  0.00    -0.056 C 
ATOM     16  C   UNL     1     151.786 159.458 161.755  0.00  0.00    -0.013 C 
ATOM     17  C   UNL     1     151.063 158.141 161.797  0.00  0.00    -0.069 C 
ATOM     18  C   UNL     1     150.182 157.753 160.871  0.00  0.00    +0.001 C 
ATOM     19 CL   UNL     1     149.334 156.267 160.963  0.00  0.00    -0.092 Cl
ATOM     20  N   UNL     1     151.266 161.625 165.664  0.00  0.00    -0.245 N 
ATOM     21  O   UNL     1     151.370 160.244 165.981  0.00  0.00    -0.249 OA
ATOM     22  H   UNL     1     153.888 161.149 170.139  0.00  0.00    +0.000 HD
ATOM     23  H   UNL     1     150.718 158.537 168.688  0.00  0.00    +0.000 HD
ATOM     24  H   UNL     1     150.877 157.929 167.125  0.00  0.00    +0.000 HD
ATOM     25  H   UNL     1     148.874 162.827 163.768  0.00  0.00    +0.000 HD
ATOM     26  H   UNL     1     148.842 162.008 162.512  0.00  0.00    +0.000 HD
ATOM     27  H   UNL     1     149.568 160.914 161.425  0.00  0.00    +0.000 HD
ATOM     28  H   UNL     1     151.736 162.336 166.156  0.00  0.00    +0.000 HD
ENDROOT
TORSDOF 0
ENDMDL
MODEL 9
REMARK VINA RESULT:    -6.139     12.430     15.018
REMARK INTER + INTRA:          -6.139
REMARK INTER:                  -6.139
REMARK INTRA:                   0.000
REMARK UNBOUND:                 0.000
REMARK  Name = /home/vital/Documents/PhD_2021/Malaria_codes/scripts/../data/pdbqt_ligands/ligand_57_temp.pdb
REMARK                            x       y       z     vdW  Elec       q    Type
REMARK                         _______ _______ _______ _____ _____    ______ ____
ROOT
ATOM      1  N   UNL     1     141.490 150.412 168.318  0.00  0.00    -0.195 NA
ATOM      2  C   UNL     1     141.028 149.542 167.699  0.00  0.00    +0.078 C 
ATOM      3  C   UNL     1     140.491 148.438 166.875  0.00  0.00    +0.086 C 
ATOM      4  N   UNL     1     141.106 148.312 165.538  0.00  0.00    -0.273 N 
ATOM      5  C   UNL     1     142.547 148.039 165.615  0.00  0.00    +0.164 C 
ATOM      6  C   UNL     1     143.056 147.767 164.225  0.00  0.00    +0.004 C 
ATOM      7  C   UNL     1     144.279 148.029 163.858  0.00  0.00    -0.120 C 
ATOM      8  C   UNL     1     145.540 148.278 163.662  0.00  0.00    -0.018 C 
ATOM      9  C   UNL     1     146.484 148.258 164.755  0.00  0.00    -0.036 C 
ATOM     10  C   UNL     1     146.668 147.280 165.659  0.00  0.00    +0.031 C 
ATOM     11  N   UNL     1     146.070 146.050 165.667  0.00  0.00    -0.235 N 
ATOM     12  C   UNL     1     144.905 145.865 166.256  0.00  0.00    +0.171 C 
ATOM     13  C   UNL     1     144.431 144.392 166.190  0.00  0.00    +0.065 C 
ATOM     14  N   UNL     1     145.229 143.543 165.428  0.00  0.00    -0.355 N 
ATOM     15  C   UNL     1     143.317 143.991 166.826  0.00  0.00    -0.056 C 
ATOM     16  C   UNL     1     142.778 142.589 166.838  0.00  0.00    -0.013 C 
ATOM     17  C   UNL     1     141.844 142.360 165.683  0.00  0.00    -0.069 C 
ATOM     18  C   UNL     1     142.003 141.381 164.788  0.00  0.00    +0.001 C 
ATOM     19 CL   UNL     1     140.953 141.167 163.451  0.00  0.00    -0.092 Cl
ATOM     20  N   UNL     1     144.161 146.870 166.875  0.00  0.00    -0.245 N 
ATOM     21  O   UNL     1     142.806 146.889 166.444  0.00  0.00    -0.249 OA
ATOM     22  H   UNL     1     141.866 151.121 168.823  0.00  0.00    +0.000 HD
ATOM     23  H   UNL     1     140.965 149.183 165.027  0.00  0.00    +0.000 HD
ATOM     24  H   UNL     1     140.663 147.526 165.062  0.00  0.00    +0.000 HD
ATOM     25  H   UNL     1     146.516 145.292 165.226  0.00  0.00    +0.000 HD
ATOM     26  H   UNL     1     146.035 143.892 164.984  0.00  0.00    +0.000 HD
ATOM     27  H   UNL     1     144.988 142.592 165.334  0.00  0.00    +0.000 HD
ATOM     28  H   UNL     1     144.533 147.497 167.536  0.00  0.00    +0.000 HD
ENDROOT
TORSDOF 0
ENDMDL
