MODEL 1
REMARK VINA RESULT:   -10.273      0.000      0.000
REMARK INTER + INTRA:         -10.273
REMARK INTER:                 -10.273
REMARK INTRA:                   0.000
REMARK UNBOUND:                 0.000
REMARK  Name = /home/vital/Documents/PhD_2021/Malaria_codes/scripts/../data/pdbqt_ligands/ligand_466_temp.pdb
REMARK                            x       y       z     vdW  Elec       q    Type
REMARK                         _______ _______ _______ _____ _____    ______ ____
ROOT
ATOM      1  C1  UNL     1     151.516 160.516 169.797  0.00  0.00    +0.082 C 
ATOM      2  O1  UNL     1     151.647 160.398 168.380  0.00  0.00    -0.464 OA
ATOM      3  C2  UNL     1     151.209 161.484 167.696  0.00  0.00    +0.339 C 
ATOM      4  O2  UNL     1     150.734 162.496 168.187  0.00  0.00    -0.245 OA
ATOM      5  C3  UNL     1     151.379 161.285 166.229  0.00  0.00    +0.059 A 
ATOM      6  C4  UNL     1     150.985 162.320 165.371  0.00  0.00    -0.047 A 
ATOM      7  C5  UNL     1     151.125 162.183 163.987  0.00  0.00    -0.049 A 
ATOM      8  C6  UNL     1     151.651 161.004 163.447  0.00  0.00    +0.037 A 
ATOM      9  C7  UNL     1     151.789 160.898 161.966  0.00  0.00    +0.248 C 
ATOM     10  O3  UNL     1     152.062 161.914 161.338  0.00  0.00    -0.270 OA
ATOM     11  N1  UNL     1     151.553 159.638 161.448  0.00  0.00    -0.282 N 
ATOM     12  C8  UNL     1     151.652 159.236 160.100  0.00  0.00    +0.034 A 
ATOM     13  C9  UNL     1     151.282 157.923 159.794  0.00  0.00    -0.040 A 
ATOM     14  C10 UNL     1     151.358 157.450 158.479  0.00  0.00    -0.049 A 
ATOM     15  C11 UNL     1     151.806 158.273 157.437  0.00  0.00    +0.017 A 
ATOM     16  C12 UNL     1     151.866 157.732 156.074  0.00  0.00    +0.139 A 
ATOM     17  N2  UNL     1     151.629 156.476 155.731  0.00  0.00    -0.228 NA
ATOM     18  C13 UNL     1     151.792 156.409 154.371  0.00  0.00    +0.089 A 
ATOM     19  C14 UNL     1     151.662 155.316 153.502  0.00  0.00    -0.034 A 
ATOM     20  C15 UNL     1     151.885 155.518 152.133  0.00  0.00    -0.060 A 
ATOM     21  C16 UNL     1     152.228 156.780 151.642  0.00  0.00    -0.060 A 
ATOM     22  C17 UNL     1     152.363 157.882 152.496  0.00  0.00    -0.036 A 
ATOM     23  C18 UNL     1     152.135 157.650 153.853  0.00  0.00    +0.066 A 
ATOM     24  N3  UNL     1     152.174 158.470 154.952  0.00  0.00    -0.338 N 
ATOM     25  C19 UNL     1     152.181 159.585 157.753  0.00  0.00    -0.049 A 
ATOM     26  C20 UNL     1     152.107 160.059 159.071  0.00  0.00    -0.040 A 
ATOM     27  C21 UNL     1     152.063 159.972 164.301  0.00  0.00    -0.049 A 
ATOM     28  C22 UNL     1     151.923 160.112 165.687  0.00  0.00    -0.047 A 
ATOM     29  H   UNL     1     151.287 158.944 162.093  0.00  0.00    +0.000 HD
ATOM     30  H   UNL     1     152.387 159.431 154.940  0.00  0.00    +0.000 HD
ENDROOT
TORSDOF 0
ENDMDL
MODEL 2
REMARK VINA RESULT:   -10.116      3.861     11.507
REMARK INTER + INTRA:         -10.116
REMARK INTER:                 -10.116
REMARK INTRA:                   0.000
REMARK UNBOUND:                 0.000
REMARK  Name = /home/vital/Documents/PhD_2021/Malaria_codes/scripts/../data/pdbqt_ligands/ligand_466_temp.pdb
REMARK                            x       y       z     vdW  Elec       q    Type
REMARK                         _______ _______ _______ _____ _____    ______ ____
ROOT
ATOM      1  C1  UNL     1     155.114 154.983 151.286  0.00  0.00    +0.082 C 
ATOM      2  O1  UNL     1     154.492 155.555 152.438  0.00  0.00    -0.464 OA
ATOM      3  C2  UNL     1     153.310 156.165 152.177  0.00  0.00    +0.339 C 
ATOM      4  O2  UNL     1     152.776 156.255 151.083  0.00  0.00    -0.245 OA
ATOM      5  C3  UNL     1     152.725 156.733 153.425  0.00  0.00    +0.059 A 
ATOM      6  C4  UNL     1     151.492 157.393 153.337  0.00  0.00    -0.047 A 
ATOM      7  C5  UNL     1     150.901 157.942 154.479  0.00  0.00    -0.049 A 
ATOM      8  C6  UNL     1     151.544 157.846 155.718  0.00  0.00    +0.037 A 
ATOM      9  C7  UNL     1     150.879 158.440 156.913  0.00  0.00    +0.248 C 
ATOM     10  O3  UNL     1     149.656 158.408 156.968  0.00  0.00    -0.270 OA
ATOM     11  N1  UNL     1     151.739 159.006 157.836  0.00  0.00    -0.282 N 
ATOM     12  C8  UNL     1     151.398 159.598 159.070  0.00  0.00    +0.034 A 
ATOM     13  C9  UNL     1     152.431 160.187 159.805  0.00  0.00    -0.040 A 
ATOM     14  C10 UNL     1     152.172 160.789 161.041  0.00  0.00    -0.049 A 
ATOM     15  C11 UNL     1     150.877 160.819 161.575  0.00  0.00    +0.017 A 
ATOM     16  C12 UNL     1     150.654 161.465 162.875  0.00  0.00    +0.139 A 
ATOM     17  N2  UNL     1     151.597 161.949 163.667  0.00  0.00    -0.228 NA
ATOM     18  C13 UNL     1     150.954 162.461 164.766  0.00  0.00    +0.089 A 
ATOM     19  C14 UNL     1     151.479 163.087 165.906  0.00  0.00    -0.034 A 
ATOM     20  C15 UNL     1     150.593 163.526 166.898  0.00  0.00    -0.060 A 
ATOM     21  C16 UNL     1     149.215 163.345 166.758  0.00  0.00    -0.060 A 
ATOM     22  C17 UNL     1     148.673 162.721 165.626  0.00  0.00    -0.036 A 
ATOM     23  C18 UNL     1     149.581 162.294 164.655  0.00  0.00    +0.066 A 
ATOM     24  N3  UNL     1     149.418 161.664 163.449  0.00  0.00    -0.338 N 
ATOM     25  C19 UNL     1     149.849 160.222 160.837  0.00  0.00    -0.049 A 
ATOM     26  C20 UNL     1     150.108 159.617 159.598  0.00  0.00    -0.040 A 
ATOM     27  C21 UNL     1     152.769 157.171 155.816  0.00  0.00    -0.049 A 
ATOM     28  C22 UNL     1     153.359 156.621 154.671  0.00  0.00    -0.047 A 
ATOM     29  H   UNL     1     152.695 158.995 157.606  0.00  0.00    +0.000 HD
ATOM     30  H   UNL     1     148.555 161.396 163.056  0.00  0.00    +0.000 HD
ENDROOT
TORSDOF 0
ENDMDL
MODEL 3
REMARK VINA RESULT:    -9.929      3.556     11.580
REMARK INTER + INTRA:          -9.929
REMARK INTER:                  -9.929
REMARK INTRA:                   0.000
REMARK UNBOUND:                 0.000
REMARK  Name = /home/vital/Documents/PhD_2021/Malaria_codes/scripts/../data/pdbqt_ligands/ligand_466_temp.pdb
REMARK                            x       y       z     vdW  Elec       q    Type
REMARK                         _______ _______ _______ _____ _____    ______ ____
ROOT
ATOM      1  C1  UNL     1     152.542 156.171 150.877  0.00  0.00    +0.082 C 
ATOM      2  O1  UNL     1     152.487 156.464 152.274  0.00  0.00    -0.464 OA
ATOM      3  C2  UNL     1     151.669 155.639 152.975  0.00  0.00    +0.339 C 
ATOM      4  O2  UNL     1     151.013 154.719 152.513  0.00  0.00    -0.245 OA
ATOM      5  C3  UNL     1     151.666 156.005 154.419  0.00  0.00    +0.059 A 
ATOM      6  C4  UNL     1     150.879 155.245 155.293  0.00  0.00    -0.047 A 
ATOM      7  C5  UNL     1     150.843 155.547 156.657  0.00  0.00    -0.049 A 
ATOM      8  C6  UNL     1     151.587 156.622 157.159  0.00  0.00    +0.037 A 
ATOM      9  C7  UNL     1     151.526 156.909 158.621  0.00  0.00    +0.248 C 
ATOM     10  O3  UNL     1     151.411 155.963 159.390  0.00  0.00    -0.270 OA
ATOM     11  N1  UNL     1     151.572 158.251 158.952  0.00  0.00    -0.282 N 
ATOM     12  C8  UNL     1     151.576 158.811 160.246  0.00  0.00    +0.034 A 
ATOM     13  C9  UNL     1     151.540 160.206 160.340  0.00  0.00    -0.040 A 
ATOM     14  C10 UNL     1     151.546 160.835 161.591  0.00  0.00    -0.049 A 
ATOM     15  C11 UNL     1     151.589 160.091 162.777  0.00  0.00    +0.017 A 
ATOM     16  C12 UNL     1     151.592 160.797 164.064  0.00  0.00    +0.139 A 
ATOM     17  N2  UNL     1     151.661 162.108 164.224  0.00  0.00    -0.228 NA
ATOM     18  C13 UNL     1     151.631 162.335 165.577  0.00  0.00    +0.089 A 
ATOM     19  C14 UNL     1     151.680 163.542 166.289  0.00  0.00    -0.034 A 
ATOM     20  C15 UNL     1     151.631 163.498 167.688  0.00  0.00    -0.060 A 
ATOM     21  C16 UNL     1     151.536 162.278 168.363  0.00  0.00    -0.060 A 
ATOM     22  C17 UNL     1     151.487 161.063 167.668  0.00  0.00    -0.036 A 
ATOM     23  C18 UNL     1     151.538 161.139 166.276  0.00  0.00    +0.066 A 
ATOM     24  N3  UNL     1     151.513 160.181 165.294  0.00  0.00    -0.338 N 
ATOM     25  C19 UNL     1     151.631 158.695 162.674  0.00  0.00    -0.049 A 
ATOM     26  C20 UNL     1     151.626 158.063 161.422  0.00  0.00    -0.040 A 
ATOM     27  C21 UNL     1     152.391 157.375 156.293  0.00  0.00    -0.049 A 
ATOM     28  C22 UNL     1     152.426 157.070 154.927  0.00  0.00    -0.047 A 
ATOM     29  H   UNL     1     151.607 158.885 158.201  0.00  0.00    +0.000 HD
ATOM     30  H   UNL     1     151.448 159.210 165.446  0.00  0.00    +0.000 HD
ENDROOT
TORSDOF 0
ENDMDL
MODEL 4
REMARK VINA RESULT:    -9.752      1.282      2.241
REMARK INTER + INTRA:          -9.752
REMARK INTER:                  -9.752
REMARK INTRA:                   0.000
REMARK UNBOUND:                 0.000
REMARK  Name = /home/vital/Documents/PhD_2021/Malaria_codes/scripts/../data/pdbqt_ligands/ligand_466_temp.pdb
REMARK                            x       y       z     vdW  Elec       q    Type
REMARK                         _______ _______ _______ _____ _____    ______ ____
ROOT
ATOM      1  C1  UNL     1     150.683 163.542 168.767  0.00  0.00    +0.082 C 
ATOM      2  O1  UNL     1     150.739 162.760 167.572  0.00  0.00    -0.464 OA
ATOM      3  C2  UNL     1     151.476 161.628 167.691  0.00  0.00    +0.339 C 
ATOM      4  O2  UNL     1     152.064 161.259 168.695  0.00  0.00    -0.245 OA
ATOM      5  C3  UNL     1     151.485 160.870 166.409  0.00  0.00    +0.059 A 
ATOM      6  C4  UNL     1     152.195 159.663 166.359  0.00  0.00    -0.047 A 
ATOM      7  C5  UNL     1     152.232 158.913 165.180  0.00  0.00    -0.049 A 
ATOM      8  C6  UNL     1     151.568 159.370 164.035  0.00  0.00    +0.037 A 
ATOM      9  C7  UNL     1     151.628 158.539 162.798  0.00  0.00    +0.248 C 
ATOM     10  O3  UNL     1     151.654 157.321 162.922  0.00  0.00    -0.270 OA
ATOM     11  N1  UNL     1     151.684 159.256 161.617  0.00  0.00    -0.282 N 
ATOM     12  C8  UNL     1     151.705 158.741 160.305  0.00  0.00    +0.034 A 
ATOM     13  C9  UNL     1     151.850 159.658 159.259  0.00  0.00    -0.040 A 
ATOM     14  C10 UNL     1     151.874 159.222 157.929  0.00  0.00    -0.049 A 
ATOM     15  C11 UNL     1     151.752 157.864 157.609  0.00  0.00    +0.017 A 
ATOM     16  C12 UNL     1     151.785 157.456 156.199  0.00  0.00    +0.139 A 
ATOM     17  N2  UNL     1     151.818 158.274 155.160  0.00  0.00    -0.228 NA
ATOM     18  C13 UNL     1     151.844 157.480 154.042  0.00  0.00    +0.089 A 
ATOM     19  C14 UNL     1     151.881 157.835 152.686  0.00  0.00    -0.034 A 
ATOM     20  C15 UNL     1     151.903 156.814 151.726  0.00  0.00    -0.060 A 
ATOM     21  C16 UNL     1     151.889 155.470 152.109  0.00  0.00    -0.060 A 
ATOM     22  C17 UNL     1     151.851 155.098 153.459  0.00  0.00    -0.036 A 
ATOM     23  C18 UNL     1     151.830 156.136 154.391  0.00  0.00    +0.066 A 
ATOM     24  N3  UNL     1     151.794 156.149 155.762  0.00  0.00    -0.338 N 
ATOM     25  C19 UNL     1     151.600 156.953 158.661  0.00  0.00    -0.049 A 
ATOM     26  C20 UNL     1     151.575 157.388 159.995  0.00  0.00    -0.040 A 
ATOM     27  C21 UNL     1     150.842 160.567 164.084  0.00  0.00    -0.049 A 
ATOM     28  C22 UNL     1     150.804 161.316 165.266  0.00  0.00    -0.047 A 
ATOM     29  H   UNL     1     151.713 160.236 161.703  0.00  0.00    +0.000 HD
ATOM     30  H   UNL     1     151.778 155.352 156.340  0.00  0.00    +0.000 HD
ENDROOT
TORSDOF 0
ENDMDL
MODEL 5
REMARK VINA RESULT:    -9.745      8.967     12.790
REMARK INTER + INTRA:          -9.745
REMARK INTER:                  -9.745
REMARK INTRA:                   0.000
REMARK UNBOUND:                 0.000
REMARK  Name = /home/vital/Documents/PhD_2021/Malaria_codes/scripts/../data/pdbqt_ligands/ligand_466_temp.pdb
REMARK                            x       y       z     vdW  Elec       q    Type
REMARK                         _______ _______ _______ _____ _____    ______ ____
ROOT
ATOM      1  C1  UNL     1     143.826 145.409 166.222  0.00  0.00    +0.082 C 
ATOM      2  O1  UNL     1     144.518 146.653 166.096  0.00  0.00    -0.464 OA
ATOM      3  C2  UNL     1     145.187 146.792 164.924  0.00  0.00    +0.339 C 
ATOM      4  O2  UNL     1     145.237 145.967 164.026  0.00  0.00    -0.245 OA
ATOM      5  C3  UNL     1     145.878 148.110 164.868  0.00  0.00    +0.059 A 
ATOM      6  C4  UNL     1     146.613 148.424 163.716  0.00  0.00    -0.047 A 
ATOM      7  C5  UNL     1     147.278 149.649 163.614  0.00  0.00    -0.049 A 
ATOM      8  C6  UNL     1     147.224 150.569 164.668  0.00  0.00    +0.037 A 
ATOM      9  C7  UNL     1     147.943 151.866 164.519  0.00  0.00    +0.248 C 
ATOM     10  O3  UNL     1     147.999 152.370 163.403  0.00  0.00    -0.270 OA
ATOM     11  N1  UNL     1     148.513 152.353 165.680  0.00  0.00    -0.282 N 
ATOM     12  C8  UNL     1     149.210 153.568 165.846  0.00  0.00    +0.034 A 
ATOM     13  C9  UNL     1     149.777 153.815 167.100  0.00  0.00    -0.040 A 
ATOM     14  C10 UNL     1     150.480 155.001 167.342  0.00  0.00    -0.049 A 
ATOM     15  C11 UNL     1     150.634 155.969 166.341  0.00  0.00    +0.017 A 
ATOM     16  C12 UNL     1     151.382 157.196 166.643  0.00  0.00    +0.139 A 
ATOM     17  N2  UNL     1     151.855 157.539 167.830  0.00  0.00    -0.228 NA
ATOM     18  C13 UNL     1     152.483 158.747 167.662  0.00  0.00    +0.089 A 
ATOM     19  C14 UNL     1     153.149 159.553 168.596  0.00  0.00    -0.034 A 
ATOM     20  C15 UNL     1     153.715 160.758 168.160  0.00  0.00    -0.060 A 
ATOM     21  C16 UNL     1     153.619 161.152 166.823  0.00  0.00    -0.060 A 
ATOM     22  C17 UNL     1     152.957 160.359 165.876  0.00  0.00    -0.036 A 
ATOM     23  C18 UNL     1     152.403 159.165 166.341  0.00  0.00    +0.066 A 
ATOM     24  N3  UNL     1     151.703 158.165 165.717  0.00  0.00    -0.338 N 
ATOM     25  C19 UNL     1     150.058 155.717 165.090  0.00  0.00    -0.049 A 
ATOM     26  C20 UNL     1     149.353 154.529 164.847  0.00  0.00    -0.040 A 
ATOM     27  C21 UNL     1     146.477 150.268 165.815  0.00  0.00    -0.049 A 
ATOM     28  C22 UNL     1     145.810 149.041 165.915  0.00  0.00    -0.047 A 
ATOM     29  H   UNL     1     148.421 151.789 166.481  0.00  0.00    +0.000 HD
ATOM     30  H   UNL     1     151.468 158.143 164.761  0.00  0.00    +0.000 HD
ENDROOT
TORSDOF 0
ENDMDL
MODEL 6
REMARK VINA RESULT:    -9.709      1.081      1.350
REMARK INTER + INTRA:          -9.709
REMARK INTER:                  -9.709
REMARK INTRA:                   0.000
REMARK UNBOUND:                 0.000
REMARK  Name = /home/vital/Documents/PhD_2021/Malaria_codes/scripts/../data/pdbqt_ligands/ligand_466_temp.pdb
REMARK                            x       y       z     vdW  Elec       q    Type
REMARK                         _______ _______ _______ _____ _____    ______ ____
ROOT
ATOM      1  C1  UNL     1     151.471 161.637 170.876  0.00  0.00    +0.082 C 
ATOM      2  O1  UNL     1     151.571 161.426 169.467  0.00  0.00    -0.464 OA
ATOM      3  C2  UNL     1     151.008 162.411 168.724  0.00  0.00    +0.339 C 
ATOM      4  O2  UNL     1     150.449 163.406 169.158  0.00  0.00    -0.245 OA
ATOM      5  C3  UNL     1     151.154 162.121 167.270  0.00  0.00    +0.059 A 
ATOM      6  C4  UNL     1     150.634 163.046 166.354  0.00  0.00    -0.047 A 
ATOM      7  C5  UNL     1     150.747 162.821 164.980  0.00  0.00    -0.049 A 
ATOM      8  C6  UNL     1     151.371 161.660 164.506  0.00  0.00    +0.037 A 
ATOM      9  C7  UNL     1     151.475 161.458 163.033  0.00  0.00    +0.248 C 
ATOM     10  O3  UNL     1     151.627 162.446 162.325  0.00  0.00    -0.270 OA
ATOM     11  N1  UNL     1     151.351 160.147 162.615  0.00  0.00    -0.282 N 
ATOM     12  C8  UNL     1     151.449 159.657 161.296  0.00  0.00    +0.034 A 
ATOM     13  C9  UNL     1     151.202 158.295 161.098  0.00  0.00    -0.040 A 
ATOM     14  C10 UNL     1     151.286 157.735 159.818  0.00  0.00    -0.049 A 
ATOM     15  C11 UNL     1     151.619 158.518 158.705  0.00  0.00    +0.017 A 
ATOM     16  C12 UNL     1     151.693 157.885 157.383  0.00  0.00    +0.139 A 
ATOM     17  N2  UNL     1     151.571 156.590 157.139  0.00  0.00    -0.228 NA
ATOM     18  C13 UNL     1     151.700 156.438 155.782  0.00  0.00    +0.089 A 
ATOM     19  C14 UNL     1     151.654 155.276 154.998  0.00  0.00    -0.034 A 
ATOM     20  C15 UNL     1     151.816 155.395 153.612  0.00  0.00    -0.060 A 
ATOM     21  C16 UNL     1     152.018 156.644 153.019  0.00  0.00    -0.060 A 
ATOM     22  C17 UNL     1     152.067 157.815 153.787  0.00  0.00    -0.036 A 
ATOM     23  C18 UNL     1     151.904 157.664 155.165  0.00  0.00    +0.066 A 
ATOM     24  N3  UNL     1     151.893 158.563 156.200  0.00  0.00    -0.338 N 
ATOM     25  C19 UNL     1     151.872 159.879 158.912  0.00  0.00    -0.049 A 
ATOM     26  C20 UNL     1     151.789 160.441 160.195  0.00  0.00    -0.040 A 
ATOM     27  C21 UNL     1     151.908 160.740 165.416  0.00  0.00    -0.049 A 
ATOM     28  C22 UNL     1     151.796 160.969 166.793  0.00  0.00    -0.047 A 
ATOM     29  H   UNL     1     151.173 159.480 163.317  0.00  0.00    +0.000 HD
ATOM     30  H   UNL     1     152.009 159.537 156.112  0.00  0.00    +0.000 HD
ENDROOT
TORSDOF 0
ENDMDL
MODEL 7
REMARK VINA RESULT:    -9.490      3.103     11.634
REMARK INTER + INTRA:          -9.490
REMARK INTER:                  -9.490
REMARK INTRA:                   0.000
REMARK UNBOUND:                 0.000
REMARK  Name = /home/vital/Documents/PhD_2021/Malaria_codes/scripts/../data/pdbqt_ligands/ligand_466_temp.pdb
REMARK                            x       y       z     vdW  Elec       q    Type
REMARK                         _______ _______ _______ _____ _____    ______ ____
ROOT
ATOM      1  C1  UNL     1     151.598 154.656 153.965  0.00  0.00    +0.082 C 
ATOM      2  O1  UNL     1     151.444 155.421 155.162  0.00  0.00    -0.464 OA
ATOM      3  C2  UNL     1     151.752 156.733 155.019  0.00  0.00    +0.339 C 
ATOM      4  O2  UNL     1     152.135 157.271 153.991  0.00  0.00    -0.245 OA
ATOM      5  C3  UNL     1     151.566 157.461 156.305  0.00  0.00    +0.059 A 
ATOM      6  C4  UNL     1     151.831 158.836 156.333  0.00  0.00    -0.047 A 
ATOM      7  C5  UNL     1     151.670 159.564 157.515  0.00  0.00    -0.049 A 
ATOM      8  C6  UNL     1     151.252 158.920 158.686  0.00  0.00    +0.037 A 
ATOM      9  C7  UNL     1     151.087 159.732 159.925  0.00  0.00    +0.248 C 
ATOM     10  O3  UNL     1     150.698 160.887 159.810  0.00  0.00    -0.270 OA
ATOM     11  N1  UNL     1     151.435 159.084 161.096  0.00  0.00    -0.282 N 
ATOM     12  C8  UNL     1     151.343 159.586 162.411  0.00  0.00    +0.034 A 
ATOM     13  C9  UNL     1     151.836 158.780 163.441  0.00  0.00    -0.040 A 
ATOM     14  C10 UNL     1     151.774 159.208 164.772  0.00  0.00    -0.049 A 
ATOM     15  C11 UNL     1     151.219 160.450 165.109  0.00  0.00    +0.017 A 
ATOM     16  C12 UNL     1     151.179 160.855 166.519  0.00  0.00    +0.139 A 
ATOM     17  N2  UNL     1     151.533 160.104 167.549  0.00  0.00    -0.228 NA
ATOM     18  C13 UNL     1     151.342 160.869 168.670  0.00  0.00    +0.089 A 
ATOM     19  C14 UNL     1     151.559 160.558 170.020  0.00  0.00    -0.034 A 
ATOM     20  C15 UNL     1     151.282 161.534 170.987  0.00  0.00    -0.060 A 
ATOM     21  C16 UNL     1     150.800 162.792 170.616  0.00  0.00    -0.060 A 
ATOM     22  C17 UNL     1     150.578 163.120 169.273  0.00  0.00    -0.036 A 
ATOM     23  C18 UNL     1     150.862 162.127 168.334  0.00  0.00    +0.066 A 
ATOM     24  N3  UNL     1     150.769 162.093 166.966  0.00  0.00    -0.338 N 
ATOM     25  C19 UNL     1     150.721 161.248 164.072  0.00  0.00    -0.049 A 
ATOM     26  C20 UNL     1     150.782 160.820 162.738  0.00  0.00    -0.040 A 
ATOM     27  C21 UNL     1     150.968 157.548 158.661  0.00  0.00    -0.049 A 
ATOM     28  C22 UNL     1     151.128 156.821 157.475  0.00  0.00    -0.047 A 
ATOM     29  H   UNL     1     151.787 158.170 161.001  0.00  0.00    +0.000 HD
ATOM     30  H   UNL     1     150.460 162.834 166.396  0.00  0.00    +0.000 HD
ENDROOT
TORSDOF 0
ENDMDL
MODEL 8
REMARK VINA RESULT:    -9.091      9.827     13.070
REMARK INTER + INTRA:          -9.091
REMARK INTER:                  -9.091
REMARK INTRA:                   0.000
REMARK UNBOUND:                 0.000
REMARK  Name = /home/vital/Documents/PhD_2021/Malaria_codes/scripts/../data/pdbqt_ligands/ligand_466_temp.pdb
REMARK                            x       y       z     vdW  Elec       q    Type
REMARK                         _______ _______ _______ _____ _____    ______ ____
ROOT
ATOM      1  C1  UNL     1     142.765 144.678 166.466  0.00  0.00    +0.082 C 
ATOM      2  O1  UNL     1     143.507 145.874 166.222  0.00  0.00    -0.464 OA
ATOM      3  C2  UNL     1     144.270 145.828 165.102  0.00  0.00    +0.339 C 
ATOM      4  O2  UNL     1     144.361 144.881 164.336  0.00  0.00    -0.245 OA
ATOM      5  C3  UNL     1     145.009 147.108 164.916  0.00  0.00    +0.059 A 
ATOM      6  C4  UNL     1     145.841 147.235 163.795  0.00  0.00    -0.047 A 
ATOM      7  C5  UNL     1     146.554 148.417 163.575  0.00  0.00    -0.049 A 
ATOM      8  C6  UNL     1     146.450 149.480 164.480  0.00  0.00    +0.037 A 
ATOM      9  C7  UNL     1     147.223 150.726 164.207  0.00  0.00    +0.248 C 
ATOM     10  O3  UNL     1     147.383 151.061 163.040  0.00  0.00    -0.270 OA
ATOM     11  N1  UNL     1     147.717 151.362 165.331  0.00  0.00    -0.282 N 
ATOM     12  C8  UNL     1     148.441 152.571 165.379  0.00  0.00    +0.034 A 
ATOM     13  C9  UNL     1     148.916 152.984 166.628  0.00  0.00    -0.040 A 
ATOM     14  C10 UNL     1     149.639 154.176 166.756  0.00  0.00    -0.049 A 
ATOM     15  C11 UNL     1     149.904 154.985 165.644  0.00  0.00    +0.017 A 
ATOM     16  C12 UNL     1     150.668 156.225 165.828  0.00  0.00    +0.139 A 
ATOM     17  N2  UNL     1     151.059 156.725 166.990  0.00  0.00    -0.228 NA
ATOM     18  C13 UNL     1     151.740 157.881 166.704  0.00  0.00    +0.089 A 
ATOM     19  C14 UNL     1     152.358 158.798 167.566  0.00  0.00    -0.034 A 
ATOM     20  C15 UNL     1     152.998 159.914 167.012  0.00  0.00    -0.060 A 
ATOM     21  C16 UNL     1     153.020 160.113 165.629  0.00  0.00    -0.060 A 
ATOM     22  C17 UNL     1     152.406 159.208 164.753  0.00  0.00    -0.036 A 
ATOM     23  C18 UNL     1     151.777 158.106 165.335  0.00  0.00    +0.066 A 
ATOM     24  N3  UNL     1     151.094 157.043 164.804  0.00  0.00    -0.338 N 
ATOM     25  C19 UNL     1     149.419 154.569 164.398  0.00  0.00    -0.049 A 
ATOM     26  C20 UNL     1     148.694 153.375 164.269  0.00  0.00    -0.040 A 
ATOM     27  C21 UNL     1     145.606 149.366 165.593  0.00  0.00    -0.049 A 
ATOM     28  C22 UNL     1     144.891 148.181 165.811  0.00  0.00    -0.047 A 
ATOM     29  H   UNL     1     147.544 150.921 166.194  0.00  0.00    +0.000 HD
ATOM     30  H   UNL     1     150.933 156.888 163.845  0.00  0.00    +0.000 HD
ENDROOT
TORSDOF 0
ENDMDL
MODEL 9
REMARK VINA RESULT:    -8.708     14.044     15.648
REMARK INTER + INTRA:          -8.708
REMARK INTER:                  -8.708
REMARK INTRA:                   0.000
REMARK UNBOUND:                 0.000
REMARK  Name = /home/vital/Documents/PhD_2021/Malaria_codes/scripts/../data/pdbqt_ligands/ligand_466_temp.pdb
REMARK                            x       y       z     vdW  Elec       q    Type
REMARK                         _______ _______ _______ _____ _____    ______ ____
ROOT
ATOM      1  C1  UNL     1     150.448 155.887 162.395  0.00  0.00    +0.082 C 
ATOM      2  O1  UNL     1     149.669 154.761 162.805  0.00  0.00    -0.464 OA
ATOM      3  C2  UNL     1     149.655 154.565 164.147  0.00  0.00    +0.339 C 
ATOM      4  O2  UNL     1     150.235 155.246 164.977  0.00  0.00    -0.245 OA
ATOM      5  C3  UNL     1     148.824 153.378 164.495  0.00  0.00    +0.059 A 
ATOM      6  C4  UNL     1     148.692 153.036 165.848  0.00  0.00    -0.047 A 
ATOM      7  C5  UNL     1     147.921 151.933 166.226  0.00  0.00    -0.049 A 
ATOM      8  C6  UNL     1     147.285 151.153 165.253  0.00  0.00    +0.037 A 
ATOM      9  C7  UNL     1     146.468 149.987 165.697  0.00  0.00    +0.248 C 
ATOM     10  O3  UNL     1     145.862 150.078 166.758  0.00  0.00    -0.270 OA
ATOM     11  N1  UNL     1     146.516 148.890 164.858  0.00  0.00    -0.282 N 
ATOM     12  C8  UNL     1     145.818 147.673 165.001  0.00  0.00    +0.034 A 
ATOM     13  C9  UNL     1     146.088 146.666 164.070  0.00  0.00    -0.040 A 
ATOM     14  C10 UNL     1     145.430 145.433 164.145  0.00  0.00    -0.049 A 
ATOM     15  C11 UNL     1     144.486 145.174 165.148  0.00  0.00    +0.017 A 
ATOM     16  C12 UNL     1     143.824 143.864 165.186  0.00  0.00    +0.139 A 
ATOM     17  N2  UNL     1     143.956 142.907 164.282  0.00  0.00    -0.228 NA
ATOM     18  C13 UNL     1     143.172 141.864 164.706  0.00  0.00    +0.089 A 
ATOM     19  C14 UNL     1     142.949 140.609 164.120  0.00  0.00    -0.034 A 
ATOM     20  C15 UNL     1     142.091 139.710 164.767  0.00  0.00    -0.060 A 
ATOM     21  C16 UNL     1     141.470 140.053 165.971  0.00  0.00    -0.060 A 
ATOM     22  C17 UNL     1     141.681 141.302 166.570  0.00  0.00    -0.036 A 
ATOM     23  C18 UNL     1     142.540 142.176 165.902  0.00  0.00    +0.066 A 
ATOM     24  N3  UNL     1     142.971 143.447 166.184  0.00  0.00    -0.338 N 
ATOM     25  C19 UNL     1     144.216 146.190 166.072  0.00  0.00    -0.049 A 
ATOM     26  C20 UNL     1     144.874 147.427 165.998  0.00  0.00    -0.040 A 
ATOM     27  C21 UNL     1     147.399 151.500 163.900  0.00  0.00    -0.049 A 
ATOM     28  C22 UNL     1     148.169 152.607 163.523  0.00  0.00    -0.047 A 
ATOM     29  H   UNL     1     147.104 148.966 164.072  0.00  0.00    +0.000 HD
ATOM     30  H   UNL     1     142.713 143.975 166.974  0.00  0.00    +0.000 HD
ENDROOT
TORSDOF 0
ENDMDL
