MODEL 1
REMARK VINA RESULT:    -5.115      0.000      0.000
REMARK INTER + INTRA:          -5.115
REMARK INTER:                  -5.115
REMARK INTRA:                   0.000
REMARK UNBOUND:                 0.000
REMARK  Name = /home/vital/Documents/PhD_2021/Malaria_codes/scripts/../data/pdbqt_ligands/ligand_198_temp.pdb
REMARK                            x       y       z     vdW  Elec       q    Type
REMARK                         _______ _______ _______ _____ _____    ______ ____
ROOT
ATOM      1  O1  UNL     1     149.452 155.391 160.641  0.00  0.00    -0.276 OA
ATOM      2  C1  UNL     1     150.427 156.132 160.727  0.00  0.00    +0.217 C 
ATOM      3  N1  UNL     1     151.583 155.944 160.010  0.00  0.00    -0.308 N 
ATOM      4  C2  UNL     1     151.670 154.942 158.971  0.00  0.00    +0.070 C 
ATOM      5  C3  UNL     1     151.342 155.590 157.677  0.00  0.00    +0.122 A 
ATOM      6  C4  UNL     1     150.191 155.663 156.921  0.00  0.00    -0.019 A 
ATOM      7  C5  UNL     1     150.509 156.445 155.785  0.00  0.00    -0.024 A 
ATOM      8  C6  UNL     1     151.830 156.803 155.924  0.00  0.00    +0.092 A 
ATOM      9  O2  UNL     1     152.344 156.292 157.072  0.00  0.00    -0.466 OA
ATOM     10  C7  UNL     1     150.415 157.342 161.648  0.00  0.00    +0.038 C 
ATOM     11  C8  UNL     1     150.462 158.650 160.852  0.00  0.00    -0.027 C 
ATOM     12  C9  UNL     1     150.454 159.854 161.788  0.00  0.00    +0.021 C 
ATOM     13  N2  UNL     1     151.587 159.737 162.737  0.00  0.00    -0.177 NA
ATOM     14  S1  UNL     1     152.099 161.171 163.499  0.00  0.00    +0.061 S 
ATOM     15  O3  UNL     1     153.239 160.861 164.335  0.00  0.00    -0.153 OA
ATOM     16  O4  UNL     1     152.166 162.217 162.502  0.00  0.00    -0.153 OA
ATOM     17  C10 UNL     1     150.742 161.563 164.584  0.00  0.00    +0.108 A 
ATOM     18  C11 UNL     1     149.720 162.412 164.140  0.00  0.00    -0.034 A 
ATOM     19  C12 UNL     1     148.672 162.742 165.003  0.00  0.00    -0.039 A 
ATOM     20  C13 UNL     1     148.657 162.234 166.303  0.00  0.00    +0.076 A 
ATOM     21 CL1  UNL     1     147.357 162.641 167.355  0.00  0.00    -0.081 Cl
ATOM     22  C14 UNL     1     149.692 161.407 166.740  0.00  0.00    +0.143 A 
ATOM     23  F1  UNL     1     149.696 160.916 167.988  0.00  0.00    -0.204 F 
ATOM     24  C15 UNL     1     150.743 161.072 165.892  0.00  0.00    +0.001 A 
ATOM     25  C16 UNL     1     151.514 158.521 163.581  0.00  0.00    +0.021 C 
ATOM     26  C17 UNL     1     151.545 157.289 162.681  0.00  0.00    -0.027 C 
ATOM     27  H   UNL     1     152.369 156.502 160.207  0.00  0.00    +0.000 HD
ENDROOT
TORSDOF 0
ENDMDL
MODEL 2
REMARK VINA RESULT:    -4.947      5.254      9.307
REMARK INTER + INTRA:          -4.947
REMARK INTER:                  -4.947
REMARK INTRA:                   0.000
REMARK UNBOUND:                 0.000
REMARK  Name = /home/vital/Documents/PhD_2021/Malaria_codes/scripts/../data/pdbqt_ligands/ligand_198_temp.pdb
REMARK                            x       y       z     vdW  Elec       q    Type
REMARK                         _______ _______ _______ _____ _____    ______ ____
ROOT
ATOM      1  O1  UNL     1     153.568 157.286 162.740  0.00  0.00    -0.276 OA
ATOM      2  C1  UNL     1     152.457 157.472 162.252  0.00  0.00    +0.217 C 
ATOM      3  N1  UNL     1     151.350 157.788 162.999  0.00  0.00    -0.308 N 
ATOM      4  C2  UNL     1     151.453 158.087 164.411  0.00  0.00    +0.070 C 
ATOM      5  C3  UNL     1     151.589 159.557 164.562  0.00  0.00    +0.122 A 
ATOM      6  C4  UNL     1     152.671 160.393 164.740  0.00  0.00    -0.019 A 
ATOM      7  C5  UNL     1     152.153 161.709 164.800  0.00  0.00    -0.024 A 
ATOM      8  C6  UNL     1     150.792 161.591 164.650  0.00  0.00    +0.092 A 
ATOM      9  O2  UNL     1     150.439 160.288 164.500  0.00  0.00    -0.466 OA
ATOM     10  C7  UNL     1     152.232 157.373 160.752  0.00  0.00    +0.038 C 
ATOM     11  C8  UNL     1     151.873 158.736 160.151  0.00  0.00    -0.027 C 
ATOM     12  C9  UNL     1     151.645 158.621 158.646  0.00  0.00    +0.021 C 
ATOM     13  N2  UNL     1     150.596 157.604 158.393  0.00  0.00    -0.177 NA
ATOM     14  S1  UNL     1     149.805 157.680 156.886  0.00  0.00    +0.061 S 
ATOM     15  O3  UNL     1     148.788 156.651 156.854  0.00  0.00    -0.153 OA
ATOM     16  O4  UNL     1     149.478 159.063 156.614  0.00  0.00    -0.153 OA
ATOM     17  C10 UNL     1     151.076 157.201 155.734  0.00  0.00    +0.108 A 
ATOM     18  C11 UNL     1     151.872 158.183 155.129  0.00  0.00    -0.034 A 
ATOM     19  C12 UNL     1     152.849 157.807 154.204  0.00  0.00    -0.039 A 
ATOM     20  C13 UNL     1     153.016 156.460 153.879  0.00  0.00    +0.076 A 
ATOM     21 CL1  UNL     1     154.227 156.009 152.742  0.00  0.00    -0.081 Cl
ATOM     22  C14 UNL     1     152.202 155.494 154.471  0.00  0.00    +0.143 A 
ATOM     23  F1  UNL     1     152.346 154.196 154.165  0.00  0.00    -0.204 F 
ATOM     24  C15 UNL     1     151.224 155.855 155.394  0.00  0.00    +0.001 A 
ATOM     25  C16 UNL     1     150.962 156.256 158.889  0.00  0.00    +0.021 C 
ATOM     26  C17 UNL     1     151.175 156.323 160.398  0.00  0.00    -0.027 C 
ATOM     27  H   UNL     1     150.466 157.812 162.565  0.00  0.00    +0.000 HD
ENDROOT
TORSDOF 0
ENDMDL
MODEL 3
REMARK VINA RESULT:    -4.678     14.125     16.157
REMARK INTER + INTRA:          -4.678
REMARK INTER:                  -4.678
REMARK INTRA:                   0.000
REMARK UNBOUND:                 0.000
REMARK  Name = /home/vital/Documents/PhD_2021/Malaria_codes/scripts/../data/pdbqt_ligands/ligand_198_temp.pdb
REMARK                            x       y       z     vdW  Elec       q    Type
REMARK                         _______ _______ _______ _____ _____    ______ ____
ROOT
ATOM      1  O1  UNL     1     146.237 141.743 166.243  0.00  0.00    -0.276 OA
ATOM      2  C1  UNL     1     145.363 142.318 165.600  0.00  0.00    +0.217 C 
ATOM      3  N1  UNL     1     144.372 141.657 164.919  0.00  0.00    -0.308 N 
ATOM      4  C2  UNL     1     144.192 140.228 165.049  0.00  0.00    +0.070 C 
ATOM      5  C3  UNL     1     143.191 139.984 166.116  0.00  0.00    +0.122 A 
ATOM      6  C4  UNL     1     143.294 139.663 167.453  0.00  0.00    -0.019 A 
ATOM      7  C5  UNL     1     141.970 139.577 167.946  0.00  0.00    -0.024 A 
ATOM      8  C6  UNL     1     141.146 139.855 166.880  0.00  0.00    +0.092 A 
ATOM      9  O2  UNL     1     141.878 140.108 165.765  0.00  0.00    -0.466 OA
ATOM     10  C7  UNL     1     145.315 143.836 165.523  0.00  0.00    +0.038 C 
ATOM     11  C8  UNL     1     144.075 144.390 166.232  0.00  0.00    -0.027 C 
ATOM     12  C9  UNL     1     144.037 145.913 166.143  0.00  0.00    +0.021 C 
ATOM     13  N2  UNL     1     144.091 146.316 164.718  0.00  0.00    -0.177 NA
ATOM     14  S1  UNL     1     143.533 147.880 164.342  0.00  0.00    +0.061 S 
ATOM     15  O3  UNL     1     143.615 148.061 162.908  0.00  0.00    -0.153 OA
ATOM     16  O4  UNL     1     142.294 148.104 165.054  0.00  0.00    -0.153 OA
ATOM     17  C10 UNL     1     144.763 148.939 165.077  0.00  0.00    +0.108 A 
ATOM     18  C11 UNL     1     144.580 149.415 166.382  0.00  0.00    -0.034 A 
ATOM     19  C12 UNL     1     145.532 150.268 166.945  0.00  0.00    -0.039 A 
ATOM     20  C13 UNL     1     146.650 150.651 166.201  0.00  0.00    +0.076 A 
ATOM     21 CL1  UNL     1     147.818 151.698 166.908  0.00  0.00    -0.081 Cl
ATOM     22  C14 UNL     1     146.808 150.188 164.895  0.00  0.00    +0.143 A 
ATOM     23  F1  UNL     1     147.873 150.551 164.164  0.00  0.00    -0.204 F 
ATOM     24  C15 UNL     1     145.867 149.338 164.320  0.00  0.00    +0.001 A 
ATOM     25  C16 UNL     1     145.327 145.864 164.034  0.00  0.00    +0.021 C 
ATOM     26  C17 UNL     1     145.391 144.340 164.079  0.00  0.00    -0.027 C 
ATOM     27  H   UNL     1     143.770 142.166 164.329  0.00  0.00    +0.000 HD
ENDROOT
TORSDOF 0
ENDMDL
MODEL 4
REMARK VINA RESULT:    -4.404      3.608      5.285
REMARK INTER + INTRA:          -4.404
REMARK INTER:                  -4.404
REMARK INTRA:                   0.000
REMARK UNBOUND:                 0.000
REMARK  Name = /home/vital/Documents/PhD_2021/Malaria_codes/scripts/../data/pdbqt_ligands/ligand_198_temp.pdb
REMARK                            x       y       z     vdW  Elec       q    Type
REMARK                         _______ _______ _______ _____ _____    ______ ____
ROOT
ATOM      1  O1  UNL     1     151.427 161.792 161.790  0.00  0.00    -0.276 OA
ATOM      2  C1  UNL     1     150.735 161.058 162.490  0.00  0.00    +0.217 C 
ATOM      3  N1  UNL     1     149.737 160.261 161.987  0.00  0.00    -0.308 N 
ATOM      4  C2  UNL     1     149.541 160.107 160.563  0.00  0.00    +0.070 C 
ATOM      5  C3  UNL     1     150.294 158.908 160.120  0.00  0.00    +0.122 A 
ATOM      6  C4  UNL     1     151.532 158.731 159.538  0.00  0.00    -0.019 A 
ATOM      7  C5  UNL     1     151.696 157.335 159.368  0.00  0.00    -0.024 A 
ATOM      8  C6  UNL     1     150.553 156.752 159.861  0.00  0.00    +0.092 A 
ATOM      9  O2  UNL     1     149.696 157.699 160.324  0.00  0.00    -0.466 OA
ATOM     10  C7  UNL     1     150.950 160.975 163.993  0.00  0.00    +0.038 C 
ATOM     11  C8  UNL     1     151.466 159.593 164.406  0.00  0.00    -0.027 C 
ATOM     12  C9  UNL     1     151.673 159.522 165.916  0.00  0.00    +0.021 C 
ATOM     13  N2  UNL     1     150.401 159.869 166.595  0.00  0.00    -0.177 NA
ATOM     14  S1  UNL     1     150.228 159.352 168.208  0.00  0.00    +0.061 S 
ATOM     15  O3  UNL     1     148.911 159.735 168.670  0.00  0.00    -0.153 OA
ATOM     16  O4  UNL     1     150.682 157.981 168.297  0.00  0.00    -0.153 OA
ATOM     17  C10 UNL     1     151.408 160.357 169.087  0.00  0.00    +0.108 A 
ATOM     18  C11 UNL     1     152.708 159.880 169.294  0.00  0.00    -0.034 A 
ATOM     19  C12 UNL     1     153.623 160.657 170.009  0.00  0.00    -0.039 A 
ATOM     20  C13 UNL     1     153.231 161.895 170.523  0.00  0.00    +0.076 A 
ATOM     21 CL1  UNL     1     154.368 162.847 171.396  0.00  0.00    -0.081 Cl
ATOM     22  C14 UNL     1     151.926 162.348 170.328  0.00  0.00    +0.143 A 
ATOM     23  F1  UNL     1     151.532 163.532 170.820  0.00  0.00    -0.204 F 
ATOM     24  C15 UNL     1     151.004 161.583 169.619  0.00  0.00    +0.001 A 
ATOM     25  C16 UNL     1     149.928 161.238 166.277  0.00  0.00    +0.021 C 
ATOM     26  C17 UNL     1     149.686 161.343 164.774  0.00  0.00    -0.027 C 
ATOM     27  H   UNL     1     149.143 159.783 162.610  0.00  0.00    +0.000 HD
ENDROOT
TORSDOF 0
ENDMDL
MODEL 5
REMARK VINA RESULT:    -3.899      3.304      4.221
REMARK INTER + INTRA:          -3.899
REMARK INTER:                  -3.899
REMARK INTRA:                   0.000
REMARK UNBOUND:                 0.000
REMARK  Name = /home/vital/Documents/PhD_2021/Malaria_codes/scripts/../data/pdbqt_ligands/ligand_198_temp.pdb
REMARK                            x       y       z     vdW  Elec       q    Type
REMARK                         _______ _______ _______ _____ _____    ______ ____
ROOT
ATOM      1  O1  UNL     1     153.726 160.194 159.576  0.00  0.00    -0.276 OA
ATOM      2  C1  UNL     1     152.662 160.662 159.973  0.00  0.00    +0.217 C 
ATOM      3  N1  UNL     1     151.650 161.051 159.130  0.00  0.00    -0.308 N 
ATOM      4  C2  UNL     1     151.706 160.782 157.710  0.00  0.00    +0.070 C 
ATOM      5  C3  UNL     1     151.003 159.501 157.456  0.00  0.00    +0.122 A 
ATOM      6  C4  UNL     1     151.435 158.202 157.288  0.00  0.00    -0.019 A 
ATOM      7  C5  UNL     1     150.273 157.418 157.092  0.00  0.00    -0.024 A 
ATOM      8  C6  UNL     1     149.209 158.286 157.159  0.00  0.00    +0.092 A 
ATOM      9  O2  UNL     1     149.641 159.553 157.384  0.00  0.00    -0.466 OA
ATOM     10  C7  UNL     1     152.385 160.834 161.458  0.00  0.00    +0.038 C 
ATOM     11  C8  UNL     1     151.262 159.904 161.927  0.00  0.00    -0.027 C 
ATOM     12  C9  UNL     1     150.991 160.091 163.416  0.00  0.00    +0.021 C 
ATOM     13  N2  UNL     1     150.681 161.517 163.676  0.00  0.00    -0.177 NA
ATOM     14  S1  UNL     1     149.840 161.869 165.115  0.00  0.00    +0.061 S 
ATOM     15  O3  UNL     1     149.586 163.292 165.158  0.00  0.00    -0.153 OA
ATOM     16  O4  UNL     1     148.764 160.912 165.258  0.00  0.00    -0.153 OA
ATOM     17  C10 UNL     1     151.038 161.509 166.385  0.00  0.00    +0.108 A 
ATOM     18  C11 UNL     1     151.075 160.234 166.964  0.00  0.00    -0.034 A 
ATOM     19  C12 UNL     1     151.996 159.964 167.980  0.00  0.00    -0.039 A 
ATOM     20  C13 UNL     1     152.862 160.968 168.418  0.00  0.00    +0.076 A 
ATOM     21 CL1  UNL     1     153.996 160.620 169.665  0.00  0.00    -0.081 Cl
ATOM     22  C14 UNL     1     152.799 162.239 167.847  0.00  0.00    +0.143 A 
ATOM     23  F1  UNL     1     153.620 163.216 168.261  0.00  0.00    -0.204 F 
ATOM     24  C15 UNL     1     151.886 162.523 166.836  0.00  0.00    +0.001 A 
ATOM     25  C16 UNL     1     151.791 162.429 163.311  0.00  0.00    +0.021 C 
ATOM     26  C17 UNL     1     152.077 162.290 161.818  0.00  0.00    -0.027 C 
ATOM     27  H   UNL     1     150.870 161.524 159.501  0.00  0.00    +0.000 HD
ENDROOT
TORSDOF 0
ENDMDL
MODEL 6
REMARK VINA RESULT:    -3.796     10.098     12.536
REMARK INTER + INTRA:          -3.796
REMARK INTER:                  -3.796
REMARK INTRA:                   0.000
REMARK UNBOUND:                 0.000
REMARK  Name = /home/vital/Documents/PhD_2021/Malaria_codes/scripts/../data/pdbqt_ligands/ligand_198_temp.pdb
REMARK                            x       y       z     vdW  Elec       q    Type
REMARK                         _______ _______ _______ _____ _____    ______ ____
ROOT
ATOM      1  O1  UNL     1     149.971 151.871 165.199  0.00  0.00    -0.276 OA
ATOM      2  C1  UNL     1     148.797 151.969 164.853  0.00  0.00    +0.217 C 
ATOM      3  N1  UNL     1     148.233 153.145 164.423  0.00  0.00    -0.308 N 
ATOM      4  C2  UNL     1     149.037 154.324 164.190  0.00  0.00    +0.070 C 
ATOM      5  C3  UNL     1     149.419 154.346 162.757  0.00  0.00    +0.122 A 
ATOM      6  C4  UNL     1     150.554 153.959 162.075  0.00  0.00    -0.019 A 
ATOM      7  C5  UNL     1     150.304 154.219 160.706  0.00  0.00    -0.024 A 
ATOM      8  C6  UNL     1     149.034 154.743 160.641  0.00  0.00    +0.092 A 
ATOM      9  O2  UNL     1     148.486 154.820 161.881  0.00  0.00    -0.466 OA
ATOM     10  C7  UNL     1     147.871 150.763 164.869  0.00  0.00    +0.038 C 
ATOM     11  C8  UNL     1     147.449 150.365 163.451  0.00  0.00    -0.027 C 
ATOM     12  C9  UNL     1     146.517 149.158 163.482  0.00  0.00    +0.021 C 
ATOM     13  N2  UNL     1     145.352 149.468 164.344  0.00  0.00    -0.177 NA
ATOM     14  S1  UNL     1     143.954 148.523 164.113  0.00  0.00    +0.061 S 
ATOM     15  O3  UNL     1     142.922 149.013 165.001  0.00  0.00    -0.153 OA
ATOM     16  O4  UNL     1     143.721 148.397 162.691  0.00  0.00    -0.153 OA
ATOM     17  C10 UNL     1     144.445 146.918 164.711  0.00  0.00    +0.108 A 
ATOM     18  C11 UNL     1     144.975 145.977 163.819  0.00  0.00    -0.034 A 
ATOM     19  C12 UNL     1     145.331 144.709 164.285  0.00  0.00    -0.039 A 
ATOM     20  C13 UNL     1     145.145 144.385 165.631  0.00  0.00    +0.076 A 
ATOM     21 CL1  UNL     1     145.595 142.822 166.194  0.00  0.00    -0.081 Cl
ATOM     22  C14 UNL     1     144.596 145.324 166.503  0.00  0.00    +0.143 A 
ATOM     23  F1  UNL     1     144.405 145.027 167.797  0.00  0.00    -0.204 F 
ATOM     24  C15 UNL     1     144.235 146.590 166.052  0.00  0.00    +0.001 A 
ATOM     25  C16 UNL     1     145.731 149.770 165.745  0.00  0.00    +0.021 C 
ATOM     26  C17 UNL     1     146.647 150.991 165.760  0.00  0.00    -0.027 C 
ATOM     27  H   UNL     1     147.262 153.186 164.270  0.00  0.00    +0.000 HD
ENDROOT
TORSDOF 0
ENDMDL
MODEL 7
REMARK VINA RESULT:    -3.519     15.335     17.508
REMARK INTER + INTRA:          -3.519
REMARK INTER:                  -3.519
REMARK INTRA:                   0.000
REMARK UNBOUND:                 0.000
REMARK  Name = /home/vital/Documents/PhD_2021/Malaria_codes/scripts/../data/pdbqt_ligands/ligand_198_temp.pdb
REMARK                            x       y       z     vdW  Elec       q    Type
REMARK                         _______ _______ _______ _____ _____    ______ ____
ROOT
ATOM      1  O1  UNL     1     144.762 140.967 166.075  0.00  0.00    -0.276 OA
ATOM      2  C1  UNL     1     143.743 141.617 165.857  0.00  0.00    +0.217 C 
ATOM      3  N1  UNL     1     142.488 141.062 165.830  0.00  0.00    -0.308 N 
ATOM      4  C2  UNL     1     142.262 139.688 166.222  0.00  0.00    +0.070 C 
ATOM      5  C3  UNL     1     141.897 139.674 167.660  0.00  0.00    +0.122 A 
ATOM      6  C4  UNL     1     142.613 139.440 168.815  0.00  0.00    -0.019 A 
ATOM      7  C5  UNL     1     141.701 139.587 169.887  0.00  0.00    -0.024 A 
ATOM      8  C6  UNL     1     140.490 139.905 169.318  0.00  0.00    +0.092 A 
ATOM      9  O2  UNL     1     140.599 139.965 167.966  0.00  0.00    -0.466 OA
ATOM     10  C7  UNL     1     143.806 143.115 165.608  0.00  0.00    +0.038 C 
ATOM     11  C8  UNL     1     143.133 143.898 166.740  0.00  0.00    -0.027 C 
ATOM     12  C9  UNL     1     143.199 145.399 166.475  0.00  0.00    +0.021 C 
ATOM     13  N2  UNL     1     142.583 145.684 165.157  0.00  0.00    -0.177 NA
ATOM     14  S1  UNL     1     142.062 147.282 164.884  0.00  0.00    +0.061 S 
ATOM     15  O3  UNL     1     141.445 147.343 163.577  0.00  0.00    -0.153 OA
ATOM     16  O4  UNL     1     141.360 147.738 166.064  0.00  0.00    -0.153 OA
ATOM     17  C10 UNL     1     143.587 148.198 164.791  0.00  0.00    +0.108 A 
ATOM     18  C11 UNL     1     144.114 148.789 165.946  0.00  0.00    -0.034 A 
ATOM     19  C12 UNL     1     145.296 149.531 165.865  0.00  0.00    -0.039 A 
ATOM     20  C13 UNL     1     145.933 149.689 164.632  0.00  0.00    +0.076 A 
ATOM     21 CL1  UNL     1     147.391 150.600 164.546  0.00  0.00    -0.081 Cl
ATOM     22  C14 UNL     1     145.385 149.114 163.486  0.00  0.00    +0.143 A 
ATOM     23  F1  UNL     1     145.982 149.261 162.294  0.00  0.00    -0.204 F 
ATOM     24  C15 UNL     1     144.209 148.373 163.552  0.00  0.00    +0.001 A 
ATOM     25  C16 UNL     1     143.274 145.006 164.034  0.00  0.00    +0.021 C 
ATOM     26  C17 UNL     1     143.209 143.496 164.250  0.00  0.00    -0.027 C 
ATOM     27  H   UNL     1     141.725 141.610 165.536  0.00  0.00    +0.000 HD
ENDROOT
TORSDOF 0
ENDMDL
MODEL 8
REMARK VINA RESULT:    -3.093      5.599      6.347
REMARK INTER + INTRA:          -3.093
REMARK INTER:                  -3.093
REMARK INTRA:                   0.000
REMARK UNBOUND:                 0.000
REMARK  Name = /home/vital/Documents/PhD_2021/Malaria_codes/scripts/../data/pdbqt_ligands/ligand_198_temp.pdb
REMARK                            x       y       z     vdW  Elec       q    Type
REMARK                         _______ _______ _______ _____ _____    ______ ____
ROOT
ATOM      1  O1  UNL     1     152.125 153.824 167.834  0.00  0.00    -0.276 OA
ATOM      2  C1  UNL     1     151.802 154.515 166.871  0.00  0.00    +0.217 C 
ATOM      3  N1  UNL     1     151.403 153.989 165.668  0.00  0.00    -0.308 N 
ATOM      4  C2  UNL     1     151.176 152.570 165.503  0.00  0.00    +0.070 C 
ATOM      5  C3  UNL     1     149.737 152.302 165.743  0.00  0.00    +0.122 A 
ATOM      6  C4  UNL     1     149.028 151.856 166.839  0.00  0.00    -0.019 A 
ATOM      7  C5  UNL     1     147.668 151.820 166.446  0.00  0.00    -0.024 A 
ATOM      8  C6  UNL     1     147.635 152.250 165.141  0.00  0.00    +0.092 A 
ATOM      9  O2  UNL     1     148.886 152.550 164.705  0.00  0.00    -0.466 OA
ATOM     10  C7  UNL     1     151.814 156.032 166.955  0.00  0.00    +0.038 C 
ATOM     11  C8  UNL     1     150.397 156.607 166.859  0.00  0.00    -0.027 C 
ATOM     12  C9  UNL     1     150.424 158.130 166.939  0.00  0.00    +0.021 C 
ATOM     13  N2  UNL     1     151.312 158.655 165.875  0.00  0.00    -0.177 NA
ATOM     14  S1  UNL     1     151.090 160.282 165.425  0.00  0.00    +0.061 S 
ATOM     15  O3  UNL     1     152.005 160.585 164.344  0.00  0.00    -0.153 OA
ATOM     16  O4  UNL     1     149.671 160.528 165.294  0.00  0.00    -0.153 OA
ATOM     17  C10 UNL     1     151.651 161.181 166.857  0.00  0.00    +0.108 A 
ATOM     18  C11 UNL     1     150.734 161.549 167.850  0.00  0.00    -0.034 A 
ATOM     19  C12 UNL     1     151.172 162.279 168.958  0.00  0.00    -0.039 A 
ATOM     20  C13 UNL     1     152.515 162.648 169.060  0.00  0.00    +0.076 A 
ATOM     21 CL1  UNL     1     153.043 163.542 170.433  0.00  0.00    -0.081 Cl
ATOM     22  C14 UNL     1     153.413 162.294 168.054  0.00  0.00    +0.143 A 
ATOM     23  F1  UNL     1     154.705 162.646 168.135  0.00  0.00    -0.204 F 
ATOM     24  C15 UNL     1     152.991 161.568 166.944  0.00  0.00    +0.001 A 
ATOM     25  C16 UNL     1     152.712 158.181 166.000  0.00  0.00    +0.021 C 
ATOM     26  C17 UNL     1     152.731 156.658 165.900  0.00  0.00    -0.027 C 
ATOM     27  H   UNL     1     151.268 154.590 164.900  0.00  0.00    +0.000 HD
ENDROOT
TORSDOF 0
ENDMDL
MODEL 9
REMARK VINA RESULT:    -3.089      4.222      9.125
REMARK INTER + INTRA:          -3.089
REMARK INTER:                  -3.089
REMARK INTRA:                   0.000
REMARK UNBOUND:                 0.000
REMARK  Name = /home/vital/Documents/PhD_2021/Malaria_codes/scripts/../data/pdbqt_ligands/ligand_198_temp.pdb
REMARK                            x       y       z     vdW  Elec       q    Type
REMARK                         _______ _______ _______ _____ _____    ______ ____
ROOT
ATOM      1  O1  UNL     1     149.126 161.848 166.836  0.00  0.00    -0.276 OA
ATOM      2  C1  UNL     1     150.213 161.615 166.314  0.00  0.00    +0.217 C 
ATOM      3  N1  UNL     1     151.309 162.429 166.462  0.00  0.00    -0.308 N 
ATOM      4  C2  UNL     1     151.302 163.542 167.386  0.00  0.00    +0.070 C 
ATOM      5  C3  UNL     1     151.866 163.074 168.675  0.00  0.00    +0.122 A 
ATOM      6  C4  UNL     1     151.296 162.642 169.855  0.00  0.00    -0.019 A 
ATOM      7  C5  UNL     1     152.368 162.313 170.719  0.00  0.00    -0.024 A 
ATOM      8  C6  UNL     1     153.520 162.560 170.010  0.00  0.00    +0.092 A 
ATOM      9  O2  UNL     1     153.226 163.018 168.766  0.00  0.00    -0.466 OA
ATOM     10  C7  UNL     1     150.424 160.376 165.460  0.00  0.00    +0.038 C 
ATOM     11  C8  UNL     1     151.404 159.402 166.122  0.00  0.00    -0.027 C 
ATOM     12  C9  UNL     1     151.610 158.166 165.252  0.00  0.00    +0.021 C 
ATOM     13  N2  UNL     1     152.069 158.592 163.908  0.00  0.00    -0.177 NA
ATOM     14  S1  UNL     1     152.862 157.419 162.962  0.00  0.00    +0.061 S 
ATOM     15  O3  UNL     1     153.277 158.038 161.722  0.00  0.00    -0.153 OA
ATOM     16  O4  UNL     1     153.809 156.721 163.803  0.00  0.00    -0.153 OA
ATOM     17  C10 UNL     1     151.561 156.267 162.566  0.00  0.00    +0.108 A 
ATOM     18  C11 UNL     1     151.344 155.154 163.388  0.00  0.00    -0.034 A 
ATOM     19  C12 UNL     1     150.342 154.237 163.060  0.00  0.00    -0.039 A 
ATOM     20  C13 UNL     1     149.575 154.430 161.909  0.00  0.00    +0.076 A 
ATOM     21 CL1  UNL     1     148.340 153.296 161.518  0.00  0.00    -0.081 Cl
ATOM     22  C14 UNL     1     149.817 155.530 161.087  0.00  0.00    +0.143 A 
ATOM     23  F1  UNL     1     149.093 155.725 159.974  0.00  0.00    -0.204 F 
ATOM     24  C15 UNL     1     150.812 156.450 161.401  0.00  0.00    +0.001 A 
ATOM     25  C16 UNL     1     151.094 159.465 163.211  0.00  0.00    +0.021 C 
ATOM     26  C17 UNL     1     150.878 160.728 164.040  0.00  0.00    -0.027 C 
ATOM     27  H   UNL     1     152.116 162.251 165.928  0.00  0.00    +0.000 HD
ENDROOT
TORSDOF 0
ENDMDL
