MODEL 1
REMARK VINA RESULT:    -6.774      0.000      0.000
REMARK INTER + INTRA:          -6.774
REMARK INTER:                  -6.774
REMARK INTRA:                   0.000
REMARK UNBOUND:                 0.000
REMARK  Name = /home/vital/Documents/PhD_2021/Malaria_codes/scripts/../data/pdbqt_ligands/ligand_311_temp.pdb
REMARK                            x       y       z     vdW  Elec       q    Type
REMARK                         _______ _______ _______ _____ _____    ______ ____
ROOT
ATOM      1  C1  UNL     1     149.382 155.446 160.712  0.00  0.00    -0.059 C 
ATOM      2  C2  UNL     1     150.455 155.412 161.816  0.00  0.00    -0.023 C 
ATOM      3  C3  UNL     1     151.700 154.696 161.251  0.00  0.00    -0.059 C 
ATOM      4  C4  UNL     1     150.799 156.846 162.228  0.00  0.00    +0.016 C 
ATOM      5  C5  UNL     1     151.735 156.873 163.413  0.00  0.00    +0.162 C 
ATOM      6  O1  UNL     1     152.615 157.726 163.499  0.00  0.00    -0.292 OA
ATOM      7  C6  UNL     1     151.543 155.859 164.490  0.00  0.00    +0.024 C 
ATOM      8  C7  UNL     1     150.708 154.808 164.322  0.00  0.00    +0.024 C 
ATOM      9  C8  UNL     1     149.899 154.650 163.039  0.00  0.00    -0.008 C 
ATOM     10  N1  UNL     1     150.579 153.821 165.336  0.00  0.00    -0.276 N 
ATOM     11  C9  UNL     1     149.481 152.908 165.299  0.00  0.00    +0.041 A 
ATOM     12  C10 UNL     1     148.257 153.255 165.898  0.00  0.00    -0.040 A 
ATOM     13  C11 UNL     1     147.177 152.370 165.869  0.00  0.00    -0.057 A 
ATOM     14  C12 UNL     1     147.310 151.134 165.239  0.00  0.00    -0.026 A 
ATOM     15  C13 UNL     1     148.521 150.791 164.647  0.00  0.00    +0.125 A 
ATOM     16  F1  UNL     1     148.645 149.602 164.044  0.00  0.00    -0.205 F 
ATOM     17  C14 UNL     1     149.603 151.662 164.670  0.00  0.00    -0.005 A 
ATOM     18  C15 UNL     1     151.466 153.810 166.446  0.00  0.00    +0.024 C 
ATOM     19  C16 UNL     1     152.316 154.841 166.656  0.00  0.00    +0.024 C 
ATOM     20  C17 UNL     1     153.293 154.819 167.783  0.00  0.00    +0.162 C 
ATOM     21  O2  UNL     1     154.173 155.672 167.870  0.00  0.00    -0.292 OA
ATOM     22  C18 UNL     1     153.155 153.743 168.832  0.00  0.00    +0.016 C 
ATOM     23  C19 UNL     1     152.737 152.406 168.213  0.00  0.00    -0.023 C 
ATOM     24  C20 UNL     1     153.869 151.841 167.328  0.00  0.00    -0.059 C 
ATOM     25  C21 UNL     1     152.461 151.392 169.339  0.00  0.00    -0.059 C 
ATOM     26  C22 UNL     1     151.450 152.609 167.386  0.00  0.00    -0.008 C 
ATOM     27  C23 UNL     1     152.326 156.075 165.772  0.00  0.00    +0.044 C 
ATOM     28  C24 UNL     1     151.782 157.290 166.538  0.00  0.00    -0.035 A 
ATOM     29  C25 UNL     1     152.612 158.400 166.762  0.00  0.00    -0.057 A 
ATOM     30  C26 UNL     1     152.138 159.517 167.455  0.00  0.00    -0.047 A 
ATOM     31  C27 UNL     1     150.830 159.533 167.929  0.00  0.00    +0.018 A 
ATOM     32 BR1  UNL     1     150.187 161.043 168.868  0.00  0.00    -0.050 Br
ATOM     33  C28 UNL     1     149.989 158.442 167.718  0.00  0.00    -0.047 A 
ATOM     34  C29 UNL     1     150.462 157.326 167.025  0.00  0.00    -0.057 A 
ENDROOT
TORSDOF 0
ENDMDL
MODEL 2
REMARK VINA RESULT:    -6.139      3.162      6.042
REMARK INTER + INTRA:          -6.139
REMARK INTER:                  -6.139
REMARK INTRA:                   0.000
REMARK UNBOUND:                 0.000
REMARK  Name = /home/vital/Documents/PhD_2021/Malaria_codes/scripts/../data/pdbqt_ligands/ligand_311_temp.pdb
REMARK                            x       y       z     vdW  Elec       q    Type
REMARK                         _______ _______ _______ _____ _____    ______ ____
ROOT
ATOM      1  C1  UNL     1     146.894 151.276 161.957  0.00  0.00    -0.059 C 
ATOM      2  C2  UNL     1     147.317 152.465 162.839  0.00  0.00    -0.023 C 
ATOM      3  C3  UNL     1     146.214 153.541 162.753  0.00  0.00    -0.059 C 
ATOM      4  C4  UNL     1     147.488 151.984 164.282  0.00  0.00    +0.016 C 
ATOM      5  C5  UNL     1     148.049 153.073 165.166  0.00  0.00    +0.162 C 
ATOM      6  O1  UNL     1     147.676 153.190 166.331  0.00  0.00    -0.292 OA
ATOM      7  C6  UNL     1     149.088 153.980 164.599  0.00  0.00    +0.024 C 
ATOM      8  C7  UNL     1     149.369 153.984 163.276  0.00  0.00    +0.024 C 
ATOM      9  C8  UNL     1     148.662 153.024 162.325  0.00  0.00    -0.008 C 
ATOM     10  N1  UNL     1     150.322 154.893 162.745  0.00  0.00    -0.276 N 
ATOM     11  C9  UNL     1     150.846 154.682 161.432  0.00  0.00    +0.041 A 
ATOM     12  C10 UNL     1     151.972 153.860 161.249  0.00  0.00    -0.040 A 
ATOM     13  C11 UNL     1     152.494 153.646 159.971  0.00  0.00    -0.057 A 
ATOM     14  C12 UNL     1     151.894 154.250 158.867  0.00  0.00    -0.026 A 
ATOM     15  C13 UNL     1     150.781 155.063 159.050  0.00  0.00    +0.125 A 
ATOM     16  F1  UNL     1     150.208 155.642 157.986  0.00  0.00    -0.205 F 
ATOM     17  C14 UNL     1     150.252 155.284 160.316  0.00  0.00    -0.005 A 
ATOM     18  C15 UNL     1     150.843 155.942 163.549  0.00  0.00    +0.024 C 
ATOM     19  C16 UNL     1     150.590 155.978 164.878  0.00  0.00    +0.024 C 
ATOM     20  C17 UNL     1     151.081 157.102 165.727  0.00  0.00    +0.162 C 
ATOM     21  O2  UNL     1     150.709 157.219 166.892  0.00  0.00    -0.292 OA
ATOM     22  C18 UNL     1     152.069 158.074 165.130  0.00  0.00    +0.016 C 
ATOM     23  C19 UNL     1     151.754 158.364 163.660  0.00  0.00    -0.023 C 
ATOM     24  C20 UNL     1     150.429 159.145 163.533  0.00  0.00    -0.059 C 
ATOM     25  C21 UNL     1     152.878 159.232 163.064  0.00  0.00    -0.059 C 
ATOM     26  C22 UNL     1     151.677 157.032 162.884  0.00  0.00    -0.008 C 
ATOM     27  C23 UNL     1     149.807 154.886 165.583  0.00  0.00    +0.044 C 
ATOM     28  C24 UNL     1     150.730 154.065 166.496  0.00  0.00    -0.035 A 
ATOM     29  C25 UNL     1     150.500 154.044 167.881  0.00  0.00    -0.057 A 
ATOM     30  C26 UNL     1     151.326 153.303 168.731  0.00  0.00    -0.047 A 
ATOM     31  C27 UNL     1     152.389 152.577 168.201  0.00  0.00    +0.018 A 
ATOM     32 BR1  UNL     1     153.508 151.576 169.349  0.00  0.00    -0.050 Br
ATOM     33  C28 UNL     1     152.635 152.584 166.830  0.00  0.00    -0.047 A 
ATOM     34  C29 UNL     1     151.810 153.324 165.981  0.00  0.00    -0.057 A 
ENDROOT
TORSDOF 0
ENDMDL
MODEL 3
REMARK VINA RESULT:    -6.033      4.814      8.054
REMARK INTER + INTRA:          -6.033
REMARK INTER:                  -6.033
REMARK INTRA:                   0.000
REMARK UNBOUND:                 0.000
REMARK  Name = /home/vital/Documents/PhD_2021/Malaria_codes/scripts/../data/pdbqt_ligands/ligand_311_temp.pdb
REMARK                            x       y       z     vdW  Elec       q    Type
REMARK                         _______ _______ _______ _____ _____    ______ ____
ROOT
ATOM      1  C1  UNL     1     151.654 162.073 161.200  0.00  0.00    -0.059 C 
ATOM      2  C2  UNL     1     150.799 160.809 161.002  0.00  0.00    -0.023 C 
ATOM      3  C3  UNL     1     149.431 161.045 161.678  0.00  0.00    -0.059 C 
ATOM      4  C4  UNL     1     150.621 160.551 159.503  0.00  0.00    +0.016 C 
ATOM      5  C5  UNL     1     149.918 159.240 159.245  0.00  0.00    +0.162 C 
ATOM      6  O1  UNL     1     149.120 159.127 158.317  0.00  0.00    -0.292 OA
ATOM      7  C6  UNL     1     150.240 158.079 160.123  0.00  0.00    +0.024 C 
ATOM      8  C7  UNL     1     150.967 158.235 161.253  0.00  0.00    +0.024 C 
ATOM      9  C8  UNL     1     151.520 159.602 161.643  0.00  0.00    -0.008 C 
ATOM     10  N1  UNL     1     151.217 157.129 162.108  0.00  0.00    -0.276 N 
ATOM     11  C9  UNL     1     152.234 157.223 163.108  0.00  0.00    +0.041 A 
ATOM     12  C10 UNL     1     153.565 156.897 162.790  0.00  0.00    -0.040 A 
ATOM     13  C11 UNL     1     154.567 156.984 163.758  0.00  0.00    -0.057 A 
ATOM     14  C12 UNL     1     154.249 157.400 165.050  0.00  0.00    -0.026 A 
ATOM     15  C13 UNL     1     152.932 157.722 165.363  0.00  0.00    +0.125 A 
ATOM     16  F1  UNL     1     152.631 158.120 166.607  0.00  0.00    -0.205 F 
ATOM     17  C14 UNL     1     151.926 157.638 164.409  0.00  0.00    -0.005 A 
ATOM     18  C15 UNL     1     150.547 155.893 161.902  0.00  0.00    +0.024 C 
ATOM     19  C16 UNL     1     149.811 155.690 160.784  0.00  0.00    +0.024 C 
ATOM     20  C17 UNL     1     149.055 154.422 160.578  0.00  0.00    +0.162 C 
ATOM     21  O2  UNL     1     148.257 154.308 159.650  0.00  0.00    -0.292 OA
ATOM     22  C18 UNL     1     149.315 153.270 161.517  0.00  0.00    +0.016 C 
ATOM     23  C19 UNL     1     149.533 153.755 162.954  0.00  0.00    -0.023 C 
ATOM     24  C20 UNL     1     148.229 154.344 163.531  0.00  0.00    -0.059 C 
ATOM     25  C21 UNL     1     149.948 152.560 163.833  0.00  0.00    -0.059 C 
ATOM     26  C22 UNL     1     150.660 154.809 162.968  0.00  0.00    -0.008 C 
ATOM     27  C23 UNL     1     149.716 156.726 159.678  0.00  0.00    +0.044 C 
ATOM     28  C24 UNL     1     150.461 156.245 158.424  0.00  0.00    -0.035 A 
ATOM     29  C25 UNL     1     149.753 156.042 157.228  0.00  0.00    -0.057 A 
ATOM     30  C26 UNL     1     150.410 155.605 156.075  0.00  0.00    -0.047 A 
ATOM     31  C27 UNL     1     151.781 155.369 156.108  0.00  0.00    +0.018 A 
ATOM     32 BR1  UNL     1     152.672 154.777 154.549  0.00  0.00    -0.050 Br
ATOM     33  C28 UNL     1     152.503 155.564 157.284  0.00  0.00    -0.047 A 
ATOM     34  C29 UNL     1     151.847 156.000 158.436  0.00  0.00    -0.057 A 
ENDROOT
TORSDOF 0
ENDMDL
MODEL 4
REMARK VINA RESULT:    -4.766      3.100      5.983
REMARK INTER + INTRA:          -4.766
REMARK INTER:                  -4.766
REMARK INTRA:                   0.000
REMARK UNBOUND:                 0.000
REMARK  Name = /home/vital/Documents/PhD_2021/Malaria_codes/scripts/../data/pdbqt_ligands/ligand_311_temp.pdb
REMARK                            x       y       z     vdW  Elec       q    Type
REMARK                         _______ _______ _______ _____ _____    ______ ____
ROOT
ATOM      1  C1  UNL     1     146.711 151.162 162.286  0.00  0.00    -0.059 C 
ATOM      2  C2  UNL     1     147.202 152.350 163.133  0.00  0.00    -0.023 C 
ATOM      3  C3  UNL     1     146.138 153.465 163.055  0.00  0.00    -0.059 C 
ATOM      4  C4  UNL     1     147.395 151.890 164.581  0.00  0.00    +0.016 C 
ATOM      5  C5  UNL     1     148.020 152.973 165.428  0.00  0.00    +0.162 C 
ATOM      6  O1  UNL     1     147.683 153.126 166.600  0.00  0.00    -0.292 OA
ATOM      7  C6  UNL     1     149.076 153.829 164.816  0.00  0.00    +0.024 C 
ATOM      8  C7  UNL     1     149.322 153.798 163.486  0.00  0.00    +0.024 C 
ATOM      9  C8  UNL     1     148.553 152.848 162.573  0.00  0.00    -0.008 C 
ATOM     10  N1  UNL     1     150.293 154.660 162.912  0.00  0.00    -0.276 N 
ATOM     11  C9  UNL     1     150.773 154.405 161.590  0.00  0.00    +0.041 A 
ATOM     12  C10 UNL     1     151.862 153.538 161.393  0.00  0.00    -0.040 A 
ATOM     13  C11 UNL     1     152.340 153.281 160.107  0.00  0.00    -0.057 A 
ATOM     14  C12 UNL     1     151.734 153.886 159.008  0.00  0.00    -0.026 A 
ATOM     15  C13 UNL     1     150.657 154.744 159.204  0.00  0.00    +0.125 A 
ATOM     16  F1  UNL     1     150.077 155.325 158.145  0.00  0.00    -0.205 F 
ATOM     17  C14 UNL     1     150.172 155.008 160.479  0.00  0.00    -0.005 A 
ATOM     18  C15 UNL     1     150.874 155.704 163.682  0.00  0.00    +0.024 C 
ATOM     19  C16 UNL     1     150.659 155.774 165.016  0.00  0.00    +0.024 C 
ATOM     20  C17 UNL     1     151.214 156.893 165.829  0.00  0.00    +0.162 C 
ATOM     21  O2  UNL     1     150.879 157.047 167.002  0.00  0.00    -0.292 OA
ATOM     22  C18 UNL     1     152.222 157.816 165.188  0.00  0.00    +0.016 C 
ATOM     23  C19 UNL     1     151.878 158.091 163.721  0.00  0.00    -0.023 C 
ATOM     24  C20 UNL     1     150.580 158.919 163.614  0.00  0.00    -0.059 C 
ATOM     25  C21 UNL     1     153.017 158.905 163.079  0.00  0.00    -0.059 C 
ATOM     26  C22 UNL     1     151.730 156.749 162.974  0.00  0.00    -0.008 C 
ATOM     27  C23 UNL     1     149.855 154.725 165.763  0.00  0.00    +0.044 C 
ATOM     28  C24 UNL     1     150.771 153.887 166.667  0.00  0.00    -0.035 A 
ATOM     29  C25 UNL     1     150.579 153.900 168.058  0.00  0.00    -0.057 A 
ATOM     30  C26 UNL     1     151.399 153.145 168.900  0.00  0.00    -0.047 A 
ATOM     31  C27 UNL     1     152.419 152.370 168.357  0.00  0.00    +0.018 A 
ATOM     32 BR1  UNL     1     153.531 151.348 169.494  0.00  0.00    -0.050 Br
ATOM     33  C28 UNL     1     152.628 152.342 166.979  0.00  0.00    -0.047 A 
ATOM     34  C29 UNL     1     151.808 153.096 166.138  0.00  0.00    -0.057 A 
ENDROOT
TORSDOF 0
ENDMDL
