MODEL 1
REMARK VINA RESULT:    -5.555      0.000      0.000
REMARK INTER + INTRA:          -5.555
REMARK INTER:                  -5.555
REMARK INTRA:                   0.000
REMARK UNBOUND:                 0.000
REMARK  Name = /home/vital/Documents/PhD_2021/Malaria_codes/scripts/../data/pdbqt_ligands/ligand_144_temp.pdb
REMARK                            x       y       z     vdW  Elec       q    Type
REMARK                         _______ _______ _______ _____ _____    ______ ____
ROOT
ATOM      1  C1  UNL     1     149.481 159.015 159.164  0.00  0.00    -0.038 C 
ATOM      2  C2  UNL     1     150.899 158.519 159.123  0.00  0.00    -0.027 C 
ATOM      3  C3  UNL     1     151.911 159.086 158.429  0.00  0.00    -0.056 C 
ATOM      4  C4  UNL     1     151.804 160.102 157.328  0.00  0.00    +0.079 C 
ATOM      5  N1  UNL     1     152.187 159.394 156.082  0.00  0.00    -0.183 NA
ATOM      6  N2  UNL     1     151.290 158.605 155.701  0.00  0.00    -0.154 NA
ATOM      7  C5  UNL     1     151.821 157.566 154.908  0.00  0.00    +0.095 A 
ATOM      8  C6  UNL     1     152.534 157.833 153.730  0.00  0.00    -0.034 A 
ATOM      9  C7  UNL     1     153.043 156.791 152.949  0.00  0.00    -0.060 A 
ATOM     10  C8  UNL     1     152.839 155.463 153.326  0.00  0.00    -0.061 A 
ATOM     11  C9  UNL     1     152.122 155.171 154.486  0.00  0.00    -0.050 A 
ATOM     12  C10 UNL     1     151.621 156.218 155.269  0.00  0.00    +0.027 A 
ATOM     13  C11 UNL     1     150.828 155.875 156.469  0.00  0.00    +0.072 C 
ATOM     14  N3  UNL     1     149.534 155.875 156.449  0.00  0.00    -0.298 NA
ATOM     15  C12 UNL     1     151.601 155.529 157.692  0.00  0.00    +0.007 C 
ATOM     16  C13 UNL     1     151.370 156.229 158.767  0.00  0.00    -0.098 C 
ATOM     17  C14 UNL     1     151.113 157.170 159.632  0.00  0.00    +0.086 C 
ATOM     18 CL1  UNL     1     150.598 156.694 161.190  0.00  0.00    -0.074 Cl
ATOM     19  H   UNL     1     149.054 156.109 155.623  0.00  0.00    +0.000 HD
ENDROOT
TORSDOF 0
ENDMDL
MODEL 2
REMARK VINA RESULT:    -5.266      1.605      3.241
REMARK INTER + INTRA:          -5.266
REMARK INTER:                  -5.266
REMARK INTRA:                   0.000
REMARK UNBOUND:                 0.000
REMARK  Name = /home/vital/Documents/PhD_2021/Malaria_codes/scripts/../data/pdbqt_ligands/ligand_144_temp.pdb
REMARK                            x       y       z     vdW  Elec       q    Type
REMARK                         _______ _______ _______ _____ _____    ______ ____
ROOT
ATOM      1  C1  UNL     1     151.707 157.560 161.096  0.00  0.00    -0.038 C 
ATOM      2  C2  UNL     1     150.559 157.423 160.135  0.00  0.00    -0.027 C 
ATOM      3  C3  UNL     1     150.238 156.304 159.447  0.00  0.00    -0.056 C 
ATOM      4  C4  UNL     1     151.094 155.089 159.234  0.00  0.00    +0.079 C 
ATOM      5  N1  UNL     1     151.470 155.102 157.799  0.00  0.00    -0.183 NA
ATOM      6  N2  UNL     1     152.325 155.984 157.550  0.00  0.00    -0.154 NA
ATOM      7  C5  UNL     1     152.276 156.384 156.198  0.00  0.00    +0.095 A 
ATOM      8  C6  UNL     1     152.452 155.464 155.155  0.00  0.00    -0.034 A 
ATOM      9  C7  UNL     1     152.412 155.879 153.820  0.00  0.00    -0.060 A 
ATOM     10  C8  UNL     1     152.206 157.222 153.506  0.00  0.00    -0.061 A 
ATOM     11  C9  UNL     1     152.042 158.159 154.525  0.00  0.00    -0.050 A 
ATOM     12  C10 UNL     1     152.074 157.737 155.860  0.00  0.00    +0.027 A 
ATOM     13  C11 UNL     1     151.941 158.760 156.920  0.00  0.00    +0.072 C 
ATOM     14  N3  UNL     1     152.976 159.251 157.523  0.00  0.00    -0.298 NA
ATOM     15  C12 UNL     1     150.556 159.193 157.246  0.00  0.00    +0.007 C 
ATOM     16  C13 UNL     1     150.163 159.066 158.482  0.00  0.00    -0.098 C 
ATOM     17  C14 UNL     1     149.941 158.671 159.705  0.00  0.00    +0.086 C 
ATOM     18 CL1  UNL     1     149.358 159.828 160.819  0.00  0.00    -0.074 Cl
ATOM     19  H   UNL     1     153.878 158.942 157.282  0.00  0.00    +0.000 HD
ENDROOT
TORSDOF 0
ENDMDL
MODEL 3
REMARK VINA RESULT:    -4.852      2.655      5.819
REMARK INTER + INTRA:          -4.852
REMARK INTER:                  -4.852
REMARK INTRA:                   0.000
REMARK UNBOUND:                 0.000
REMARK  Name = /home/vital/Documents/PhD_2021/Malaria_codes/scripts/../data/pdbqt_ligands/ligand_144_temp.pdb
REMARK                            x       y       z     vdW  Elec       q    Type
REMARK                         _______ _______ _______ _____ _____    ______ ____
ROOT
ATOM      1  C1  UNL     1     150.027 155.705 155.943  0.00  0.00    -0.038 C 
ATOM      2  C2  UNL     1     151.343 156.041 156.588  0.00  0.00    -0.027 C 
ATOM      3  C3  UNL     1     151.679 155.782 157.871  0.00  0.00    -0.056 C 
ATOM      4  C4  UNL     1     150.756 155.412 158.998  0.00  0.00    +0.079 C 
ATOM      5  N1  UNL     1     150.730 156.586 159.905  0.00  0.00    -0.183 NA
ATOM      6  N2  UNL     1     150.068 157.534 159.420  0.00  0.00    -0.154 NA
ATOM      7  C5  UNL     1     150.479 158.775 159.952  0.00  0.00    +0.095 A 
ATOM      8  C6  UNL     1     150.442 159.030 161.329  0.00  0.00    -0.034 A 
ATOM      9  C7  UNL     1     150.842 160.270 161.839  0.00  0.00    -0.060 A 
ATOM     10  C8  UNL     1     151.275 161.279 160.978  0.00  0.00    -0.061 A 
ATOM     11  C9  UNL     1     151.309 161.054 159.602  0.00  0.00    -0.050 A 
ATOM     12  C10 UNL     1     150.915 159.808 159.098  0.00  0.00    +0.027 A 
ATOM     13  C11 UNL     1     150.920 159.615 157.631  0.00  0.00    +0.072 C 
ATOM     14  N3  UNL     1     149.840 159.733 156.928  0.00  0.00    -0.298 NA
ATOM     15  C12 UNL     1     152.232 159.282 157.016  0.00  0.00    +0.007 C 
ATOM     16  C13 UNL     1     152.308 158.183 156.320  0.00  0.00    -0.098 C 
ATOM     17  C14 UNL     1     152.189 156.972 155.852  0.00  0.00    +0.086 C 
ATOM     18 CL1  UNL     1     152.631 156.705 154.223  0.00  0.00    -0.074 Cl
ATOM     19  H   UNL     1     148.988 159.954 157.369  0.00  0.00    +0.000 HD
ENDROOT
TORSDOF 0
ENDMDL
MODEL 4
REMARK VINA RESULT:    -4.639      4.714      6.723
REMARK INTER + INTRA:          -4.639
REMARK INTER:                  -4.639
REMARK INTRA:                   0.000
REMARK UNBOUND:                 0.000
REMARK  Name = /home/vital/Documents/PhD_2021/Malaria_codes/scripts/../data/pdbqt_ligands/ligand_144_temp.pdb
REMARK                            x       y       z     vdW  Elec       q    Type
REMARK                         _______ _______ _______ _____ _____    ______ ____
ROOT
ATOM      1  C1  UNL     1     153.731 160.738 164.879  0.00  0.00    -0.038 C 
ATOM      2  C2  UNL     1     152.266 160.519 164.627  0.00  0.00    -0.027 C 
ATOM      3  C3  UNL     1     151.665 159.318 164.473  0.00  0.00    -0.056 C 
ATOM      4  C4  UNL     1     152.326 157.996 164.203  0.00  0.00    +0.079 C 
ATOM      5  N1  UNL     1     151.974 157.643 162.806  0.00  0.00    -0.183 NA
ATOM      6  N2  UNL     1     152.601 158.343 161.977  0.00  0.00    -0.154 NA
ATOM      7  C5  UNL     1     151.912 158.430 160.749  0.00  0.00    +0.095 A 
ATOM      8  C6  UNL     1     151.578 157.284 160.013  0.00  0.00    -0.034 A 
ATOM      9  C7  UNL     1     150.905 157.389 158.791  0.00  0.00    -0.060 A 
ATOM     10  C8  UNL     1     150.565 158.642 158.280  0.00  0.00    -0.061 A 
ATOM     11  C9  UNL     1     150.897 159.796 158.986  0.00  0.00    -0.050 A 
ATOM     12  C10 UNL     1     151.564 159.686 160.213  0.00  0.00    +0.027 A 
ATOM     13  C11 UNL     1     151.942 160.930 160.917  0.00  0.00    +0.072 C 
ATOM     14  N3  UNL     1     153.136 161.424 160.828  0.00  0.00    -0.298 NA
ATOM     15  C12 UNL     1     150.876 161.580 161.725  0.00  0.00    +0.007 C 
ATOM     16  C13 UNL     1     151.118 161.781 162.989  0.00  0.00    -0.098 C 
ATOM     17  C14 UNL     1     151.508 161.699 164.231  0.00  0.00    +0.086 C 
ATOM     18 CL1  UNL     1     151.515 163.137 165.155  0.00  0.00    -0.074 Cl
ATOM     19  H   UNL     1     153.817 160.968 160.285  0.00  0.00    +0.000 HD
ENDROOT
TORSDOF 0
ENDMDL
MODEL 5
REMARK VINA RESULT:    -4.581      3.132      5.136
REMARK INTER + INTRA:          -4.581
REMARK INTER:                  -4.581
REMARK INTRA:                   0.000
REMARK UNBOUND:                 0.000
REMARK  Name = /home/vital/Documents/PhD_2021/Malaria_codes/scripts/../data/pdbqt_ligands/ligand_144_temp.pdb
REMARK                            x       y       z     vdW  Elec       q    Type
REMARK                         _______ _______ _______ _____ _____    ______ ____
ROOT
ATOM      1  C1  UNL     1     153.244 157.331 163.611  0.00  0.00    -0.038 C 
ATOM      2  C2  UNL     1     151.789 157.552 163.304  0.00  0.00    -0.027 C 
ATOM      3  C3  UNL     1     150.945 156.631 162.787  0.00  0.00    -0.056 C 
ATOM      4  C4  UNL     1     151.309 155.334 162.122  0.00  0.00    +0.079 C 
ATOM      5  N1  UNL     1     150.989 155.510 160.684  0.00  0.00    -0.183 NA
ATOM      6  N2  UNL     1     151.817 156.258 160.111  0.00  0.00    -0.154 NA
ATOM      7  C5  UNL     1     151.257 156.870 158.970  0.00  0.00    +0.095 A 
ATOM      8  C6  UNL     1     150.727 156.112 157.917  0.00  0.00    -0.034 A 
ATOM      9  C7  UNL     1     150.185 156.735 156.788  0.00  0.00    -0.060 A 
ATOM     10  C8  UNL     1     150.174 158.126 156.689  0.00  0.00    -0.061 A 
ATOM     11  C9  UNL     1     150.707 158.902 157.717  0.00  0.00    -0.050 A 
ATOM     12  C10 UNL     1     151.240 158.274 158.849  0.00  0.00    +0.027 A 
ATOM     13  C11 UNL     1     151.837 159.123 159.903  0.00  0.00    +0.072 C 
ATOM     14  N3  UNL     1     153.115 159.323 159.970  0.00  0.00    -0.298 NA
ATOM     15  C12 UNL     1     150.889 159.733 160.873  0.00  0.00    +0.007 C 
ATOM     16  C13 UNL     1     151.078 159.482 162.137  0.00  0.00    -0.098 C 
ATOM     17  C14 UNL     1     151.348 158.941 163.293  0.00  0.00    +0.086 C 
ATOM     18 CL1  UNL     1     151.612 159.989 164.616  0.00  0.00    -0.074 Cl
ATOM     19  H   UNL     1     153.714 158.903 159.312  0.00  0.00    +0.000 HD
ENDROOT
TORSDOF 0
ENDMDL
MODEL 6
REMARK VINA RESULT:    -4.205     13.954     16.110
REMARK INTER + INTRA:          -4.205
REMARK INTER:                  -4.205
REMARK INTRA:                   0.000
REMARK UNBOUND:                 0.000
REMARK  Name = /home/vital/Documents/PhD_2021/Malaria_codes/scripts/../data/pdbqt_ligands/ligand_144_temp.pdb
REMARK                            x       y       z     vdW  Elec       q    Type
REMARK                         _______ _______ _______ _____ _____    ______ ____
ROOT
ATOM      1  C1  UNL     1     145.622 150.050 166.922  0.00  0.00    -0.038 C 
ATOM      2  C2  UNL     1     145.121 149.382 165.672  0.00  0.00    -0.027 C 
ATOM      3  C3  UNL     1     143.884 148.865 165.498  0.00  0.00    -0.056 C 
ATOM      4  C4  UNL     1     142.869 148.553 166.562  0.00  0.00    +0.079 C 
ATOM      5  N1  UNL     1     142.791 147.073 166.628  0.00  0.00    -0.183 NA
ATOM      6  N2  UNL     1     143.803 146.577 167.178  0.00  0.00    -0.154 NA
ATOM      7  C5  UNL     1     144.014 145.245 166.764  0.00  0.00    +0.095 A 
ATOM      8  C6  UNL     1     143.036 144.258 166.943  0.00  0.00    -0.034 A 
ATOM      9  C7  UNL     1     143.266 142.939 166.537  0.00  0.00    -0.060 A 
ATOM     10  C8  UNL     1     144.484 142.584 165.956  0.00  0.00    -0.061 A 
ATOM     11  C9  UNL     1     145.478 143.545 165.778  0.00  0.00    -0.050 A 
ATOM     12  C10 UNL     1     145.239 144.866 166.178  0.00  0.00    +0.027 A 
ATOM     13  C11 UNL     1     146.329 145.853 166.017  0.00  0.00    +0.072 C 
ATOM     14  N3  UNL     1     147.104 146.173 167.003  0.00  0.00    -0.298 NA
ATOM     15  C12 UNL     1     146.482 146.448 164.664  0.00  0.00    +0.007 C 
ATOM     16  C13 UNL     1     146.423 147.747 164.568  0.00  0.00    -0.098 C 
ATOM     17  C14 UNL     1     146.141 149.013 164.699  0.00  0.00    +0.086 C 
ATOM     18 CL1  UNL     1     147.267 150.143 164.089  0.00  0.00    -0.074 Cl
ATOM     19  H   UNL     1     146.974 145.759 167.886  0.00  0.00    +0.000 HD
ENDROOT
TORSDOF 0
ENDMDL
MODEL 7
REMARK VINA RESULT:    -4.111      5.776      8.075
REMARK INTER + INTRA:          -4.111
REMARK INTER:                  -4.111
REMARK INTRA:                   0.000
REMARK UNBOUND:                 0.000
REMARK  Name = /home/vital/Documents/PhD_2021/Malaria_codes/scripts/../data/pdbqt_ligands/ligand_144_temp.pdb
REMARK                            x       y       z     vdW  Elec       q    Type
REMARK                         _______ _______ _______ _____ _____    ______ ____
ROOT
ATOM      1  C1  UNL     1     152.535 155.632 167.137  0.00  0.00    -0.038 C 
ATOM      2  C2  UNL     1     151.578 156.741 166.805  0.00  0.00    -0.027 C 
ATOM      3  C3  UNL     1     150.372 156.589 166.214  0.00  0.00    -0.056 C 
ATOM      4  C4  UNL     1     149.861 155.379 165.485  0.00  0.00    +0.079 C 
ATOM      5  N1  UNL     1     149.811 155.759 164.051  0.00  0.00    -0.183 NA
ATOM      6  N2  UNL     1     150.956 155.817 163.545  0.00  0.00    -0.154 NA
ATOM      7  C5  UNL     1     150.983 156.677 162.427  0.00  0.00    +0.095 A 
ATOM      8  C6  UNL     1     150.152 156.463 161.318  0.00  0.00    -0.034 A 
ATOM      9  C7  UNL     1     150.199 157.319 160.212  0.00  0.00    -0.060 A 
ATOM     10  C8  UNL     1     151.085 158.397 160.193  0.00  0.00    -0.061 A 
ATOM     11  C9  UNL     1     151.930 158.624 161.279  0.00  0.00    -0.050 A 
ATOM     12  C10 UNL     1     151.874 157.769 162.386  0.00  0.00    +0.027 A 
ATOM     13  C11 UNL     1     152.813 158.009 163.503  0.00  0.00    +0.072 C 
ATOM     14  N3  UNL     1     153.917 157.342 163.616  0.00  0.00    -0.298 NA
ATOM     15  C12 UNL     1     152.419 159.058 164.481  0.00  0.00    +0.007 C 
ATOM     16  C13 UNL     1     152.331 158.710 165.733  0.00  0.00    -0.098 C 
ATOM     17  C14 UNL     1     152.127 158.090 166.862  0.00  0.00    +0.086 C 
ATOM     18 CL1  UNL     1     152.923 158.690 168.250  0.00  0.00    -0.074 Cl
ATOM     19  H   UNL     1     154.146 156.654 162.951  0.00  0.00    +0.000 HD
ENDROOT
TORSDOF 0
ENDMDL
MODEL 8
REMARK VINA RESULT:    -4.021      4.748      7.707
REMARK INTER + INTRA:          -4.021
REMARK INTER:                  -4.021
REMARK INTRA:                   0.000
REMARK UNBOUND:                 0.000
REMARK  Name = /home/vital/Documents/PhD_2021/Malaria_codes/scripts/../data/pdbqt_ligands/ligand_144_temp.pdb
REMARK                            x       y       z     vdW  Elec       q    Type
REMARK                         _______ _______ _______ _____ _____    ______ ____
ROOT
ATOM      1  C1  UNL     1     151.348 157.441 159.217  0.00  0.00    -0.038 C 
ATOM      2  C2  UNL     1     150.339 157.565 160.324  0.00  0.00    -0.027 C 
ATOM      3  C3  UNL     1     149.767 158.715 160.743  0.00  0.00    -0.056 C 
ATOM      4  C4  UNL     1     150.216 160.117 160.444  0.00  0.00    +0.079 C 
ATOM      5  N1  UNL     1     150.746 160.656 161.721  0.00  0.00    -0.183 NA
ATOM      6  N2  UNL     1     151.859 160.157 162.010  0.00  0.00    -0.154 NA
ATOM      7  C5  UNL     1     152.101 160.205 163.399  0.00  0.00    +0.095 A 
ATOM      8  C6  UNL     1     152.101 161.418 164.102  0.00  0.00    -0.034 A 
ATOM      9  C7  UNL     1     152.354 161.450 165.477  0.00  0.00    -0.060 A 
ATOM     10  C8  UNL     1     152.621 160.269 166.171  0.00  0.00    -0.061 A 
ATOM     11  C9  UNL     1     152.639 159.051 165.493  0.00  0.00    -0.050 A 
ATOM     12  C10 UNL     1     152.377 159.024 164.117  0.00  0.00    +0.027 A 
ATOM     13  C11 UNL     1     152.446 157.723 163.418  0.00  0.00    +0.072 C 
ATOM     14  N3  UNL     1     153.503 157.359 162.765  0.00  0.00    -0.298 NA
ATOM     15  C12 UNL     1     151.239 156.859 163.514  0.00  0.00    +0.007 C 
ATOM     16  C13 UNL     1     150.681 156.482 162.399  0.00  0.00    -0.098 C 
ATOM     17  C14 UNL     1     150.202 156.399 161.189  0.00  0.00    +0.086 C 
ATOM     18 CL1  UNL     1     149.883 154.839 160.567  0.00  0.00    -0.074 Cl
ATOM     19  H   UNL     1     154.284 157.956 162.722  0.00  0.00    +0.000 HD
ENDROOT
TORSDOF 0
ENDMDL
MODEL 9
REMARK VINA RESULT:    -3.960      5.256      8.173
REMARK INTER + INTRA:          -3.960
REMARK INTER:                  -3.960
REMARK INTRA:                   0.000
REMARK UNBOUND:                 0.000
REMARK  Name = /home/vital/Documents/PhD_2021/Malaria_codes/scripts/../data/pdbqt_ligands/ligand_144_temp.pdb
REMARK                            x       y       z     vdW  Elec       q    Type
REMARK                         _______ _______ _______ _____ _____    ______ ____
ROOT
ATOM      1  C1  UNL     1     152.635 159.771 159.747  0.00  0.00    -0.038 C 
ATOM      2  C2  UNL     1     151.394 159.337 160.476  0.00  0.00    -0.027 C 
ATOM      3  C3  UNL     1     150.744 160.054 161.419  0.00  0.00    -0.056 C 
ATOM      4  C4  UNL     1     151.257 161.252 162.167  0.00  0.00    +0.079 C 
ATOM      5  N1  UNL     1     151.473 160.799 163.563  0.00  0.00    -0.183 NA
ATOM      6  N2  UNL     1     152.485 160.064 163.662  0.00  0.00    -0.154 NA
ATOM      7  C5  UNL     1     152.393 159.207 164.779  0.00  0.00    +0.095 A 
ATOM      8  C6  UNL     1     152.233 159.710 166.078  0.00  0.00    -0.034 A 
ATOM      9  C7  UNL     1     152.155 158.846 167.176  0.00  0.00    -0.060 A 
ATOM     10  C8  UNL     1     152.246 157.466 166.994  0.00  0.00    -0.061 A 
ATOM     11  C9  UNL     1     152.418 156.942 165.713  0.00  0.00    -0.050 A 
ATOM     12  C10 UNL     1     152.487 157.810 164.617  0.00  0.00    +0.027 A 
ATOM     13  C11 UNL     1     152.714 157.227 163.277  0.00  0.00    +0.072 C 
ATOM     14  N3  UNL     1     153.893 157.188 162.744  0.00  0.00    -0.298 NA
ATOM     15  C12 UNL     1     151.515 156.686 162.583  0.00  0.00    +0.007 C 
ATOM     16  C13 UNL     1     151.233 157.168 161.406  0.00  0.00    -0.098 C 
ATOM     17  C14 UNL     1     151.052 157.925 160.359  0.00  0.00    +0.086 C 
ATOM     18 CL1  UNL     1     150.883 157.153 158.844  0.00  0.00    -0.074 Cl
ATOM     19  H   UNL     1     154.665 157.556 163.232  0.00  0.00    +0.000 HD
ENDROOT
TORSDOF 0
ENDMDL
