MODEL 1
REMARK VINA RESULT:    -7.905      0.000      0.000
REMARK INTER + INTRA:          -7.905
REMARK INTER:                  -7.905
REMARK INTRA:                   0.000
REMARK UNBOUND:                 0.000
REMARK  Name = /home/vital/Documents/PhD_2021/Malaria_codes/scripts/../data/pdbqt_ligands/ligand_307_temp.pdb
REMARK                            x       y       z     vdW  Elec       q    Type
REMARK                         _______ _______ _______ _____ _____    ______ ____
ROOT
ATOM      1  C1  UNL     1     151.739 160.562 163.326  0.00  0.00    -0.064 C 
ATOM      2  C2  UNL     1     150.383 160.812 162.685  0.00  0.00    -0.040 C 
ATOM      3  C3  UNL     1     150.478 161.364 161.259  0.00  0.00    +0.014 C 
ATOM      4  N1  UNL     1     151.060 160.421 160.306  0.00  0.00    -0.300 N 
ATOM      5  C4  UNL     1     152.432 160.678 159.886  0.00  0.00    +0.003 C 
ATOM      6  C5  UNL     1     150.238 159.433 159.779  0.00  0.00    +0.251 C 
ATOM      7  O1  UNL     1     149.103 159.217 160.208  0.00  0.00    -0.270 OA
ATOM      8  C6  UNL     1     150.766 158.566 158.702  0.00  0.00    +0.100 A 
ATOM      9  C7  UNL     1     150.768 157.241 158.917  0.00  0.00    +0.018 A 
ATOM     10  N2  UNL     1     151.208 156.299 158.022  0.00  0.00    -0.360 N 
ATOM     11  C8  UNL     1     151.574 156.676 156.721  0.00  0.00    +0.050 A 
ATOM     12  C9  UNL     1     151.988 155.723 155.789  0.00  0.00    -0.037 A 
ATOM     13  C10 UNL     1     152.404 156.116 154.512  0.00  0.00    -0.057 A 
ATOM     14  C11 UNL     1     152.416 157.469 154.148  0.00  0.00    -0.050 A 
ATOM     15  C12 UNL     1     152.893 157.886 152.788  0.00  0.00    -0.040 C 
ATOM     16  C13 UNL     1     152.037 158.431 155.091  0.00  0.00    -0.046 A 
ATOM     17  C14 UNL     1     151.621 158.035 156.368  0.00  0.00    +0.046 A 
ATOM     18  C15 UNL     1     151.215 159.058 157.372  0.00  0.00    +0.201 A 
ATOM     19  O2  UNL     1     151.251 160.251 157.092  0.00  0.00    -0.286 OA
ATOM     20  H   UNL     1     151.268 155.354 158.294  0.00  0.00    +0.000 HD
ENDROOT
TORSDOF 0
ENDMDL
MODEL 2
REMARK VINA RESULT:    -7.519      2.581      8.001
REMARK INTER + INTRA:          -7.519
REMARK INTER:                  -7.519
REMARK INTRA:                   0.000
REMARK UNBOUND:                 0.000
REMARK  Name = /home/vital/Documents/PhD_2021/Malaria_codes/scripts/../data/pdbqt_ligands/ligand_307_temp.pdb
REMARK                            x       y       z     vdW  Elec       q    Type
REMARK                         _______ _______ _______ _____ _____    ______ ____
ROOT
ATOM      1  C1  UNL     1     150.779 159.375 156.874  0.00  0.00    -0.064 C 
ATOM      2  C2  UNL     1     149.976 158.428 157.751  0.00  0.00    -0.040 C 
ATOM      3  C3  UNL     1     150.776 157.866 158.930  0.00  0.00    +0.014 C 
ATOM      4  N1  UNL     1     151.165 158.880 159.908  0.00  0.00    -0.300 N 
ATOM      5  C4  UNL     1     152.561 159.298 159.897  0.00  0.00    +0.003 C 
ATOM      6  C5  UNL     1     150.221 159.277 160.847  0.00  0.00    +0.251 C 
ATOM      7  O1  UNL     1     149.037 158.941 160.780  0.00  0.00    -0.270 OA
ATOM      8  C6  UNL     1     150.640 160.187 161.936  0.00  0.00    +0.100 A 
ATOM      9  C7  UNL     1     149.985 161.352 162.058  0.00  0.00    +0.018 A 
ATOM     10  N2  UNL     1     150.237 162.301 163.017  0.00  0.00    -0.360 N 
ATOM     11  C8  UNL     1     151.145 162.035 164.053  0.00  0.00    +0.050 A 
ATOM     12  C9  UNL     1     151.382 162.977 165.056  0.00  0.00    -0.037 A 
ATOM     13  C10 UNL     1     152.329 162.724 166.054  0.00  0.00    -0.057 A 
ATOM     14  C11 UNL     1     153.058 161.528 166.063  0.00  0.00    -0.050 A 
ATOM     15  C12 UNL     1     154.095 161.276 167.117  0.00  0.00    -0.040 C 
ATOM     16  C13 UNL     1     152.850 160.597 165.039  0.00  0.00    -0.046 A 
ATOM     17  C14 UNL     1     151.901 160.852 164.041  0.00  0.00    +0.046 A 
ATOM     18  C15 UNL     1     151.677 159.861 162.952  0.00  0.00    +0.201 A 
ATOM     19  O2  UNL     1     152.327 158.821 162.915  0.00  0.00    -0.286 OA
ATOM     20  H   UNL     1     149.779 163.172 162.977  0.00  0.00    +0.000 HD
ENDROOT
TORSDOF 0
ENDMDL
MODEL 3
REMARK VINA RESULT:    -7.190      8.028      9.681
REMARK INTER + INTRA:          -7.190
REMARK INTER:                  -7.190
REMARK INTRA:                   0.000
REMARK UNBOUND:                 0.000
REMARK  Name = /home/vital/Documents/PhD_2021/Malaria_codes/scripts/../data/pdbqt_ligands/ligand_307_temp.pdb
REMARK                            x       y       z     vdW  Elec       q    Type
REMARK                         _______ _______ _______ _____ _____    ______ ____
ROOT
ATOM      1  C1  UNL     1     154.133 161.138 166.140  0.00  0.00    -0.064 C 
ATOM      2  C2  UNL     1     152.979 161.202 167.129  0.00  0.00    -0.040 C 
ATOM      3  C3  UNL     1     151.692 160.559 166.603  0.00  0.00    +0.014 C 
ATOM      4  N1  UNL     1     151.801 159.116 166.403  0.00  0.00    -0.300 N 
ATOM      5  C4  UNL     1     151.919 158.652 165.026  0.00  0.00    +0.003 C 
ATOM      6  C5  UNL     1     151.660 158.291 167.512  0.00  0.00    +0.251 C 
ATOM      7  O1  UNL     1     151.622 158.729 168.664  0.00  0.00    -0.270 OA
ATOM      8  C6  UNL     1     151.615 156.826 167.309  0.00  0.00    +0.100 A 
ATOM      9  C7  UNL     1     152.530 156.082 167.949  0.00  0.00    +0.018 A 
ATOM     10  N2  UNL     1     152.621 154.714 167.881  0.00  0.00    -0.360 N 
ATOM     11  C8  UNL     1     151.634 153.972 167.215  0.00  0.00    +0.050 A 
ATOM     12  C9  UNL     1     151.694 152.579 167.170  0.00  0.00    -0.037 A 
ATOM     13  C10 UNL     1     150.736 151.851 166.456  0.00  0.00    -0.057 A 
ATOM     14  C11 UNL     1     149.704 152.506 165.771  0.00  0.00    -0.050 A 
ATOM     15  C12 UNL     1     148.697 151.723 164.981  0.00  0.00    -0.040 C 
ATOM     16  C13 UNL     1     149.661 153.905 165.783  0.00  0.00    -0.046 A 
ATOM     17  C14 UNL     1     150.622 154.631 166.498  0.00  0.00    +0.046 A 
ATOM     18  C15 UNL     1     150.576 156.120 166.513  0.00  0.00    +0.201 A 
ATOM     19  O2  UNL     1     149.705 156.720 165.892  0.00  0.00    -0.286 OA
ATOM     20  H   UNL     1     153.382 154.252 168.302  0.00  0.00    +0.000 HD
ENDROOT
TORSDOF 0
ENDMDL
MODEL 4
REMARK VINA RESULT:    -7.177      3.779      4.958
REMARK INTER + INTRA:          -7.177
REMARK INTER:                  -7.177
REMARK INTRA:                   0.000
REMARK UNBOUND:                 0.000
REMARK  Name = /home/vital/Documents/PhD_2021/Malaria_codes/scripts/../data/pdbqt_ligands/ligand_307_temp.pdb
REMARK                            x       y       z     vdW  Elec       q    Type
REMARK                         _______ _______ _______ _____ _____    ______ ____
ROOT
ATOM      1  C1  UNL     1     152.855 155.614 167.029  0.00  0.00    -0.064 C 
ATOM      2  C2  UNL     1     151.345 155.473 166.922  0.00  0.00    -0.040 C 
ATOM      3  C3  UNL     1     150.686 156.592 166.108  0.00  0.00    +0.014 C 
ATOM      4  N1  UNL     1     151.062 156.585 164.696  0.00  0.00    -0.300 N 
ATOM      5  C4  UNL     1     152.008 157.607 164.266  0.00  0.00    +0.003 C 
ATOM      6  C5  UNL     1     150.406 155.699 163.851  0.00  0.00    +0.251 C 
ATOM      7  O1  UNL     1     149.658 154.814 164.269  0.00  0.00    -0.270 OA
ATOM      8  C6  UNL     1     150.662 155.783 162.395  0.00  0.00    +0.100 A 
ATOM      9  C7  UNL     1     151.121 154.680 161.782  0.00  0.00    +0.018 A 
ATOM     10  N2  UNL     1     151.397 154.582 160.441  0.00  0.00    -0.360 N 
ATOM     11  C8  UNL     1     151.074 155.636 159.573  0.00  0.00    +0.050 A 
ATOM     12  C9  UNL     1     151.314 155.534 158.203  0.00  0.00    -0.037 A 
ATOM     13  C10 UNL     1     151.040 156.612 157.354  0.00  0.00    -0.057 A 
ATOM     14  C11 UNL     1     150.524 157.811 157.863  0.00  0.00    -0.050 A 
ATOM     15  C12 UNL     1     150.262 158.974 156.953  0.00  0.00    -0.040 C 
ATOM     16  C13 UNL     1     150.316 157.930 159.242  0.00  0.00    -0.046 A 
ATOM     17  C14 UNL     1     150.591 156.850 160.089  0.00  0.00    +0.046 A 
ATOM     18  C15 UNL     1     150.367 156.975 161.557  0.00  0.00    +0.201 A 
ATOM     19  O2  UNL     1     149.951 158.026 162.034  0.00  0.00    -0.286 OA
ATOM     20  H   UNL     1     151.823 153.768 160.087  0.00  0.00    +0.000 HD
ENDROOT
TORSDOF 0
ENDMDL
MODEL 5
REMARK VINA RESULT:    -7.033      1.670      6.679
REMARK INTER + INTRA:          -7.033
REMARK INTER:                  -7.033
REMARK INTRA:                   0.000
REMARK UNBOUND:                 0.000
REMARK  Name = /home/vital/Documents/PhD_2021/Malaria_codes/scripts/../data/pdbqt_ligands/ligand_307_temp.pdb
REMARK                            x       y       z     vdW  Elec       q    Type
REMARK                         _______ _______ _______ _____ _____    ______ ____
ROOT
ATOM      1  C1  UNL     1     152.504 154.877 154.908  0.00  0.00    -0.064 C 
ATOM      2  C2  UNL     1     151.167 155.558 154.659  0.00  0.00    -0.040 C 
ATOM      3  C3  UNL     1     150.310 155.695 155.921  0.00  0.00    +0.014 C 
ATOM      4  N1  UNL     1     150.887 156.587 156.924  0.00  0.00    -0.300 N 
ATOM      5  C4  UNL     1     151.490 155.955 158.092  0.00  0.00    +0.003 C 
ATOM      6  C5  UNL     1     150.713 157.955 156.759  0.00  0.00    +0.251 C 
ATOM      7  O1  UNL     1     150.250 158.445 155.727  0.00  0.00    -0.270 OA
ATOM      8  C6  UNL     1     151.156 158.865 157.840  0.00  0.00    +0.100 A 
ATOM      9  C7  UNL     1     152.051 159.814 157.524  0.00  0.00    +0.018 A 
ATOM     10  N2  UNL     1     152.555 160.743 158.398  0.00  0.00    -0.360 N 
ATOM     11  C8  UNL     1     152.040 160.843 159.699  0.00  0.00    +0.050 A 
ATOM     12  C9  UNL     1     152.517 161.808 160.586  0.00  0.00    -0.037 A 
ATOM     13  C10 UNL     1     152.036 161.864 161.899  0.00  0.00    -0.057 A 
ATOM     14  C11 UNL     1     151.071 160.951 162.346  0.00  0.00    -0.050 A 
ATOM     15  C12 UNL     1     150.582 160.995 163.764  0.00  0.00    -0.040 C 
ATOM     16  C13 UNL     1     150.616 159.958 161.472  0.00  0.00    -0.046 A 
ATOM     17  C14 UNL     1     151.100 159.905 160.158  0.00  0.00    +0.046 A 
ATOM     18  C15 UNL     1     150.615 158.850 159.225  0.00  0.00    +0.201 A 
ATOM     19  O2  UNL     1     149.798 158.016 159.602  0.00  0.00    -0.286 OA
ATOM     20  H   UNL     1     153.282 161.343 158.111  0.00  0.00    +0.000 HD
ENDROOT
TORSDOF 0
ENDMDL
MODEL 6
REMARK VINA RESULT:    -7.007      7.583     10.143
REMARK INTER + INTRA:          -7.007
REMARK INTER:                  -7.007
REMARK INTRA:                   0.000
REMARK UNBOUND:                 0.000
REMARK  Name = /home/vital/Documents/PhD_2021/Malaria_codes/scripts/../data/pdbqt_ligands/ligand_307_temp.pdb
REMARK                            x       y       z     vdW  Elec       q    Type
REMARK                         _______ _______ _______ _____ _____    ______ ____
ROOT
ATOM      1  C1  UNL     1     151.308 151.971 165.996  0.00  0.00    -0.064 C 
ATOM      2  C2  UNL     1     149.978 152.679 165.792  0.00  0.00    -0.040 C 
ATOM      3  C3  UNL     1     149.706 153.773 166.829  0.00  0.00    +0.014 C 
ATOM      4  N1  UNL     1     150.632 154.901 166.743  0.00  0.00    -0.300 N 
ATOM      5  C4  UNL     1     151.665 154.980 167.769  0.00  0.00    +0.003 C 
ATOM      6  C5  UNL     1     150.389 155.872 165.780  0.00  0.00    +0.251 C 
ATOM      7  O1  UNL     1     149.540 155.733 164.897  0.00  0.00    -0.270 OA
ATOM      8  C6  UNL     1     151.223 157.095 165.776  0.00  0.00    +0.100 A 
ATOM      9  C7  UNL     1     151.900 157.381 164.653  0.00  0.00    +0.018 A 
ATOM     10  N2  UNL     1     152.706 158.478 164.477  0.00  0.00    -0.360 N 
ATOM     11  C8  UNL     1     152.763 159.478 165.459  0.00  0.00    +0.050 A 
ATOM     12  C9  UNL     1     153.549 160.617 165.275  0.00  0.00    -0.037 A 
ATOM     13  C10 UNL     1     153.642 161.582 166.284  0.00  0.00    -0.057 A 
ATOM     14  C11 UNL     1     152.955 161.422 167.494  0.00  0.00    -0.050 A 
ATOM     15  C12 UNL     1     153.084 162.445 168.584  0.00  0.00    -0.040 C 
ATOM     16  C13 UNL     1     152.195 160.264 167.696  0.00  0.00    -0.046 A 
ATOM     17  C14 UNL     1     152.103 159.299 166.685  0.00  0.00    +0.046 A 
ATOM     18  C15 UNL     1     151.292 158.068 166.899  0.00  0.00    +0.201 A 
ATOM     19  O2  UNL     1     150.710 157.885 167.962  0.00  0.00    -0.286 OA
ATOM     20  H   UNL     1     153.246 158.563 163.657  0.00  0.00    +0.000 HD
ENDROOT
TORSDOF 0
ENDMDL
MODEL 7
REMARK VINA RESULT:    -6.961      3.684      4.735
REMARK INTER + INTRA:          -6.961
REMARK INTER:                  -6.961
REMARK INTRA:                   0.000
REMARK UNBOUND:                 0.000
REMARK  Name = /home/vital/Documents/PhD_2021/Malaria_codes/scripts/../data/pdbqt_ligands/ligand_307_temp.pdb
REMARK                            x       y       z     vdW  Elec       q    Type
REMARK                         _______ _______ _______ _____ _____    ______ ____
ROOT
ATOM      1  C1  UNL     1     148.501 154.458 164.873  0.00  0.00    -0.064 C 
ATOM      2  C2  UNL     1     150.013 154.616 164.904  0.00  0.00    -0.040 C 
ATOM      3  C3  UNL     1     150.720 153.939 163.727  0.00  0.00    +0.014 C 
ATOM      4  N1  UNL     1     150.409 154.543 162.433  0.00  0.00    -0.300 N 
ATOM      5  C4  UNL     1     149.494 153.808 161.569  0.00  0.00    +0.003 C 
ATOM      6  C5  UNL     1     151.094 155.697 162.071  0.00  0.00    +0.251 C 
ATOM      7  O1  UNL     1     151.813 156.316 162.857  0.00  0.00    -0.270 OA
ATOM      8  C6  UNL     1     150.905 156.237 160.706  0.00  0.00    +0.100 A 
ATOM      9  C7  UNL     1     150.464 157.500 160.594  0.00  0.00    +0.018 A 
ATOM     10  N2  UNL     1     150.248 158.157 159.409  0.00  0.00    -0.360 N 
ATOM     11  C8  UNL     1     150.621 157.564 158.193  0.00  0.00    +0.050 A 
ATOM     12  C9  UNL     1     150.442 158.236 156.984  0.00  0.00    -0.037 A 
ATOM     13  C10 UNL     1     150.766 157.614 155.773  0.00  0.00    -0.057 A 
ATOM     14  C11 UNL     1     151.270 156.307 155.753  0.00  0.00    -0.050 A 
ATOM     15  C12 UNL     1     151.587 155.634 154.450  0.00  0.00    -0.040 C 
ATOM     16  C13 UNL     1     151.417 155.616 156.961  0.00  0.00    -0.046 A 
ATOM     17  C14 UNL     1     151.092 156.241 158.171  0.00  0.00    +0.046 A 
ATOM     18  C15 UNL     1     151.250 155.507 159.458  0.00  0.00    +0.201 A 
ATOM     19  O2  UNL     1     151.655 154.349 159.466  0.00  0.00    -0.286 OA
ATOM     20  H   UNL     1     149.830 159.049 159.412  0.00  0.00    +0.000 HD
ENDROOT
TORSDOF 0
ENDMDL
MODEL 8
REMARK VINA RESULT:    -6.784      3.323      4.814
REMARK INTER + INTRA:          -6.784
REMARK INTER:                  -6.784
REMARK INTRA:                   0.000
REMARK UNBOUND:                 0.000
REMARK  Name = /home/vital/Documents/PhD_2021/Malaria_codes/scripts/../data/pdbqt_ligands/ligand_307_temp.pdb
REMARK                            x       y       z     vdW  Elec       q    Type
REMARK                         _______ _______ _______ _____ _____    ______ ____
ROOT
ATOM      1  C1  UNL     1     150.497 157.661 167.118  0.00  0.00    -0.064 C 
ATOM      2  C2  UNL     1     151.969 157.586 166.745  0.00  0.00    -0.040 C 
ATOM      3  C3  UNL     1     152.274 156.530 165.679  0.00  0.00    +0.014 C 
ATOM      4  N1  UNL     1     151.677 156.826 164.378  0.00  0.00    -0.300 N 
ATOM      5  C4  UNL     1     150.506 156.044 164.001  0.00  0.00    +0.003 C 
ATOM      6  C5  UNL     1     152.333 157.729 163.550  0.00  0.00    +0.251 C 
ATOM      7  O1  UNL     1     153.286 158.409 163.934  0.00  0.00    -0.270 OA
ATOM      8  C6  UNL     1     151.829 157.926 162.172  0.00  0.00    +0.100 A 
ATOM      9  C7  UNL     1     151.481 159.171 161.811  0.00  0.00    +0.018 A 
ATOM     10  N2  UNL     1     151.010 159.529 160.573  0.00  0.00    -0.360 N 
ATOM     11  C8  UNL     1     150.991 158.595 159.526  0.00  0.00    +0.050 A 
ATOM     12  C9  UNL     1     150.550 158.957 158.252  0.00  0.00    -0.037 A 
ATOM     13  C10 UNL     1     150.483 158.004 157.229  0.00  0.00    -0.057 A 
ATOM     14  C11 UNL     1     150.853 156.674 157.466  0.00  0.00    -0.050 A 
ATOM     15  C12 UNL     1     150.749 155.650 156.374  0.00  0.00    -0.040 C 
ATOM     16  C13 UNL     1     151.261 156.298 158.751  0.00  0.00    -0.046 A 
ATOM     17  C14 UNL     1     151.327 157.254 159.772  0.00  0.00    +0.046 A 
ATOM     18  C15 UNL     1     151.764 156.857 161.140  0.00  0.00    +0.201 A 
ATOM     19  O2  UNL     1     152.058 155.691 161.384  0.00  0.00    -0.286 OA
ATOM     20  H   UNL     1     150.683 160.446 160.419  0.00  0.00    +0.000 HD
ENDROOT
TORSDOF 0
ENDMDL
MODEL 9
REMARK VINA RESULT:    -6.595     11.130     13.523
REMARK INTER + INTRA:          -6.595
REMARK INTER:                  -6.595
REMARK INTRA:                   0.000
REMARK UNBOUND:                 0.000
REMARK  Name = /home/vital/Documents/PhD_2021/Malaria_codes/scripts/../data/pdbqt_ligands/ligand_307_temp.pdb
REMARK                            x       y       z     vdW  Elec       q    Type
REMARK                         _______ _______ _______ _____ _____    ______ ____
ROOT
ATOM      1  C1  UNL     1     144.723 144.371 163.892  0.00  0.00    -0.064 C 
ATOM      2  C2  UNL     1     143.609 145.268 164.407  0.00  0.00    -0.040 C 
ATOM      3  C3  UNL     1     144.026 146.131 165.602  0.00  0.00    +0.014 C 
ATOM      4  N1  UNL     1     145.048 147.124 165.276  0.00  0.00    -0.300 N 
ATOM      5  C4  UNL     1     146.403 146.843 165.733  0.00  0.00    +0.003 C 
ATOM      6  C5  UNL     1     144.639 148.307 164.673  0.00  0.00    +0.251 C 
ATOM      7  O1  UNL     1     143.493 148.474 164.252  0.00  0.00    -0.270 OA
ATOM      8  C6  UNL     1     145.633 149.385 164.475  0.00  0.00    +0.100 A 
ATOM      9  C7  UNL     1     145.829 149.825 163.222  0.00  0.00    +0.018 A 
ATOM     10  N2  UNL     1     146.701 150.823 162.865  0.00  0.00    -0.360 N 
ATOM     11  C8  UNL     1     147.367 151.566 163.851  0.00  0.00    +0.050 A 
ATOM     12  C9  UNL     1     148.227 152.608 163.503  0.00  0.00    -0.037 A 
ATOM     13  C10 UNL     1     148.929 153.307 164.491  0.00  0.00    -0.057 A 
ATOM     14  C11 UNL     1     148.786 152.970 165.843  0.00  0.00    -0.050 A 
ATOM     15  C12 UNL     1     149.565 153.702 166.896  0.00  0.00    -0.040 C 
ATOM     16  C13 UNL     1     147.953 151.902 166.194  0.00  0.00    -0.046 A 
ATOM     17  C14 UNL     1     147.251 151.205 165.203  0.00  0.00    +0.046 A 
ATOM     18  C15 UNL     1     146.363 150.068 165.575  0.00  0.00    +0.201 A 
ATOM     19  O2  UNL     1     146.247 149.730 166.749  0.00  0.00    -0.286 OA
ATOM     20  H   UNL     1     146.858 151.019 161.912  0.00  0.00    +0.000 HD
ENDROOT
TORSDOF 0
ENDMDL
