MODEL 1
REMARK VINA RESULT:    -7.137      0.000      0.000
REMARK INTER + INTRA:          -7.137
REMARK INTER:                  -7.137
REMARK INTRA:                   0.000
REMARK UNBOUND:                 0.000
REMARK  Name = /home/vital/Documents/PhD_2021/Malaria_codes/scripts/../data/pdbqt_ligands/ligand_217_temp.pdb
REMARK                            x       y       z     vdW  Elec       q    Type
REMARK                         _______ _______ _______ _____ _____    ______ ____
ROOT
ATOM      1  C1  UNL     1     150.481 155.703 158.289  0.00  0.00    +0.041 C 
ATOM      2  C2  UNL     1     150.890 157.076 157.702  0.00  0.00    +0.123 C 
ATOM      3  N1  UNL     1     151.302 156.864 156.315  0.00  0.00    -0.254 NA
ATOM      4  C3  UNL     1     152.331 156.121 156.135  0.00  0.00    +0.078 C 
ATOM      5  N2  UNL     1     152.891 155.804 154.926  0.00  0.00    -0.333 N 
ATOM      6  C4  UNL     1     152.189 155.999 153.665  0.00  0.00    +0.033 C 
ATOM      7  C5  UNL     1     152.146 157.471 153.250  0.00  0.00    +0.060 C 
ATOM      8  O1  UNL     1     151.648 157.585 151.919  0.00  0.00    -0.393 OA
ATOM      9  N3  UNL     1     151.934 157.687 158.514  0.00  0.00    -0.321 N 
ATOM     10  C6  UNL     1     151.448 158.613 159.470  0.00  0.00    +0.047 A 
ATOM     11  C7  UNL     1     150.883 158.147 160.665  0.00  0.00    -0.038 A 
ATOM     12  C8  UNL     1     150.369 159.042 161.607  0.00  0.00    -0.042 A 
ATOM     13  C9  UNL     1     150.411 160.413 161.358  0.00  0.00    +0.042 A 
ATOM     14 CL1  UNL     1     149.775 161.510 162.520  0.00  0.00    -0.083 Cl
ATOM     15  C10 UNL     1     150.959 160.902 160.175  0.00  0.00    -0.023 A 
ATOM     16  C11 UNL     1     151.472 160.003 159.239  0.00  0.00    +0.063 A 
ATOM     17 CL2  UNL     1     152.131 160.629 157.768  0.00  0.00    -0.082 Cl
ATOM     18  H   UNL     1     153.802 155.432 154.909  0.00  0.00    +0.000 HD
ATOM     19  H   UNL     1     152.231 157.101 151.313  0.00  0.00    +0.000 HD
ATOM     20  H   UNL     1     152.890 157.476 158.407  0.00  0.00    +0.000 HD
ENDROOT
TORSDOF 0
ENDMDL
MODEL 2
REMARK VINA RESULT:    -6.980      3.563      6.843
REMARK INTER + INTRA:          -6.980
REMARK INTER:                  -6.980
REMARK INTRA:                   0.000
REMARK UNBOUND:                 0.000
REMARK  Name = /home/vital/Documents/PhD_2021/Malaria_codes/scripts/../data/pdbqt_ligands/ligand_217_temp.pdb
REMARK                            x       y       z     vdW  Elec       q    Type
REMARK                         _______ _______ _______ _____ _____    ______ ____
ROOT
ATOM      1  C1  UNL     1     150.524 155.791 159.122  0.00  0.00    +0.041 C 
ATOM      2  C2  UNL     1     151.129 157.091 158.540  0.00  0.00    +0.123 C 
ATOM      3  N1  UNL     1     151.030 158.129 159.566  0.00  0.00    -0.254 NA
ATOM      4  C3  UNL     1     149.845 158.461 159.926  0.00  0.00    +0.078 C 
ATOM      5  N2  UNL     1     149.527 159.415 160.856  0.00  0.00    -0.333 N 
ATOM      6  C4  UNL     1     150.502 159.939 161.803  0.00  0.00    +0.033 C 
ATOM      7  C5  UNL     1     151.475 160.919 161.145  0.00  0.00    +0.060 C 
ATOM      8  O1  UNL     1     152.262 161.565 162.143  0.00  0.00    -0.393 OA
ATOM      9  N3  UNL     1     150.455 157.457 157.301  0.00  0.00    -0.321 N 
ATOM     10  C6  UNL     1     151.124 157.014 156.133  0.00  0.00    +0.047 A 
ATOM     11  C7  UNL     1     151.005 155.679 155.726  0.00  0.00    -0.038 A 
ATOM     12  C8  UNL     1     151.683 155.216 154.596  0.00  0.00    -0.042 A 
ATOM     13  C9  UNL     1     152.491 156.084 153.865  0.00  0.00    +0.042 A 
ATOM     14 CL1  UNL     1     153.325 155.507 152.475  0.00  0.00    -0.083 Cl
ATOM     15  C10 UNL     1     152.633 157.414 154.252  0.00  0.00    -0.023 A 
ATOM     16  C11 UNL     1     151.953 157.872 155.381  0.00  0.00    +0.063 A 
ATOM     17 CL2  UNL     1     152.158 159.522 155.856  0.00  0.00    -0.082 Cl
ATOM     18  H   UNL     1     148.605 159.758 160.886  0.00  0.00    +0.000 HD
ATOM     19  H   UNL     1     151.681 162.052 162.748  0.00  0.00    +0.000 HD
ATOM     20  H   UNL     1     149.612 157.965 157.278  0.00  0.00    +0.000 HD
ENDROOT
TORSDOF 0
ENDMDL
MODEL 3
REMARK VINA RESULT:    -6.898      2.612      3.316
REMARK INTER + INTRA:          -6.898
REMARK INTER:                  -6.898
REMARK INTRA:                   0.000
REMARK UNBOUND:                 0.000
REMARK  Name = /home/vital/Documents/PhD_2021/Malaria_codes/scripts/../data/pdbqt_ligands/ligand_217_temp.pdb
REMARK                            x       y       z     vdW  Elec       q    Type
REMARK                         _______ _______ _______ _____ _____    ______ ____
ROOT
ATOM      1  C1  UNL     1     151.851 159.976 157.109  0.00  0.00    +0.041 C 
ATOM      2  C2  UNL     1     152.058 158.443 157.084  0.00  0.00    +0.123 C 
ATOM      3  N1  UNL     1     152.444 158.065 155.724  0.00  0.00    -0.254 NA
ATOM      4  C3  UNL     1     151.578 158.286 154.806  0.00  0.00    +0.078 C 
ATOM      5  N2  UNL     1     151.728 157.999 153.475  0.00  0.00    -0.333 N 
ATOM      6  C4  UNL     1     153.026 157.714 152.879  0.00  0.00    +0.033 C 
ATOM      7  C5  UNL     1     153.526 156.312 153.229  0.00  0.00    +0.060 C 
ATOM      8  O1  UNL     1     154.682 156.001 152.454  0.00  0.00    -0.393 OA
ATOM      9  N3  UNL     1     150.855 157.758 157.539  0.00  0.00    -0.321 N 
ATOM     10  C6  UNL     1     150.881 157.407 158.912  0.00  0.00    +0.047 A 
ATOM     11  C7  UNL     1     150.615 158.380 159.884  0.00  0.00    -0.038 A 
ATOM     12  C8  UNL     1     150.667 158.060 161.244  0.00  0.00    -0.042 A 
ATOM     13  C9  UNL     1     150.991 156.765 161.642  0.00  0.00    +0.042 A 
ATOM     14 CL1  UNL     1     151.055 156.379 163.317  0.00  0.00    -0.083 Cl
ATOM     15  C10 UNL     1     151.266 155.781 160.696  0.00  0.00    -0.023 A 
ATOM     16  C11 UNL     1     151.212 156.105 159.340  0.00  0.00    +0.063 A 
ATOM     17 CL2  UNL     1     151.577 154.874 158.181  0.00  0.00    -0.082 Cl
ATOM     18  H   UNL     1     150.928 157.984 152.900  0.00  0.00    +0.000 HD
ATOM     19  H   UNL     1     154.456 156.031 151.511  0.00  0.00    +0.000 HD
ATOM     20  H   UNL     1     150.094 157.558 156.947  0.00  0.00    +0.000 HD
ENDROOT
TORSDOF 0
ENDMDL
MODEL 4
REMARK VINA RESULT:    -6.882      4.239      7.189
REMARK INTER + INTRA:          -6.882
REMARK INTER:                  -6.882
REMARK INTRA:                   0.000
REMARK UNBOUND:                 0.000
REMARK  Name = /home/vital/Documents/PhD_2021/Malaria_codes/scripts/../data/pdbqt_ligands/ligand_217_temp.pdb
REMARK                            x       y       z     vdW  Elec       q    Type
REMARK                         _______ _______ _______ _____ _____    ______ ____
ROOT
ATOM      1  C1  UNL     1     150.919 159.425 157.236  0.00  0.00    +0.041 C 
ATOM      2  C2  UNL     1     150.937 157.880 157.145  0.00  0.00    +0.123 C 
ATOM      3  N1  UNL     1     150.617 157.350 158.471  0.00  0.00    -0.254 NA
ATOM      4  C3  UNL     1     151.448 157.625 159.408  0.00  0.00    +0.078 C 
ATOM      5  N2  UNL     1     151.349 157.221 160.713  0.00  0.00    -0.333 N 
ATOM      6  C4  UNL     1     150.109 156.707 161.279  0.00  0.00    +0.033 C 
ATOM      7  C5  UNL     1     149.816 155.277 160.823  0.00  0.00    +0.060 C 
ATOM      8  O1  UNL     1     148.721 154.745 161.566  0.00  0.00    -0.393 OA
ATOM      9  N3  UNL     1     152.225 157.413 156.647  0.00  0.00    -0.321 N 
ATOM     10  C6  UNL     1     152.243 157.164 155.252  0.00  0.00    +0.047 A 
ATOM     11  C7  UNL     1     152.359 158.235 154.356  0.00  0.00    -0.038 A 
ATOM     12  C8  UNL     1     152.346 158.014 152.977  0.00  0.00    -0.042 A 
ATOM     13  C9  UNL     1     152.212 156.718 152.481  0.00  0.00    +0.042 A 
ATOM     14 CL1  UNL     1     152.195 156.452 150.782  0.00  0.00    -0.083 Cl
ATOM     15  C10 UNL     1     152.087 155.637 153.350  0.00  0.00    -0.023 A 
ATOM     16  C11 UNL     1     152.101 155.863 154.727  0.00  0.00    +0.063 A 
ATOM     17 CL2  UNL     1     151.925 154.510 155.788  0.00  0.00    -0.082 Cl
ATOM     18  H   UNL     1     152.145 157.280 161.289  0.00  0.00    +0.000 HD
ATOM     19  H   UNL     1     148.945 154.738 162.510  0.00  0.00    +0.000 HD
ATOM     20  H   UNL     1     153.010 157.282 157.227  0.00  0.00    +0.000 HD
ENDROOT
TORSDOF 0
ENDMDL
MODEL 5
REMARK VINA RESULT:    -6.484      5.124      7.806
REMARK INTER + INTRA:          -6.484
REMARK INTER:                  -6.484
REMARK INTRA:                   0.000
REMARK UNBOUND:                 0.000
REMARK  Name = /home/vital/Documents/PhD_2021/Malaria_codes/scripts/../data/pdbqt_ligands/ligand_217_temp.pdb
REMARK                            x       y       z     vdW  Elec       q    Type
REMARK                         _______ _______ _______ _____ _____    ______ ____
ROOT
ATOM      1  C1  UNL     1     150.485 159.077 161.893  0.00  0.00    +0.041 C 
ATOM      2  C2  UNL     1     150.548 157.542 161.705  0.00  0.00    +0.123 C 
ATOM      3  N1  UNL     1     150.389 156.924 163.022  0.00  0.00    -0.254 NA
ATOM      4  C3  UNL     1     151.305 157.178 163.882  0.00  0.00    +0.078 C 
ATOM      5  N2  UNL     1     151.359 156.695 165.163  0.00  0.00    -0.333 N 
ATOM      6  C4  UNL     1     150.205 156.098 165.822  0.00  0.00    +0.033 C 
ATOM      7  C5  UNL     1     149.916 154.686 165.310  0.00  0.00    +0.060 C 
ATOM      8  O1  UNL     1     148.926 154.066 166.129  0.00  0.00    -0.393 OA
ATOM      9  N3  UNL     1     151.790 157.159 161.048  0.00  0.00    -0.321 N 
ATOM     10  C6  UNL     1     151.668 156.993 159.646  0.00  0.00    +0.047 A 
ATOM     11  C7  UNL     1     151.651 158.118 158.811  0.00  0.00    -0.038 A 
ATOM     12  C8  UNL     1     151.499 157.977 157.429  0.00  0.00    -0.042 A 
ATOM     13  C9  UNL     1     151.359 156.708 156.871  0.00  0.00    +0.042 A 
ATOM     14 CL1  UNL     1     151.171 156.541 155.169  0.00  0.00    -0.083 Cl
ATOM     15  C10 UNL     1     151.365 155.574 157.678  0.00  0.00    -0.023 A 
ATOM     16  C11 UNL     1     151.518 155.720 159.058  0.00  0.00    +0.063 A 
ATOM     17 CL2  UNL     1     151.503 154.301 160.045  0.00  0.00    -0.082 Cl
ATOM     18  H   UNL     1     152.209 156.753 165.655  0.00  0.00    +0.000 HD
ATOM     19  H   UNL     1     149.249 154.014 167.042  0.00  0.00    +0.000 HD
ATOM     20  H   UNL     1     152.637 157.027 161.533  0.00  0.00    +0.000 HD
ENDROOT
TORSDOF 0
ENDMDL
MODEL 6
REMARK VINA RESULT:    -6.314      4.744      7.260
REMARK INTER + INTRA:          -6.314
REMARK INTER:                  -6.314
REMARK INTRA:                   0.000
REMARK UNBOUND:                 0.000
REMARK  Name = /home/vital/Documents/PhD_2021/Malaria_codes/scripts/../data/pdbqt_ligands/ligand_217_temp.pdb
REMARK                            x       y       z     vdW  Elec       q    Type
REMARK                         _______ _______ _______ _____ _____    ______ ____
ROOT
ATOM      1  C1  UNL     1     151.607 154.134 160.884  0.00  0.00    +0.041 C 
ATOM      2  C2  UNL     1     151.469 155.667 161.045  0.00  0.00    +0.123 C 
ATOM      3  N1  UNL     1     151.469 155.968 162.477  0.00  0.00    -0.254 NA
ATOM      4  C3  UNL     1     150.495 155.486 163.158  0.00  0.00    +0.078 C 
ATOM      5  N2  UNL     1     150.294 155.656 164.503  0.00  0.00    -0.333 N 
ATOM      6  C4  UNL     1     151.344 156.126 165.396  0.00  0.00    +0.033 C 
ATOM      7  C5  UNL     1     151.594 157.628 165.252  0.00  0.00    +0.060 C 
ATOM      8  O1  UNL     1     152.465 158.077 166.288  0.00  0.00    -0.393 OA
ATOM      9  N3  UNL     1     150.271 156.146 160.368  0.00  0.00    -0.321 N 
ATOM     10  C6  UNL     1     150.511 156.638 159.061  0.00  0.00    +0.047 A 
ATOM     11  C7  UNL     1     150.674 155.739 157.998  0.00  0.00    -0.038 A 
ATOM     12  C8  UNL     1     150.942 156.203 156.708  0.00  0.00    -0.042 A 
ATOM     13  C9  UNL     1     151.057 157.572 156.471  0.00  0.00    +0.042 A 
ATOM     14 CL1  UNL     1     151.390 158.137 154.881  0.00  0.00    -0.083 Cl
ATOM     15  C10 UNL     1     150.908 158.486 157.511  0.00  0.00    -0.023 A 
ATOM     16  C11 UNL     1     150.639 158.017 158.797  0.00  0.00    +0.063 A 
ATOM     17 CL2  UNL     1     150.477 159.167 160.078  0.00  0.00    -0.082 Cl
ATOM     18  H   UNL     1     149.407 155.454 164.879  0.00  0.00    +0.000 HD
ATOM     19  H   UNL     1     152.057 157.903 167.151  0.00  0.00    +0.000 HD
ATOM     20  H   UNL     1     149.377 156.130 160.781  0.00  0.00    +0.000 HD
ENDROOT
TORSDOF 0
ENDMDL
MODEL 7
REMARK VINA RESULT:    -6.074      3.867      4.683
REMARK INTER + INTRA:          -6.074
REMARK INTER:                  -6.074
REMARK INTRA:                   0.000
REMARK UNBOUND:                 0.000
REMARK  Name = /home/vital/Documents/PhD_2021/Malaria_codes/scripts/../data/pdbqt_ligands/ligand_217_temp.pdb
REMARK                            x       y       z     vdW  Elec       q    Type
REMARK                         _______ _______ _______ _____ _____    ______ ____
ROOT
ATOM      1  C1  UNL     1     149.508 154.459 159.988  0.00  0.00    +0.041 C 
ATOM      2  C2  UNL     1     150.315 155.706 160.425  0.00  0.00    +0.123 C 
ATOM      3  N1  UNL     1     150.722 156.421 159.216  0.00  0.00    -0.254 NA
ATOM      4  C3  UNL     1     151.509 155.793 158.422  0.00  0.00    +0.078 C 
ATOM      5  N2  UNL     1     152.020 156.279 157.248  0.00  0.00    -0.333 N 
ATOM      6  C4  UNL     1     151.467 157.449 156.580  0.00  0.00    +0.033 C 
ATOM      7  C5  UNL     1     151.859 158.751 157.279  0.00  0.00    +0.060 C 
ATOM      8  O1  UNL     1     151.483 159.867 156.475  0.00  0.00    -0.393 OA
ATOM      9  N3  UNL     1     151.446 155.315 161.257  0.00  0.00    -0.321 N 
ATOM     10  C6  UNL     1     151.189 155.403 162.648  0.00  0.00    +0.047 A 
ATOM     11  C7  UNL     1     150.456 154.394 163.286  0.00  0.00    -0.038 A 
ATOM     12  C8  UNL     1     150.166 154.478 164.650  0.00  0.00    -0.042 A 
ATOM     13  C9  UNL     1     150.603 155.576 165.387  0.00  0.00    +0.042 A 
ATOM     14 CL1  UNL     1     150.240 155.675 167.066  0.00  0.00    -0.083 Cl
ATOM     15  C10 UNL     1     151.326 156.597 164.777  0.00  0.00    -0.023 A 
ATOM     16  C11 UNL     1     151.614 156.508 163.415  0.00  0.00    +0.063 A 
ATOM     17 CL2  UNL     1     152.497 157.795 162.671  0.00  0.00    -0.082 Cl
ATOM     18  H   UNL     1     152.790 155.820 156.840  0.00  0.00    +0.000 HD
ATOM     19  H   UNL     1     151.937 159.816 155.619  0.00  0.00    +0.000 HD
ATOM     20  H   UNL     1     152.308 155.018 160.887  0.00  0.00    +0.000 HD
ENDROOT
TORSDOF 0
ENDMDL
MODEL 8
REMARK VINA RESULT:    -6.060      4.752      7.437
REMARK INTER + INTRA:          -6.060
REMARK INTER:                  -6.060
REMARK INTRA:                   0.000
REMARK UNBOUND:                 0.000
REMARK  Name = /home/vital/Documents/PhD_2021/Malaria_codes/scripts/../data/pdbqt_ligands/ligand_217_temp.pdb
REMARK                            x       y       z     vdW  Elec       q    Type
REMARK                         _______ _______ _______ _____ _____    ______ ____
ROOT
ATOM      1  C1  UNL     1     152.462 156.058 162.080  0.00  0.00    +0.041 C 
ATOM      2  C2  UNL     1     152.310 157.573 161.804  0.00  0.00    +0.123 C 
ATOM      3  N1  UNL     1     152.479 158.278 163.075  0.00  0.00    -0.254 NA
ATOM      4  C3  UNL     1     151.609 158.029 163.983  0.00  0.00    +0.078 C 
ATOM      5  N2  UNL     1     151.573 158.587 165.234  0.00  0.00    -0.333 N 
ATOM      6  C4  UNL     1     152.715 159.282 165.813  0.00  0.00    +0.033 C 
ATOM      7  C5  UNL     1     152.909 160.673 165.208  0.00  0.00    +0.060 C 
ATOM      8  O1  UNL     1     153.891 161.392 165.951  0.00  0.00    -0.393 OA
ATOM      9  N3  UNL     1     151.026 157.850 161.173  0.00  0.00    -0.321 N 
ATOM     10  C6  UNL     1     151.090 157.937 159.760  0.00  0.00    +0.047 A 
ATOM     11  C7  UNL     1     151.140 156.765 158.993  0.00  0.00    -0.038 A 
ATOM     12  C8  UNL     1     151.235 156.830 157.600  0.00  0.00    -0.042 A 
ATOM     13  C9  UNL     1     151.287 158.068 156.963  0.00  0.00    +0.042 A 
ATOM     14 CL1  UNL     1     151.407 158.140 155.249  0.00  0.00    -0.083 Cl
ATOM     15  C10 UNL     1     151.247 159.247 157.702  0.00  0.00    -0.023 A 
ATOM     16  C11 UNL     1     151.151 159.177 159.092  0.00  0.00    +0.063 A 
ATOM     17 CL2  UNL     1     151.122 160.653 159.994  0.00  0.00    -0.082 Cl
ATOM     18  H   UNL     1     150.745 158.514 165.761  0.00  0.00    +0.000 HD
ATOM     19  H   UNL     1     153.598 161.484 166.871  0.00  0.00    +0.000 HD
ATOM     20  H   UNL     1     150.191 157.967 161.681  0.00  0.00    +0.000 HD
ENDROOT
TORSDOF 0
ENDMDL
MODEL 9
REMARK VINA RESULT:    -5.943      2.512      3.527
REMARK INTER + INTRA:          -5.943
REMARK INTER:                  -5.943
REMARK INTRA:                   0.000
REMARK UNBOUND:                 0.000
REMARK  Name = /home/vital/Documents/PhD_2021/Malaria_codes/scripts/../data/pdbqt_ligands/ligand_217_temp.pdb
REMARK                            x       y       z     vdW  Elec       q    Type
REMARK                         _______ _______ _______ _____ _____    ______ ____
ROOT
ATOM      1  C1  UNL     1     151.518 161.550 158.468  0.00  0.00    +0.041 C 
ATOM      2  C2  UNL     1     151.619 160.081 158.947  0.00  0.00    +0.123 C 
ATOM      3  N1  UNL     1     151.709 159.230 157.760  0.00  0.00    -0.254 NA
ATOM      4  C3  UNL     1     150.696 159.242 156.975  0.00  0.00    +0.078 C 
ATOM      5  N2  UNL     1     150.565 158.513 155.821  0.00  0.00    -0.333 N 
ATOM      6  C4  UNL     1     151.702 157.886 155.161  0.00  0.00    +0.033 C 
ATOM      7  C5  UNL     1     152.171 156.627 155.893  0.00  0.00    +0.060 C 
ATOM      8  O1  UNL     1     153.132 155.934 155.100  0.00  0.00    -0.393 OA
ATOM      9  N3  UNL     1     150.486 159.744 159.798  0.00  0.00    -0.321 N 
ATOM     10  C6  UNL     1     150.756 159.866 161.184  0.00  0.00    +0.047 A 
ATOM     11  C7  UNL     1     150.747 161.131 161.786  0.00  0.00    -0.038 A 
ATOM     12  C8  UNL     1     151.041 161.276 163.144  0.00  0.00    -0.042 A 
ATOM     13  C9  UNL     1     151.353 160.155 163.911  0.00  0.00    +0.042 A 
ATOM     14 CL1  UNL     1     151.717 160.340 165.582  0.00  0.00    -0.083 Cl
ATOM     15  C10 UNL     1     151.377 158.887 163.336  0.00  0.00    -0.023 A 
ATOM     16  C11 UNL     1     151.081 158.748 161.980  0.00  0.00    +0.063 A 
ATOM     17 CL2  UNL     1     151.135 157.168 161.280  0.00  0.00    -0.082 Cl
ATOM     18  H   UNL     1     149.671 158.410 155.424  0.00  0.00    +0.000 HD
ATOM     19  H   UNL     1     152.730 155.679 154.255  0.00  0.00    +0.000 HD
ATOM     20  H   UNL     1     149.613 159.457 159.443  0.00  0.00    +0.000 HD
ENDROOT
TORSDOF 0
ENDMDL
