MODEL 1
REMARK VINA RESULT:    -4.547      0.000      0.000
REMARK INTER + INTRA:          -4.547
REMARK INTER:                  -4.547
REMARK INTRA:                   0.000
REMARK UNBOUND:                 0.000
REMARK  Name = /home/vital/Documents/PhD_2021/Malaria_codes/scripts/../data/pdbqt_ligands/ligand_338_temp.pdb
REMARK                            x       y       z     vdW  Elec       q    Type
REMARK                         _______ _______ _______ _____ _____    ______ ____
ROOT
ATOM      1  C1  UNL     1     156.838 153.016 151.942  0.00  0.00    -0.045 C 
ATOM      2  C2  UNL     1     156.563 154.258 151.159  0.00  0.00    -0.074 C 
ATOM      3  C3  UNL     1     155.484 155.044 151.243  0.00  0.00    -0.014 C 
ATOM      4  N1  UNL     1     154.392 154.906 152.063  0.00  0.00    -0.331 N 
ATOM      5  C4  UNL     1     153.417 155.940 152.337  0.00  0.00    +0.114 C 
ATOM      6 CL1  UNL     1     152.421 156.180 150.888  0.00  0.00    -0.096 Cl
ATOM      7  C5  UNL     1     152.542 155.460 153.458  0.00  0.00    -0.052 C 
ATOM      8  C6  UNL     1     152.513 155.996 154.691  0.00  0.00    -0.071 C 
ATOM      9  C7  UNL     1     151.625 155.518 155.797  0.00  0.00    +0.041 C 
ATOM     10 CL2  UNL     1     150.558 156.841 156.309  0.00  0.00    -0.121 Cl
ATOM     11  H   UNL     1     154.261 154.034 152.500  0.00  0.00    +0.000 HD
ENDROOT
TORSDOF 0
ENDMDL
MODEL 2
REMARK VINA RESULT:    -4.260      3.603      6.812
REMARK INTER + INTRA:          -4.260
REMARK INTER:                  -4.260
REMARK INTRA:                   0.000
REMARK UNBOUND:                 0.000
REMARK  Name = /home/vital/Documents/PhD_2021/Malaria_codes/scripts/../data/pdbqt_ligands/ligand_338_temp.pdb
REMARK                            x       y       z     vdW  Elec       q    Type
REMARK                         _______ _______ _______ _____ _____    ______ ____
ROOT
ATOM      1  C1  UNL     1     151.502 155.553 150.882  0.00  0.00    -0.045 C 
ATOM      2  C2  UNL     1     152.640 155.986 151.747  0.00  0.00    -0.074 C 
ATOM      3  C3  UNL     1     153.891 155.515 151.733  0.00  0.00    -0.014 C 
ATOM      4  N1  UNL     1     154.425 154.542 150.925  0.00  0.00    -0.331 N 
ATOM      5  C4  UNL     1     155.839 154.296 150.734  0.00  0.00    +0.114 C 
ATOM      6 CL1  UNL     1     156.492 153.564 152.213  0.00  0.00    -0.096 Cl
ATOM      7  C5  UNL     1     155.987 153.324 149.600  0.00  0.00    -0.052 C 
ATOM      8  C6  UNL     1     156.529 153.618 148.405  0.00  0.00    -0.071 C 
ATOM      9  C7  UNL     1     156.684 152.635 147.287  0.00  0.00    +0.041 C 
ATOM     10 CL2  UNL     1     158.404 152.475 146.879  0.00  0.00    -0.121 Cl
ATOM     11  H   UNL     1     153.796 153.964 150.436  0.00  0.00    +0.000 HD
ENDROOT
TORSDOF 0
ENDMDL
MODEL 3
REMARK VINA RESULT:    -4.172     16.648     17.530
REMARK INTER + INTRA:          -4.172
REMARK INTER:                  -4.172
REMARK INTRA:                   0.000
REMARK UNBOUND:                 0.000
REMARK  Name = /home/vital/Documents/PhD_2021/Malaria_codes/scripts/../data/pdbqt_ligands/ligand_338_temp.pdb
REMARK                            x       y       z     vdW  Elec       q    Type
REMARK                         _______ _______ _______ _____ _____    ______ ____
ROOT
ATOM      1  C1  UNL     1     163.711 153.555 167.010  0.00  0.00    -0.045 C 
ATOM      2  C2  UNL     1     163.366 154.731 167.862  0.00  0.00    -0.074 C 
ATOM      3  C3  UNL     1     163.715 156.007 167.658  0.00  0.00    -0.014 C 
ATOM      4  N1  UNL     1     164.454 156.533 166.628  0.00  0.00    -0.331 N 
ATOM      5  C4  UNL     1     164.533 157.938 166.287  0.00  0.00    +0.114 C 
ATOM      6 CL1  UNL     1     165.490 158.769 167.529  0.00  0.00    -0.096 Cl
ATOM      7  C5  UNL     1     165.238 158.051 164.968  0.00  0.00    -0.052 C 
ATOM      8  C6  UNL     1     164.662 158.463 163.824  0.00  0.00    -0.071 C 
ATOM      9  C7  UNL     1     165.379 158.586 162.517  0.00  0.00    +0.041 C 
ATOM     10 CL2  UNL     1     165.304 160.270 161.961  0.00  0.00    -0.121 Cl
ATOM     11  H   UNL     1     164.972 155.905 166.076  0.00  0.00    +0.000 HD
ENDROOT
TORSDOF 0
ENDMDL
MODEL 4
REMARK VINA RESULT:    -3.850      4.943      7.511
REMARK INTER + INTRA:          -3.850
REMARK INTER:                  -3.850
REMARK INTRA:                   0.000
REMARK UNBOUND:                 0.000
REMARK  Name = /home/vital/Documents/PhD_2021/Malaria_codes/scripts/../data/pdbqt_ligands/ligand_338_temp.pdb
REMARK                            x       y       z     vdW  Elec       q    Type
REMARK                         _______ _______ _______ _____ _____    ______ ____
ROOT
ATOM      1  C1  UNL     1     152.235 163.386 156.524  0.00  0.00    -0.045 C 
ATOM      2  C2  UNL     1     151.828 162.545 157.689  0.00  0.00    -0.074 C 
ATOM      3  C3  UNL     1     151.490 161.251 157.673  0.00  0.00    -0.014 C 
ATOM      4  N1  UNL     1     151.446 160.396 156.601  0.00  0.00    -0.331 N 
ATOM      5  C4  UNL     1     151.384 158.952 156.684  0.00  0.00    +0.114 C 
ATOM      6 CL1  UNL     1     149.767 158.485 157.247  0.00  0.00    -0.096 Cl
ATOM      7  C5  UNL     1     151.600 158.403 155.304  0.00  0.00    -0.052 C 
ATOM      8  C6  UNL     1     152.678 157.695 154.921  0.00  0.00    -0.071 C 
ATOM      9  C7  UNL     1     152.875 157.140 153.546  0.00  0.00    +0.041 C 
ATOM     10 CL2  UNL     1     153.023 155.374 153.641  0.00  0.00    -0.121 Cl
ATOM     11  H   UNL     1     151.458 160.796 155.702  0.00  0.00    +0.000 HD
ENDROOT
TORSDOF 0
ENDMDL
MODEL 5
REMARK VINA RESULT:    -3.537      3.000      3.789
REMARK INTER + INTRA:          -3.537
REMARK INTER:                  -3.537
REMARK INTRA:                   0.000
REMARK UNBOUND:                 0.000
REMARK  Name = /home/vital/Documents/PhD_2021/Malaria_codes/scripts/../data/pdbqt_ligands/ligand_338_temp.pdb
REMARK                            x       y       z     vdW  Elec       q    Type
REMARK                         _______ _______ _______ _____ _____    ______ ____
ROOT
ATOM      1  C1  UNL     1     155.550 153.058 147.082  0.00  0.00    -0.045 C 
ATOM      2  C2  UNL     1     156.126 152.265 148.209  0.00  0.00    -0.074 C 
ATOM      3  C3  UNL     1     156.276 152.656 149.479  0.00  0.00    -0.014 C 
ATOM      4  N1  UNL     1     155.932 153.858 150.046  0.00  0.00    -0.331 N 
ATOM      5  C4  UNL     1     155.824 154.113 151.466  0.00  0.00    +0.114 C 
ATOM      6 CL1  UNL     1     157.455 154.138 152.165  0.00  0.00    -0.096 Cl
ATOM      7  C5  UNL     1     155.194 155.463 151.644  0.00  0.00    -0.052 C 
ATOM      8  C6  UNL     1     153.971 155.676 152.161  0.00  0.00    -0.071 C 
ATOM      9  C7  UNL     1     153.359 157.029 152.347  0.00  0.00    +0.041 C 
ATOM     10 CL2  UNL     1     153.010 157.285 154.068  0.00  0.00    -0.121 Cl
ATOM     11  H   UNL     1     155.745 154.609 149.437  0.00  0.00    +0.000 HD
ENDROOT
TORSDOF 0
ENDMDL
MODEL 6
REMARK VINA RESULT:    -3.470      2.127      5.466
REMARK INTER + INTRA:          -3.470
REMARK INTER:                  -3.470
REMARK INTRA:                   0.000
REMARK UNBOUND:                 0.000
REMARK  Name = /home/vital/Documents/PhD_2021/Malaria_codes/scripts/../data/pdbqt_ligands/ligand_338_temp.pdb
REMARK                            x       y       z     vdW  Elec       q    Type
REMARK                         _______ _______ _______ _____ _____    ______ ____
ROOT
ATOM      1  C1  UNL     1     152.564 156.269 156.334  0.00  0.00    -0.045 C 
ATOM      2  C2  UNL     1     151.597 155.842 155.280  0.00  0.00    -0.074 C 
ATOM      3  C3  UNL     1     151.846 155.663 153.978  0.00  0.00    -0.014 C 
ATOM      4  N1  UNL     1     153.036 155.816 153.311  0.00  0.00    -0.331 N 
ATOM      5  C4  UNL     1     153.322 155.311 151.985  0.00  0.00    +0.114 C 
ATOM      6 CL1  UNL     1     152.421 156.279 150.802  0.00  0.00    -0.096 Cl
ATOM      7  C5  UNL     1     154.793 155.481 151.737  0.00  0.00    -0.052 C 
ATOM      8  C6  UNL     1     155.671 154.469 151.617  0.00  0.00    -0.071 C 
ATOM      9  C7  UNL     1     157.133 154.650 151.355  0.00  0.00    +0.041 C 
ATOM     10 CL2  UNL     1     157.562 153.846 149.831  0.00  0.00    -0.121 Cl
ATOM     11  H   UNL     1     153.752 156.310 153.770  0.00  0.00    +0.000 HD
ENDROOT
TORSDOF 0
ENDMDL
MODEL 7
REMARK VINA RESULT:    -3.236      3.752      5.066
REMARK INTER + INTRA:          -3.236
REMARK INTER:                  -3.236
REMARK INTRA:                   0.000
REMARK UNBOUND:                 0.000
REMARK  Name = /home/vital/Documents/PhD_2021/Malaria_codes/scripts/../data/pdbqt_ligands/ligand_338_temp.pdb
REMARK                            x       y       z     vdW  Elec       q    Type
REMARK                         _______ _______ _______ _____ _____    ______ ____
ROOT
ATOM      1  C1  UNL     1     153.338 156.935 152.911  0.00  0.00    -0.045 C 
ATOM      2  C2  UNL     1     152.776 155.653 153.432  0.00  0.00    -0.074 C 
ATOM      3  C3  UNL     1     152.300 155.419 154.660  0.00  0.00    -0.014 C 
ATOM      4  N1  UNL     1     152.204 156.290 155.716  0.00  0.00    -0.331 N 
ATOM      5  C4  UNL     1     151.402 156.082 156.903  0.00  0.00    +0.114 C 
ATOM      6 CL1  UNL     1     152.165 154.817 157.888  0.00  0.00    -0.096 Cl
ATOM      7  C5  UNL     1     151.389 157.365 157.680  0.00  0.00    -0.052 C 
ATOM      8  C6  UNL     1     150.304 158.140 157.860  0.00  0.00    -0.071 C 
ATOM      9  C7  UNL     1     150.299 159.411 158.649  0.00  0.00    +0.041 C 
ATOM     10 CL2  UNL     1     149.152 159.264 159.995  0.00  0.00    -0.121 Cl
ATOM     11  H   UNL     1     152.723 157.125 155.663  0.00  0.00    +0.000 HD
ENDROOT
TORSDOF 0
ENDMDL
MODEL 8
REMARK VINA RESULT:    -2.975      3.618      4.267
REMARK INTER + INTRA:          -2.975
REMARK INTER:                  -2.975
REMARK INTRA:                   0.000
REMARK UNBOUND:                 0.000
REMARK  Name = /home/vital/Documents/PhD_2021/Malaria_codes/scripts/../data/pdbqt_ligands/ligand_338_temp.pdb
REMARK                            x       y       z     vdW  Elec       q    Type
REMARK                         _______ _______ _______ _____ _____    ______ ____
ROOT
ATOM      1  C1  UNL     1     151.932 155.574 151.695  0.00  0.00    -0.045 C 
ATOM      2  C2  UNL     1     152.797 156.717 152.114  0.00  0.00    -0.074 C 
ATOM      3  C3  UNL     1     152.789 157.347 153.294  0.00  0.00    -0.014 C 
ATOM      4  N1  UNL     1     152.002 157.092 154.389  0.00  0.00    -0.331 N 
ATOM      5  C4  UNL     1     152.247 157.585 155.728  0.00  0.00    +0.114 C 
ATOM      6 CL1  UNL     1     151.903 159.326 155.763  0.00  0.00    -0.096 Cl
ATOM      7  C5  UNL     1     151.302 156.880 156.656  0.00  0.00    -0.052 C 
ATOM      8  C6  UNL     1     151.672 155.998 157.602  0.00  0.00    -0.071 C 
ATOM      9  C7  UNL     1     150.721 155.313 158.532  0.00  0.00    +0.041 C 
ATOM     10 CL2  UNL     1     151.136 155.727 160.208  0.00  0.00    -0.121 Cl
ATOM     11  H   UNL     1     151.206 156.529 154.254  0.00  0.00    +0.000 HD
ENDROOT
TORSDOF 0
ENDMDL
MODEL 9
REMARK VINA RESULT:    -2.950      3.942      5.351
REMARK INTER + INTRA:          -2.950
REMARK INTER:                  -2.950
REMARK INTRA:                   0.000
REMARK UNBOUND:                 0.000
REMARK  Name = /home/vital/Documents/PhD_2021/Malaria_codes/scripts/../data/pdbqt_ligands/ligand_338_temp.pdb
REMARK                            x       y       z     vdW  Elec       q    Type
REMARK                         _______ _______ _______ _____ _____    ______ ____
ROOT
ATOM      1  C1  UNL     1     152.617 155.768 153.258  0.00  0.00    -0.045 C 
ATOM      2  C2  UNL     1     152.811 157.170 153.734  0.00  0.00    -0.074 C 
ATOM      3  C3  UNL     1     152.299 157.727 154.836  0.00  0.00    -0.014 C 
ATOM      4  N1  UNL     1     151.494 157.150 155.787  0.00  0.00    -0.331 N 
ATOM      5  C4  UNL     1     151.232 157.693 157.103  0.00  0.00    +0.114 C 
ATOM      6 CL1  UNL     1     150.180 159.112 156.933  0.00  0.00    -0.096 Cl
ATOM      7  C5  UNL     1     150.513 156.643 157.898  0.00  0.00    -0.052 C 
ATOM      8  C6  UNL     1     151.026 156.003 158.964  0.00  0.00    -0.071 C 
ATOM      9  C7  UNL     1     150.293 154.968 159.758  0.00  0.00    +0.041 C 
ATOM     10 CL2  UNL     1     150.148 155.512 161.441  0.00  0.00    -0.121 Cl
ATOM     11  H   UNL     1     151.059 156.298 155.555  0.00  0.00    +0.000 HD
ENDROOT
TORSDOF 0
ENDMDL
