MODEL 1
REMARK VINA RESULT:    -3.587      0.000      0.000
REMARK INTER + INTRA:          -3.587
REMARK INTER:                  -3.587
REMARK INTRA:                   0.000
REMARK UNBOUND:                 0.000
REMARK  Name = /home/vital/Documents/PhD_2021/Malaria_codes/scripts/../data/pdbqt_ligands/ligand_1_temp.pdb
REMARK                            x       y       z     vdW  Elec       q    Type
REMARK                         _______ _______ _______ _____ _____    ______ ____
ROOT
ATOM      1  C   UNL     1     148.575 154.041 161.833  0.00  0.00    -0.080 C 
ATOM      2  C   UNL     1     149.550 154.057 160.668  0.00  0.00    -0.093 C 
ATOM      3  N   UNL     1     150.450 155.270 160.673  0.00  0.00    +0.380 N 
ATOM      4  C   UNL     1     151.422 155.282 161.823  0.00  0.00    -0.103 C 
ATOM      5  C   UNL     1     149.708 156.580 160.500  0.00  0.00    -0.065 C 
ATOM      6  C   UNL     1     150.578 157.669 159.933  0.00  0.00    -0.057 A 
ATOM      7  C   UNL     1     150.819 157.751 158.547  0.00  0.00    -0.015 A 
ATOM      8  C   UNL     1     151.662 158.741 158.033  0.00  0.00    +0.165 A 
ATOM      9  O   UNL     1     151.984 158.918 156.712  0.00  0.00    -0.491 OA
ATOM     10  C   UNL     1     151.374 158.049 155.761  0.00  0.00    +0.079 C 
ATOM     11  C   UNL     1     152.270 159.652 158.910  0.00  0.00    +0.201 A 
ATOM     12  O   UNL     1     153.145 160.575 158.402  0.00  0.00    -0.501 OA
ATOM     13  C   UNL     1     152.019 159.597 160.281  0.00  0.00    +0.165 A 
ATOM     14  O   UNL     1     152.615 160.410 161.208  0.00  0.00    -0.491 OA
ATOM     15  C   UNL     1     152.260 161.781 161.034  0.00  0.00    +0.079 C 
ATOM     16  C   UNL     1     151.189 158.598 160.790  0.00  0.00    -0.015 A 
ATOM     17  H   UNL     1     151.022 155.179 159.833  0.00  0.00    +0.000 HD
ATOM     18  H   UNL     1     153.310 160.608 157.480  0.00  0.00    +0.000 HD
ENDROOT
TORSDOF 0
ENDMDL
MODEL 2
REMARK VINA RESULT:    -3.541      1.754      2.341
REMARK INTER + INTRA:          -3.541
REMARK INTER:                  -3.541
REMARK INTRA:                   0.000
REMARK UNBOUND:                 0.000
REMARK  Name = /home/vital/Documents/PhD_2021/Malaria_codes/scripts/../data/pdbqt_ligands/ligand_1_temp.pdb
REMARK                            x       y       z     vdW  Elec       q    Type
REMARK                         _______ _______ _______ _____ _____    ______ ____
ROOT
ATOM      1  C   UNL     1     149.412 154.411 160.836  0.00  0.00    -0.080 C 
ATOM      2  C   UNL     1     150.495 155.098 160.019  0.00  0.00    -0.093 C 
ATOM      3  N   UNL     1     150.992 156.372 160.659  0.00  0.00    +0.380 N 
ATOM      4  C   UNL     1     151.747 156.137 161.941  0.00  0.00    -0.103 C 
ATOM      5  C   UNL     1     149.933 157.450 160.775  0.00  0.00    -0.065 C 
ATOM      6  C   UNL     1     150.518 158.834 160.847  0.00  0.00    -0.057 A 
ATOM      7  C   UNL     1     150.917 159.509 159.676  0.00  0.00    -0.015 A 
ATOM      8  C   UNL     1     151.499 160.778 159.753  0.00  0.00    +0.165 A 
ATOM      9  O   UNL     1     151.938 161.529 158.693  0.00  0.00    -0.491 OA
ATOM     10  C   UNL     1     151.748 161.000 157.384  0.00  0.00    +0.079 C 
ATOM     11  C   UNL     1     151.685 161.374 161.009  0.00  0.00    +0.201 A 
ATOM     12  O   UNL     1     152.316 162.589 161.078  0.00  0.00    -0.501 OA
ATOM     13  C   UNL     1     151.271 160.728 162.174  0.00  0.00    +0.165 A 
ATOM     14  O   UNL     1     151.467 161.214 163.439  0.00  0.00    -0.491 OA
ATOM     15  C   UNL     1     150.757 162.430 163.668  0.00  0.00    +0.079 C 
ATOM     16  C   UNL     1     150.705 159.456 162.091  0.00  0.00    -0.015 A 
ATOM     17  H   UNL     1     151.678 156.748 160.004  0.00  0.00    +0.000 HD
ATOM     18  H   UNL     1     152.593 163.019 160.293  0.00  0.00    +0.000 HD
ENDROOT
TORSDOF 0
ENDMDL
MODEL 3
REMARK VINA RESULT:    -3.263      6.499      8.749
REMARK INTER + INTRA:          -3.263
REMARK INTER:                  -3.263
REMARK INTRA:                   0.000
REMARK UNBOUND:                 0.000
REMARK  Name = /home/vital/Documents/PhD_2021/Malaria_codes/scripts/../data/pdbqt_ligands/ligand_1_temp.pdb
REMARK                            x       y       z     vdW  Elec       q    Type
REMARK                         _______ _______ _______ _____ _____    ______ ____
ROOT
ATOM      1  C   UNL     1     152.849 162.415 170.253  0.00  0.00    -0.080 C 
ATOM      2  C   UNL     1     153.493 161.038 170.224  0.00  0.00    -0.093 C 
ATOM      3  N   UNL     1     153.600 160.471 168.828  0.00  0.00    +0.380 N 
ATOM      4  C   UNL     1     154.565 161.226 167.953  0.00  0.00    -0.103 C 
ATOM      5  C   UNL     1     152.259 160.222 168.167  0.00  0.00    -0.065 C 
ATOM      6  C   UNL     1     152.326 159.168 167.095  0.00  0.00    -0.057 A 
ATOM      7  C   UNL     1     152.291 157.799 167.428  0.00  0.00    -0.015 A 
ATOM      8  C   UNL     1     152.396 156.825 166.430  0.00  0.00    +0.165 A 
ATOM      9  O   UNL     1     152.388 155.469 166.624  0.00  0.00    -0.491 OA
ATOM     10  C   UNL     1     152.209 154.992 167.956  0.00  0.00    +0.079 C 
ATOM     11  C   UNL     1     152.541 157.223 165.092  0.00  0.00    +0.201 A 
ATOM     12  O   UNL     1     152.709 156.262 164.130  0.00  0.00    -0.501 OA
ATOM     13  C   UNL     1     152.551 158.575 164.747  0.00  0.00    +0.165 A 
ATOM     14  O   UNL     1     152.744 159.047 163.477  0.00  0.00    -0.491 OA
ATOM     15  C   UNL     1     151.694 158.662 162.590  0.00  0.00    +0.079 C 
ATOM     16  C   UNL     1     152.461 159.542 165.749  0.00  0.00    -0.015 A 
ATOM     17  H   UNL     1     154.009 159.544 168.948  0.00  0.00    +0.000 HD
ATOM     18  H   UNL     1     152.702 155.356 164.367  0.00  0.00    +0.000 HD
ENDROOT
TORSDOF 0
ENDMDL
MODEL 4
REMARK VINA RESULT:    -3.165      3.423      6.143
REMARK INTER + INTRA:          -3.165
REMARK INTER:                  -3.165
REMARK INTRA:                   0.000
REMARK UNBOUND:                 0.000
REMARK  Name = /home/vital/Documents/PhD_2021/Malaria_codes/scripts/../data/pdbqt_ligands/ligand_1_temp.pdb
REMARK                            x       y       z     vdW  Elec       q    Type
REMARK                         _______ _______ _______ _____ _____    ______ ____
ROOT
ATOM      1  C   UNL     1     150.439 159.320 157.115  0.00  0.00    -0.080 C 
ATOM      2  C   UNL     1     151.649 158.995 157.976  0.00  0.00    -0.093 C 
ATOM      3  N   UNL     1     151.452 157.759 158.821  0.00  0.00    +0.380 N 
ATOM      4  C   UNL     1     151.365 156.493 158.010  0.00  0.00    -0.103 C 
ATOM      5  C   UNL     1     150.344 157.892 159.847  0.00  0.00    -0.065 C 
ATOM      6  C   UNL     1     150.523 156.965 161.019  0.00  0.00    -0.057 A 
ATOM      7  C   UNL     1     151.391 157.301 162.077  0.00  0.00    -0.015 A 
ATOM      8  C   UNL     1     151.584 156.416 163.142  0.00  0.00    +0.165 A 
ATOM      9  O   UNL     1     152.407 156.620 164.219  0.00  0.00    -0.491 OA
ATOM     10  C   UNL     1     153.099 157.864 164.298  0.00  0.00    +0.079 C 
ATOM     11  C   UNL     1     150.908 155.187 163.147  0.00  0.00    +0.201 A 
ATOM     12  O   UNL     1     151.155 154.300 164.162  0.00  0.00    -0.501 OA
ATOM     13  C   UNL     1     150.026 154.854 162.118  0.00  0.00    +0.165 A 
ATOM     14  O   UNL     1     149.373 153.655 162.020  0.00  0.00    -0.491 OA
ATOM     15  C   UNL     1     148.455 153.448 163.092  0.00  0.00    +0.079 C 
ATOM     16  C   UNL     1     149.850 155.735 161.051  0.00  0.00    -0.015 A 
ATOM     17  H   UNL     1     152.309 157.673 159.370  0.00  0.00    +0.000 HD
ATOM     18  H   UNL     1     151.749 154.529 164.850  0.00  0.00    +0.000 HD
ENDROOT
TORSDOF 0
ENDMDL
MODEL 5
REMARK VINA RESULT:    -2.989      3.365      5.046
REMARK INTER + INTRA:          -2.989
REMARK INTER:                  -2.989
REMARK INTRA:                   0.000
REMARK UNBOUND:                 0.000
REMARK  Name = /home/vital/Documents/PhD_2021/Malaria_codes/scripts/../data/pdbqt_ligands/ligand_1_temp.pdb
REMARK                            x       y       z     vdW  Elec       q    Type
REMARK                         _______ _______ _______ _____ _____    ______ ____
ROOT
ATOM      1  C   UNL     1     152.614 155.830 167.262  0.00  0.00    -0.080 C 
ATOM      2  C   UNL     1     151.608 156.926 166.951  0.00  0.00    -0.093 C 
ATOM      3  N   UNL     1     151.017 156.804 165.567  0.00  0.00    +0.380 N 
ATOM      4  C   UNL     1     150.138 155.593 165.401  0.00  0.00    -0.103 C 
ATOM      5  C   UNL     1     152.034 156.965 164.454  0.00  0.00    -0.065 C 
ATOM      6  C   UNL     1     151.413 157.421 163.161  0.00  0.00    -0.057 A 
ATOM      7  C   UNL     1     151.124 158.782 162.942  0.00  0.00    -0.015 A 
ATOM      8  C   UNL     1     150.509 159.193 161.755  0.00  0.00    +0.165 A 
ATOM      9  O   UNL     1     150.166 160.480 161.430  0.00  0.00    -0.491 OA
ATOM     10  C   UNL     1     150.504 161.509 162.355  0.00  0.00    +0.079 C 
ATOM     11  C   UNL     1     150.178 158.236 160.785  0.00  0.00    +0.201 A 
ATOM     12  O   UNL     1     149.516 158.640 159.655  0.00  0.00    -0.501 OA
ATOM     13  C   UNL     1     150.482 156.888 160.978  0.00  0.00    +0.165 A 
ATOM     14  O   UNL     1     150.143 155.887 160.109  0.00  0.00    -0.491 OA
ATOM     15  C   UNL     1     150.798 156.020 158.848  0.00  0.00    +0.079 C 
ATOM     16  C   UNL     1     151.083 156.483 162.171  0.00  0.00    -0.015 A 
ATOM     17  H   UNL     1     150.395 157.608 165.472  0.00  0.00    +0.000 HD
ATOM     18  H   UNL     1     149.314 159.547 159.530  0.00  0.00    +0.000 HD
ENDROOT
TORSDOF 0
ENDMDL
MODEL 6
REMARK VINA RESULT:    -2.840      1.874      4.010
REMARK INTER + INTRA:          -2.840
REMARK INTER:                  -2.840
REMARK INTRA:                   0.000
REMARK UNBOUND:                 0.000
REMARK  Name = /home/vital/Documents/PhD_2021/Malaria_codes/scripts/../data/pdbqt_ligands/ligand_1_temp.pdb
REMARK                            x       y       z     vdW  Elec       q    Type
REMARK                         _______ _______ _______ _____ _____    ______ ____
ROOT
ATOM      1  C   UNL     1     150.847 153.966 163.286  0.00  0.00    -0.080 C 
ATOM      2  C   UNL     1     150.217 155.298 162.915  0.00  0.00    -0.093 C 
ATOM      3  N   UNL     1     150.034 155.465 161.425  0.00  0.00    +0.380 N 
ATOM      4  C   UNL     1     149.011 154.525 160.844  0.00  0.00    -0.103 C 
ATOM      5  C   UNL     1     151.336 155.488 160.650  0.00  0.00    -0.065 C 
ATOM      6  C   UNL     1     151.217 156.210 159.335  0.00  0.00    -0.057 A 
ATOM      7  C   UNL     1     151.287 157.616 159.276  0.00  0.00    -0.015 A 
ATOM      8  C   UNL     1     151.133 158.282 158.056  0.00  0.00    +0.165 A 
ATOM      9  O   UNL     1     151.168 159.640 157.870  0.00  0.00    -0.491 OA
ATOM     10  C   UNL     1     151.431 160.457 159.008  0.00  0.00    +0.079 C 
ATOM     11  C   UNL     1     150.905 157.537 156.890  0.00  0.00    +0.201 A 
ATOM     12  O   UNL     1     150.691 158.203 155.711  0.00  0.00    -0.501 OA
ATOM     13  C   UNL     1     150.860 156.143 156.930  0.00  0.00    +0.165 A 
ATOM     14  O   UNL     1     150.586 155.348 155.850  0.00  0.00    -0.491 OA
ATOM     15  C   UNL     1     151.586 155.447 154.837  0.00  0.00    +0.079 C 
ATOM     16  C   UNL     1     150.999 155.486 158.152  0.00  0.00    -0.015 A 
ATOM     17  H   UNL     1     149.643 156.400 161.308  0.00  0.00    +0.000 HD
ATOM     18  H   UNL     1     150.722 159.139 155.690  0.00  0.00    +0.000 HD
ENDROOT
TORSDOF 0
ENDMDL
MODEL 7
REMARK VINA RESULT:    -2.794      2.236      4.185
REMARK INTER + INTRA:          -2.794
REMARK INTER:                  -2.794
REMARK INTRA:                   0.000
REMARK UNBOUND:                 0.000
REMARK  Name = /home/vital/Documents/PhD_2021/Malaria_codes/scripts/../data/pdbqt_ligands/ligand_1_temp.pdb
REMARK                            x       y       z     vdW  Elec       q    Type
REMARK                         _______ _______ _______ _____ _____    ______ ____
ROOT
ATOM      1  C   UNL     1     150.091 152.891 164.949  0.00  0.00    -0.080 C 
ATOM      2  C   UNL     1     149.319 154.163 164.638  0.00  0.00    -0.093 C 
ATOM      3  N   UNL     1     149.353 154.527 163.173  0.00  0.00    +0.380 N 
ATOM      4  C   UNL     1     148.605 153.552 162.302  0.00  0.00    -0.103 C 
ATOM      5  C   UNL     1     150.741 154.850 162.657  0.00  0.00    -0.065 C 
ATOM      6  C   UNL     1     150.718 155.739 161.444  0.00  0.00    -0.057 A 
ATOM      7  C   UNL     1     150.564 157.134 161.575  0.00  0.00    -0.015 A 
ATOM      8  C   UNL     1     150.501 157.949 160.441  0.00  0.00    +0.165 A 
ATOM      9  O   UNL     1     150.342 159.311 160.436  0.00  0.00    -0.491 OA
ATOM     10  C   UNL     1     150.280 159.974 161.696  0.00  0.00    +0.079 C 
ATOM     11  C   UNL     1     150.589 157.366 159.169  0.00  0.00    +0.201 A 
ATOM     12  O   UNL     1     150.460 158.166 158.064  0.00  0.00    -0.501 OA
ATOM     13  C   UNL     1     150.768 155.989 159.025  0.00  0.00    +0.165 A 
ATOM     14  O   UNL     1     150.806 155.337 157.822  0.00  0.00    -0.491 OA
ATOM     15  C   UNL     1     151.926 155.728 157.029  0.00  0.00    +0.079 C 
ATOM     16  C   UNL     1     150.815 155.180 160.160  0.00  0.00    -0.015 A 
ATOM     17  H   UNL     1     148.837 155.405 163.105  0.00  0.00    +0.000 HD
ATOM     18  H   UNL     1     150.340 159.090 158.165  0.00  0.00    +0.000 HD
ENDROOT
TORSDOF 0
ENDMDL
MODEL 8
REMARK VINA RESULT:    -2.756      4.977      7.320
REMARK INTER + INTRA:          -2.756
REMARK INTER:                  -2.756
REMARK INTRA:                   0.000
REMARK UNBOUND:                 0.000
REMARK  Name = /home/vital/Documents/PhD_2021/Malaria_codes/scripts/../data/pdbqt_ligands/ligand_1_temp.pdb
REMARK                            x       y       z     vdW  Elec       q    Type
REMARK                         _______ _______ _______ _____ _____    ______ ____
ROOT
ATOM      1  C   UNL     1     151.343 163.542 164.875  0.00  0.00    -0.080 C 
ATOM      2  C   UNL     1     150.487 162.500 164.174  0.00  0.00    -0.093 C 
ATOM      3  N   UNL     1     150.557 161.143 164.835  0.00  0.00    +0.380 N 
ATOM      4  C   UNL     1     149.928 161.116 166.203  0.00  0.00    -0.103 C 
ATOM      5  C   UNL     1     151.936 160.517 164.795  0.00  0.00    -0.065 C 
ATOM      6  C   UNL     1     151.896 159.016 164.899  0.00  0.00    -0.057 A 
ATOM      7  C   UNL     1     151.626 158.223 163.766  0.00  0.00    -0.015 A 
ATOM      8  C   UNL     1     151.549 156.831 163.879  0.00  0.00    +0.165 A 
ATOM      9  O   UNL     1     151.282 155.955 162.859  0.00  0.00    -0.491 OA
ATOM     10  C   UNL     1     151.112 156.494 161.551  0.00  0.00    +0.079 C 
ATOM     11  C   UNL     1     151.739 156.230 165.132  0.00  0.00    +0.201 A 
ATOM     12  O   UNL     1     151.596 154.872 165.243  0.00  0.00    -0.501 OA
ATOM     13  C   UNL     1     152.033 157.003 166.256  0.00  0.00    +0.165 A 
ATOM     14  O   UNL     1     152.176 156.501 167.522  0.00  0.00    -0.491 OA
ATOM     15  C   UNL     1     153.296 155.622 167.633  0.00  0.00    +0.079 C 
ATOM     16  C   UNL     1     152.094 158.391 166.140  0.00  0.00    -0.015 A 
ATOM     17  H   UNL     1     149.976 160.535 164.255  0.00  0.00    +0.000 HD
ATOM     18  H   UNL     1     151.398 154.358 164.485  0.00  0.00    +0.000 HD
ENDROOT
TORSDOF 0
ENDMDL
MODEL 9
REMARK VINA RESULT:    -2.657     16.214     18.813
REMARK INTER + INTRA:          -2.657
REMARK INTER:                  -2.657
REMARK INTRA:                   0.000
REMARK UNBOUND:                 0.000
REMARK  Name = /home/vital/Documents/PhD_2021/Malaria_codes/scripts/../data/pdbqt_ligands/ligand_1_temp.pdb
REMARK                            x       y       z     vdW  Elec       q    Type
REMARK                         _______ _______ _______ _____ _____    ______ ____
ROOT
ATOM      1  C   UNL     1     142.262 147.479 166.970  0.00  0.00    -0.080 C 
ATOM      2  C   UNL     1     142.680 146.391 167.946  0.00  0.00    -0.093 C 
ATOM      3  N   UNL     1     143.578 145.353 167.316  0.00  0.00    +0.380 N 
ATOM      4  C   UNL     1     144.931 145.891 166.934  0.00  0.00    -0.103 C 
ATOM      5  C   UNL     1     142.911 144.563 166.208  0.00  0.00    -0.065 C 
ATOM      6  C   UNL     1     143.542 143.213 165.996  0.00  0.00    -0.057 A 
ATOM      7  C   UNL     1     143.205 142.123 166.823  0.00  0.00    -0.015 A 
ATOM      8  C   UNL     1     143.826 140.883 166.647  0.00  0.00    +0.165 A 
ATOM      9  O   UNL     1     143.595 139.754 167.391  0.00  0.00    -0.491 OA
ATOM     10  C   UNL     1     142.601 139.824 168.409  0.00  0.00    +0.079 C 
ATOM     11  C   UNL     1     144.791 140.733 165.641  0.00  0.00    +0.201 A 
ATOM     12  O   UNL     1     145.441 139.532 165.520  0.00  0.00    -0.501 OA
ATOM     13  C   UNL     1     145.115 141.797 164.798  0.00  0.00    +0.165 A 
ATOM     14  O   UNL     1     146.083 141.750 163.832  0.00  0.00    -0.491 OA
ATOM     15  C   UNL     1     145.774 140.816 162.799  0.00  0.00    +0.079 C 
ATOM     16  C   UNL     1     144.503 143.036 164.989  0.00  0.00    -0.015 A 
ATOM     17  H   UNL     1     143.754 144.671 168.055  0.00  0.00    +0.000 HD
ATOM     18  H   UNL     1     145.220 138.821 166.089  0.00  0.00    +0.000 HD
ENDROOT
TORSDOF 0
ENDMDL
