MODEL 1
REMARK VINA RESULT:    -4.922      0.000      0.000
REMARK INTER + INTRA:          -4.922
REMARK INTER:                  -4.922
REMARK INTRA:                   0.000
REMARK UNBOUND:                 0.000
REMARK  Name = /home/vital/Documents/PhD_2021/Malaria_codes/scripts/../data/pdbqt_ligands/ligand_57_temp.pdb
REMARK                            x       y       z     vdW  Elec       q    Type
REMARK                         _______ _______ _______ _____ _____    ______ ____
ROOT
ATOM      1  N   UNL     1     154.969 154.833 168.735  0.00  0.00    -0.195 NA
ATOM      2  C   UNL     1     153.969 154.413 168.316  0.00  0.00    +0.078 C 
ATOM      3  C   UNL     1     152.676 153.937 167.777  0.00  0.00    +0.086 C 
ATOM      4  N   UNL     1     151.588 154.935 167.817  0.00  0.00    -0.273 N 
ATOM      5  C   UNL     1     151.898 156.125 167.015  0.00  0.00    +0.164 C 
ATOM      6  C   UNL     1     150.680 157.008 166.981  0.00  0.00    +0.004 C 
ATOM      7  C   UNL     1     150.752 158.304 166.859  0.00  0.00    -0.120 C 
ATOM      8  C   UNL     1     150.979 159.568 166.662  0.00  0.00    -0.018 C 
ATOM      9  C   UNL     1     152.172 160.016 165.980  0.00  0.00    -0.036 C 
ATOM     10  C   UNL     1     152.639 159.598 164.790  0.00  0.00    +0.031 C 
ATOM     11  N   UNL     1     152.022 158.735 163.927  0.00  0.00    -0.235 N 
ATOM     12  C   UNL     1     152.191 157.432 164.031  0.00  0.00    +0.171 C 
ATOM     13  C   UNL     1     151.445 156.643 162.928  0.00  0.00    +0.065 C 
ATOM     14  N   UNL     1     150.630 157.407 162.096  0.00  0.00    -0.355 N 
ATOM     15  C   UNL     1     151.584 155.312 162.809  0.00  0.00    -0.056 C 
ATOM     16  C   UNL     1     150.919 154.455 161.770  0.00  0.00    -0.013 C 
ATOM     17  C   UNL     1     149.578 153.973 162.247  0.00  0.00    -0.069 C 
ATOM     18  C   UNL     1     148.439 154.179 161.578  0.00  0.00    +0.001 C 
ATOM     19 CL   UNL     1     146.913 153.663 162.164  0.00  0.00    -0.092 Cl
ATOM     20  N   UNL     1     152.953 156.809 165.021  0.00  0.00    -0.245 N 
ATOM     21  O   UNL     1     152.250 155.756 165.667  0.00  0.00    -0.249 OA
ATOM     22  H   UNL     1     155.785 155.176 169.076  0.00  0.00    +0.000 HD
ATOM     23  H   UNL     1     151.439 155.221 168.784  0.00  0.00    +0.000 HD
ATOM     24  H   UNL     1     150.751 154.502 167.425  0.00  0.00    +0.000 HD
ATOM     25  H   UNL     1     151.442 159.094 163.216  0.00  0.00    +0.000 HD
ATOM     26  H   UNL     1     150.566 158.380 162.230  0.00  0.00    +0.000 HD
ATOM     27  H   UNL     1     150.118 156.974 161.375  0.00  0.00    +0.000 HD
ATOM     28  H   UNL     1     153.875 157.070 165.246  0.00  0.00    +0.000 HD
ENDROOT
TORSDOF 0
ENDMDL
MODEL 2
REMARK VINA RESULT:    -4.746      3.428      7.085
REMARK INTER + INTRA:          -4.746
REMARK INTER:                  -4.746
REMARK INTRA:                   0.000
REMARK UNBOUND:                 0.000
REMARK  Name = /home/vital/Documents/PhD_2021/Malaria_codes/scripts/../data/pdbqt_ligands/ligand_57_temp.pdb
REMARK                            x       y       z     vdW  Elec       q    Type
REMARK                         _______ _______ _______ _____ _____    ______ ____
ROOT
ATOM      1  N   UNL     1     153.628 159.736 157.923  0.00  0.00    -0.195 NA
ATOM      2  C   UNL     1     152.934 160.180 158.743  0.00  0.00    +0.078 C 
ATOM      3  C   UNL     1     152.024 160.689 159.792  0.00  0.00    +0.086 C 
ATOM      4  N   UNL     1     150.834 159.849 160.035  0.00  0.00    -0.273 N 
ATOM      5  C   UNL     1     151.191 158.500 160.489  0.00  0.00    +0.164 C 
ATOM      6  C   UNL     1     149.929 157.772 160.864  0.00  0.00    +0.004 C 
ATOM      7  C   UNL     1     149.807 156.477 160.773  0.00  0.00    -0.120 C 
ATOM      8  C   UNL     1     149.860 155.181 160.695  0.00  0.00    -0.018 C 
ATOM      9  C   UNL     1     151.117 154.477 160.805  0.00  0.00    -0.036 C 
ATOM     10  C   UNL     1     152.043 154.602 161.772  0.00  0.00    +0.031 C 
ATOM     11  N   UNL     1     151.937 155.348 162.914  0.00  0.00    -0.235 N 
ATOM     12  C   UNL     1     152.288 156.619 162.930  0.00  0.00    +0.171 C 
ATOM     13  C   UNL     1     152.135 157.262 164.330  0.00  0.00    +0.065 C 
ATOM     14  N   UNL     1     151.546 156.451 165.298  0.00  0.00    -0.355 N 
ATOM     15  C   UNL     1     152.542 158.520 164.566  0.00  0.00    -0.056 C 
ATOM     16  C   UNL     1     152.453 159.232 165.886  0.00  0.00    -0.013 C 
ATOM     17  C   UNL     1     151.138 159.948 166.025  0.00  0.00    -0.069 C 
ATOM     18  C   UNL     1     150.295 159.749 167.042  0.00  0.00    +0.001 C 
ATOM     19 CL   UNL     1     148.779 160.540 167.157  0.00  0.00    -0.092 Cl
ATOM     20  N   UNL     1     152.746 157.329 161.819  0.00  0.00    -0.245 N 
ATOM     21  O   UNL     1     152.059 158.560 161.638  0.00  0.00    -0.249 OA
ATOM     22  H   UNL     1     154.195 159.374 157.253  0.00  0.00    +0.000 HD
ATOM     23  H   UNL     1     150.302 159.773 159.168  0.00  0.00    +0.000 HD
ATOM     24  H   UNL     1     150.282 160.292 160.770  0.00  0.00    +0.000 HD
ATOM     25  H   UNL     1     151.594 154.929 163.736  0.00  0.00    +0.000 HD
ATOM     26  H   UNL     1     151.267 155.536 165.068  0.00  0.00    +0.000 HD
ATOM     27  H   UNL     1     151.410 156.793 166.211  0.00  0.00    +0.000 HD
ATOM     28  H   UNL     1     153.466 157.012 161.227  0.00  0.00    +0.000 HD
ENDROOT
TORSDOF 0
ENDMDL
MODEL 3
REMARK VINA RESULT:    -4.018      2.874      5.669
REMARK INTER + INTRA:          -4.018
REMARK INTER:                  -4.018
REMARK INTRA:                   0.000
REMARK UNBOUND:                 0.000
REMARK  Name = /home/vital/Documents/PhD_2021/Malaria_codes/scripts/../data/pdbqt_ligands/ligand_57_temp.pdb
REMARK                            x       y       z     vdW  Elec       q    Type
REMARK                         _______ _______ _______ _____ _____    ______ ____
ROOT
ATOM      1  N   UNL     1     152.514 153.606 161.289  0.00  0.00    -0.195 NA
ATOM      2  C   UNL     1     151.785 154.505 161.396  0.00  0.00    +0.078 C 
ATOM      3  C   UNL     1     150.851 155.635 161.593  0.00  0.00    +0.086 C 
ATOM      4  N   UNL     1     150.023 155.544 162.813  0.00  0.00    -0.273 N 
ATOM      5  C   UNL     1     150.836 155.530 164.034  0.00  0.00    +0.164 C 
ATOM      6  C   UNL     1     149.915 155.598 165.222  0.00  0.00    +0.004 C 
ATOM      7  C   UNL     1     150.213 155.073 166.377  0.00  0.00    -0.120 C 
ATOM      8  C   UNL     1     150.677 154.566 167.480  0.00  0.00    -0.018 C 
ATOM      9  C   UNL     1     152.099 154.472 167.718  0.00  0.00    -0.036 C 
ATOM     10  C   UNL     1     153.012 155.453 167.615  0.00  0.00    +0.031 C 
ATOM     11  N   UNL     1     152.767 156.776 167.364  0.00  0.00    -0.235 N 
ATOM     12  C   UNL     1     152.686 157.229 166.129  0.00  0.00    +0.171 C 
ATOM     13  C   UNL     1     152.452 158.759 166.069  0.00  0.00    +0.065 C 
ATOM     14  N   UNL     1     152.242 159.378 167.299  0.00  0.00    -0.355 N 
ATOM     15  C   UNL     1     152.446 159.416 164.898  0.00  0.00    -0.056 C 
ATOM     16  C   UNL     1     152.243 160.895 164.730  0.00  0.00    -0.013 C 
ATOM     17  C   UNL     1     150.784 161.225 164.582  0.00  0.00    -0.069 C 
ATOM     18  C   UNL     1     150.140 162.089 165.371  0.00  0.00    +0.001 C 
ATOM     19 CL   UNL     1     148.464 162.416 165.216  0.00  0.00    -0.092 Cl
ATOM     20  N   UNL     1     152.793 156.437 164.985  0.00  0.00    -0.245 N 
ATOM     21  O   UNL     1     151.731 156.658 164.067  0.00  0.00    -0.249 OA
ATOM     22  H   UNL     1     153.109 152.872 161.201  0.00  0.00    +0.000 HD
ATOM     23  H   UNL     1     149.474 154.686 162.774  0.00  0.00    +0.000 HD
ATOM     24  H   UNL     1     149.422 156.367 162.846  0.00  0.00    +0.000 HD
ATOM     25  H   UNL     1     152.649 157.398 168.118  0.00  0.00    +0.000 HD
ATOM     26  H   UNL     1     152.257 158.846 168.127  0.00  0.00    +0.000 HD
ATOM     27  H   UNL     1     152.080 160.348 167.341  0.00  0.00    +0.000 HD
ATOM     28  H   UNL     1     153.524 155.796 164.831  0.00  0.00    +0.000 HD
ENDROOT
TORSDOF 0
ENDMDL
MODEL 4
REMARK VINA RESULT:    -3.929     10.479     12.909
REMARK INTER + INTRA:          -3.929
REMARK INTER:                  -3.929
REMARK INTRA:                   0.000
REMARK UNBOUND:                 0.000
REMARK  Name = /home/vital/Documents/PhD_2021/Malaria_codes/scripts/../data/pdbqt_ligands/ligand_57_temp.pdb
REMARK                            x       y       z     vdW  Elec       q    Type
REMARK                         _______ _______ _______ _____ _____    ______ ____
ROOT
ATOM      1  N   UNL     1     141.274 150.659 168.069  0.00  0.00    -0.195 NA
ATOM      2  C   UNL     1     140.985 149.649 167.573  0.00  0.00    +0.078 C 
ATOM      3  C   UNL     1     140.659 148.375 166.895  0.00  0.00    +0.086 C 
ATOM      4  N   UNL     1     141.064 148.311 165.476  0.00  0.00    -0.273 N 
ATOM      5  C   UNL     1     142.516 148.448 165.308  0.00  0.00    +0.164 C 
ATOM      6  C   UNL     1     142.853 148.211 163.861  0.00  0.00    +0.004 C 
ATOM      7  C   UNL     1     143.878 148.765 163.276  0.00  0.00    -0.120 C 
ATOM      8  C   UNL     1     144.969 149.330 162.852  0.00  0.00    -0.018 C 
ATOM      9  C   UNL     1     146.041 149.660 163.763  0.00  0.00    -0.036 C 
ATOM     10  C   UNL     1     146.636 148.848 164.655  0.00  0.00    +0.031 C 
ATOM     11  N   UNL     1     146.419 147.507 164.811  0.00  0.00    -0.235 N 
ATOM     12  C   UNL     1     145.463 147.060 165.602  0.00  0.00    +0.171 C 
ATOM     13  C   UNL     1     145.420 145.514 165.672  0.00  0.00    +0.065 C 
ATOM     14  N   UNL     1     146.295 144.854 164.813  0.00  0.00    -0.355 N 
ATOM     15  C   UNL     1     144.582 144.879 166.508  0.00  0.00    -0.056 C 
ATOM     16  C   UNL     1     144.470 143.389 166.664  0.00  0.00    -0.013 C 
ATOM     17  C   UNL     1     143.467 142.819 165.700  0.00  0.00    -0.069 C 
ATOM     18  C   UNL     1     143.753 141.850 164.827  0.00  0.00    +0.001 C 
ATOM     19 CL   UNL     1     142.607 141.247 163.703  0.00  0.00    -0.092 Cl
ATOM     20  N   UNL     1     144.573 147.873 166.306  0.00  0.00    -0.245 N 
ATOM     21  O   UNL     1     143.218 147.486 166.119  0.00  0.00    -0.249 OA
ATOM     22  H   UNL     1     141.510 151.484 168.475  0.00  0.00    +0.000 HD
ATOM     23  H   UNL     1     140.602 149.065 164.968  0.00  0.00    +0.000 HD
ATOM     24  H   UNL     1     140.791 147.398 165.113  0.00  0.00    +0.000 HD
ATOM     25  H   UNL     1     146.985 146.865 164.325  0.00  0.00    +0.000 HD
ATOM     26  H   UNL     1     146.888 145.371 164.221  0.00  0.00    +0.000 HD
ATOM     27  H   UNL     1     146.320 143.869 164.796  0.00  0.00    +0.000 HD
ATOM     28  H   UNL     1     144.853 148.630 166.869  0.00  0.00    +0.000 HD
ENDROOT
TORSDOF 0
ENDMDL
MODEL 5
REMARK VINA RESULT:    -3.611      3.245      4.301
REMARK INTER + INTRA:          -3.611
REMARK INTER:                  -3.611
REMARK INTRA:                   0.000
REMARK UNBOUND:                 0.000
REMARK  Name = /home/vital/Documents/PhD_2021/Malaria_codes/scripts/../data/pdbqt_ligands/ligand_57_temp.pdb
REMARK                            x       y       z     vdW  Elec       q    Type
REMARK                         _______ _______ _______ _____ _____    ______ ____
ROOT
ATOM      1  N   UNL     1     154.692 162.029 169.424  0.00  0.00    -0.195 NA
ATOM      2  C   UNL     1     154.111 161.033 169.278  0.00  0.00    +0.078 C 
ATOM      3  C   UNL     1     153.327 159.797 169.063  0.00  0.00    +0.086 C 
ATOM      4  N   UNL     1     151.898 160.018 168.764  0.00  0.00    -0.273 N 
ATOM      5  C   UNL     1     151.703 160.790 167.531  0.00  0.00    +0.164 C 
ATOM      6  C   UNL     1     150.231 160.829 167.220  0.00  0.00    +0.004 C 
ATOM      7  C   UNL     1     149.672 161.816 166.578  0.00  0.00    -0.120 C 
ATOM      8  C   UNL     1     149.272 162.831 165.872  0.00  0.00    -0.018 C 
ATOM      9  C   UNL     1     150.180 163.532 164.992  0.00  0.00    -0.036 C 
ATOM     10  C   UNL     1     150.975 163.001 164.046  0.00  0.00    +0.031 C 
ATOM     11  N   UNL     1     151.011 161.693 163.648  0.00  0.00    -0.235 N 
ATOM     12  C   UNL     1     151.783 160.817 164.261  0.00  0.00    +0.171 C 
ATOM     13  C   UNL     1     151.711 159.408 163.623  0.00  0.00    +0.065 C 
ATOM     14  N   UNL     1     150.769 159.262 162.608  0.00  0.00    -0.355 N 
ATOM     15  C   UNL     1     152.506 158.412 164.046  0.00  0.00    -0.056 C 
ATOM     16  C   UNL     1     152.526 157.017 163.489  0.00  0.00    -0.013 C 
ATOM     17  C   UNL     1     151.542 156.136 164.206  0.00  0.00    -0.069 C 
ATOM     18  C   UNL     1     150.574 155.455 163.586  0.00  0.00    +0.001 C 
ATOM     19 CL   UNL     1     149.432 154.493 164.427  0.00  0.00    -0.092 Cl
ATOM     20  N   UNL     1     152.584 161.105 165.367  0.00  0.00    -0.245 N 
ATOM     21  O   UNL     1     152.401 160.178 166.428  0.00  0.00    -0.249 OA
ATOM     22  H   UNL     1     155.166 162.843 169.544  0.00  0.00    +0.000 HD
ATOM     23  H   UNL     1     151.475 160.528 169.540  0.00  0.00    +0.000 HD
ATOM     24  H   UNL     1     151.459 159.107 168.637  0.00  0.00    +0.000 HD
ATOM     25  H   UNL     1     150.452 161.401 162.892  0.00  0.00    +0.000 HD
ATOM     26  H   UNL     1     150.212 160.027 162.339  0.00  0.00    +0.000 HD
ATOM     27  H   UNL     1     150.660 158.392 162.158  0.00  0.00    +0.000 HD
ATOM     28  H   UNL     1     153.208 161.866 165.407  0.00  0.00    +0.000 HD
ENDROOT
TORSDOF 0
ENDMDL
MODEL 6
REMARK VINA RESULT:    -3.456     11.998     14.733
REMARK INTER + INTRA:          -3.456
REMARK INTER:                  -3.456
REMARK INTRA:                   0.000
REMARK UNBOUND:                 0.000
REMARK  Name = /home/vital/Documents/PhD_2021/Malaria_codes/scripts/../data/pdbqt_ligands/ligand_57_temp.pdb
REMARK                            x       y       z     vdW  Elec       q    Type
REMARK                         _______ _______ _______ _____ _____    ______ ____
ROOT
ATOM      1  N   UNL     1     145.382 139.630 164.672  0.00  0.00    -0.195 NA
ATOM      2  C   UNL     1     145.519 140.527 163.945  0.00  0.00    +0.078 C 
ATOM      3  C   UNL     1     145.636 141.689 163.037  0.00  0.00    +0.086 C 
ATOM      4  N   UNL     1     144.356 142.355 162.721  0.00  0.00    -0.273 N 
ATOM      5  C   UNL     1     143.704 142.897 163.920  0.00  0.00    +0.164 C 
ATOM      6  C   UNL     1     142.500 143.692 163.490  0.00  0.00    +0.004 C 
ATOM      7  C   UNL     1     141.442 143.829 164.239  0.00  0.00    -0.120 C 
ATOM      8  C   UNL     1     140.493 143.934 165.120  0.00  0.00    -0.018 C 
ATOM      9  C   UNL     1     140.770 143.816 166.533  0.00  0.00    -0.036 C 
ATOM     10  C   UNL     1     141.700 144.480 167.242  0.00  0.00    +0.031 C 
ATOM     11  N   UNL     1     142.510 145.485 166.790  0.00  0.00    -0.235 N 
ATOM     12  C   UNL     1     143.669 145.221 166.221  0.00  0.00    +0.171 C 
ATOM     13  C   UNL     1     144.447 146.500 165.828  0.00  0.00    +0.065 C 
ATOM     14  N   UNL     1     143.760 147.697 166.017  0.00  0.00    -0.355 N 
ATOM     15  C   UNL     1     145.693 146.432 165.331  0.00  0.00    -0.056 C 
ATOM     16  C   UNL     1     146.538 147.608 164.932  0.00  0.00    -0.013 C 
ATOM     17  C   UNL     1     146.305 147.976 163.494  0.00  0.00    -0.069 C 
ATOM     18  C   UNL     1     145.930 149.195 163.096  0.00  0.00    +0.001 C 
ATOM     19 CL   UNL     1     145.623 149.581 161.455  0.00  0.00    -0.092 Cl
ATOM     20  N   UNL     1     144.161 143.936 165.986  0.00  0.00    -0.245 N 
ATOM     21  O   UNL     1     144.602 143.759 164.646  0.00  0.00    -0.249 OA
ATOM     22  H   UNL     1     145.271 138.898 165.266  0.00  0.00    +0.000 HD
ATOM     23  H   UNL     1     143.731 141.678 162.286  0.00  0.00    +0.000 HD
ATOM     24  H   UNL     1     144.555 143.134 162.093  0.00  0.00    +0.000 HD
ATOM     25  H   UNL     1     142.222 146.422 166.892  0.00  0.00    +0.000 HD
ATOM     26  H   UNL     1     142.847 147.687 166.385  0.00  0.00    +0.000 HD
ATOM     27  H   UNL     1     144.187 148.553 165.784  0.00  0.00    +0.000 HD
ATOM     28  H   UNL     1     144.199 143.231 166.672  0.00  0.00    +0.000 HD
ENDROOT
TORSDOF 0
ENDMDL
MODEL 7
REMARK VINA RESULT:    -3.445     10.451     12.927
REMARK INTER + INTRA:          -3.445
REMARK INTER:                  -3.445
REMARK INTRA:                   0.000
REMARK UNBOUND:                 0.000
REMARK  Name = /home/vital/Documents/PhD_2021/Malaria_codes/scripts/../data/pdbqt_ligands/ligand_57_temp.pdb
REMARK                            x       y       z     vdW  Elec       q    Type
REMARK                         _______ _______ _______ _____ _____    ______ ____
ROOT
ATOM      1  N   UNL     1     145.724 151.034 161.753  0.00  0.00    -0.195 NA
ATOM      2  C   UNL     1     146.137 150.039 162.191  0.00  0.00    +0.078 C 
ATOM      3  C   UNL     1     146.627 148.783 162.799  0.00  0.00    +0.086 C 
ATOM      4  N   UNL     1     146.405 148.676 164.255  0.00  0.00    -0.273 N 
ATOM      5  C   UNL     1     144.979 148.713 164.602  0.00  0.00    +0.164 C 
ATOM      6  C   UNL     1     144.839 148.438 166.075  0.00  0.00    +0.004 C 
ATOM      7  C   UNL     1     143.861 148.915 166.792  0.00  0.00    -0.120 C 
ATOM      8  C   UNL     1     142.796 149.402 167.357  0.00  0.00    -0.018 C 
ATOM      9  C   UNL     1     141.601 149.669 166.591  0.00  0.00    -0.036 C 
ATOM     10  C   UNL     1     140.955 148.829 165.764  0.00  0.00    +0.031 C 
ATOM     11  N   UNL     1     141.237 147.507 165.556  0.00  0.00    -0.235 N 
ATOM     12  C   UNL     1     142.115 147.135 164.645  0.00  0.00    +0.171 C 
ATOM     13  C   UNL     1     142.249 145.596 164.540  0.00  0.00    +0.065 C 
ATOM     14  N   UNL     1     141.532 144.869 165.487  0.00  0.00    -0.355 N 
ATOM     15  C   UNL     1     143.017 145.028 163.596  0.00  0.00    -0.056 C 
ATOM     16  C   UNL     1     143.205 143.551 163.398  0.00  0.00    -0.013 C 
ATOM     17  C   UNL     1     144.354 143.038 164.220  0.00  0.00    -0.069 C 
ATOM     18  C   UNL     1     144.243 142.042 165.103  0.00  0.00    +0.001 C 
ATOM     19 CL   UNL     1     145.555 141.505 166.066  0.00  0.00    -0.092 Cl
ATOM     20  N   UNL     1     142.856 148.013 163.854  0.00  0.00    -0.245 N 
ATOM     21  O   UNL     1     144.246 147.716 163.865  0.00  0.00    -0.249 OA
ATOM     22  H   UNL     1     145.386 151.846 161.396  0.00  0.00    +0.000 HD
ATOM     23  H   UNL     1     146.876 149.453 164.717  0.00  0.00    +0.000 HD
ATOM     24  H   UNL     1     146.779 147.779 164.564  0.00  0.00    +0.000 HD
ATOM     25  H   UNL     1     140.778 146.823 166.095  0.00  0.00    +0.000 HD
ATOM     26  H   UNL     1     140.985 145.339 166.157  0.00  0.00    +0.000 HD
ATOM     27  H   UNL     1     141.573 143.885 165.488  0.00  0.00    +0.000 HD
ATOM     28  H   UNL     1     142.460 148.756 163.344  0.00  0.00    +0.000 HD
ENDROOT
TORSDOF 0
ENDMDL
MODEL 8
REMARK VINA RESULT:    -3.364      3.806      5.087
REMARK INTER + INTRA:          -3.364
REMARK INTER:                  -3.364
REMARK INTRA:                   0.000
REMARK UNBOUND:                 0.000
REMARK  Name = /home/vital/Documents/PhD_2021/Malaria_codes/scripts/../data/pdbqt_ligands/ligand_57_temp.pdb
REMARK                            x       y       z     vdW  Elec       q    Type
REMARK                         _______ _______ _______ _____ _____    ______ ____
ROOT
ATOM      1  N   UNL     1     152.920 162.925 170.882  0.00  0.00    -0.195 NA
ATOM      2  C   UNL     1     152.447 161.875 170.731  0.00  0.00    +0.078 C 
ATOM      3  C   UNL     1     151.806 160.562 170.495  0.00  0.00    +0.086 C 
ATOM      4  N   UNL     1     150.491 160.630 169.826  0.00  0.00    -0.273 N 
ATOM      5  C   UNL     1     150.579 161.235 168.491  0.00  0.00    +0.164 C 
ATOM      6  C   UNL     1     149.235 161.118 167.825  0.00  0.00    +0.004 C 
ATOM      7  C   UNL     1     148.809 161.975 166.940  0.00  0.00    -0.120 C 
ATOM      8  C   UNL     1     148.553 162.866 166.029  0.00  0.00    -0.018 C 
ATOM      9  C   UNL     1     149.618 163.531 165.315  0.00  0.00    -0.036 C 
ATOM     10  C   UNL     1     150.654 162.961 164.674  0.00  0.00    +0.031 C 
ATOM     11  N   UNL     1     150.856 161.623 164.474  0.00  0.00    -0.235 N 
ATOM     12  C   UNL     1     151.489 160.890 165.369  0.00  0.00    +0.171 C 
ATOM     13  C   UNL     1     151.652 159.416 164.926  0.00  0.00    +0.065 C 
ATOM     14  N   UNL     1     151.009 159.076 163.738  0.00  0.00    -0.355 N 
ATOM     15  C   UNL     1     152.362 158.544 165.660  0.00  0.00    -0.056 C 
ATOM     16  C   UNL     1     152.593 157.100 165.315  0.00  0.00    -0.013 C 
ATOM     17  C   UNL     1     151.504 156.230 165.877  0.00  0.00    -0.069 C 
ATOM     18  C   UNL     1     150.761 155.405 165.133  0.00  0.00    +0.001 C 
ATOM     19 CL   UNL     1     149.492 154.457 165.787  0.00  0.00    -0.092 Cl
ATOM     20  N   UNL     1     151.966 161.369 166.590  0.00  0.00    -0.245 N 
ATOM     21  O   UNL     1     151.564 160.559 167.687  0.00  0.00    -0.249 OA
ATOM     22  H   UNL     1     153.307 163.783 171.007  0.00  0.00    +0.000 HD
ATOM     23  H   UNL     1     149.860 161.190 170.399  0.00  0.00    +0.000 HD
ATOM     24  H   UNL     1     150.145 159.677 169.716  0.00  0.00    +0.000 HD
ATOM     25  H   UNL     1     150.523 161.201 163.649  0.00  0.00    +0.000 HD
ATOM     26  H   UNL     1     150.502 159.758 163.241  0.00  0.00    +0.000 HD
ATOM     27  H   UNL     1     151.062 158.155 163.395  0.00  0.00    +0.000 HD
ATOM     28  H   UNL     1     152.520 162.177 166.682  0.00  0.00    +0.000 HD
ENDROOT
TORSDOF 0
ENDMDL
MODEL 9
REMARK VINA RESULT:    -2.852     11.485     13.955
REMARK INTER + INTRA:          -2.852
REMARK INTER:                  -2.852
REMARK INTRA:                   0.000
REMARK UNBOUND:                 0.000
REMARK  Name = /home/vital/Documents/PhD_2021/Malaria_codes/scripts/../data/pdbqt_ligands/ligand_57_temp.pdb
REMARK                            x       y       z     vdW  Elec       q    Type
REMARK                         _______ _______ _______ _____ _____    ______ ____
ROOT
ATOM      1  N   UNL     1     141.557 150.336 168.208  0.00  0.00    -0.195 NA
ATOM      2  C   UNL     1     141.064 149.539 167.519  0.00  0.00    +0.078 C 
ATOM      3  C   UNL     1     140.490 148.523 166.610  0.00  0.00    +0.086 C 
ATOM      4  N   UNL     1     141.204 148.373 165.326  0.00  0.00    -0.273 N 
ATOM      5  C   UNL     1     142.596 147.946 165.512  0.00  0.00    +0.164 C 
ATOM      6  C   UNL     1     143.194 147.664 164.161  0.00  0.00    +0.004 C 
ATOM      7  C   UNL     1     144.465 147.806 163.909  0.00  0.00    -0.120 C 
ATOM      8  C   UNL     1     145.757 147.925 163.828  0.00  0.00    -0.018 C 
ATOM      9  C   UNL     1     146.594 147.773 164.996  0.00  0.00    -0.036 C 
ATOM     10  C   UNL     1     146.597 146.754 165.873  0.00  0.00    +0.031 C 
ATOM     11  N   UNL     1     145.877 145.594 165.783  0.00  0.00    -0.235 N 
ATOM     12  C   UNL     1     144.652 145.516 166.264  0.00  0.00    +0.171 C 
ATOM     13  C   UNL     1     144.036 144.105 166.101  0.00  0.00    +0.065 C 
ATOM     14  N   UNL     1     144.806 143.198 165.377  0.00  0.00    -0.355 N 
ATOM     15  C   UNL     1     142.836 143.805 166.625  0.00  0.00    -0.056 C 
ATOM     16  C   UNL     1     142.156 142.469 166.537  0.00  0.00    -0.013 C 
ATOM     17  C   UNL     1     141.308 142.375 165.300  0.00  0.00    -0.069 C 
ATOM     18  C   UNL     1     141.443 141.412 164.384  0.00  0.00    +0.001 C 
ATOM     19 CL   UNL     1     140.497 141.351 162.956  0.00  0.00    -0.092 Cl
ATOM     20  N   UNL     1     143.964 146.576 166.857  0.00  0.00    -0.245 N 
ATOM     21  O   UNL     1     142.662 146.751 166.315  0.00  0.00    -0.249 OA
ATOM     22  H   UNL     1     141.959 150.986 168.770  0.00  0.00    +0.000 HD
ATOM     23  H   UNL     1     141.198 149.269 164.839  0.00  0.00    +0.000 HD
ATOM     24  H   UNL     1     140.725 147.654 164.783  0.00  0.00    +0.000 HD
ATOM     25  H   UNL     1     146.280 144.807 165.351  0.00  0.00    +0.000 HD
ATOM     26  H   UNL     1     145.679 143.473 165.015  0.00  0.00    +0.000 HD
ATOM     27  H   UNL     1     144.477 142.282 165.226  0.00  0.00    +0.000 HD
ATOM     28  H   UNL     1     144.340 147.139 167.572  0.00  0.00    +0.000 HD
ENDROOT
TORSDOF 0
ENDMDL
