MODEL 1
REMARK VINA RESULT:    -5.003      0.000      0.000
REMARK INTER + INTRA:          -5.003
REMARK INTER:                  -5.003
REMARK INTRA:                   0.000
REMARK UNBOUND:                 0.000
REMARK  Name = /home/vital/Documents/PhD_2021/Malaria_codes/scripts/../data/pdbqt_ligands/ligand_188_temp.pdb
REMARK                            x       y       z     vdW  Elec       q    Type
REMARK                         _______ _______ _______ _____ _____    ______ ____
ROOT
ATOM      1  C1  UNL     1     152.252 155.113 149.987  0.00  0.00    -0.046 C 
ATOM      2  C2  UNL     1     152.061 155.507 151.415  0.00  0.00    -0.084 C 
ATOM      3  C3  UNL     1     152.961 156.071 152.242  0.00  0.00    -0.046 C 
ATOM      4  C4  UNL     1     154.385 156.418 151.914  0.00  0.00    -0.039 C 
ATOM      5  C5  UNL     1     152.536 156.408 153.623  0.00  0.00    -0.002 A 
ATOM      6  C6  UNL     1     152.312 157.760 153.931  0.00  0.00    -0.053 A 
ATOM      7  C7  UNL     1     151.891 158.140 155.205  0.00  0.00    -0.061 A 
ATOM      8  C8  UNL     1     151.675 157.171 156.179  0.00  0.00    -0.060 A 
ATOM      9  C9  UNL     1     151.895 155.824 155.884  0.00  0.00    -0.040 A 
ATOM     10  C10 UNL     1     152.369 155.427 154.625  0.00  0.00    +0.032 A 
ATOM     11  N1  UNL     1     152.466 154.050 154.348  0.00  0.00    -0.357 N 
ATOM     12  H   UNL     1     152.797 153.746 153.472  0.00  0.00    +0.000 HD
ATOM     13  H   UNL     1     152.204 153.391 155.031  0.00  0.00    +0.000 HD
ENDROOT
TORSDOF 0
ENDMDL
MODEL 2
REMARK VINA RESULT:    -4.586      1.686      2.563
REMARK INTER + INTRA:          -4.586
REMARK INTER:                  -4.586
REMARK INTRA:                   0.000
REMARK UNBOUND:                 0.000
REMARK  Name = /home/vital/Documents/PhD_2021/Malaria_codes/scripts/../data/pdbqt_ligands/ligand_188_temp.pdb
REMARK                            x       y       z     vdW  Elec       q    Type
REMARK                         _______ _______ _______ _____ _____    ______ ____
ROOT
ATOM      1  C1  UNL     1     155.480 154.925 150.832  0.00  0.00    -0.046 C 
ATOM      2  C2  UNL     1     154.635 155.447 151.947  0.00  0.00    -0.084 C 
ATOM      3  C3  UNL     1     153.294 155.569 151.978  0.00  0.00    -0.046 C 
ATOM      4  C4  UNL     1     152.337 155.221 150.874  0.00  0.00    -0.039 C 
ATOM      5  C5  UNL     1     152.662 156.087 153.216  0.00  0.00    -0.002 A 
ATOM      6  C6  UNL     1     151.988 155.173 154.043  0.00  0.00    -0.053 A 
ATOM      7  C7  UNL     1     151.390 155.593 155.231  0.00  0.00    -0.061 A 
ATOM      8  C8  UNL     1     151.472 156.929 155.611  0.00  0.00    -0.060 A 
ATOM      9  C9  UNL     1     152.139 157.846 154.796  0.00  0.00    -0.040 A 
ATOM     10  C10 UNL     1     152.700 157.453 153.573  0.00  0.00    +0.032 A 
ATOM     11  N1  UNL     1     153.455 158.395 152.847  0.00  0.00    -0.357 N 
ATOM     12  H   UNL     1     153.859 158.143 151.986  0.00  0.00    +0.000 HD
ATOM     13  H   UNL     1     153.579 159.305 153.202  0.00  0.00    +0.000 HD
ENDROOT
TORSDOF 0
ENDMDL
MODEL 3
REMARK VINA RESULT:    -4.055      3.416      5.332
REMARK INTER + INTRA:          -4.055
REMARK INTER:                  -4.055
REMARK INTRA:                   0.000
REMARK UNBOUND:                 0.000
REMARK  Name = /home/vital/Documents/PhD_2021/Malaria_codes/scripts/../data/pdbqt_ligands/ligand_188_temp.pdb
REMARK                            x       y       z     vdW  Elec       q    Type
REMARK                         _______ _______ _______ _____ _____    ______ ____
ROOT
ATOM      1  C1  UNL     1     152.786 156.558 154.824  0.00  0.00    -0.046 C 
ATOM      2  C2  UNL     1     152.175 157.108 156.071  0.00  0.00    -0.084 C 
ATOM      3  C3  UNL     1     151.019 156.739 156.655  0.00  0.00    -0.046 C 
ATOM      4  C4  UNL     1     150.063 155.689 156.165  0.00  0.00    -0.039 C 
ATOM      5  C5  UNL     1     150.621 157.408 157.917  0.00  0.00    -0.002 A 
ATOM      6  C6  UNL     1     150.751 156.685 159.115  0.00  0.00    -0.053 A 
ATOM      7  C7  UNL     1     150.414 157.264 160.337  0.00  0.00    -0.061 A 
ATOM      8  C8  UNL     1     149.957 158.578 160.377  0.00  0.00    -0.060 A 
ATOM      9  C9  UNL     1     149.824 159.306 159.193  0.00  0.00    -0.040 A 
ATOM     10  C10 UNL     1     150.107 158.724 157.950  0.00  0.00    +0.032 A 
ATOM     11  N1  UNL     1     150.062 159.537 156.801  0.00  0.00    -0.357 N 
ATOM     12  H   UNL     1     150.257 159.152 155.917  0.00  0.00    +0.000 HD
ATOM     13  H   UNL     1     149.836 160.492 156.883  0.00  0.00    +0.000 HD
ENDROOT
TORSDOF 0
ENDMDL
MODEL 4
REMARK VINA RESULT:    -4.038      4.894      6.872
REMARK INTER + INTRA:          -4.038
REMARK INTER:                  -4.038
REMARK INTRA:                   0.000
REMARK UNBOUND:                 0.000
REMARK  Name = /home/vital/Documents/PhD_2021/Malaria_codes/scripts/../data/pdbqt_ligands/ligand_188_temp.pdb
REMARK                            x       y       z     vdW  Elec       q    Type
REMARK                         _______ _______ _______ _____ _____    ______ ____
ROOT
ATOM      1  C1  UNL     1     151.451 155.963 157.368  0.00  0.00    -0.046 C 
ATOM      2  C2  UNL     1     151.533 157.148 158.274  0.00  0.00    -0.084 C 
ATOM      3  C3  UNL     1     150.880 158.320 158.159  0.00  0.00    -0.046 C 
ATOM      4  C4  UNL     1     149.925 158.710 157.068  0.00  0.00    -0.039 C 
ATOM      5  C5  UNL     1     151.094 159.352 159.203  0.00  0.00    -0.002 A 
ATOM      6  C6  UNL     1     150.064 159.567 160.136  0.00  0.00    -0.053 A 
ATOM      7  C7  UNL     1     150.212 160.508 161.154  0.00  0.00    -0.061 A 
ATOM      8  C8  UNL     1     151.395 161.232 161.261  0.00  0.00    -0.060 A 
ATOM      9  C9  UNL     1     152.424 161.027 160.339  0.00  0.00    -0.040 A 
ATOM     10  C10 UNL     1     152.274 160.124 159.277  0.00  0.00    +0.032 A 
ATOM     11  N1  UNL     1     153.383 159.876 158.445  0.00  0.00    -0.357 N 
ATOM     12  H   UNL     1     153.303 159.247 157.693  0.00  0.00    +0.000 HD
ATOM     13  H   UNL     1     154.238 160.332 158.617  0.00  0.00    +0.000 HD
ENDROOT
TORSDOF 0
ENDMDL
MODEL 5
REMARK VINA RESULT:    -3.796      4.625      7.111
REMARK INTER + INTRA:          -3.796
REMARK INTER:                  -3.796
REMARK INTRA:                   0.000
REMARK UNBOUND:                 0.000
REMARK  Name = /home/vital/Documents/PhD_2021/Malaria_codes/scripts/../data/pdbqt_ligands/ligand_188_temp.pdb
REMARK                            x       y       z     vdW  Elec       q    Type
REMARK                         _______ _______ _______ _____ _____    ______ ____
ROOT
ATOM      1  C1  UNL     1     149.824 160.551 161.356  0.00  0.00    -0.046 C 
ATOM      2  C2  UNL     1     149.869 159.541 160.257  0.00  0.00    -0.084 C 
ATOM      3  C3  UNL     1     150.959 159.001 159.679  0.00  0.00    -0.046 C 
ATOM      4  C4  UNL     1     152.392 159.314 160.000  0.00  0.00    -0.039 C 
ATOM      5  C5  UNL     1     150.762 157.984 158.617  0.00  0.00    -0.002 A 
ATOM      6  C6  UNL     1     151.017 156.639 158.938  0.00  0.00    -0.053 A 
ATOM      7  C7  UNL     1     150.832 155.633 157.991  0.00  0.00    -0.061 A 
ATOM      8  C8  UNL     1     150.376 155.958 156.718  0.00  0.00    -0.060 A 
ATOM      9  C9  UNL     1     150.119 157.290 156.387  0.00  0.00    -0.040 A 
ATOM     10  C10 UNL     1     150.351 158.322 157.309  0.00  0.00    +0.032 A 
ATOM     11  N1  UNL     1     149.970 159.632 156.959  0.00  0.00    -0.357 N 
ATOM     12  H   UNL     1     150.122 160.373 157.589  0.00  0.00    +0.000 HD
ATOM     13  H   UNL     1     149.552 159.806 156.085  0.00  0.00    +0.000 HD
ENDROOT
TORSDOF 0
ENDMDL
MODEL 6
REMARK VINA RESULT:    -3.783      5.669      8.607
REMARK INTER + INTRA:          -3.783
REMARK INTER:                  -3.783
REMARK INTRA:                   0.000
REMARK UNBOUND:                 0.000
REMARK  Name = /home/vital/Documents/PhD_2021/Malaria_codes/scripts/../data/pdbqt_ligands/ligand_188_temp.pdb
REMARK                            x       y       z     vdW  Elec       q    Type
REMARK                         _______ _______ _______ _____ _____    ______ ____
ROOT
ATOM      1  C1  UNL     1     150.441 161.630 163.093  0.00  0.00    -0.046 C 
ATOM      2  C2  UNL     1     150.605 161.170 161.682  0.00  0.00    -0.084 C 
ATOM      3  C3  UNL     1     150.883 159.927 161.247  0.00  0.00    -0.046 C 
ATOM      4  C4  UNL     1     151.113 158.710 162.097  0.00  0.00    -0.039 C 
ATOM      5  C5  UNL     1     150.970 159.695 159.784  0.00  0.00    -0.002 A 
ATOM      6  C6  UNL     1     149.908 159.018 159.161  0.00  0.00    -0.053 A 
ATOM      7  C7  UNL     1     149.920 158.787 157.786  0.00  0.00    -0.061 A 
ATOM      8  C8  UNL     1     150.986 159.242 157.017  0.00  0.00    -0.060 A 
ATOM      9  C9  UNL     1     152.047 159.915 157.626  0.00  0.00    -0.040 A 
ATOM     10  C10 UNL     1     152.079 160.110 159.014  0.00  0.00    +0.032 A 
ATOM     11  N1  UNL     1     153.117 160.891 159.559  0.00  0.00    -0.357 N 
ATOM     12  H   UNL     1     153.162 161.042 160.531  0.00  0.00    +0.000 HD
ATOM     13  H   UNL     1     153.798 161.285 158.968  0.00  0.00    +0.000 HD
ENDROOT
TORSDOF 0
ENDMDL
MODEL 7
REMARK VINA RESULT:    -3.373      4.767      7.175
REMARK INTER + INTRA:          -3.373
REMARK INTER:                  -3.373
REMARK INTRA:                   0.000
REMARK UNBOUND:                 0.000
REMARK  Name = /home/vital/Documents/PhD_2021/Malaria_codes/scripts/../data/pdbqt_ligands/ligand_188_temp.pdb
REMARK                            x       y       z     vdW  Elec       q    Type
REMARK                         _______ _______ _______ _____ _____    ______ ____
ROOT
ATOM      1  C1  UNL     1     148.822 153.686 161.698  0.00  0.00    -0.046 C 
ATOM      2  C2  UNL     1     149.160 154.726 160.682  0.00  0.00    -0.084 C 
ATOM      3  C3  UNL     1     150.334 154.909 160.048  0.00  0.00    -0.046 C 
ATOM      4  C4  UNL     1     151.589 154.108 160.239  0.00  0.00    -0.039 C 
ATOM      5  C5  UNL     1     150.431 155.998 159.045  0.00  0.00    -0.002 A 
ATOM      6  C6  UNL     1     150.449 155.641 157.686  0.00  0.00    -0.053 A 
ATOM      7  C7  UNL     1     150.519 156.618 156.694  0.00  0.00    -0.061 A 
ATOM      8  C8  UNL     1     150.556 157.962 157.049  0.00  0.00    -0.060 A 
ATOM      9  C9  UNL     1     150.539 158.328 158.397  0.00  0.00    -0.040 A 
ATOM     10  C10 UNL     1     150.524 157.359 159.409  0.00  0.00    +0.032 A 
ATOM     11  N1  UNL     1     150.395 157.786 160.745  0.00  0.00    -0.357 N 
ATOM     12  H   UNL     1     150.382 157.125 161.474  0.00  0.00    +0.000 HD
ATOM     13  H   UNL     1     150.319 158.746 160.949  0.00  0.00    +0.000 HD
ENDROOT
TORSDOF 0
ENDMDL
MODEL 8
REMARK VINA RESULT:    -3.343     17.407     19.000
REMARK INTER + INTRA:          -3.343
REMARK INTER:                  -3.343
REMARK INTRA:                   0.000
REMARK UNBOUND:                 0.000
REMARK  Name = /home/vital/Documents/PhD_2021/Malaria_codes/scripts/../data/pdbqt_ligands/ligand_188_temp.pdb
REMARK                            x       y       z     vdW  Elec       q    Type
REMARK                         _______ _______ _______ _____ _____    ______ ____
ROOT
ATOM      1  C1  UNL     1     145.654 146.639 165.829  0.00  0.00    -0.046 C 
ATOM      2  C2  UNL     1     145.703 145.200 165.432  0.00  0.00    -0.084 C 
ATOM      3  C3  UNL     1     144.793 144.512 164.716  0.00  0.00    -0.046 C 
ATOM      4  C4  UNL     1     143.499 145.040 164.167  0.00  0.00    -0.039 C 
ATOM      5  C5  UNL     1     145.068 143.086 164.412  0.00  0.00    -0.002 A 
ATOM      6  C6  UNL     1     145.451 142.754 163.101  0.00  0.00    -0.053 A 
ATOM      7  C7  UNL     1     145.743 141.436 162.757  0.00  0.00    -0.061 A 
ATOM      8  C8  UNL     1     145.670 140.436 163.722  0.00  0.00    -0.060 A 
ATOM      9  C9  UNL     1     145.289 140.754 165.028  0.00  0.00    -0.040 A 
ATOM     10  C10 UNL     1     144.940 142.065 165.380  0.00  0.00    +0.032 A 
ATOM     11  N1  UNL     1     144.673 142.348 166.734  0.00  0.00    -0.357 N 
ATOM     12  H   UNL     1     144.425 143.260 167.007  0.00  0.00    +0.000 HD
ATOM     13  H   UNL     1     144.733 141.632 167.407  0.00  0.00    +0.000 HD
ENDROOT
TORSDOF 0
ENDMDL
MODEL 9
REMARK VINA RESULT:    -3.251     12.564     14.751
REMARK INTER + INTRA:          -3.251
REMARK INTER:                  -3.251
REMARK INTRA:                   0.000
REMARK UNBOUND:                 0.000
REMARK  Name = /home/vital/Documents/PhD_2021/Malaria_codes/scripts/../data/pdbqt_ligands/ligand_188_temp.pdb
REMARK                            x       y       z     vdW  Elec       q    Type
REMARK                         _______ _______ _______ _____ _____    ______ ____
ROOT
ATOM      1  C1  UNL     1     150.678 163.537 164.818  0.00  0.00    -0.046 C 
ATOM      2  C2  UNL     1     151.479 162.909 165.911  0.00  0.00    -0.084 C 
ATOM      3  C3  UNL     1     152.257 161.813 165.838  0.00  0.00    -0.046 C 
ATOM      4  C4  UNL     1     152.482 160.953 164.627  0.00  0.00    -0.039 C 
ATOM      5  C5  UNL     1     152.990 161.386 167.055  0.00  0.00    -0.002 A 
ATOM      6  C6  UNL     1     154.375 161.621 167.105  0.00  0.00    -0.053 A 
ATOM      7  C7  UNL     1     155.118 161.262 168.229  0.00  0.00    -0.061 A 
ATOM      8  C8  UNL     1     154.483 160.679 169.320  0.00  0.00    -0.060 A 
ATOM      9  C9  UNL     1     153.107 160.441 169.281  0.00  0.00    -0.040 A 
ATOM     10  C10 UNL     1     152.352 160.746 168.140  0.00  0.00    +0.032 A 
ATOM     11  N1  UNL     1     150.954 160.588 168.198  0.00  0.00    -0.357 N 
ATOM     12  H   UNL     1     150.402 160.795 167.409  0.00  0.00    +0.000 HD
ATOM     13  H   UNL     1     150.529 160.270 169.027  0.00  0.00    +0.000 HD
ENDROOT
TORSDOF 0
ENDMDL
