MODEL 1
REMARK VINA RESULT:    -5.038      0.000      0.000
REMARK INTER + INTRA:          -5.038
REMARK INTER:                  -5.038
REMARK INTRA:                   0.000
REMARK UNBOUND:                 0.000
REMARK  Name = /home/vital/Documents/PhD_2021/Malaria_codes/scripts/../data/pdbqt_ligands/ligand_202_temp.pdb
REMARK                            x       y       z     vdW  Elec       q    Type
REMARK                         _______ _______ _______ _____ _____    ______ ____
ROOT
ATOM      1  C1  UNL     1     146.089 150.458 162.239  0.00  0.00    -0.040 C 
ATOM      2  C2  UNL     1     145.976 149.273 163.151  0.00  0.00    -0.045 A 
ATOM      3  C3  UNL     1     147.092 148.466 163.410  0.00  0.00    -0.017 A 
ATOM      4  C4  UNL     1     146.961 147.341 164.221  0.00  0.00    +0.119 A 
ATOM      5  O1  UNL     1     148.027 146.534 164.492  0.00  0.00    -0.507 OA
ATOM      6  C5  UNL     1     145.735 146.999 164.778  0.00  0.00    +0.002 A 
ATOM      7  C6  UNL     1     144.622 147.794 164.518  0.00  0.00    +0.052 A 
ATOM      8  N1  UNL     1     143.353 147.422 165.041  0.00  0.00    -0.216 N 
ATOM      9  S1  UNL     1     142.373 146.419 164.096  0.00  0.00    +0.072 S 
ATOM     10  O2  UNL     1     141.062 146.450 164.710  0.00  0.00    -0.150 OA
ATOM     11  O3  UNL     1     142.544 146.749 162.697  0.00  0.00    -0.150 OA
ATOM     12  C7  UNL     1     143.060 144.806 164.396  0.00  0.00    +0.109 A 
ATOM     13  C8  UNL     1     142.714 144.131 165.582  0.00  0.00    -0.030 A 
ATOM     14  C9  UNL     1     143.267 142.883 165.793  0.00  0.00    -0.022 A 
ATOM     15  C10 UNL     1     144.103 142.338 164.830  0.00  0.00    +0.043 A 
ATOM     16  C11 UNL     1     144.463 142.970 163.658  0.00  0.00    -0.023 A 
ATOM     17  C12 UNL     1     143.926 144.237 163.434  0.00  0.00    -0.030 A 
ATOM     18  C13 UNL     1     145.488 142.305 162.792  0.00  0.00    -0.018 C 
ATOM     19  C14 UNL     1     145.483 140.781 162.968  0.00  0.00    +0.029 C 
ATOM     20  C15 UNL     1     145.364 140.311 164.417  0.00  0.00    +0.220 C 
ATOM     21  O4  UNL     1     145.866 139.255 164.797  0.00  0.00    -0.275 OA
ATOM     22  N2  UNL     1     144.567 141.093 165.211  0.00  0.00    -0.271 N 
ATOM     23  C16 UNL     1     144.123 140.812 166.575  0.00  0.00    +0.024 C 
ATOM     24  C17 UNL     1     143.114 141.929 166.939  0.00  0.00    -0.010 C 
ATOM     25  C18 UNL     1     144.735 148.920 163.701  0.00  0.00    -0.036 A 
ATOM     26  H   UNL     1     148.870 146.735 164.133  0.00  0.00    +0.000 HD
ATOM     27  H   UNL     1     143.054 147.737 165.925  0.00  0.00    +0.000 HD
ENDROOT
TORSDOF 0
ENDMDL
MODEL 2
REMARK VINA RESULT:    -4.832     14.821     17.191
REMARK INTER + INTRA:          -4.832
REMARK INTER:                  -4.832
REMARK INTRA:                   0.000
REMARK UNBOUND:                 0.000
REMARK  Name = /home/vital/Documents/PhD_2021/Malaria_codes/scripts/../data/pdbqt_ligands/ligand_202_temp.pdb
REMARK                            x       y       z     vdW  Elec       q    Type
REMARK                         _______ _______ _______ _____ _____    ______ ____
ROOT
ATOM      1  C1  UNL     1     152.507 159.958 158.232  0.00  0.00    -0.040 C 
ATOM      2  C2  UNL     1     151.850 159.965 159.580  0.00  0.00    -0.045 A 
ATOM      3  C3  UNL     1     151.445 161.171 160.167  0.00  0.00    -0.017 A 
ATOM      4  C4  UNL     1     150.880 161.167 161.440  0.00  0.00    +0.119 A 
ATOM      5  O1  UNL     1     150.474 162.323 162.040  0.00  0.00    -0.507 OA
ATOM      6  C5  UNL     1     150.714 159.982 162.147  0.00  0.00    +0.002 A 
ATOM      7  C6  UNL     1     151.123 158.782 161.570  0.00  0.00    +0.052 A 
ATOM      8  N1  UNL     1     151.006 157.571 162.307  0.00  0.00    -0.216 N 
ATOM      9  S1  UNL     1     152.315 157.105 163.270  0.00  0.00    +0.072 S 
ATOM     10  O2  UNL     1     152.059 155.730 163.651  0.00  0.00    -0.150 OA
ATOM     11  O3  UNL     1     153.554 157.475 162.622  0.00  0.00    -0.150 OA
ATOM     12  C7  UNL     1     152.105 158.104 164.726  0.00  0.00    +0.109 A 
ATOM     13  C8  UNL     1     151.167 157.703 165.696  0.00  0.00    -0.030 A 
ATOM     14  C9  UNL     1     151.019 158.502 166.813  0.00  0.00    -0.022 A 
ATOM     15  C10 UNL     1     151.810 159.633 166.949  0.00  0.00    +0.043 A 
ATOM     16  C11 UNL     1     152.738 160.056 166.020  0.00  0.00    -0.023 A 
ATOM     17  C12 UNL     1     152.890 159.271 164.879  0.00  0.00    -0.030 A 
ATOM     18  C13 UNL     1     153.405 161.377 166.252  0.00  0.00    -0.018 C 
ATOM     19  C14 UNL     1     153.476 161.728 167.743  0.00  0.00    +0.029 C 
ATOM     20  C15 UNL     1     152.198 161.432 168.525  0.00  0.00    +0.220 C 
ATOM     21  O4  UNL     1     151.872 162.097 169.507  0.00  0.00    -0.275 OA
ATOM     22  N2  UNL     1     151.522 160.311 168.118  0.00  0.00    -0.271 N 
ATOM     23  C16 UNL     1     150.377 159.678 168.772  0.00  0.00    +0.024 C 
ATOM     24  C17 UNL     1     150.114 158.362 167.999  0.00  0.00    -0.010 C 
ATOM     25  C18 UNL     1     151.698 158.770 160.299  0.00  0.00    -0.036 A 
ATOM     26  H   UNL     1     150.570 163.142 161.593  0.00  0.00    +0.000 HD
ATOM     27  H   UNL     1     150.190 157.022 162.258  0.00  0.00    +0.000 HD
ENDROOT
TORSDOF 0
ENDMDL
MODEL 3
REMARK VINA RESULT:    -4.745     12.723     17.375
REMARK INTER + INTRA:          -4.745
REMARK INTER:                  -4.745
REMARK INTRA:                   0.000
REMARK UNBOUND:                 0.000
REMARK  Name = /home/vital/Documents/PhD_2021/Malaria_codes/scripts/../data/pdbqt_ligands/ligand_202_temp.pdb
REMARK                            x       y       z     vdW  Elec       q    Type
REMARK                         _______ _______ _______ _____ _____    ______ ____
ROOT
ATOM      1  C1  UNL     1     149.482 154.584 162.963  0.00  0.00    -0.040 C 
ATOM      2  C2  UNL     1     150.478 155.290 163.836  0.00  0.00    -0.045 A 
ATOM      3  C3  UNL     1     150.681 154.878 165.159  0.00  0.00    -0.017 A 
ATOM      4  C4  UNL     1     151.574 155.572 165.972  0.00  0.00    +0.119 A 
ATOM      5  O1  UNL     1     151.795 155.197 167.266  0.00  0.00    -0.507 OA
ATOM      6  C5  UNL     1     152.268 156.677 165.494  0.00  0.00    +0.002 A 
ATOM      7  C6  UNL     1     152.063 157.094 164.181  0.00  0.00    +0.052 A 
ATOM      8  N1  UNL     1     152.730 158.254 163.700  0.00  0.00    -0.216 N 
ATOM      9  S1  UNL     1     151.951 159.744 163.884  0.00  0.00    +0.072 S 
ATOM     10  O2  UNL     1     152.685 160.681 163.058  0.00  0.00    -0.150 OA
ATOM     11  O3  UNL     1     150.524 159.572 163.719  0.00  0.00    -0.150 OA
ATOM     12  C7  UNL     1     152.291 160.155 165.580  0.00  0.00    +0.109 A 
ATOM     13  C8  UNL     1     153.547 160.700 165.909  0.00  0.00    -0.030 A 
ATOM     14  C9  UNL     1     153.786 161.004 167.235  0.00  0.00    -0.022 A 
ATOM     15  C10 UNL     1     152.785 160.793 168.172  0.00  0.00    +0.043 A 
ATOM     16  C11 UNL     1     151.544 160.263 167.886  0.00  0.00    -0.023 A 
ATOM     17  C12 UNL     1     151.290 159.937 166.555  0.00  0.00    -0.030 A 
ATOM     18  C13 UNL     1     150.631 159.966 169.035  0.00  0.00    -0.018 C 
ATOM     19  C14 UNL     1     150.907 160.879 170.236  0.00  0.00    +0.029 C 
ATOM     20  C15 UNL     1     152.388 161.090 170.543  0.00  0.00    +0.220 C 
ATOM     21  O4  UNL     1     152.788 161.298 171.687  0.00  0.00    -0.275 OA
ATOM     22  N2  UNL     1     153.201 161.145 169.442  0.00  0.00    -0.271 N 
ATOM     23  C16 UNL     1     154.618 161.506 169.400  0.00  0.00    +0.024 C 
ATOM     24  C17 UNL     1     155.002 161.573 167.901  0.00  0.00    -0.010 C 
ATOM     25  C18 UNL     1     151.166 156.414 163.357  0.00  0.00    -0.036 A 
ATOM     26  H   UNL     1     151.344 154.457 167.622  0.00  0.00    +0.000 HD
ATOM     27  H   UNL     1     153.615 158.193 163.273  0.00  0.00    +0.000 HD
ENDROOT
TORSDOF 0
ENDMDL
MODEL 4
REMARK VINA RESULT:    -4.672     10.744     14.103
REMARK INTER + INTRA:          -4.672
REMARK INTER:                  -4.672
REMARK INTRA:                   0.000
REMARK UNBOUND:                 0.000
REMARK  Name = /home/vital/Documents/PhD_2021/Malaria_codes/scripts/../data/pdbqt_ligands/ligand_202_temp.pdb
REMARK                            x       y       z     vdW  Elec       q    Type
REMARK                         _______ _______ _______ _____ _____    ______ ____
ROOT
ATOM      1  C1  UNL     1     150.428 161.323 161.494  0.00  0.00    -0.040 C 
ATOM      2  C2  UNL     1     151.115 160.189 162.195  0.00  0.00    -0.045 A 
ATOM      3  C3  UNL     1     151.248 158.942 161.569  0.00  0.00    -0.017 A 
ATOM      4  C4  UNL     1     151.846 157.885 162.251  0.00  0.00    +0.119 A 
ATOM      5  O1  UNL     1     151.991 156.658 161.670  0.00  0.00    -0.507 OA
ATOM      6  C5  UNL     1     152.312 158.043 163.550  0.00  0.00    +0.002 A 
ATOM      7  C6  UNL     1     152.176 159.278 164.178  0.00  0.00    +0.052 A 
ATOM      8  N1  UNL     1     152.603 159.434 165.526  0.00  0.00    -0.216 N 
ATOM      9  S1  UNL     1     151.478 159.124 166.750  0.00  0.00    +0.072 S 
ATOM     10  O2  UNL     1     152.065 159.641 167.969  0.00  0.00    -0.150 OA
ATOM     11  O3  UNL     1     150.163 159.548 166.322  0.00  0.00    -0.150 OA
ATOM     12  C7  UNL     1     151.503 157.349 166.863  0.00  0.00    +0.109 A 
ATOM     13  C8  UNL     1     152.545 156.728 167.577  0.00  0.00    -0.030 A 
ATOM     14  C9  UNL     1     152.543 155.348 167.642  0.00  0.00    -0.022 A 
ATOM     15  C10 UNL     1     151.514 154.641 167.039  0.00  0.00    +0.043 A 
ATOM     16  C11 UNL     1     150.478 155.215 166.333  0.00  0.00    -0.023 A 
ATOM     17  C12 UNL     1     150.471 156.605 166.243  0.00  0.00    -0.030 A 
ATOM     18  C13 UNL     1     149.528 154.301 165.621  0.00  0.00    -0.018 C 
ATOM     19  C14 UNL     1     149.433 152.931 166.303  0.00  0.00    +0.029 C 
ATOM     20  C15 UNL     1     150.774 152.352 166.750  0.00  0.00    +0.220 C 
ATOM     21  O4  UNL     1     150.972 151.139 166.795  0.00  0.00    -0.275 OA
ATOM     22  N2  UNL     1     151.678 153.278 167.199  0.00  0.00    -0.271 N 
ATOM     23  C16 UNL     1     152.964 153.022 167.847  0.00  0.00    +0.024 C 
ATOM     24  C17 UNL     1     153.501 154.402 168.301  0.00  0.00    -0.010 C 
ATOM     25  C18 UNL     1     151.571 160.345 163.512  0.00  0.00    -0.036 A 
ATOM     26  H   UNL     1     151.687 156.515 160.795  0.00  0.00    +0.000 HD
ATOM     27  H   UNL     1     153.523 159.713 165.739  0.00  0.00    +0.000 HD
ENDROOT
TORSDOF 0
ENDMDL
MODEL 5
REMARK VINA RESULT:    -4.274     11.281     15.043
REMARK INTER + INTRA:          -4.274
REMARK INTER:                  -4.274
REMARK INTRA:                   0.000
REMARK UNBOUND:                 0.000
REMARK  Name = /home/vital/Documents/PhD_2021/Malaria_codes/scripts/../data/pdbqt_ligands/ligand_202_temp.pdb
REMARK                            x       y       z     vdW  Elec       q    Type
REMARK                         _______ _______ _______ _____ _____    ______ ____
ROOT
ATOM      1  C1  UNL     1     151.667 163.462 168.517  0.00  0.00    -0.040 C 
ATOM      2  C2  UNL     1     151.075 162.184 168.001  0.00  0.00    -0.045 A 
ATOM      3  C3  UNL     1     150.435 161.294 168.874  0.00  0.00    -0.017 A 
ATOM      4  C4  UNL     1     149.932 160.089 168.388  0.00  0.00    +0.119 A 
ATOM      5  O1  UNL     1     149.303 159.200 169.211  0.00  0.00    -0.507 OA
ATOM      6  C5  UNL     1     150.058 159.748 167.047  0.00  0.00    +0.002 A 
ATOM      7  C6  UNL     1     150.700 160.627 166.178  0.00  0.00    +0.052 A 
ATOM      8  N1  UNL     1     150.880 160.263 164.815  0.00  0.00    -0.216 N 
ATOM      9  S1  UNL     1     152.294 159.433 164.401  0.00  0.00    +0.072 S 
ATOM     10  O2  UNL     1     152.362 159.461 162.954  0.00  0.00    -0.150 OA
ATOM     11  O3  UNL     1     153.396 159.917 165.203  0.00  0.00    -0.150 OA
ATOM     12  C7  UNL     1     151.922 157.762 164.881  0.00  0.00    +0.109 A 
ATOM     13  C8  UNL     1     151.132 156.969 164.027  0.00  0.00    -0.030 A 
ATOM     14  C9  UNL     1     150.853 155.677 164.428  0.00  0.00    -0.022 A 
ATOM     15  C10 UNL     1     151.378 155.208 165.622  0.00  0.00    +0.043 A 
ATOM     16  C11 UNL     1     152.155 155.955 166.483  0.00  0.00    -0.023 A 
ATOM     17  C12 UNL     1     152.436 157.266 166.102  0.00  0.00    -0.030 A 
ATOM     18  C13 UNL     1     152.523 155.344 167.800  0.00  0.00    -0.018 C 
ATOM     19  C14 UNL     1     152.569 153.813 167.726  0.00  0.00    +0.029 C 
ATOM     20  C15 UNL     1     151.417 153.181 166.948  0.00  0.00    +0.220 C 
ATOM     21  O4  UNL     1     150.989 152.061 167.222  0.00  0.00    -0.275 OA
ATOM     22  N2  UNL     1     150.991 153.904 165.865  0.00  0.00    -0.271 N 
ATOM     23  C16 UNL     1     150.039 153.486 164.836  0.00  0.00    +0.024 C 
ATOM     24  C17 UNL     1     150.044 154.603 163.764  0.00  0.00    -0.010 C 
ATOM     25  C18 UNL     1     151.217 161.834 166.651  0.00  0.00    -0.036 A 
ATOM     26  H   UNL     1     149.200 159.396 170.122  0.00  0.00    +0.000 HD
ATOM     27  H   UNL     1     150.204 160.486 164.135  0.00  0.00    +0.000 HD
ENDROOT
TORSDOF 0
ENDMDL
MODEL 6
REMARK VINA RESULT:    -4.109     14.259     17.243
REMARK INTER + INTRA:          -4.109
REMARK INTER:                  -4.109
REMARK INTRA:                   0.000
REMARK UNBOUND:                 0.000
REMARK  Name = /home/vital/Documents/PhD_2021/Malaria_codes/scripts/../data/pdbqt_ligands/ligand_202_temp.pdb
REMARK                            x       y       z     vdW  Elec       q    Type
REMARK                         _______ _______ _______ _____ _____    ______ ____
ROOT
ATOM      1  C1  UNL     1     153.502 163.535 170.981  0.00  0.00    -0.040 C 
ATOM      2  C2  UNL     1     153.591 162.388 170.019  0.00  0.00    -0.045 A 
ATOM      3  C3  UNL     1     154.526 162.406 168.976  0.00  0.00    -0.017 A 
ATOM      4  C4  UNL     1     154.565 161.356 168.061  0.00  0.00    +0.119 A 
ATOM      5  O1  UNL     1     155.464 161.343 167.034  0.00  0.00    -0.507 OA
ATOM      6  C5  UNL     1     153.685 160.286 168.162  0.00  0.00    +0.002 A 
ATOM      7  C6  UNL     1     152.749 160.268 169.193  0.00  0.00    +0.052 A 
ATOM      8  N1  UNL     1     151.810 159.202 169.272  0.00  0.00    -0.216 N 
ATOM      9  S1  UNL     1     150.337 159.387 168.462  0.00  0.00    +0.072 S 
ATOM     10  O2  UNL     1     149.479 158.327 168.949  0.00  0.00    -0.150 OA
ATOM     11  O3  UNL     1     149.916 160.770 168.526  0.00  0.00    -0.150 OA
ATOM     12  C7  UNL     1     150.764 158.992 166.782  0.00  0.00    +0.109 A 
ATOM     13  C8  UNL     1     150.871 157.639 166.408  0.00  0.00    -0.030 A 
ATOM     14  C9  UNL     1     151.211 157.362 165.098  0.00  0.00    -0.022 A 
ATOM     15  C10 UNL     1     151.399 158.408 164.208  0.00  0.00    +0.043 A 
ATOM     16  C11 UNL     1     151.302 159.744 164.538  0.00  0.00    -0.023 A 
ATOM     17  C12 UNL     1     150.974 160.044 165.859  0.00  0.00    -0.030 A 
ATOM     18  C13 UNL     1     151.676 160.750 163.494  0.00  0.00    -0.018 C 
ATOM     19  C14 UNL     1     151.461 160.209 162.075  0.00  0.00    +0.029 C 
ATOM     20  C15 UNL     1     151.924 158.768 161.870  0.00  0.00    +0.220 C 
ATOM     21  O4  UNL     1     152.332 158.368 160.781  0.00  0.00    -0.275 OA
ATOM     22  N2  UNL     1     151.738 157.946 162.951  0.00  0.00    -0.271 N 
ATOM     23  C16 UNL     1     151.916 156.495 163.004  0.00  0.00    +0.024 C 
ATOM     24  C17 UNL     1     151.415 156.050 164.400  0.00  0.00    -0.010 C 
ATOM     25  C18 UNL     1     152.691 161.316 170.112  0.00  0.00    -0.036 A 
ATOM     26  H   UNL     1     156.073 162.048 166.935  0.00  0.00    +0.000 HD
ATOM     27  H   UNL     1     152.010 158.384 169.782  0.00  0.00    +0.000 HD
ENDROOT
TORSDOF 0
ENDMDL
MODEL 7
REMARK VINA RESULT:    -3.760      2.334      6.702
REMARK INTER + INTRA:          -3.760
REMARK INTER:                  -3.760
REMARK INTRA:                   0.000
REMARK UNBOUND:                 0.000
REMARK  Name = /home/vital/Documents/PhD_2021/Malaria_codes/scripts/../data/pdbqt_ligands/ligand_202_temp.pdb
REMARK                            x       y       z     vdW  Elec       q    Type
REMARK                         _______ _______ _______ _____ _____    ______ ____
ROOT
ATOM      1  C1  UNL     1     146.062 139.595 165.770  0.00  0.00    -0.040 C 
ATOM      2  C2  UNL     1     145.440 140.753 165.047  0.00  0.00    -0.045 A 
ATOM      3  C3  UNL     1     145.961 141.188 163.821  0.00  0.00    -0.017 A 
ATOM      4  C4  UNL     1     145.403 142.295 163.185  0.00  0.00    +0.119 A 
ATOM      5  O1  UNL     1     145.886 142.744 161.991  0.00  0.00    -0.507 OA
ATOM      6  C5  UNL     1     144.335 142.982 163.748  0.00  0.00    +0.002 A 
ATOM      7  C6  UNL     1     143.819 142.557 164.970  0.00  0.00    +0.052 A 
ATOM      8  N1  UNL     1     142.760 143.286 165.579  0.00  0.00    -0.216 N 
ATOM      9  S1  UNL     1     143.173 144.543 166.632  0.00  0.00    +0.072 S 
ATOM     10  O2  UNL     1     141.951 144.898 167.324  0.00  0.00    -0.150 OA
ATOM     11  O3  UNL     1     144.366 144.189 167.370  0.00  0.00    -0.150 OA
ATOM     12  C7  UNL     1     143.557 145.875 165.519  0.00  0.00    +0.109 A 
ATOM     13  C8  UNL     1     142.501 146.613 164.952  0.00  0.00    -0.030 A 
ATOM     14  C9  UNL     1     142.828 147.638 164.085  0.00  0.00    -0.022 A 
ATOM     15  C10 UNL     1     144.163 147.916 163.836  0.00  0.00    +0.043 A 
ATOM     16  C11 UNL     1     145.223 147.216 164.373  0.00  0.00    -0.023 A 
ATOM     17  C12 UNL     1     144.912 146.169 165.238  0.00  0.00    -0.030 A 
ATOM     18  C13 UNL     1     146.600 147.552 163.888  0.00  0.00    -0.018 C 
ATOM     19  C14 UNL     1     146.698 149.007 163.412  0.00  0.00    +0.029 C 
ATOM     20  C15 UNL     1     145.515 149.479 162.570  0.00  0.00    +0.220 C 
ATOM     21  O4  UNL     1     145.643 150.335 161.696  0.00  0.00    -0.275 OA
ATOM     22  N2  UNL     1     144.301 148.963 162.944  0.00  0.00    -0.271 N 
ATOM     23  C16 UNL     1     142.980 149.353 162.452  0.00  0.00    +0.024 C 
ATOM     24  C17 UNL     1     141.953 148.584 163.320  0.00  0.00    -0.010 C 
ATOM     25  C18 UNL     1     144.372 141.455 165.624  0.00  0.00    -0.036 A 
ATOM     26  H   UNL     1     146.606 142.305 161.581  0.00  0.00    +0.000 HD
ATOM     27  H   UNL     1     141.818 143.066 165.394  0.00  0.00    +0.000 HD
ENDROOT
TORSDOF 0
ENDMDL
MODEL 8
REMARK VINA RESULT:    -3.246     12.157     16.234
REMARK INTER + INTRA:          -3.246
REMARK INTER:                  -3.246
REMARK INTRA:                   0.000
REMARK UNBOUND:                 0.000
REMARK  Name = /home/vital/Documents/PhD_2021/Malaria_codes/scripts/../data/pdbqt_ligands/ligand_202_temp.pdb
REMARK                            x       y       z     vdW  Elec       q    Type
REMARK                         _______ _______ _______ _____ _____    ______ ____
ROOT
ATOM      1  C1  UNL     1     150.777 163.532 169.839  0.00  0.00    -0.040 C 
ATOM      2  C2  UNL     1     150.482 162.724 168.610  0.00  0.00    -0.045 A 
ATOM      3  C3  UNL     1     149.292 161.991 168.511  0.00  0.00    -0.017 A 
ATOM      4  C4  UNL     1     149.053 161.207 167.384  0.00  0.00    +0.119 A 
ATOM      5  O1  UNL     1     147.905 160.481 167.256  0.00  0.00    -0.507 OA
ATOM      6  C5  UNL     1     149.981 161.135 166.352  0.00  0.00    +0.002 A 
ATOM      7  C6  UNL     1     151.167 161.857 166.450  0.00  0.00    +0.052 A 
ATOM      8  N1  UNL     1     152.145 161.748 165.423  0.00  0.00    -0.216 N 
ATOM      9  S1  UNL     1     153.320 160.542 165.578  0.00  0.00    +0.072 S 
ATOM     10  O2  UNL     1     154.334 160.845 164.588  0.00  0.00    -0.150 OA
ATOM     11  O3  UNL     1     153.671 160.379 166.972  0.00  0.00    -0.150 OA
ATOM     12  C7  UNL     1     152.461 159.086 165.025  0.00  0.00    +0.109 A 
ATOM     13  C8  UNL     1     152.323 158.862 163.642  0.00  0.00    -0.030 A 
ATOM     14  C9  UNL     1     151.645 157.727 163.242  0.00  0.00    -0.022 A 
ATOM     15  C10 UNL     1     151.162 156.850 164.201  0.00  0.00    +0.043 A 
ATOM     16  C11 UNL     1     151.278 157.037 165.563  0.00  0.00    -0.023 A 
ATOM     17  C12 UNL     1     151.947 158.184 165.986  0.00  0.00    -0.030 A 
ATOM     18  C13 UNL     1     150.575 156.068 166.463  0.00  0.00    -0.018 C 
ATOM     19  C14 UNL     1     150.412 154.692 165.806  0.00  0.00    +0.029 C 
ATOM     20  C15 UNL     1     149.985 154.736 164.340  0.00  0.00    +0.220 C 
ATOM     21  O4  UNL     1     149.310 153.841 163.836  0.00  0.00    -0.275 OA
ATOM     22  N2  UNL     1     150.508 155.779 163.621  0.00  0.00    -0.271 N 
ATOM     23  C16 UNL     1     150.428 155.991 162.176  0.00  0.00    +0.024 C 
ATOM     24  C17 UNL     1     151.323 157.217 161.870  0.00  0.00    -0.010 C 
ATOM     25  C18 UNL     1     151.425 162.640 167.576  0.00  0.00    -0.036 A 
ATOM     26  H   UNL     1     147.257 160.505 167.932  0.00  0.00    +0.000 HD
ATOM     27  H   UNL     1     152.138 162.354 164.647  0.00  0.00    +0.000 HD
ENDROOT
TORSDOF 0
ENDMDL
MODEL 9
REMARK VINA RESULT:    -3.058      3.015      3.217
REMARK INTER + INTRA:          -3.058
REMARK INTER:                  -3.058
REMARK INTRA:                   0.000
REMARK UNBOUND:                 0.000
REMARK  Name = /home/vital/Documents/PhD_2021/Malaria_codes/scripts/../data/pdbqt_ligands/ligand_202_temp.pdb
REMARK                            x       y       z     vdW  Elec       q    Type
REMARK                         _______ _______ _______ _____ _____    ______ ____
ROOT
ATOM      1  C1  UNL     1     146.602 150.451 163.640  0.00  0.00    -0.040 C 
ATOM      2  C2  UNL     1     146.053 149.226 164.311  0.00  0.00    -0.045 A 
ATOM      3  C3  UNL     1     146.498 147.951 163.937  0.00  0.00    -0.017 A 
ATOM      4  C4  UNL     1     145.945 146.821 164.536  0.00  0.00    +0.119 A 
ATOM      5  O1  UNL     1     146.356 145.565 164.195  0.00  0.00    -0.507 OA
ATOM      6  C5  UNL     1     144.950 146.935 165.499  0.00  0.00    +0.002 A 
ATOM      7  C6  UNL     1     144.500 148.200 165.867  0.00  0.00    +0.052 A 
ATOM      8  N1  UNL     1     143.446 148.323 166.814  0.00  0.00    -0.216 N 
ATOM      9  S1  UNL     1     141.860 148.356 166.228  0.00  0.00    +0.072 S 
ATOM     10  O2  UNL     1     141.034 148.786 167.338  0.00  0.00    -0.150 OA
ATOM     11  O3  UNL     1     141.822 149.056 164.962  0.00  0.00    -0.150 OA
ATOM     12  C7  UNL     1     141.512 146.635 165.946  0.00  0.00    +0.109 A 
ATOM     13  C8  UNL     1     141.157 145.825 167.041  0.00  0.00    -0.030 A 
ATOM     14  C9  UNL     1     140.900 144.490 166.793  0.00  0.00    -0.022 A 
ATOM     15  C10 UNL     1     140.968 144.015 165.493  0.00  0.00    +0.043 A 
ATOM     16  C11 UNL     1     141.312 144.778 164.397  0.00  0.00    -0.023 A 
ATOM     17  C12 UNL     1     141.590 146.124 164.629  0.00  0.00    -0.030 A 
ATOM     18  C13 UNL     1     141.480 144.079 163.083  0.00  0.00    -0.018 C 
ATOM     19  C14 UNL     1     140.623 142.809 162.998  0.00  0.00    +0.029 C 
ATOM     20  C15 UNL     1     140.631 141.954 164.264  0.00  0.00    +0.220 C 
ATOM     21  O4  UNL     1     140.490 140.733 164.220  0.00  0.00    -0.275 OA
ATOM     22  N2  UNL     1     140.688 142.663 165.435  0.00  0.00    -0.271 N 
ATOM     23  C16 UNL     1     140.537 142.145 166.795  0.00  0.00    +0.024 C 
ATOM     24  C17 UNL     1     140.517 143.382 167.727  0.00  0.00    -0.010 C 
ATOM     25  C18 UNL     1     145.038 149.341 165.271  0.00  0.00    -0.036 A 
ATOM     26  H   UNL     1     147.025 145.451 163.548  0.00  0.00    +0.000 HD
ATOM     27  H   UNL     1     143.632 148.388 167.779  0.00  0.00    +0.000 HD
ENDROOT
TORSDOF 0
ENDMDL
