MODEL 1
REMARK VINA RESULT:    -4.200      0.000      0.000
REMARK INTER + INTRA:          -4.200
REMARK INTER:                  -4.200
REMARK INTRA:                   0.000
REMARK UNBOUND:                 0.000
REMARK  Name = /home/vital/Documents/PhD_2021/Malaria_codes/scripts/../data/pdbqt_ligands/ligand_192_temp.pdb
REMARK                            x       y       z     vdW  Elec       q    Type
REMARK                         _______ _______ _______ _____ _____    ______ ____
ROOT
ATOM      1  C   UNL     1     152.522 156.010 167.764  0.00  0.00    -0.051 C 
ATOM      2  C   UNL     1     151.568 156.489 166.677  0.00  0.00    +0.011 C 
ATOM      3  N   UNL     1     151.793 157.891 166.272  0.00  0.00    -0.239 NA
ATOM      4  C   UNL     1     151.394 158.857 167.328  0.00  0.00    +0.041 C 
ATOM      5  C   UNL     1     152.514 159.807 167.721  0.00  0.00    -0.007 A 
ATOM      6  C   UNL     1     153.434 159.423 168.715  0.00  0.00    -0.055 A 
ATOM      7  C   UNL     1     154.478 160.266 169.098  0.00  0.00    -0.061 A 
ATOM      8  C   UNL     1     154.628 161.507 168.489  0.00  0.00    -0.060 A 
ATOM      9  C   UNL     1     153.728 161.902 167.501  0.00  0.00    -0.036 A 
ATOM     10  C   UNL     1     152.664 161.071 167.123  0.00  0.00    +0.073 A 
ATOM     11  N   UNL     1     151.805 161.513 166.115  0.00  0.00    -0.199 N 
ATOM     12  C   UNL     1     150.735 162.181 166.365  0.00  0.00    +0.281 C 
ATOM     13  O   UNL     1     150.365 162.560 167.599  0.00  0.00    -0.481 OA
ATOM     14  N   UNL     1     149.815 162.592 165.458  0.00  0.00    -0.296 N 
ATOM     15  C   UNL     1     149.624 161.885 164.208  0.00  0.00    +0.033 C 
ATOM     16  C   UNL     1     150.745 162.203 163.271  0.00  0.00    -0.049 C 
ATOM     17  C   UNL     1     151.279 161.384 162.350  0.00  0.00    +0.038 C 
ATOM     18 CL   UNL     1     152.555 161.986 161.335  0.00  0.00    -0.084 Cl
ATOM     19  C   UNL     1     150.844 160.043 162.046  0.00  0.00    -0.046 C 
ATOM     20  C   UNL     1     151.070 158.925 162.757  0.00  0.00    -0.068 C 
ATOM     21  C   UNL     1     151.848 158.773 164.037  0.00  0.00    +0.029 C 
ATOM     22  N   UNL     1     150.983 158.162 165.061  0.00  0.00    -0.250 NA
ATOM     23  H   UNL     1     152.026 161.307 165.178  0.00  0.00    +0.000 HD
ATOM     24  H   UNL     1     150.903 162.347 168.336  0.00  0.00    +0.000 HD
ATOM     25  H   UNL     1     149.266 163.386 165.653  0.00  0.00    +0.000 HD
ATOM     26  H   UNL     1     150.223 158.801 165.293  0.00  0.00    +0.000 HD
ENDROOT
TORSDOF 0
ENDMDL
MODEL 2
REMARK VINA RESULT:    -3.734     15.083     17.805
REMARK INTER + INTRA:          -3.734
REMARK INTER:                  -3.734
REMARK INTRA:                   0.000
REMARK UNBOUND:                 0.000
REMARK  Name = /home/vital/Documents/PhD_2021/Malaria_codes/scripts/../data/pdbqt_ligands/ligand_192_temp.pdb
REMARK                            x       y       z     vdW  Elec       q    Type
REMARK                         _______ _______ _______ _____ _____    ______ ____
ROOT
ATOM      1  C   UNL     1     142.009 140.625 166.466  0.00  0.00    -0.051 C 
ATOM      2  C   UNL     1     141.744 142.023 167.012  0.00  0.00    +0.011 C 
ATOM      3  N   UNL     1     142.436 143.089 166.261  0.00  0.00    -0.239 NA
ATOM      4  C   UNL     1     143.907 143.068 166.471  0.00  0.00    +0.041 C 
ATOM      5  C   UNL     1     144.694 142.978 165.174  0.00  0.00    -0.007 A 
ATOM      6  C   UNL     1     144.968 141.716 164.613  0.00  0.00    -0.055 A 
ATOM      7  C   UNL     1     145.683 141.596 163.420  0.00  0.00    -0.061 A 
ATOM      8  C   UNL     1     146.131 142.735 162.761  0.00  0.00    -0.060 A 
ATOM      9  C   UNL     1     145.866 143.992 163.300  0.00  0.00    -0.036 A 
ATOM     10  C   UNL     1     145.166 144.124 164.508  0.00  0.00    +0.073 A 
ATOM     11  N   UNL     1     144.916 145.410 164.991  0.00  0.00    -0.199 N 
ATOM     12  C   UNL     1     145.717 146.013 165.795  0.00  0.00    +0.281 C 
ATOM     13  O   UNL     1     146.886 145.496 166.208  0.00  0.00    -0.481 OA
ATOM     14  N   UNL     1     145.522 147.229 166.361  0.00  0.00    -0.296 N 
ATOM     15  C   UNL     1     144.188 147.753 166.577  0.00  0.00    +0.033 C 
ATOM     16  C   UNL     1     143.613 148.222 165.278  0.00  0.00    -0.049 C 
ATOM     17  C   UNL     1     142.321 148.190 164.914  0.00  0.00    +0.038 C 
ATOM     18 CL   UNL     1     141.873 148.835 163.363  0.00  0.00    -0.084 Cl
ATOM     19  C   UNL     1     141.217 147.738 165.725  0.00  0.00    -0.046 C 
ATOM     20  C   UNL     1     140.872 146.471 166.011  0.00  0.00    -0.068 C 
ATOM     21  C   UNL     1     141.528 145.197 165.549  0.00  0.00    +0.029 C 
ATOM     22  N   UNL     1     141.917 144.398 166.723  0.00  0.00    -0.250 NA
ATOM     23  H   UNL     1     144.095 145.872 164.705  0.00  0.00    +0.000 HD
ATOM     24  H   UNL     1     147.161 144.655 165.901  0.00  0.00    +0.000 HD
ATOM     25  H   UNL     1     146.301 147.767 166.630  0.00  0.00    +0.000 HD
ATOM     26  H   UNL     1     142.642 144.888 167.247  0.00  0.00    +0.000 HD
ENDROOT
TORSDOF 0
ENDMDL
MODEL 3
REMARK VINA RESULT:    -3.642      2.571      5.085
REMARK INTER + INTRA:          -3.642
REMARK INTER:                  -3.642
REMARK INTRA:                   0.000
REMARK UNBOUND:                 0.000
REMARK  Name = /home/vital/Documents/PhD_2021/Malaria_codes/scripts/../data/pdbqt_ligands/ligand_192_temp.pdb
REMARK                            x       y       z     vdW  Elec       q    Type
REMARK                         _______ _______ _______ _____ _____    ______ ____
ROOT
ATOM      1  C   UNL     1     150.214 155.023 165.180  0.00  0.00    -0.051 C 
ATOM      2  C   UNL     1     150.655 155.783 166.425  0.00  0.00    +0.011 C 
ATOM      3  N   UNL     1     150.852 157.228 166.194  0.00  0.00    -0.239 NA
ATOM      4  C   UNL     1     152.044 157.511 165.353  0.00  0.00    +0.041 C 
ATOM      5  C   UNL     1     151.723 158.343 164.123  0.00  0.00    -0.007 A 
ATOM      6  C   UNL     1     151.304 157.703 162.941  0.00  0.00    -0.055 A 
ATOM      7  C   UNL     1     150.995 158.435 161.793  0.00  0.00    -0.061 A 
ATOM      8  C   UNL     1     151.092 159.822 161.807  0.00  0.00    -0.060 A 
ATOM      9  C   UNL     1     151.502 160.472 162.969  0.00  0.00    -0.036 A 
ATOM     10  C   UNL     1     151.833 159.746 164.121  0.00  0.00    +0.073 A 
ATOM     11  N   UNL     1     152.222 160.453 165.260  0.00  0.00    -0.199 N 
ATOM     12  C   UNL     1     153.451 160.737 165.510  0.00  0.00    +0.281 C 
ATOM     13  O   UNL     1     154.468 160.432 164.688  0.00  0.00    -0.481 OA
ATOM     14  N   UNL     1     153.921 161.361 166.618  0.00  0.00    -0.296 N 
ATOM     15  C   UNL     1     153.208 161.294 167.879  0.00  0.00    +0.033 C 
ATOM     16  C   UNL     1     152.015 162.194 167.832  0.00  0.00    -0.049 C 
ATOM     17  C   UNL     1     150.837 162.000 168.448  0.00  0.00    +0.038 C 
ATOM     18 CL   UNL     1     149.599 163.209 168.288  0.00  0.00    -0.084 Cl
ATOM     19  C   UNL     1     150.502 160.901 169.320  0.00  0.00    -0.046 C 
ATOM     20  C   UNL     1     150.206 159.637 168.973  0.00  0.00    -0.068 C 
ATOM     21  C   UNL     1     150.124 159.042 167.593  0.00  0.00    +0.029 C 
ATOM     22  N   UNL     1     151.038 157.890 167.507  0.00  0.00    -0.250 NA
ATOM     23  H   UNL     1     151.529 160.745 165.896  0.00  0.00    +0.000 HD
ATOM     24  H   UNL     1     154.299 159.996 163.877  0.00  0.00    +0.000 HD
ATOM     25  H   UNL     1     154.763 161.868 166.566  0.00  0.00    +0.000 HD
ATOM     26  H   UNL     1     152.002 158.210 167.595  0.00  0.00    +0.000 HD
ENDROOT
TORSDOF 0
ENDMDL
MODEL 4
REMARK VINA RESULT:    -3.575     15.685     17.359
REMARK INTER + INTRA:          -3.575
REMARK INTER:                  -3.575
REMARK INTRA:                   0.000
REMARK UNBOUND:                 0.000
REMARK  Name = /home/vital/Documents/PhD_2021/Malaria_codes/scripts/../data/pdbqt_ligands/ligand_192_temp.pdb
REMARK                            x       y       z     vdW  Elec       q    Type
REMARK                         _______ _______ _______ _____ _____    ______ ____
ROOT
ATOM      1  C   UNL     1     140.490 148.531 162.123  0.00  0.00    -0.051 C 
ATOM      2  C   UNL     1     141.381 147.302 161.988  0.00  0.00    +0.011 C 
ATOM      3  N   UNL     1     141.906 146.812 163.278  0.00  0.00    -0.239 NA
ATOM      4  C   UNL     1     142.919 147.729 163.863  0.00  0.00    +0.041 C 
ATOM      5  C   UNL     1     142.575 148.173 165.276  0.00  0.00    -0.007 A 
ATOM      6  C   UNL     1     141.752 149.299 165.469  0.00  0.00    -0.055 A 
ATOM      7  C   UNL     1     141.411 149.733 166.752  0.00  0.00    -0.061 A 
ATOM      8  C   UNL     1     141.881 149.045 167.865  0.00  0.00    -0.060 A 
ATOM      9  C   UNL     1     142.694 147.927 167.692  0.00  0.00    -0.036 A 
ATOM     10  C   UNL     1     143.059 147.495 166.409  0.00  0.00    +0.073 A 
ATOM     11  N   UNL     1     143.863 146.359 166.297  0.00  0.00    -0.199 N 
ATOM     12  C   UNL     1     145.146 146.423 166.259  0.00  0.00    +0.281 C 
ATOM     13  O   UNL     1     145.839 147.568 166.372  0.00  0.00    -0.481 OA
ATOM     14  N   UNL     1     145.997 145.382 166.088  0.00  0.00    -0.296 N 
ATOM     15  C   UNL     1     145.584 144.180 165.390  0.00  0.00    +0.033 C 
ATOM     16  C   UNL     1     144.700 143.361 166.275  0.00  0.00    -0.049 C 
ATOM     17  C   UNL     1     143.677 142.582 165.888  0.00  0.00    +0.038 C 
ATOM     18 CL   UNL     1     142.809 141.679 167.094  0.00  0.00    -0.084 Cl
ATOM     19  C   UNL     1     143.254 142.340 164.530  0.00  0.00    -0.046 C 
ATOM     20  C   UNL     1     142.558 143.162 163.727  0.00  0.00    -0.068 C 
ATOM     21  C   UNL     1     142.020 144.534 164.037  0.00  0.00    +0.029 C 
ATOM     22  N   UNL     1     142.546 145.495 163.051  0.00  0.00    -0.250 NA
ATOM     23  H   UNL     1     143.431 145.475 166.246  0.00  0.00    +0.000 HD
ATOM     24  H   UNL     1     145.386 148.379 166.496  0.00  0.00    +0.000 HD
ATOM     25  H   UNL     1     146.913 145.443 166.444  0.00  0.00    +0.000 HD
ATOM     26  H   UNL     1     143.556 145.581 163.161  0.00  0.00    +0.000 HD
ENDROOT
TORSDOF 0
ENDMDL
MODEL 5
REMARK VINA RESULT:    -3.423      4.402      6.947
REMARK INTER + INTRA:          -3.423
REMARK INTER:                  -3.423
REMARK INTRA:                   0.000
REMARK UNBOUND:                 0.000
REMARK  Name = /home/vital/Documents/PhD_2021/Malaria_codes/scripts/../data/pdbqt_ligands/ligand_192_temp.pdb
REMARK                            x       y       z     vdW  Elec       q    Type
REMARK                         _______ _______ _______ _____ _____    ______ ____
ROOT
ATOM      1  C   UNL     1     151.094 158.191 161.510  0.00  0.00    -0.051 C 
ATOM      2  C   UNL     1     151.129 156.682 161.723  0.00  0.00    +0.011 C 
ATOM      3  N   UNL     1     150.898 156.280 163.125  0.00  0.00    -0.239 NA
ATOM      4  C   UNL     1     152.036 156.634 164.012  0.00  0.00    +0.041 C 
ATOM      5  C   UNL     1     151.623 157.482 165.203  0.00  0.00    -0.007 A 
ATOM      6  C   UNL     1     151.565 158.883 165.071  0.00  0.00    -0.055 A 
ATOM      7  C   UNL     1     151.184 159.695 166.142  0.00  0.00    -0.061 A 
ATOM      8  C   UNL     1     150.847 159.120 167.363  0.00  0.00    -0.060 A 
ATOM      9  C   UNL     1     150.897 157.736 167.510  0.00  0.00    -0.036 A 
ATOM     10  C   UNL     1     151.296 156.913 166.447  0.00  0.00    +0.073 A 
ATOM     11  N   UNL     1     151.311 155.531 166.649  0.00  0.00    -0.199 N 
ATOM     12  C   UNL     1     152.354 154.906 167.065  0.00  0.00    +0.281 C 
ATOM     13  O   UNL     1     153.506 155.514 167.393  0.00  0.00    -0.481 OA
ATOM     14  N   UNL     1     152.475 153.565 167.226  0.00  0.00    -0.296 N 
ATOM     15  C   UNL     1     151.673 152.639 166.451  0.00  0.00    +0.033 C 
ATOM     16  C   UNL     1     150.275 152.615 166.983  0.00  0.00    -0.049 C 
ATOM     17  C   UNL     1     149.150 152.424 166.275  0.00  0.00    +0.038 C 
ATOM     18 CL   UNL     1     147.628 152.391 167.114  0.00  0.00    -0.084 Cl
ATOM     19  C   UNL     1     149.068 152.153 164.860  0.00  0.00    -0.046 C 
ATOM     20  C   UNL     1     149.218 153.024 163.847  0.00  0.00    -0.068 C 
ATOM     21  C   UNL     1     149.488 154.503 163.919  0.00  0.00    +0.029 C 
ATOM     22  N   UNL     1     150.715 154.810 163.164  0.00  0.00    -0.250 NA
ATOM     23  H   UNL     1     150.492 155.017 166.465  0.00  0.00    +0.000 HD
ATOM     24  H   UNL     1     153.577 156.446 167.333  0.00  0.00    +0.000 HD
ATOM     25  H   UNL     1     153.120 153.214 167.882  0.00  0.00    +0.000 HD
ATOM     26  H   UNL     1     151.516 154.377 163.623  0.00  0.00    +0.000 HD
ENDROOT
TORSDOF 0
ENDMDL
MODEL 6
REMARK VINA RESULT:    -3.288     16.514     19.400
REMARK INTER + INTRA:          -3.288
REMARK INTER:                  -3.288
REMARK INTRA:                   0.000
REMARK UNBOUND:                 0.000
REMARK  Name = /home/vital/Documents/PhD_2021/Malaria_codes/scripts/../data/pdbqt_ligands/ligand_192_temp.pdb
REMARK                            x       y       z     vdW  Elec       q    Type
REMARK                         _______ _______ _______ _____ _____    ______ ____
ROOT
ATOM      1  C   UNL     1     141.369 147.212 163.380  0.00  0.00    -0.051 C 
ATOM      2  C   UNL     1     141.089 145.715 163.320  0.00  0.00    +0.011 C 
ATOM      3  N   UNL     1     142.004 144.911 164.153  0.00  0.00    -0.239 NA
ATOM      4  C   UNL     1     143.386 144.877 163.608  0.00  0.00    +0.041 C 
ATOM      5  C   UNL     1     144.434 145.337 164.608  0.00  0.00    -0.007 A 
ATOM      6  C   UNL     1     144.736 146.707 164.718  0.00  0.00    -0.055 A 
ATOM      7  C   UNL     1     145.689 147.167 165.630  0.00  0.00    -0.061 A 
ATOM      8  C   UNL     1     146.351 146.265 166.455  0.00  0.00    -0.060 A 
ATOM      9  C   UNL     1     146.062 144.905 166.361  0.00  0.00    -0.036 A 
ATOM     10  C   UNL     1     145.122 144.431 165.436  0.00  0.00    +0.073 A 
ATOM     11  N   UNL     1     144.862 143.060 165.399  0.00  0.00    -0.199 N 
ATOM     12  C   UNL     1     145.505 142.256 164.629  0.00  0.00    +0.281 C 
ATOM     13  O   UNL     1     146.514 142.638 163.829  0.00  0.00    -0.481 OA
ATOM     14  N   UNL     1     145.276 140.928 164.484  0.00  0.00    -0.296 N 
ATOM     15  C   UNL     1     143.967 140.359 164.739  0.00  0.00    +0.033 C 
ATOM     16  C   UNL     1     143.730 140.277 166.213  0.00  0.00    -0.049 C 
ATOM     17  C   UNL     1     142.553 140.406 166.845  0.00  0.00    +0.038 C 
ATOM     18 CL   UNL     1     142.507 140.228 168.574  0.00  0.00    -0.084 Cl
ATOM     19  C   UNL     1     141.267 140.603 166.222  0.00  0.00    -0.046 C 
ATOM     20  C   UNL     1     140.778 141.734 165.686  0.00  0.00    -0.068 C 
ATOM     21  C   UNL     1     141.429 143.089 165.612  0.00  0.00    +0.029 C 
ATOM     22  N   UNL     1     141.489 143.522 164.205  0.00  0.00    -0.250 NA
ATOM     23  H   UNL     1     144.160 142.695 165.985  0.00  0.00    +0.000 HD
ATOM     24  H   UNL     1     146.790 143.533 163.818  0.00  0.00    +0.000 HD
ATOM     25  H   UNL     1     146.011 140.339 164.199  0.00  0.00    +0.000 HD
ATOM     26  H   UNL     1     142.112 142.906 163.683  0.00  0.00    +0.000 HD
ENDROOT
TORSDOF 0
ENDMDL
MODEL 7
REMARK VINA RESULT:    -3.148     14.610     17.293
REMARK INTER + INTRA:          -3.148
REMARK INTER:                  -3.148
REMARK INTRA:                   0.000
REMARK UNBOUND:                 0.000
REMARK  Name = /home/vital/Documents/PhD_2021/Malaria_codes/scripts/../data/pdbqt_ligands/ligand_192_temp.pdb
REMARK                            x       y       z     vdW  Elec       q    Type
REMARK                         _______ _______ _______ _____ _____    ______ ____
ROOT
ATOM      1  C   UNL     1     145.305 141.296 163.369  0.00  0.00    -0.051 C 
ATOM      2  C   UNL     1     145.635 142.693 162.859  0.00  0.00    +0.011 C 
ATOM      3  N   UNL     1     144.981 143.771 163.627  0.00  0.00    -0.239 NA
ATOM      4  C   UNL     1     143.513 143.817 163.402  0.00  0.00    +0.041 C 
ATOM      5  C   UNL     1     142.709 143.732 164.689  0.00  0.00    -0.007 A 
ATOM      6  C   UNL     1     142.375 142.471 165.218  0.00  0.00    -0.055 A 
ATOM      7  C   UNL     1     141.642 142.354 166.401  0.00  0.00    -0.061 A 
ATOM      8  C   UNL     1     141.236 143.496 167.081  0.00  0.00    -0.060 A 
ATOM      9  C   UNL     1     141.560 144.753 166.574  0.00  0.00    -0.036 A 
ATOM     10  C   UNL     1     142.278 144.881 165.377  0.00  0.00    +0.073 A 
ATOM     11  N   UNL     1     142.588 146.166 164.925  0.00  0.00    -0.199 N 
ATOM     12  C   UNL     1     141.822 146.821 164.128  0.00  0.00    +0.281 C 
ATOM     13  O   UNL     1     140.636 146.364 163.692  0.00  0.00    -0.481 OA
ATOM     14  N   UNL     1     142.074 148.040 163.592  0.00  0.00    -0.296 N 
ATOM     15  C   UNL     1     143.432 148.511 163.401  0.00  0.00    +0.033 C 
ATOM     16  C   UNL     1     144.012 148.926 164.716  0.00  0.00    -0.049 C 
ATOM     17  C   UNL     1     145.298 148.831 165.092  0.00  0.00    +0.038 C 
ATOM     18 CL   UNL     1     145.757 149.420 166.661  0.00  0.00    -0.084 Cl
ATOM     19  C   UNL     1     146.390 148.350 164.281  0.00  0.00    -0.046 C 
ATOM     20  C   UNL     1     146.684 147.077 163.969  0.00  0.00    -0.068 C 
ATOM     21  C   UNL     1     145.969 145.822 164.396  0.00  0.00    +0.029 C 
ATOM     22  N   UNL     1     145.560 145.066 163.200  0.00  0.00    -0.250 NA
ATOM     23  H   UNL     1     143.425 146.586 165.230  0.00  0.00    +0.000 HD
ATOM     24  H   UNL     1     140.322 145.529 163.977  0.00  0.00    +0.000 HD
ATOM     25  H   UNL     1     141.322 148.617 163.328  0.00  0.00    +0.000 HD
ATOM     26  H   UNL     1     144.862 145.599 162.681  0.00  0.00    +0.000 HD
ENDROOT
TORSDOF 0
ENDMDL
MODEL 8
REMARK VINA RESULT:    -3.043     14.288     17.095
REMARK INTER + INTRA:          -3.043
REMARK INTER:                  -3.043
REMARK INTRA:                   0.000
REMARK UNBOUND:                 0.000
REMARK  Name = /home/vital/Documents/PhD_2021/Malaria_codes/scripts/../data/pdbqt_ligands/ligand_192_temp.pdb
REMARK                            x       y       z     vdW  Elec       q    Type
REMARK                         _______ _______ _______ _____ _____    ______ ____
ROOT
ATOM      1  C   UNL     1     146.274 149.596 161.978  0.00  0.00    -0.051 C 
ATOM      2  C   UNL     1     146.308 148.633 163.158  0.00  0.00    +0.011 C 
ATOM      3  N   UNL     1     145.056 147.868 163.330  0.00  0.00    -0.239 NA
ATOM      4  C   UNL     1     143.932 148.718 163.799  0.00  0.00    +0.041 C 
ATOM      5  C   UNL     1     142.713 148.648 162.894  0.00  0.00    -0.007 A 
ATOM      6  C   UNL     1     142.622 149.507 161.782  0.00  0.00    -0.055 A 
ATOM      7  C   UNL     1     141.520 149.467 160.925  0.00  0.00    -0.061 A 
ATOM      8  C   UNL     1     140.492 148.561 161.159  0.00  0.00    -0.060 A 
ATOM      9  C   UNL     1     140.567 147.701 162.253  0.00  0.00    -0.036 A 
ATOM     10  C   UNL     1     141.659 147.747 163.131  0.00  0.00    +0.073 A 
ATOM     11  N   UNL     1     141.687 146.849 164.200  0.00  0.00    -0.199 N 
ATOM     12  C   UNL     1     141.196 147.134 165.353  0.00  0.00    +0.281 C 
ATOM     13  O   UNL     1     140.570 148.289 165.631  0.00  0.00    -0.481 OA
ATOM     14  N   UNL     1     141.237 146.352 166.459  0.00  0.00    -0.296 N 
ATOM     15  C   UNL     1     142.286 145.368 166.646  0.00  0.00    +0.033 C 
ATOM     16  C   UNL     1     142.029 144.183 165.770  0.00  0.00    -0.049 C 
ATOM     17  C   UNL     1     142.951 143.400 165.188  0.00  0.00    +0.038 C 
ATOM     18 CL   UNL     1     142.419 142.043 164.242  0.00  0.00    -0.084 Cl
ATOM     19  C   UNL     1     144.382 143.517 165.329  0.00  0.00    -0.046 C 
ATOM     20  C   UNL     1     145.194 144.417 164.750  0.00  0.00    -0.068 C 
ATOM     21  C   UNL     1     144.833 145.520 163.791  0.00  0.00    +0.029 C 
ATOM     22  N   UNL     1     145.292 146.808 164.339  0.00  0.00    -0.250 NA
ATOM     23  H   UNL     1     142.098 145.965 164.065  0.00  0.00    +0.000 HD
ATOM     24  H   UNL     1     140.462 148.937 164.962  0.00  0.00    +0.000 HD
ATOM     25  H   UNL     1     140.542 146.453 167.149  0.00  0.00    +0.000 HD
ATOM     26  H   UNL     1     144.773 147.023 165.189  0.00  0.00    +0.000 HD
ENDROOT
TORSDOF 0
ENDMDL
MODEL 9
REMARK VINA RESULT:    -2.854     15.202     18.075
REMARK INTER + INTRA:          -2.854
REMARK INTER:                  -2.854
REMARK INTRA:                   0.000
REMARK UNBOUND:                 0.000
REMARK  Name = /home/vital/Documents/PhD_2021/Malaria_codes/scripts/../data/pdbqt_ligands/ligand_192_temp.pdb
REMARK                            x       y       z     vdW  Elec       q    Type
REMARK                         _______ _______ _______ _____ _____    ______ ____
ROOT
ATOM      1  C   UNL     1     146.358 148.552 162.846  0.00  0.00    -0.051 C 
ATOM      2  C   UNL     1     146.558 147.286 163.670  0.00  0.00    +0.011 C 
ATOM      3  N   UNL     1     145.333 146.474 163.811  0.00  0.00    -0.239 NA
ATOM      4  C   UNL     1     144.320 147.123 164.684  0.00  0.00    +0.041 C 
ATOM      5  C   UNL     1     142.970 147.291 164.008  0.00  0.00    -0.007 A 
ATOM      6  C   UNL     1     142.721 148.436 163.227  0.00  0.00    -0.055 A 
ATOM      7  C   UNL     1     141.494 148.622 162.587  0.00  0.00    -0.061 A 
ATOM      8  C   UNL     1     140.496 147.662 162.708  0.00  0.00    -0.060 A 
ATOM      9  C   UNL     1     140.726 146.522 163.474  0.00  0.00    -0.036 A 
ATOM     10  C   UNL     1     141.946 146.335 164.138  0.00  0.00    +0.073 A 
ATOM     11  N   UNL     1     142.125 145.164 164.878  0.00  0.00    -0.199 N 
ATOM     12  C   UNL     1     141.834 145.087 166.128  0.00  0.00    +0.281 C 
ATOM     13  O   UNL     1     141.290 146.094 166.829  0.00  0.00    -0.481 OA
ATOM     14  N   UNL     1     142.035 144.016 166.934  0.00  0.00    -0.296 N 
ATOM     15  C   UNL     1     143.075 143.046 166.651  0.00  0.00    +0.033 C 
ATOM     16  C   UNL     1     142.650 142.164 165.521  0.00  0.00    -0.049 C 
ATOM     17  C   UNL     1     143.446 141.609 164.593  0.00  0.00    +0.038 C 
ATOM     18 CL   UNL     1     142.735 140.576 163.390  0.00  0.00    -0.084 Cl
ATOM     19  C   UNL     1     144.884 141.713 164.529  0.00  0.00    -0.046 C 
ATOM     20  C   UNL     1     145.614 142.763 164.115  0.00  0.00    -0.068 C 
ATOM     21  C   UNL     1     145.129 144.090 163.593  0.00  0.00    +0.029 C 
ATOM     22  N   UNL     1     145.703 145.172 164.412  0.00  0.00    -0.250 NA
ATOM     23  H   UNL     1     142.486 144.368 164.425  0.00  0.00    +0.000 HD
ATOM     24  H   UNL     1     141.092 146.906 166.406  0.00  0.00    +0.000 HD
ATOM     25  H   UNL     1     141.463 143.894 167.726  0.00  0.00    +0.000 HD
ATOM     26  H   UNL     1     145.334 145.115 165.361  0.00  0.00    +0.000 HD
ENDROOT
TORSDOF 0
ENDMDL
