MODEL 1
REMARK VINA RESULT:    -7.386      0.000      0.000
REMARK INTER + INTRA:          -7.386
REMARK INTER:                  -7.386
REMARK INTRA:                   0.000
REMARK UNBOUND:                 0.000
REMARK  Name = /home/vital/Documents/PhD_2021/Malaria_codes/scripts/../data/pdbqt_ligands/ligand_258_temp.pdb
REMARK                            x       y       z     vdW  Elec       q    Type
REMARK                         _______ _______ _______ _____ _____    ______ ____
ROOT
ATOM      1  C1  UNL     1     151.674 161.538 162.107  0.00  0.00    -0.060 C 
ATOM      2  C2  UNL     1     151.631 160.402 161.074  0.00  0.00    -0.013 C 
ATOM      3  C3  UNL     1     152.374 160.787 159.788  0.00  0.00    +0.027 C 
ATOM      4 CL1  UNL     1     151.731 162.248 158.994  0.00  0.00    -0.125 Cl
ATOM      5  C4  UNL     1     150.173 159.962 160.843  0.00  0.00    +0.035 C 
ATOM      6  N1  UNL     1     150.037 158.610 160.293  0.00  0.00    -0.231 N 
ATOM      7  C5  UNL     1     149.832 158.388 158.942  0.00  0.00    +0.099 C 
ATOM      8  N2  UNL     1     150.142 159.191 157.975  0.00  0.00    -0.247 NA
ATOM      9  C6  UNL     1     150.112 158.678 156.701  0.00  0.00    +0.029 C 
ATOM     10  C7  UNL     1     150.834 157.636 156.240  0.00  0.00    -0.044 C 
ATOM     11  C8  UNL     1     151.637 156.777 157.090  0.00  0.00    -0.060 C 
ATOM     12  C9  UNL     1     151.081 155.692 157.647  0.00  0.00    -0.060 C 
ATOM     13  C10 UNL     1     151.544 154.936 158.787  0.00  0.00    -0.044 C 
ATOM     14  C11 UNL     1     151.699 155.411 160.045  0.00  0.00    +0.022 C 
ATOM     15  C12 UNL     1     151.758 156.904 160.419  0.00  0.00    +0.082 C 
ATOM     16  N3  UNL     1     150.559 157.518 161.053  0.00  0.00    -0.098 NA
ATOM     17  O1  UNL     1     149.568 156.491 161.332  0.00  0.00    -0.277 OA
ATOM     18  C13 UNL     1     150.005 155.740 162.476  0.00  0.00    +0.087 C 
ATOM     19  C14 UNL     1     150.593 154.401 162.018  0.00  0.00    +0.034 C 
ATOM     20  N4  UNL     1     151.782 154.527 161.141  0.00  0.00    -0.344 N 
ATOM     21  H   UNL     1     152.603 154.011 161.317  0.00  0.00    +0.000 HD
ENDROOT
TORSDOF 0
ENDMDL
MODEL 2
REMARK VINA RESULT:    -7.166      2.479      5.238
REMARK INTER + INTRA:          -7.166
REMARK INTER:                  -7.166
REMARK INTRA:                   0.000
REMARK UNBOUND:                 0.000
REMARK  Name = /home/vital/Documents/PhD_2021/Malaria_codes/scripts/../data/pdbqt_ligands/ligand_258_temp.pdb
REMARK                            x       y       z     vdW  Elec       q    Type
REMARK                         _______ _______ _______ _____ _____    ______ ____
ROOT
ATOM      1  C1  UNL     1     151.491 154.521 161.890  0.00  0.00    -0.060 C 
ATOM      2  C2  UNL     1     151.581 156.002 161.496  0.00  0.00    -0.013 C 
ATOM      3  C3  UNL     1     152.402 156.803 162.515  0.00  0.00    +0.027 C 
ATOM      4 CL1  UNL     1     151.755 156.736 164.175  0.00  0.00    -0.125 Cl
ATOM      5  C4  UNL     1     150.168 156.566 161.256  0.00  0.00    +0.035 C 
ATOM      6  N1  UNL     1     150.137 157.769 160.419  0.00  0.00    -0.231 N 
ATOM      7  C5  UNL     1     150.049 159.038 160.966  0.00  0.00    +0.099 C 
ATOM      8  N2  UNL     1     150.395 159.384 162.164  0.00  0.00    -0.247 NA
ATOM      9  C6  UNL     1     150.487 160.729 162.425  0.00  0.00    +0.029 C 
ATOM     10  C7  UNL     1     151.290 161.614 161.797  0.00  0.00    -0.044 C 
ATOM     11  C8  UNL     1     152.065 161.294 160.613  0.00  0.00    -0.060 C 
ATOM     12  C9  UNL     1     151.518 161.465 159.401  0.00  0.00    -0.060 C 
ATOM     13  C10 UNL     1     151.926 160.878 158.145  0.00  0.00    -0.044 C 
ATOM     14  C11 UNL     1     151.961 159.555 157.862  0.00  0.00    +0.022 C 
ATOM     15  C12 UNL     1     151.922 158.430 158.912  0.00  0.00    +0.082 C 
ATOM     16  N3  UNL     1     150.649 157.676 159.087  0.00  0.00    -0.098 NA
ATOM     17  O1  UNL     1     149.689 158.088 158.076  0.00  0.00    -0.277 OA
ATOM     18  C13 UNL     1     150.071 157.497 156.824  0.00  0.00    +0.087 C 
ATOM     19  C14 UNL     1     150.754 158.551 155.945  0.00  0.00    +0.034 C 
ATOM     20  N4  UNL     1     152.001 159.109 156.524  0.00  0.00    -0.344 N 
ATOM     21  H   UNL     1     152.828 159.166 155.993  0.00  0.00    +0.000 HD
ENDROOT
TORSDOF 0
ENDMDL
MODEL 3
REMARK VINA RESULT:    -6.534      7.534      9.920
REMARK INTER + INTRA:          -6.534
REMARK INTER:                  -6.534
REMARK INTRA:                   0.000
REMARK UNBOUND:                 0.000
REMARK  Name = /home/vital/Documents/PhD_2021/Malaria_codes/scripts/../data/pdbqt_ligands/ligand_258_temp.pdb
REMARK                            x       y       z     vdW  Elec       q    Type
REMARK                         _______ _______ _______ _____ _____    ______ ____
ROOT
ATOM      1  C1  UNL     1     150.252 156.387 166.213  0.00  0.00    -0.060 C 
ATOM      2  C2  UNL     1     150.937 157.709 166.586  0.00  0.00    -0.013 C 
ATOM      3  C3  UNL     1     152.463 157.554 166.639  0.00  0.00    +0.027 C 
ATOM      4 CL1  UNL     1     153.022 156.323 167.802  0.00  0.00    -0.125 Cl
ATOM      5  C4  UNL     1     150.323 158.268 167.884  0.00  0.00    +0.035 C 
ATOM      6  N1  UNL     1     150.519 159.709 168.067  0.00  0.00    -0.231 N 
ATOM      7  C5  UNL     1     151.526 160.212 168.873  0.00  0.00    +0.099 C 
ATOM      8  N2  UNL     1     152.622 159.606 169.204  0.00  0.00    -0.247 NA
ATOM      9  C6  UNL     1     153.610 160.369 169.778  0.00  0.00    +0.029 C 
ATOM     10  C7  UNL     1     154.215 161.442 169.229  0.00  0.00    -0.044 C 
ATOM     11  C8  UNL     1     153.780 162.064 167.993  0.00  0.00    -0.060 C 
ATOM     12  C9  UNL     1     152.864 163.042 168.032  0.00  0.00    -0.060 C 
ATOM     13  C10 UNL     1     152.023 163.523 166.960  0.00  0.00    -0.044 C 
ATOM     14  C11 UNL     1     151.108 162.794 166.281  0.00  0.00    +0.022 C 
ATOM     15  C12 UNL     1     151.041 161.256 166.271  0.00  0.00    +0.082 C 
ATOM     16  N3  UNL     1     149.981 160.593 167.081  0.00  0.00    -0.098 NA
ATOM     17  O1  UNL     1     149.088 161.595 167.639  0.00  0.00    -0.277 OA
ATOM     18  C13 UNL     1     148.232 162.071 166.589  0.00  0.00    +0.087 C 
ATOM     19  C14 UNL     1     148.723 163.441 166.108  0.00  0.00    +0.034 C 
ATOM     20  N4  UNL     1     150.093 163.431 165.538  0.00  0.00    -0.344 N 
ATOM     21  H   UNL     1     150.286 163.854 164.670  0.00  0.00    +0.000 HD
ENDROOT
TORSDOF 0
ENDMDL
MODEL 4
REMARK VINA RESULT:    -6.348      5.781      8.169
REMARK INTER + INTRA:          -6.348
REMARK INTER:                  -6.348
REMARK INTRA:                   0.000
REMARK UNBOUND:                 0.000
REMARK  Name = /home/vital/Documents/PhD_2021/Malaria_codes/scripts/../data/pdbqt_ligands/ligand_258_temp.pdb
REMARK                            x       y       z     vdW  Elec       q    Type
REMARK                         _______ _______ _______ _____ _____    ______ ____
ROOT
ATOM      1  C1  UNL     1     154.464 160.499 169.688  0.00  0.00    -0.060 C 
ATOM      2  C2  UNL     1     153.492 160.934 168.582  0.00  0.00    -0.013 C 
ATOM      3  C3  UNL     1     153.433 162.463 168.458  0.00  0.00    +0.027 C 
ATOM      4 CL1  UNL     1     152.931 163.287 169.957  0.00  0.00    -0.125 Cl
ATOM      5  C4  UNL     1     152.119 160.274 168.804  0.00  0.00    +0.035 C 
ATOM      6  N1  UNL     1     151.288 160.200 167.598  0.00  0.00    -0.231 N 
ATOM      7  C5  UNL     1     150.287 161.123 167.343  0.00  0.00    +0.099 C 
ATOM      8  N2  UNL     1     150.211 162.324 167.818  0.00  0.00    -0.247 NA
ATOM      9  C6  UNL     1     149.299 163.171 167.236  0.00  0.00    +0.029 C 
ATOM     10  C7  UNL     1     149.264 163.541 165.939  0.00  0.00    -0.044 C 
ATOM     11  C8  UNL     1     150.103 162.951 164.913  0.00  0.00    -0.060 C 
ATOM     12  C9  UNL     1     149.672 161.868 164.250  0.00  0.00    -0.060 C 
ATOM     13  C10 UNL     1     150.450 160.912 163.496  0.00  0.00    -0.044 C 
ATOM     14  C11 UNL     1     151.436 160.127 163.989  0.00  0.00    +0.022 C 
ATOM     15  C12 UNL     1     152.150 160.353 165.335  0.00  0.00    +0.082 C 
ATOM     16  N3  UNL     1     151.790 159.468 166.478  0.00  0.00    -0.098 NA
ATOM     17  O1  UNL     1     150.886 158.422 166.028  0.00  0.00    -0.277 OA
ATOM     18  C13 UNL     1     151.648 157.454 165.291  0.00  0.00    +0.087 C 
ATOM     19  C14 UNL     1     151.425 157.657 163.789  0.00  0.00    +0.034 C 
ATOM     20  N4  UNL     1     151.861 158.982 163.283  0.00  0.00    -0.344 N 
ATOM     21  H   UNL     1     152.429 159.060 162.482  0.00  0.00    +0.000 HD
ENDROOT
TORSDOF 0
ENDMDL
MODEL 5
REMARK VINA RESULT:    -6.307     11.847     15.155
REMARK INTER + INTRA:          -6.307
REMARK INTER:                  -6.307
REMARK INTRA:                   0.000
REMARK UNBOUND:                 0.000
REMARK  Name = /home/vital/Documents/PhD_2021/Malaria_codes/scripts/../data/pdbqt_ligands/ligand_258_temp.pdb
REMARK                            x       y       z     vdW  Elec       q    Type
REMARK                         _______ _______ _______ _____ _____    ______ ____
ROOT
ATOM      1  C1  UNL     1     145.486 142.509 164.458  0.00  0.00    -0.060 C 
ATOM      2  C2  UNL     1     144.933 143.835 165.001  0.00  0.00    -0.013 C 
ATOM      3  C3  UNL     1     144.239 143.640 166.355  0.00  0.00    +0.027 C 
ATOM      4 CL1  UNL     1     142.884 142.482 166.309  0.00  0.00    -0.125 Cl
ATOM      5  C4  UNL     1     144.044 144.506 163.937  0.00  0.00    +0.035 C 
ATOM      6  N1  UNL     1     143.875 145.950 164.121  0.00  0.00    -0.231 N 
ATOM      7  C5  UNL     1     142.750 146.481 164.730  0.00  0.00    +0.099 C 
ATOM      8  N2  UNL     1     141.959 145.870 165.552  0.00  0.00    -0.247 NA
ATOM      9  C6  UNL     1     141.067 146.643 166.254  0.00  0.00    +0.029 C 
ATOM     10  C7  UNL     1     141.370 147.654 167.094  0.00  0.00    -0.044 C 
ATOM     11  C8  UNL     1     142.707 148.196 167.248  0.00  0.00    -0.060 C 
ATOM     12  C9  UNL     1     143.108 149.200 166.456  0.00  0.00    -0.060 C 
ATOM     13  C10 UNL     1     144.458 149.627 166.165  0.00  0.00    -0.044 C 
ATOM     14  C11 UNL     1     145.416 148.877 165.574  0.00  0.00    +0.022 C 
ATOM     15  C12 UNL     1     145.369 147.344 165.430  0.00  0.00    +0.082 C 
ATOM     16  N3  UNL     1     145.042 146.774 164.093  0.00  0.00    -0.098 NA
ATOM     17  O1  UNL     1     144.965 147.840 163.108  0.00  0.00    -0.277 OA
ATOM     18  C13 UNL     1     146.300 148.263 162.794  0.00  0.00    +0.087 C 
ATOM     19  C14 UNL     1     146.607 149.579 163.518  0.00  0.00    +0.034 C 
ATOM     20  N4  UNL     1     146.550 149.486 164.998  0.00  0.00    -0.344 N 
ATOM     21  H   UNL     1     147.279 149.839 165.559  0.00  0.00    +0.000 HD
ENDROOT
TORSDOF 0
ENDMDL
MODEL 6
REMARK VINA RESULT:    -6.153      6.380      9.091
REMARK INTER + INTRA:          -6.153
REMARK INTER:                  -6.153
REMARK INTRA:                   0.000
REMARK UNBOUND:                 0.000
REMARK  Name = /home/vital/Documents/PhD_2021/Malaria_codes/scripts/../data/pdbqt_ligands/ligand_258_temp.pdb
REMARK                            x       y       z     vdW  Elec       q    Type
REMARK                         _______ _______ _______ _____ _____    ______ ____
ROOT
ATOM      1  C1  UNL     1     151.483 154.998 167.617  0.00  0.00    -0.060 C 
ATOM      2  C2  UNL     1     151.195 156.471 167.292  0.00  0.00    -0.013 C 
ATOM      3  C3  UNL     1     150.071 156.607 166.256  0.00  0.00    +0.027 C 
ATOM      4 CL1  UNL     1     150.412 155.783 164.712  0.00  0.00    -0.125 Cl
ATOM      5  C4  UNL     1     152.501 157.183 166.891  0.00  0.00    +0.035 C 
ATOM      6  N1  UNL     1     152.459 158.640 167.044  0.00  0.00    -0.231 N 
ATOM      7  C5  UNL     1     152.215 159.481 165.970  0.00  0.00    +0.099 C 
ATOM      8  N2  UNL     1     151.602 159.168 164.874  0.00  0.00    -0.247 NA
ATOM      9  C6  UNL     1     151.219 160.202 164.054  0.00  0.00    +0.029 C 
ATOM     10  C7  UNL     1     150.394 161.219 164.379  0.00  0.00    -0.044 C 
ATOM     11  C8  UNL     1     149.916 161.465 165.727  0.00  0.00    -0.060 C 
ATOM     12  C9  UNL     1     150.630 162.247 166.548  0.00  0.00    -0.060 C 
ATOM     13  C10 UNL     1     150.568 162.323 167.990  0.00  0.00    -0.044 C 
ATOM     14  C11 UNL     1     150.827 161.311 168.849  0.00  0.00    +0.022 C 
ATOM     15  C12 UNL     1     150.883 159.821 168.462  0.00  0.00    +0.082 C 
ATOM     16  N3  UNL     1     152.220 159.175 168.348  0.00  0.00    -0.098 NA
ATOM     17  O1  UNL     1     153.254 160.099 168.785  0.00  0.00    -0.277 OA
ATOM     18  C13 UNL     1     153.218 160.171 170.218  0.00  0.00    +0.087 C 
ATOM     19  C14 UNL     1     152.522 161.467 170.650  0.00  0.00    +0.034 C 
ATOM     20  N4  UNL     1     151.110 161.576 170.205  0.00  0.00    -0.344 N 
ATOM     21  H   UNL     1     150.395 161.825 170.835  0.00  0.00    +0.000 HD
ENDROOT
TORSDOF 0
ENDMDL
MODEL 7
REMARK VINA RESULT:    -5.974      4.220      6.527
REMARK INTER + INTRA:          -5.974
REMARK INTER:                  -5.974
REMARK INTRA:                   0.000
REMARK UNBOUND:                 0.000
REMARK  Name = /home/vital/Documents/PhD_2021/Malaria_codes/scripts/../data/pdbqt_ligands/ligand_258_temp.pdb
REMARK                            x       y       z     vdW  Elec       q    Type
REMARK                         _______ _______ _______ _____ _____    ______ ____
ROOT
ATOM      1  C1  UNL     1     148.992 163.542 165.567  0.00  0.00    -0.060 C 
ATOM      2  C2  UNL     1     149.654 162.203 165.211  0.00  0.00    -0.013 C 
ATOM      3  C3  UNL     1     149.194 161.082 166.153  0.00  0.00    +0.027 C 
ATOM      4 CL1  UNL     1     149.539 161.400 167.873  0.00  0.00    -0.125 Cl
ATOM      5  C4  UNL     1     151.184 162.376 165.150  0.00  0.00    +0.035 C 
ATOM      6  N1  UNL     1     151.871 161.351 164.358  0.00  0.00    -0.231 N 
ATOM      7  C5  UNL     1     152.481 160.258 164.950  0.00  0.00    +0.099 C 
ATOM      8  N2  UNL     1     152.203 159.758 166.111  0.00  0.00    -0.247 NA
ATOM      9  C6  UNL     1     152.724 158.519 166.399  0.00  0.00    +0.029 C 
ATOM     10  C7  UNL     1     152.508 157.379 165.711  0.00  0.00    -0.044 C 
ATOM     11  C8  UNL     1     151.816 157.329 164.437  0.00  0.00    -0.060 C 
ATOM     12  C9  UNL     1     152.513 157.469 163.301  0.00  0.00    -0.060 C 
ATOM     13  C10 UNL     1     152.025 157.829 161.990  0.00  0.00    -0.044 C 
ATOM     14  C11 UNL     1     151.406 158.988 161.665  0.00  0.00    +0.022 C 
ATOM     15  C12 UNL     1     150.792 159.971 162.679  0.00  0.00    +0.082 C 
ATOM     16  N3  UNL     1     151.532 161.229 162.975  0.00  0.00    -0.098 NA
ATOM     17  O1  UNL     1     152.682 161.344 162.093  0.00  0.00    -0.277 OA
ATOM     18  C13 UNL     1     152.214 161.720 160.788  0.00  0.00    +0.087 C 
ATOM     19  C14 UNL     1     152.211 160.494 159.869  0.00  0.00    +0.034 C 
ATOM     20  N4  UNL     1     151.315 159.400 160.319  0.00  0.00    -0.344 N 
ATOM     21  H   UNL     1     150.679 158.975 159.698  0.00  0.00    +0.000 HD
ENDROOT
TORSDOF 0
ENDMDL
MODEL 8
REMARK VINA RESULT:    -5.838     12.740     15.746
REMARK INTER + INTRA:          -5.838
REMARK INTER:                  -5.838
REMARK INTRA:                   0.000
REMARK UNBOUND:                 0.000
REMARK  Name = /home/vital/Documents/PhD_2021/Malaria_codes/scripts/../data/pdbqt_ligands/ligand_258_temp.pdb
REMARK                            x       y       z     vdW  Elec       q    Type
REMARK                         _______ _______ _______ _____ _____    ______ ____
ROOT
ATOM      1  C1  UNL     1     147.587 147.766 163.905  0.00  0.00    -0.060 C 
ATOM      2  C2  UNL     1     146.233 147.177 164.327  0.00  0.00    -0.013 C 
ATOM      3  C3  UNL     1     145.167 148.272 164.472  0.00  0.00    +0.027 C 
ATOM      4 CL1  UNL     1     145.588 149.533 165.660  0.00  0.00    -0.125 Cl
ATOM      5  C4  UNL     1     146.410 146.310 165.588  0.00  0.00    +0.035 C 
ATOM      6  N1  UNL     1     145.344 145.324 165.791  0.00  0.00    -0.231 N 
ATOM      7  C5  UNL     1     144.291 145.555 166.660  0.00  0.00    +0.099 C 
ATOM      8  N2  UNL     1     143.858 146.710 167.053  0.00  0.00    -0.247 NA
ATOM      9  C6  UNL     1     142.642 146.738 167.692  0.00  0.00    +0.029 C 
ATOM     10  C7  UNL     1     141.462 146.322 167.186  0.00  0.00    -0.044 C 
ATOM     11  C8  UNL     1     141.334 145.609 165.929  0.00  0.00    -0.060 C 
ATOM     12  C9  UNL     1     141.410 144.271 165.918  0.00  0.00    -0.060 C 
ATOM     13  C10 UNL     1     141.690 143.400 164.800  0.00  0.00    -0.044 C 
ATOM     14  C11 UNL     1     142.824 143.397 164.062  0.00  0.00    +0.022 C 
ATOM     15  C12 UNL     1     143.861 144.535 164.039  0.00  0.00    +0.082 C 
ATOM     16  N3  UNL     1     145.139 144.336 164.779  0.00  0.00    -0.098 NA
ATOM     17  O1  UNL     1     145.208 142.975 165.286  0.00  0.00    -0.277 OA
ATOM     18  C13 UNL     1     145.504 142.098 164.189  0.00  0.00    +0.087 C 
ATOM     19  C14 UNL     1     144.226 141.378 163.746  0.00  0.00    +0.034 C 
ATOM     20  N4  UNL     1     143.155 142.284 163.261  0.00  0.00    -0.344 N 
ATOM     21  H   UNL     1     142.691 142.114 162.409  0.00  0.00    +0.000 HD
ENDROOT
TORSDOF 0
ENDMDL
MODEL 9
REMARK VINA RESULT:    -5.501     11.935     14.607
REMARK INTER + INTRA:          -5.501
REMARK INTER:                  -5.501
REMARK INTRA:                   0.000
REMARK UNBOUND:                 0.000
REMARK  Name = /home/vital/Documents/PhD_2021/Malaria_codes/scripts/../data/pdbqt_ligands/ligand_258_temp.pdb
REMARK                            x       y       z     vdW  Elec       q    Type
REMARK                         _______ _______ _______ _____ _____    ______ ____
ROOT
ATOM      1  C1  UNL     1     147.877 147.545 163.885  0.00  0.00    -0.060 C 
ATOM      2  C2  UNL     1     146.384 147.653 164.227  0.00  0.00    -0.013 C 
ATOM      3  C3  UNL     1     145.788 148.974 163.724  0.00  0.00    +0.027 C 
ATOM      4 CL1  UNL     1     146.588 150.423 164.386  0.00  0.00    -0.125 Cl
ATOM      5  C4  UNL     1     146.174 147.409 165.733  0.00  0.00    +0.035 C 
ATOM      6  N1  UNL     1     144.813 146.997 166.089  0.00  0.00    -0.231 N 
ATOM      7  C5  UNL     1     143.880 147.897 166.575  0.00  0.00    +0.099 C 
ATOM      8  N2  UNL     1     143.883 149.179 166.396  0.00  0.00    -0.247 NA
ATOM      9  C6  UNL     1     142.734 149.859 166.721  0.00  0.00    +0.029 C 
ATOM     10  C7  UNL     1     141.508 149.657 166.195  0.00  0.00    -0.044 C 
ATOM     11  C8  UNL     1     141.184 148.551 165.315  0.00  0.00    -0.060 C 
ATOM     12  C9  UNL     1     140.765 147.391 165.839  0.00  0.00    -0.060 C 
ATOM     13  C10 UNL     1     140.757 146.083 165.224  0.00  0.00    -0.044 C 
ATOM     14  C11 UNL     1     141.842 145.406 164.784  0.00  0.00    +0.022 C 
ATOM     15  C12 UNL     1     143.225 146.035 164.527  0.00  0.00    +0.082 C 
ATOM     16  N3  UNL     1     144.306 145.787 165.521  0.00  0.00    -0.098 NA
ATOM     17  O1  UNL     1     143.849 144.834 166.520  0.00  0.00    -0.277 OA
ATOM     18  C13 UNL     1     143.852 143.526 165.930  0.00  0.00    +0.087 C 
ATOM     19  C14 UNL     1     142.420 143.125 165.559  0.00  0.00    +0.034 C 
ATOM     20  N4  UNL     1     141.778 144.015 164.560  0.00  0.00    -0.344 N 
ATOM     21  H   UNL     1     141.324 143.648 163.768  0.00  0.00    +0.000 HD
ENDROOT
TORSDOF 0
ENDMDL
