MODEL 1
REMARK VINA RESULT:    -4.584      0.000      0.000
REMARK INTER + INTRA:          -4.584
REMARK INTER:                  -4.584
REMARK INTRA:                   0.000
REMARK UNBOUND:                 0.000
REMARK  Name = /home/vital/Documents/PhD_2021/Malaria_codes/scripts/../data/pdbqt_ligands/ligand_66_temp.pdb
REMARK                            x       y       z     vdW  Elec       q    Type
REMARK                         _______ _______ _______ _____ _____    ______ ____
ROOT
ATOM      1  C   UNL     1     151.534 156.322 164.232  0.00  0.00    +0.038 C 
ATOM      2  O   UNL     1     150.388 155.835 163.546  0.00  0.00    -0.365 OA
ATOM      3  C   UNL     1     150.610 155.745 162.143  0.00  0.00    +0.112 C 
ATOM      4  N   UNL     1     150.329 157.027 161.565  0.00  0.00    -0.307 N 
ATOM      5  C   UNL     1     150.484 157.300 160.220  0.00  0.00    +0.123 C 
ATOM      6  N   UNL     1     151.084 156.385 159.505  0.00  0.00    -0.213 N 
ATOM      7  C   UNL     1     151.256 156.685 158.195  0.00  0.00    +0.156 C 
ATOM      8  N   UNL     1     152.061 157.656 157.932  0.00  0.00    -0.232 N 
ATOM      9  C   UNL     1     151.543 158.473 156.968  0.00  0.00    +0.047 C 
ATOM     10  C   UNL     1     150.507 159.270 157.301  0.00  0.00    -0.040 C 
ATOM     11  C   UNL     1     149.897 159.395 158.624  0.00  0.00    -0.057 C 
ATOM     12  C   UNL     1     149.889 158.636 159.741  0.00  0.00    -0.022 C 
ATOM     13  C   UNL     1     152.147 158.408 155.593  0.00  0.00    +0.010 C 
ATOM     14  C   UNL     1     152.382 157.017 155.062  0.00  0.00    -0.058 C 
ATOM     15  C   UNL     1     151.702 155.876 155.277  0.00  0.00    +0.056 C 
ATOM     16 CL   UNL     1     152.340 154.431 154.518  0.00  0.00    -0.082 Cl
ATOM     17  C   UNL     1     150.481 155.689 156.046  0.00  0.00    +0.062 C 
ATOM     18 CL   UNL     1     149.146 154.949 155.187  0.00  0.00    -0.082 Cl
ATOM     19  C   UNL     1     150.264 155.994 157.334  0.00  0.00    +0.002 C 
ATOM     20  H   UNL     1     150.010 157.747 162.155  0.00  0.00    +0.000 HD
ATOM     21  H   UNL     1     151.391 155.534 159.892  0.00  0.00    +0.000 HD
ATOM     22  H   UNL     1     152.933 157.791 158.367  0.00  0.00    +0.000 HD
ENDROOT
TORSDOF 0
ENDMDL
MODEL 2
REMARK VINA RESULT:    -4.337      2.988      3.733
REMARK INTER + INTRA:          -4.337
REMARK INTER:                  -4.337
REMARK INTRA:                   0.000
REMARK UNBOUND:                 0.000
REMARK  Name = /home/vital/Documents/PhD_2021/Malaria_codes/scripts/../data/pdbqt_ligands/ligand_66_temp.pdb
REMARK                            x       y       z     vdW  Elec       q    Type
REMARK                         _______ _______ _______ _____ _____    ______ ____
ROOT
ATOM      1  C   UNL     1     153.420 161.069 165.547  0.00  0.00    +0.038 C 
ATOM      2  O   UNL     1     152.326 160.185 165.763  0.00  0.00    -0.365 OA
ATOM      3  C   UNL     1     152.200 159.234 164.711  0.00  0.00    +0.112 C 
ATOM      4  N   UNL     1     151.424 159.831 163.663  0.00  0.00    -0.307 N 
ATOM      5  C   UNL     1     151.146 159.192 162.471  0.00  0.00    +0.123 C 
ATOM      6  N   UNL     1     151.781 158.070 162.249  0.00  0.00    -0.213 N 
ATOM      7  C   UNL     1     151.519 157.475 161.060  0.00  0.00    +0.156 C 
ATOM      8  N   UNL     1     151.916 158.103 160.007  0.00  0.00    -0.232 N 
ATOM      9  C   UNL     1     150.957 158.082 159.035  0.00  0.00    +0.047 C 
ATOM     10  C   UNL     1     149.856 158.840 159.213  0.00  0.00    -0.040 C 
ATOM     11  C   UNL     1     149.595 159.743 160.334  0.00  0.00    -0.057 C 
ATOM     12  C   UNL     1     150.090 159.874 161.583  0.00  0.00    -0.022 C 
ATOM     13  C   UNL     1     151.182 157.191 157.845  0.00  0.00    +0.010 C 
ATOM     14  C   UNL     1     151.664 155.800 158.168  0.00  0.00    -0.058 C 
ATOM     15  C   UNL     1     151.419 155.020 159.236  0.00  0.00    +0.056 C 
ATOM     16 CL   UNL     1     152.230 153.466 159.272  0.00  0.00    -0.082 Cl
ATOM     17  C   UNL     1     150.541 155.290 160.365  0.00  0.00    +0.062 C 
ATOM     18 CL   UNL     1     149.303 154.090 160.672  0.00  0.00    -0.082 Cl
ATOM     19  C   UNL     1     150.582 156.334 161.208  0.00  0.00    +0.002 C 
ATOM     20  H   UNL     1     151.073 160.740 163.800  0.00  0.00    +0.000 HD
ATOM     21  H   UNL     1     152.407 157.684 162.902  0.00  0.00    +0.000 HD
ATOM     22  H   UNL     1     152.793 158.539 159.915  0.00  0.00    +0.000 HD
ENDROOT
TORSDOF 0
ENDMDL
MODEL 3
REMARK VINA RESULT:    -3.850      8.859     10.747
REMARK INTER + INTRA:          -3.850
REMARK INTER:                  -3.850
REMARK INTRA:                   0.000
REMARK UNBOUND:                 0.000
REMARK  Name = /home/vital/Documents/PhD_2021/Malaria_codes/scripts/../data/pdbqt_ligands/ligand_66_temp.pdb
REMARK                            x       y       z     vdW  Elec       q    Type
REMARK                         _______ _______ _______ _____ _____    ______ ____
ROOT
ATOM      1  C   UNL     1     151.372 152.350 166.916  0.00  0.00    +0.038 C 
ATOM      2  O   UNL     1     152.644 152.918 167.206  0.00  0.00    -0.365 OA
ATOM      3  C   UNL     1     152.530 154.253 167.685  0.00  0.00    +0.112 C 
ATOM      4  N   UNL     1     152.472 155.129 166.550  0.00  0.00    -0.307 N 
ATOM      5  C   UNL     1     152.318 156.496 166.658  0.00  0.00    +0.123 C 
ATOM      6  N   UNL     1     152.037 156.959 167.848  0.00  0.00    -0.213 N 
ATOM      7  C   UNL     1     151.858 158.300 167.928  0.00  0.00    +0.156 C 
ATOM      8  N   UNL     1     150.828 158.776 167.316  0.00  0.00    -0.232 N 
ATOM      9  C   UNL     1     151.148 159.918 166.637  0.00  0.00    +0.047 C 
ATOM     10  C   UNL     1     151.901 159.804 165.525  0.00  0.00    -0.040 C 
ATOM     11  C   UNL     1     152.381 158.561 164.923  0.00  0.00    -0.057 C 
ATOM     12  C   UNL     1     152.541 157.294 165.361  0.00  0.00    -0.022 C 
ATOM     13  C   UNL     1     150.661 161.226 167.195  0.00  0.00    +0.010 C 
ATOM     14  C   UNL     1     150.851 161.401 168.679  0.00  0.00    -0.058 C 
ATOM     15  C   UNL     1     151.811 160.928 169.496  0.00  0.00    +0.056 C 
ATOM     16 CL   UNL     1     151.643 161.304 171.200  0.00  0.00    -0.082 Cl
ATOM     17  C   UNL     1     152.993 160.157 169.142  0.00  0.00    +0.062 C 
ATOM     18 CL   UNL     1     154.525 160.834 169.654  0.00  0.00    -0.082 Cl
ATOM     19  C   UNL     1     153.047 158.984 168.492  0.00  0.00    +0.002 C 
ATOM     20  H   UNL     1     152.546 154.736 165.651  0.00  0.00    +0.000 HD
ATOM     21  H   UNL     1     151.960 156.372 168.634  0.00  0.00    +0.000 HD
ATOM     22  H   UNL     1     149.932 158.372 167.335  0.00  0.00    +0.000 HD
ENDROOT
TORSDOF 0
ENDMDL
MODEL 4
REMARK VINA RESULT:    -3.624      5.181      8.728
REMARK INTER + INTRA:          -3.624
REMARK INTER:                  -3.624
REMARK INTRA:                   0.000
REMARK UNBOUND:                 0.000
REMARK  Name = /home/vital/Documents/PhD_2021/Malaria_codes/scripts/../data/pdbqt_ligands/ligand_66_temp.pdb
REMARK                            x       y       z     vdW  Elec       q    Type
REMARK                         _______ _______ _______ _____ _____    ______ ____
ROOT
ATOM      1  C   UNL     1     151.541 155.480 158.140  0.00  0.00    +0.038 C 
ATOM      2  O   UNL     1     150.895 156.435 158.973  0.00  0.00    -0.365 OA
ATOM      3  C   UNL     1     151.128 156.176 160.353  0.00  0.00    +0.112 C 
ATOM      4  N   UNL     1     150.151 155.225 160.798  0.00  0.00    -0.307 N 
ATOM      5  C   UNL     1     150.117 154.721 162.084  0.00  0.00    +0.123 C 
ATOM      6  N   UNL     1     151.139 155.007 162.849  0.00  0.00    -0.213 N 
ATOM      7  C   UNL     1     151.103 154.477 164.095  0.00  0.00    +0.156 C 
ATOM      8  N   UNL     1     151.190 153.194 164.174  0.00  0.00    -0.232 N 
ATOM      9  C   UNL     1     150.292 152.697 165.075  0.00  0.00    +0.047 C 
ATOM     10  C   UNL     1     148.986 152.704 164.739  0.00  0.00    -0.040 C 
ATOM     11  C   UNL     1     148.418 153.147 163.466  0.00  0.00    -0.057 C 
ATOM     12  C   UNL     1     148.854 153.922 162.451  0.00  0.00    -0.022 C 
ATOM     13  C   UNL     1     150.820 152.202 166.393  0.00  0.00    +0.010 C 
ATOM     14  C   UNL     1     151.823 153.107 167.061  0.00  0.00    -0.058 C 
ATOM     15  C   UNL     1     151.936 154.448 167.040  0.00  0.00    +0.056 C 
ATOM     16 CL   UNL     1     153.298 155.132 167.907  0.00  0.00    -0.082 Cl
ATOM     17  C   UNL     1     151.054 155.415 166.404  0.00  0.00    +0.062 C 
ATOM     18 CL   UNL     1     150.403 156.657 167.453  0.00  0.00    -0.082 Cl
ATOM     19  C   UNL     1     150.700 155.481 165.111  0.00  0.00    +0.002 C 
ATOM     20  H   UNL     1     149.471 154.916 160.157  0.00  0.00    +0.000 HD
ATOM     21  H   UNL     1     151.884 155.570 162.539  0.00  0.00    +0.000 HD
ATOM     22  H   UNL     1     151.819 152.645 163.653  0.00  0.00    +0.000 HD
ENDROOT
TORSDOF 0
ENDMDL
MODEL 5
REMARK VINA RESULT:    -3.504      3.911      5.476
REMARK INTER + INTRA:          -3.504
REMARK INTER:                  -3.504
REMARK INTRA:                   0.000
REMARK UNBOUND:                 0.000
REMARK  Name = /home/vital/Documents/PhD_2021/Malaria_codes/scripts/../data/pdbqt_ligands/ligand_66_temp.pdb
REMARK                            x       y       z     vdW  Elec       q    Type
REMARK                         _______ _______ _______ _____ _____    ______ ____
ROOT
ATOM      1  C   UNL     1     149.023 162.437 166.445  0.00  0.00    +0.038 C 
ATOM      2  O   UNL     1     150.107 162.897 165.647  0.00  0.00    -0.365 OA
ATOM      3  C   UNL     1     150.199 162.184 164.419  0.00  0.00    +0.112 C 
ATOM      4  N   UNL     1     150.964 160.993 164.653  0.00  0.00    -0.307 N 
ATOM      5  C   UNL     1     151.210 160.049 163.676  0.00  0.00    +0.123 C 
ATOM      6  N   UNL     1     150.555 160.187 162.553  0.00  0.00    -0.213 N 
ATOM      7  C   UNL     1     150.785 159.233 161.619  0.00  0.00    +0.156 C 
ATOM      8  N   UNL     1     150.378 158.044 161.904  0.00  0.00    -0.232 N 
ATOM      9  C   UNL     1     151.318 157.112 161.569  0.00  0.00    +0.047 C 
ATOM     10  C   UNL     1     152.433 157.036 162.324  0.00  0.00    -0.040 C 
ATOM     11  C   UNL     1     152.729 157.825 163.519  0.00  0.00    -0.057 C 
ATOM     12  C   UNL     1     152.260 158.981 164.033  0.00  0.00    -0.022 C 
ATOM     13  C   UNL     1     151.057 156.252 160.364  0.00  0.00    +0.010 C 
ATOM     14  C   UNL     1     150.560 156.990 159.147  0.00  0.00    -0.058 C 
ATOM     15  C   UNL     1     150.814 158.242 158.724  0.00  0.00    +0.056 C 
ATOM     16 CL   UNL     1     149.980 158.760 157.271  0.00  0.00    -0.082 Cl
ATOM     17  C   UNL     1     151.716 159.223 159.307  0.00  0.00    +0.062 C 
ATOM     18 CL   UNL     1     152.941 159.865 158.233  0.00  0.00    -0.082 Cl
ATOM     19  C   UNL     1     151.707 159.709 160.558  0.00  0.00    +0.002 C 
ATOM     20  H   UNL     1     151.332 160.842 165.553  0.00  0.00    +0.000 HD
ATOM     21  H   UNL     1     149.935 160.935 162.396  0.00  0.00    +0.000 HD
ATOM     22  H   UNL     1     149.505 157.836 162.309  0.00  0.00    +0.000 HD
ENDROOT
TORSDOF 0
ENDMDL
MODEL 6
REMARK VINA RESULT:    -3.384      7.339     10.093
REMARK INTER + INTRA:          -3.384
REMARK INTER:                  -3.384
REMARK INTRA:                   0.000
REMARK UNBOUND:                 0.000
REMARK  Name = /home/vital/Documents/PhD_2021/Malaria_codes/scripts/../data/pdbqt_ligands/ligand_66_temp.pdb
REMARK                            x       y       z     vdW  Elec       q    Type
REMARK                         _______ _______ _______ _____ _____    ______ ____
ROOT
ATOM      1  C   UNL     1     150.577 156.858 161.390  0.00  0.00    +0.038 C 
ATOM      2  O   UNL     1     151.905 157.357 161.492  0.00  0.00    -0.365 OA
ATOM      3  C   UNL     1     152.140 157.981 162.749  0.00  0.00    +0.112 C 
ATOM      4  N   UNL     1     151.707 159.345 162.656  0.00  0.00    -0.307 N 
ATOM      5  C   UNL     1     151.755 160.227 163.717  0.00  0.00    +0.123 C 
ATOM      6  N   UNL     1     152.044 159.718 164.886  0.00  0.00    -0.213 N 
ATOM      7  C   UNL     1     152.056 160.594 165.920  0.00  0.00    +0.156 C 
ATOM      8  N   UNL     1     150.920 161.113 166.241  0.00  0.00    -0.232 N 
ATOM      9  C   UNL     1     151.045 162.452 166.478  0.00  0.00    +0.047 C 
ATOM     10  C   UNL     1     151.250 163.267 165.422  0.00  0.00    -0.040 C 
ATOM     11  C   UNL     1     151.303 162.870 164.016  0.00  0.00    -0.057 C 
ATOM     12  C   UNL     1     151.499 161.704 163.365  0.00  0.00    -0.022 C 
ATOM     13  C   UNL     1     150.973 162.924 167.903  0.00  0.00    +0.010 C 
ATOM     14  C   UNL     1     151.782 162.117 168.886  0.00  0.00    -0.058 C 
ATOM     15  C   UNL     1     152.940 161.450 168.722  0.00  0.00    +0.056 C 
ATOM     16 CL   UNL     1     153.537 160.567 170.112  0.00  0.00    -0.082 Cl
ATOM     17  C   UNL     1     153.780 161.387 167.535  0.00  0.00    +0.062 C 
ATOM     18 CL   UNL     1     155.447 161.875 167.756  0.00  0.00    -0.082 Cl
ATOM     19  C   UNL     1     153.436 160.979 166.304  0.00  0.00    +0.002 C 
ATOM     20  H   UNL     1     151.358 159.668 161.794  0.00  0.00    +0.000 HD
ATOM     21  H   UNL     1     152.242 158.761 165.007  0.00  0.00    +0.000 HD
ATOM     22  H   UNL     1     150.076 160.611 166.307  0.00  0.00    +0.000 HD
ENDROOT
TORSDOF 0
ENDMDL
MODEL 7
REMARK VINA RESULT:    -3.380     12.900     15.030
REMARK INTER + INTRA:          -3.380
REMARK INTER:                  -3.380
REMARK INTRA:                   0.000
REMARK UNBOUND:                 0.000
REMARK  Name = /home/vital/Documents/PhD_2021/Malaria_codes/scripts/../data/pdbqt_ligands/ligand_66_temp.pdb
REMARK                            x       y       z     vdW  Elec       q    Type
REMARK                         _______ _______ _______ _____ _____    ______ ____
ROOT
ATOM      1  C   UNL     1     145.438 140.545 163.983  0.00  0.00    +0.038 C 
ATOM      2  O   UNL     1     145.801 141.515 163.008  0.00  0.00    -0.365 OA
ATOM      3  C   UNL     1     145.750 142.836 163.534  0.00  0.00    +0.112 C 
ATOM      4  N   UNL     1     144.403 143.313 163.409  0.00  0.00    -0.307 N 
ATOM      5  C   UNL     1     143.994 144.551 163.862  0.00  0.00    +0.123 C 
ATOM      6  N   UNL     1     144.851 145.218 164.590  0.00  0.00    -0.213 N 
ATOM      7  C   UNL     1     144.420 146.417 165.052  0.00  0.00    +0.156 C 
ATOM      8  N   UNL     1     143.460 146.386 165.912  0.00  0.00    -0.232 N 
ATOM      9  C   UNL     1     142.524 147.340 165.633  0.00  0.00    +0.047 C 
ATOM     10  C   UNL     1     141.726 147.153 164.562  0.00  0.00    -0.040 C 
ATOM     11  C   UNL     1     141.718 145.989 163.677  0.00  0.00    -0.057 C 
ATOM     12  C   UNL     1     142.591 144.994 163.410  0.00  0.00    -0.022 C 
ATOM     13  C   UNL     1     142.467 148.550 166.524  0.00  0.00    +0.010 C 
ATOM     14  C   UNL     1     143.801 149.171 166.848  0.00  0.00    -0.058 C 
ATOM     15  C   UNL     1     144.930 149.240 166.118  0.00  0.00    +0.056 C 
ATOM     16 CL   UNL     1     146.311 150.001 166.884  0.00  0.00    -0.082 Cl
ATOM     17  C   UNL     1     145.148 148.782 164.755  0.00  0.00    +0.062 C 
ATOM     18 CL   UNL     1     145.736 149.989 163.630  0.00  0.00    -0.082 Cl
ATOM     19  C   UNL     1     144.973 147.545 164.264  0.00  0.00    +0.002 C 
ATOM     20  H   UNL     1     143.737 142.729 162.979  0.00  0.00    +0.000 HD
ATOM     21  H   UNL     1     145.751 144.872 164.789  0.00  0.00    +0.000 HD
ATOM     22  H   UNL     1     143.409 145.758 166.668  0.00  0.00    +0.000 HD
ENDROOT
TORSDOF 0
ENDMDL
MODEL 8
REMARK VINA RESULT:    -3.246      7.149     10.097
REMARK INTER + INTRA:          -3.246
REMARK INTER:                  -3.246
REMARK INTRA:                   0.000
REMARK UNBOUND:                 0.000
REMARK  Name = /home/vital/Documents/PhD_2021/Malaria_codes/scripts/../data/pdbqt_ligands/ligand_66_temp.pdb
REMARK                            x       y       z     vdW  Elec       q    Type
REMARK                         _______ _______ _______ _____ _____    ______ ____
ROOT
ATOM      1  C   UNL     1     151.501 161.021 159.098  0.00  0.00    +0.038 C 
ATOM      2  O   UNL     1     150.827 160.005 159.830  0.00  0.00    -0.365 OA
ATOM      3  C   UNL     1     150.376 160.476 161.095  0.00  0.00    +0.112 C 
ATOM      4  N   UNL     1     151.455 160.341 162.030  0.00  0.00    -0.307 N 
ATOM      5  C   UNL     1     151.368 160.746 163.348  0.00  0.00    +0.123 C 
ATOM      6  N   UNL     1     150.310 161.440 163.676  0.00  0.00    -0.213 N 
ATOM      7  C   UNL     1     150.259 161.855 164.965  0.00  0.00    +0.156 C 
ATOM      8  N   UNL     1     151.143 162.722 165.321  0.00  0.00    -0.232 N 
ATOM      9  C   UNL     1     151.667 162.412 166.543  0.00  0.00    +0.047 C 
ATOM     10  C   UNL     1     152.501 161.355 166.626  0.00  0.00    -0.040 C 
ATOM     11  C   UNL     1     152.957 160.519 165.516  0.00  0.00    -0.057 C 
ATOM     12  C   UNL     1     152.519 160.286 164.261  0.00  0.00    -0.022 C 
ATOM     13  C   UNL     1     151.256 163.253 167.719  0.00  0.00    +0.010 C 
ATOM     14  C   UNL     1     149.779 163.541 167.814  0.00  0.00    -0.058 C 
ATOM     15  C   UNL     1     148.721 162.801 167.436  0.00  0.00    +0.056 C 
ATOM     16 CL   UNL     1     147.140 163.525 167.660  0.00  0.00    -0.082 Cl
ATOM     17  C   UNL     1     148.717 161.456 166.882  0.00  0.00    +0.062 C 
ATOM     18 CL   UNL     1     147.749 160.279 167.745  0.00  0.00    -0.082 Cl
ATOM     19  C   UNL     1     149.346 161.017 165.780  0.00  0.00    +0.002 C 
ATOM     20  H   UNL     1     152.298 159.940 161.719  0.00  0.00    +0.000 HD
ATOM     21  H   UNL     1     149.597 161.647 163.030  0.00  0.00    +0.000 HD
ATOM     22  H   UNL     1     151.406 163.504 164.784  0.00  0.00    +0.000 HD
ENDROOT
TORSDOF 0
ENDMDL
MODEL 9
REMARK VINA RESULT:    -3.009     15.236     17.553
REMARK INTER + INTRA:          -3.009
REMARK INTER:                  -3.009
REMARK INTRA:                   0.000
REMARK UNBOUND:                 0.000
REMARK  Name = /home/vital/Documents/PhD_2021/Malaria_codes/scripts/../data/pdbqt_ligands/ligand_66_temp.pdb
REMARK                            x       y       z     vdW  Elec       q    Type
REMARK                         _______ _______ _______ _____ _____    ______ ____
ROOT
ATOM      1  C   UNL     1     146.411 148.466 164.338  0.00  0.00    +0.038 C 
ATOM      2  O   UNL     1     145.234 148.043 163.661  0.00  0.00    -0.365 OA
ATOM      3  C   UNL     1     144.730 146.822 164.191  0.00  0.00    +0.112 C 
ATOM      4  N   UNL     1     145.412 145.740 163.541  0.00  0.00    -0.307 N 
ATOM      5  C   UNL     1     145.191 144.413 163.851  0.00  0.00    +0.123 C 
ATOM      6  N   UNL     1     144.457 144.175 164.907  0.00  0.00    -0.213 N 
ATOM      7  C   UNL     1     144.279 142.867 165.213  0.00  0.00    +0.156 C 
ATOM      8  N   UNL     1     145.328 142.220 165.590  0.00  0.00    -0.232 N 
ATOM      9  C   UNL     1     145.381 140.990 165.000  0.00  0.00    +0.047 C 
ATOM     10  C   UNL     1     145.674 140.929 163.685  0.00  0.00    -0.040 C 
ATOM     11  C   UNL     1     146.000 142.057 162.814  0.00  0.00    -0.057 C 
ATOM     12  C   UNL     1     145.811 143.392 162.880  0.00  0.00    -0.022 C 
ATOM     13  C   UNL     1     145.082 139.788 165.852  0.00  0.00    +0.010 C 
ATOM     14  C   UNL     1     143.869 139.918 166.738  0.00  0.00    -0.058 C 
ATOM     15  C   UNL     1     142.723 140.597 166.552  0.00  0.00    +0.056 C 
ATOM     16 CL   UNL     1     141.563 140.551 167.866  0.00  0.00    -0.082 Cl
ATOM     17  C   UNL     1     142.306 141.353 165.380  0.00  0.00    +0.062 C 
ATOM     18 CL   UNL     1     140.774 140.882 164.675  0.00  0.00    -0.082 Cl
ATOM     19  C   UNL     1     142.943 142.378 164.793  0.00  0.00    +0.002 C 
ATOM     20  H   UNL     1     146.069 145.954 162.841  0.00  0.00    +0.000 HD
ATOM     21  H   UNL     1     144.061 144.898 165.444  0.00  0.00    +0.000 HD
ATOM     22  H   UNL     1     146.001 142.567 166.219  0.00  0.00    +0.000 HD
ENDROOT
TORSDOF 0
ENDMDL
