MODEL 1
REMARK VINA RESULT:    -9.003      0.000      0.000
REMARK INTER + INTRA:          -9.003
REMARK INTER:                  -9.003
REMARK INTRA:                   0.000
REMARK UNBOUND:                 0.000
REMARK  Name = /home/vital/Documents/PhD_2021/Malaria_codes/scripts/../data/pdbqt_ligands/ligand_179_temp.pdb
REMARK                            x       y       z     vdW  Elec       q    Type
REMARK                         _______ _______ _______ _____ _____    ______ ____
ROOT
ATOM      1  C   UNL     1     152.593 153.551 161.282  0.00  0.00    -0.047 C 
ATOM      2  C   UNL     1     151.458 154.112 160.491  0.00  0.00    -0.089 C 
ATOM      3  C   UNL     1     151.585 155.115 159.606  0.00  0.00    -0.064 C 
ATOM      4  C   UNL     1     150.450 155.681 158.789  0.00  0.00    +0.079 C 
ATOM      5  C   UNL     1     150.117 157.118 159.120  0.00  0.00    +0.029 C 
ATOM      6  C   UNL     1     151.188 157.977 158.518  0.00  0.00    +0.101 C 
ATOM      7  N   UNL     1     151.518 159.132 159.187  0.00  0.00    -0.330 N 
ATOM      8  C   UNL     1     152.546 160.075 158.771  0.00  0.00    +0.033 C 
ATOM      9  C   UNL     1     152.018 161.027 157.693  0.00  0.00    +0.060 C 
ATOM     10  O   UNL     1     151.906 160.386 156.425  0.00  0.00    -0.393 OA
ATOM     11  N   UNL     1     151.743 157.658 157.391  0.00  0.00    -0.204 N 
ATOM     12  C   UNL     1     151.375 156.493 156.749  0.00  0.00    +0.219 C 
ATOM     13  N   UNL     1     151.693 156.341 155.395  0.00  0.00    -0.272 N 
ATOM     14  C   UNL     1     152.458 157.249 154.666  0.00  0.00    +0.004 C 
ATOM     15  C   UNL     1     152.759 157.143 153.360  0.00  0.00    -0.018 C 
ATOM     16  C   UNL     1     153.590 158.177 152.660  0.00  0.00    -0.037 C 
ATOM     17  C   UNL     1     152.253 155.990 152.636  0.00  0.00    +0.043 C 
ATOM     18 CL   UNL     1     152.565 155.807 150.946  0.00  0.00    -0.083 Cl
ATOM     19  C   UNL     1     151.541 155.050 153.275  0.00  0.00    -0.048 C 
ATOM     20  C   UNL     1     151.212 155.108 154.742  0.00  0.00    +0.039 C 
ATOM     21  N   UNL     1     150.758 155.541 157.375  0.00  0.00    -0.244 N 
ATOM     22  H   UNL     1     151.021 159.337 160.012  0.00  0.00    +0.000 HD
ATOM     23  H   UNL     1     152.782 160.082 156.138  0.00  0.00    +0.000 HD
ATOM     24  H   UNL     1     152.425 158.246 156.993  0.00  0.00    +0.000 HD
ATOM     25  H   UNL     1     150.498 154.724 156.893  0.00  0.00    +0.000 HD
ENDROOT
TORSDOF 0
ENDMDL
MODEL 2
REMARK VINA RESULT:    -8.141      2.304      2.950
REMARK INTER + INTRA:          -8.141
REMARK INTER:                  -8.141
REMARK INTRA:                   0.000
REMARK UNBOUND:                 0.000
REMARK  Name = /home/vital/Documents/PhD_2021/Malaria_codes/scripts/../data/pdbqt_ligands/ligand_179_temp.pdb
REMARK                            x       y       z     vdW  Elec       q    Type
REMARK                         _______ _______ _______ _____ _____    ______ ____
ROOT
ATOM      1  C   UNL     1     153.365 157.425 163.953  0.00  0.00    -0.047 C 
ATOM      2  C   UNL     1     152.071 157.547 163.217  0.00  0.00    -0.089 C 
ATOM      3  C   UNL     1     151.952 158.094 161.996  0.00  0.00    -0.064 C 
ATOM      4  C   UNL     1     150.655 158.209 161.236  0.00  0.00    +0.079 C 
ATOM      5  C   UNL     1     150.202 159.634 161.013  0.00  0.00    +0.029 C 
ATOM      6  C   UNL     1     151.068 160.217 159.936  0.00  0.00    +0.101 C 
ATOM      7  N   UNL     1     151.348 161.561 160.013  0.00  0.00    -0.330 N 
ATOM      8  C   UNL     1     152.187 162.295 159.078  0.00  0.00    +0.033 C 
ATOM      9  C   UNL     1     151.402 162.683 157.819  0.00  0.00    +0.060 C 
ATOM     10  O   UNL     1     151.192 161.566 156.960  0.00  0.00    -0.393 OA
ATOM     11  N   UNL     1     151.493 159.485 158.955  0.00  0.00    -0.204 N 
ATOM     12  C   UNL     1     151.181 158.142 158.913  0.00  0.00    +0.219 C 
ATOM     13  N   UNL     1     151.321 157.455 157.702  0.00  0.00    -0.272 N 
ATOM     14  C   UNL     1     151.862 158.014 156.546  0.00  0.00    +0.004 C 
ATOM     15  C   UNL     1     151.987 157.388 155.362  0.00  0.00    -0.018 C 
ATOM     16  C   UNL     1     152.583 158.077 154.170  0.00  0.00    -0.037 C 
ATOM     17  C   UNL     1     151.526 156.014 155.267  0.00  0.00    +0.043 C 
ATOM     18 CL   UNL     1     151.618 155.159 153.768  0.00  0.00    -0.083 Cl
ATOM     19  C   UNL     1     151.028 155.392 156.345  0.00  0.00    -0.048 C 
ATOM     20  C   UNL     1     150.904 156.040 157.697  0.00  0.00    +0.039 C 
ATOM     21  N   UNL     1     150.776 157.508 159.968  0.00  0.00    -0.244 N 
ATOM     22  H   UNL     1     150.950 162.066 160.760  0.00  0.00    +0.000 HD
ATOM     23  H   UNL     1     152.048 161.215 156.669  0.00  0.00    +0.000 HD
ATOM     24  H   UNL     1     152.037 159.887 158.240  0.00  0.00    +0.000 HD
ATOM     25  H   UNL     1     150.550 156.552 159.910  0.00  0.00    +0.000 HD
ENDROOT
TORSDOF 0
ENDMDL
MODEL 3
REMARK VINA RESULT:    -7.631      7.865     10.965
REMARK INTER + INTRA:          -7.631
REMARK INTER:                  -7.631
REMARK INTRA:                   0.000
REMARK UNBOUND:                 0.000
REMARK  Name = /home/vital/Documents/PhD_2021/Malaria_codes/scripts/../data/pdbqt_ligands/ligand_179_temp.pdb
REMARK                            x       y       z     vdW  Elec       q    Type
REMARK                         _______ _______ _______ _____ _____    ______ ____
ROOT
ATOM      1  C   UNL     1     153.961 153.224 168.049  0.00  0.00    -0.047 C 
ATOM      2  C   UNL     1     152.633 153.904 167.991  0.00  0.00    -0.089 C 
ATOM      3  C   UNL     1     151.751 153.742 166.990  0.00  0.00    -0.064 C 
ATOM      4  C   UNL     1     150.401 154.410 166.928  0.00  0.00    +0.079 C 
ATOM      5  C   UNL     1     150.258 155.394 165.790  0.00  0.00    +0.029 C 
ATOM      6  C   UNL     1     150.100 154.600 164.527  0.00  0.00    +0.101 C 
ATOM      7  N   UNL     1     150.619 155.141 163.375  0.00  0.00    -0.330 N 
ATOM      8  C   UNL     1     150.583 154.509 162.064  0.00  0.00    +0.033 C 
ATOM      9  C   UNL     1     149.229 154.730 161.381  0.00  0.00    +0.060 C 
ATOM     10  O   UNL     1     148.208 153.914 161.949  0.00  0.00    -0.393 OA
ATOM     11  N   UNL     1     149.461 153.473 164.526  0.00  0.00    -0.204 N 
ATOM     12  C   UNL     1     148.949 152.971 165.705  0.00  0.00    +0.219 C 
ATOM     13  N   UNL     1     147.970 151.973 165.643  0.00  0.00    -0.272 N 
ATOM     14  C   UNL     1     147.546 151.367 164.462  0.00  0.00    +0.004 C 
ATOM     15  C   UNL     1     146.591 150.425 164.368  0.00  0.00    -0.018 C 
ATOM     16  C   UNL     1     146.202 149.832 163.046  0.00  0.00    -0.037 C 
ATOM     17  C   UNL     1     145.941 149.991 165.592  0.00  0.00    +0.043 C 
ATOM     18 CL   UNL     1     144.677 148.813 165.545  0.00  0.00    -0.083 Cl
ATOM     19  C   UNL     1     146.318 150.498 166.774  0.00  0.00    -0.048 C 
ATOM     20  C   UNL     1     147.406 151.525 166.931  0.00  0.00    +0.039 C 
ATOM     21  N   UNL     1     149.363 153.393 166.857  0.00  0.00    -0.244 N 
ATOM     22  H   UNL     1     151.048 156.025 163.441  0.00  0.00    +0.000 HD
ATOM     23  H   UNL     1     148.440 152.979 161.835  0.00  0.00    +0.000 HD
ATOM     24  H   UNL     1     149.340 152.976 163.685  0.00  0.00    +0.000 HD
ATOM     25  H   UNL     1     148.975 153.027 167.684  0.00  0.00    +0.000 HD
ENDROOT
TORSDOF 0
ENDMDL
MODEL 4
REMARK VINA RESULT:    -7.428      6.876      9.497
REMARK INTER + INTRA:          -7.428
REMARK INTER:                  -7.428
REMARK INTRA:                   0.000
REMARK UNBOUND:                 0.000
REMARK  Name = /home/vital/Documents/PhD_2021/Malaria_codes/scripts/../data/pdbqt_ligands/ligand_179_temp.pdb
REMARK                            x       y       z     vdW  Elec       q    Type
REMARK                         _______ _______ _______ _____ _____    ______ ____
ROOT
ATOM      1  C   UNL     1     149.530 160.024 160.869  0.00  0.00    -0.047 C 
ATOM      2  C   UNL     1     150.307 158.752 160.780  0.00  0.00    -0.089 C 
ATOM      3  C   UNL     1     150.473 157.903 161.809  0.00  0.00    -0.064 C 
ATOM      4  C   UNL     1     151.242 156.608 161.728  0.00  0.00    +0.079 C 
ATOM      5  C   UNL     1     152.489 156.583 162.581  0.00  0.00    +0.029 C 
ATOM      6  C   UNL     1     152.054 156.420 164.007  0.00  0.00    +0.101 C 
ATOM      7  N   UNL     1     152.825 157.024 164.972  0.00  0.00    -0.330 N 
ATOM      8  C   UNL     1     152.549 156.997 166.401  0.00  0.00    +0.033 C 
ATOM      9  C   UNL     1     153.042 155.692 167.035  0.00  0.00    +0.060 C 
ATOM     10  O   UNL     1     152.194 154.592 166.715  0.00  0.00    -0.393 OA
ATOM     11  N   UNL     1     151.019 155.703 164.309  0.00  0.00    -0.204 N 
ATOM     12  C   UNL     1     150.278 155.108 163.308  0.00  0.00    +0.219 C 
ATOM     13  N   UNL     1     149.409 154.063 163.643  0.00  0.00    -0.272 N 
ATOM     14  C   UNL     1     149.157 153.646 164.948  0.00  0.00    +0.004 C 
ATOM     15  C   UNL     1     148.348 152.631 165.300  0.00  0.00    -0.018 C 
ATOM     16  C   UNL     1     148.141 152.254 166.737  0.00  0.00    -0.037 C 
ATOM     17  C   UNL     1     147.673 151.901 164.241  0.00  0.00    +0.043 C 
ATOM     18 CL   UNL     1     146.650 150.559 164.614  0.00  0.00    -0.083 Cl
ATOM     19  C   UNL     1     147.834 152.264 162.961  0.00  0.00    -0.048 C 
ATOM     20  C   UNL     1     148.698 153.416 162.524  0.00  0.00    +0.039 C 
ATOM     21  N   UNL     1     150.362 155.503 162.078  0.00  0.00    -0.244 N 
ATOM     22  H   UNL     1     153.627 157.513 164.674  0.00  0.00    +0.000 HD
ATOM     23  H   UNL     1     151.302 154.761 167.059  0.00  0.00    +0.000 HD
ATOM     24  H   UNL     1     150.761 155.581 165.251  0.00  0.00    +0.000 HD
ATOM     25  H   UNL     1     149.831 155.057 161.380  0.00  0.00    +0.000 HD
ENDROOT
TORSDOF 0
ENDMDL
MODEL 5
REMARK VINA RESULT:    -7.135      5.633      7.548
REMARK INTER + INTRA:          -7.135
REMARK INTER:                  -7.135
REMARK INTRA:                   0.000
REMARK UNBOUND:                 0.000
REMARK  Name = /home/vital/Documents/PhD_2021/Malaria_codes/scripts/../data/pdbqt_ligands/ligand_179_temp.pdb
REMARK                            x       y       z     vdW  Elec       q    Type
REMARK                         _______ _______ _______ _____ _____    ______ ____
ROOT
ATOM      1  C   UNL     1     154.589 154.497 168.310  0.00  0.00    -0.047 C 
ATOM      2  C   UNL     1     153.148 154.619 167.940  0.00  0.00    -0.089 C 
ATOM      3  C   UNL     1     152.683 155.472 167.011  0.00  0.00    -0.064 C 
ATOM      4  C   UNL     1     151.232 155.594 166.617  0.00  0.00    +0.079 C 
ATOM      5  C   UNL     1     150.616 156.931 166.962  0.00  0.00    +0.029 C 
ATOM      6  C   UNL     1     151.133 157.933 165.973  0.00  0.00    +0.101 C 
ATOM      7  N   UNL     1     151.306 159.223 166.416  0.00  0.00    -0.330 N 
ATOM      8  C   UNL     1     151.819 160.321 165.612  0.00  0.00    +0.033 C 
ATOM      9  C   UNL     1     150.717 160.927 164.737  0.00  0.00    +0.060 C 
ATOM     10  O   UNL     1     150.397 160.091 163.629  0.00  0.00    -0.393 OA
ATOM     11  N   UNL     1     151.363 157.595 164.744  0.00  0.00    -0.204 N 
ATOM     12  C   UNL     1     151.169 156.291 164.340  0.00  0.00    +0.219 C 
ATOM     13  N   UNL     1     151.063 156.017 162.971  0.00  0.00    -0.272 N 
ATOM     14  C   UNL     1     151.250 156.967 161.969  0.00  0.00    +0.004 C 
ATOM     15  C   UNL     1     151.131 156.741 160.649  0.00  0.00    -0.018 C 
ATOM     16  C   UNL     1     151.350 157.833 159.643  0.00  0.00    -0.037 C 
ATOM     17  C   UNL     1     150.781 155.399 160.217  0.00  0.00    +0.043 C 
ATOM     18 CL   UNL     1     150.572 155.044 158.538  0.00  0.00    -0.083 Cl
ATOM     19  C   UNL     1     150.623 154.419 161.117  0.00  0.00    -0.048 C 
ATOM     20  C   UNL     1     150.783 154.617 162.600  0.00  0.00    +0.039 C 
ATOM     21  N   UNL     1     151.095 155.321 165.195  0.00  0.00    -0.244 N 
ATOM     22  H   UNL     1     151.064 159.418 167.351  0.00  0.00    +0.000 HD
ATOM     23  H   UNL     1     151.182 159.981 163.069  0.00  0.00    +0.000 HD
ATOM     24  H   UNL     1     151.676 158.270 164.098  0.00  0.00    +0.000 HD
ATOM     25  H   UNL     1     150.946 154.400 164.883  0.00  0.00    +0.000 HD
ENDROOT
TORSDOF 0
ENDMDL
MODEL 6
REMARK VINA RESULT:    -7.132      6.177      8.650
REMARK INTER + INTRA:          -7.132
REMARK INTER:                  -7.132
REMARK INTRA:                   0.000
REMARK UNBOUND:                 0.000
REMARK  Name = /home/vital/Documents/PhD_2021/Malaria_codes/scripts/../data/pdbqt_ligands/ligand_179_temp.pdb
REMARK                            x       y       z     vdW  Elec       q    Type
REMARK                         _______ _______ _______ _____ _____    ______ ____
ROOT
ATOM      1  C   UNL     1     149.893 160.453 167.875  0.00  0.00    -0.047 C 
ATOM      2  C   UNL     1     151.107 159.787 167.315  0.00  0.00    -0.089 C 
ATOM      3  C   UNL     1     151.082 158.620 166.649  0.00  0.00    -0.064 C 
ATOM      4  C   UNL     1     152.297 157.946 166.065  0.00  0.00    +0.079 C 
ATOM      5  C   UNL     1     152.632 156.622 166.713  0.00  0.00    +0.029 C 
ATOM      6  C   UNL     1     151.639 155.614 166.216  0.00  0.00    +0.101 C 
ATOM      7  N   UNL     1     151.276 154.609 167.080  0.00  0.00    -0.330 N 
ATOM      8  C   UNL     1     150.311 153.560 166.785  0.00  0.00    +0.033 C 
ATOM      9  C   UNL     1     150.956 152.429 165.975  0.00  0.00    +0.060 C 
ATOM     10  O   UNL     1     151.166 152.802 164.616  0.00  0.00    -0.393 OA
ATOM     11  N   UNL     1     151.181 155.674 165.005  0.00  0.00    -0.204 N 
ATOM     12  C   UNL     1     151.578 156.697 164.168  0.00  0.00    +0.219 C 
ATOM     13  N   UNL     1     151.379 156.556 162.790  0.00  0.00    -0.272 N 
ATOM     14  C   UNL     1     150.703 155.487 162.204  0.00  0.00    +0.004 C 
ATOM     15  C   UNL     1     150.519 155.311 160.884  0.00  0.00    -0.018 C 
ATOM     16  C   UNL     1     149.776 154.123 160.348  0.00  0.00    -0.037 C 
ATOM     17  C   UNL     1     151.061 156.311 159.982  0.00  0.00    +0.043 C 
ATOM     18 CL   UNL     1     150.897 156.131 158.271  0.00  0.00    -0.083 Cl
ATOM     19  C   UNL     1     151.692 157.390 160.468  0.00  0.00    -0.048 C 
ATOM     20  C   UNL     1     151.889 157.647 161.938  0.00  0.00    +0.039 C 
ATOM     21  N   UNL     1     152.115 157.781 164.632  0.00  0.00    -0.244 N 
ATOM     22  H   UNL     1     151.702 154.597 167.968  0.00  0.00    +0.000 HD
ATOM     23  H   UNL     1     150.313 153.004 164.200  0.00  0.00    +0.000 HD
ATOM     24  H   UNL     1     150.550 154.990 164.682  0.00  0.00    +0.000 HD
ATOM     25  H   UNL     1     152.399 158.492 164.014  0.00  0.00    +0.000 HD
ENDROOT
TORSDOF 0
ENDMDL
MODEL 7
REMARK VINA RESULT:    -6.700      5.478      8.049
REMARK INTER + INTRA:          -6.700
REMARK INTER:                  -6.700
REMARK INTRA:                   0.000
REMARK UNBOUND:                 0.000
REMARK  Name = /home/vital/Documents/PhD_2021/Malaria_codes/scripts/../data/pdbqt_ligands/ligand_179_temp.pdb
REMARK                            x       y       z     vdW  Elec       q    Type
REMARK                         _______ _______ _______ _____ _____    ______ ____
ROOT
ATOM      1  C   UNL     1     148.398 163.541 165.891  0.00  0.00    -0.047 C 
ATOM      2  C   UNL     1     149.725 163.314 165.245  0.00  0.00    -0.089 C 
ATOM      3  C   UNL     1     150.183 162.105 164.877  0.00  0.00    -0.064 C 
ATOM      4  C   UNL     1     151.513 161.864 164.209  0.00  0.00    +0.079 C 
ATOM      5  C   UNL     1     152.481 161.062 165.048  0.00  0.00    +0.029 C 
ATOM      6  C   UNL     1     152.027 159.633 165.014  0.00  0.00    +0.101 C 
ATOM      7  N   UNL     1     152.253 158.874 166.138  0.00  0.00    -0.330 N 
ATOM      8  C   UNL     1     151.862 157.481 166.299  0.00  0.00    +0.033 C 
ATOM      9  C   UNL     1     152.880 156.542 165.642  0.00  0.00    +0.060 C 
ATOM     10  O   UNL     1     152.767 156.547 164.222  0.00  0.00    -0.393 OA
ATOM     11  N   UNL     1     151.485 159.132 163.949  0.00  0.00    -0.204 N 
ATOM     12  C   UNL     1     151.283 159.928 162.840  0.00  0.00    +0.219 C 
ATOM     13  N   UNL     1     151.047 159.315 161.604  0.00  0.00    -0.272 N 
ATOM     14  C   UNL     1     150.893 157.941 161.431  0.00  0.00    +0.004 C 
ATOM     15  C   UNL     1     150.691 157.321 160.256  0.00  0.00    -0.018 C 
ATOM     16  C   UNL     1     150.538 155.831 160.171  0.00  0.00    -0.037 C 
ATOM     17  C   UNL     1     150.622 158.139 159.058  0.00  0.00    +0.043 C 
ATOM     18 CL   UNL     1     150.404 157.409 157.507  0.00  0.00    -0.083 Cl
ATOM     19  C   UNL     1     150.723 159.474 159.144  0.00  0.00    -0.048 C 
ATOM     20  C   UNL     1     150.912 160.213 160.441  0.00  0.00    +0.039 C 
ATOM     21  N   UNL     1     151.297 161.221 162.923  0.00  0.00    -0.244 N 
ATOM     22  H   UNL     1     152.716 159.306 166.893  0.00  0.00    +0.000 HD
ATOM     23  H   UNL     1     151.883 156.240 163.966  0.00  0.00    +0.000 HD
ATOM     24  H   UNL     1     151.216 158.185 163.931  0.00  0.00    +0.000 HD
ATOM     25  H   UNL     1     151.161 161.767 162.116  0.00  0.00    +0.000 HD
ENDROOT
TORSDOF 0
ENDMDL
MODEL 8
REMARK VINA RESULT:    -6.643      4.911      7.497
REMARK INTER + INTRA:          -6.643
REMARK INTER:                  -6.643
REMARK INTRA:                   0.000
REMARK UNBOUND:                 0.000
REMARK  Name = /home/vital/Documents/PhD_2021/Malaria_codes/scripts/../data/pdbqt_ligands/ligand_179_temp.pdb
REMARK                            x       y       z     vdW  Elec       q    Type
REMARK                         _______ _______ _______ _____ _____    ______ ____
ROOT
ATOM      1  C   UNL     1     147.598 153.140 162.197  0.00  0.00    -0.047 C 
ATOM      2  C   UNL     1     149.063 153.402 162.084  0.00  0.00    -0.089 C 
ATOM      3  C   UNL     1     149.586 154.576 161.690  0.00  0.00    -0.064 C 
ATOM      4  C   UNL     1     151.063 154.859 161.588  0.00  0.00    +0.079 C 
ATOM      5  C   UNL     1     151.539 155.115 160.176  0.00  0.00    +0.029 C 
ATOM      6  C   UNL     1     151.088 156.493 159.793  0.00  0.00    +0.101 C 
ATOM      7  N   UNL     1     150.774 156.708 158.472  0.00  0.00    -0.330 N 
ATOM      8  C   UNL     1     150.296 157.967 157.920  0.00  0.00    +0.033 C 
ATOM      9  C   UNL     1     151.459 158.926 157.645  0.00  0.00    +0.060 C 
ATOM     10  O   UNL     1     151.974 159.495 158.846  0.00  0.00    -0.393 OA
ATOM     11  N   UNL     1     151.041 157.445 160.671  0.00  0.00    -0.204 N 
ATOM     12  C   UNL     1     151.373 157.188 161.985  0.00  0.00    +0.219 C 
ATOM     13  N   UNL     1     151.671 158.264 162.828  0.00  0.00    -0.272 N 
ATOM     14  C   UNL     1     151.552 159.602 162.458  0.00  0.00    +0.004 C 
ATOM     15  C   UNL     1     151.855 160.656 163.236  0.00  0.00    -0.018 C 
ATOM     16  C   UNL     1     151.694 162.064 162.746  0.00  0.00    -0.037 C 
ATOM     17  C   UNL     1     152.345 160.393 164.578  0.00  0.00    +0.043 C 
ATOM     18 CL   UNL     1     152.792 161.696 165.621  0.00  0.00    -0.083 Cl
ATOM     19  C   UNL     1     152.452 159.133 165.024  0.00  0.00    -0.048 C 
ATOM     20  C   UNL     1     152.090 157.925 164.202  0.00  0.00    +0.039 C 
ATOM     21  N   UNL     1     151.400 155.979 162.452  0.00  0.00    -0.244 N 
ATOM     22  H   UNL     1     150.880 155.951 157.851  0.00  0.00    +0.000 HD
ATOM     23  H   UNL     1     151.276 160.006 159.286  0.00  0.00    +0.000 HD
ATOM     24  H   UNL     1     150.769 158.352 160.400  0.00  0.00    +0.000 HD
ATOM     25  H   UNL     1     151.650 155.820 163.390  0.00  0.00    +0.000 HD
ENDROOT
TORSDOF 0
ENDMDL
MODEL 9
REMARK VINA RESULT:    -6.574      5.594      8.235
REMARK INTER + INTRA:          -6.574
REMARK INTER:                  -6.574
REMARK INTRA:                   0.000
REMARK UNBOUND:                 0.000
REMARK  Name = /home/vital/Documents/PhD_2021/Malaria_codes/scripts/../data/pdbqt_ligands/ligand_179_temp.pdb
REMARK                            x       y       z     vdW  Elec       q    Type
REMARK                         _______ _______ _______ _____ _____    ______ ____
ROOT
ATOM      1  C   UNL     1     147.272 153.332 161.931  0.00  0.00    -0.047 C 
ATOM      2  C   UNL     1     148.762 153.412 161.971  0.00  0.00    -0.089 C 
ATOM      3  C   UNL     1     149.454 154.560 161.874  0.00  0.00    -0.064 C 
ATOM      4  C   UNL     1     150.958 154.655 161.928  0.00  0.00    +0.079 C 
ATOM      5  C   UNL     1     151.587 155.130 160.639  0.00  0.00    +0.029 C 
ATOM      6  C   UNL     1     151.339 156.606 160.535  0.00  0.00    +0.101 C 
ATOM      7  N   UNL     1     151.174 157.128 159.274  0.00  0.00    -0.330 N 
ATOM      8  C   UNL     1     150.901 158.527 158.977  0.00  0.00    +0.033 C 
ATOM      9  C   UNL     1     152.190 159.356 158.990  0.00  0.00    +0.060 C 
ATOM     10  O   UNL     1     152.657 159.590 160.315  0.00  0.00    -0.393 OA
ATOM     11  N   UNL     1     151.326 157.354 161.592  0.00  0.00    -0.204 N 
ATOM     12  C   UNL     1     151.504 156.789 162.838  0.00  0.00    +0.219 C 
ATOM     13  N   UNL     1     151.851 157.618 163.911  0.00  0.00    -0.272 N 
ATOM     14  C   UNL     1     151.925 159.007 163.832  0.00  0.00    +0.004 C 
ATOM     15  C   UNL     1     152.279 159.827 164.837  0.00  0.00    -0.018 C 
ATOM     16  C   UNL     1     152.332 161.315 164.653  0.00  0.00    -0.037 C 
ATOM     17  C   UNL     1     152.611 159.230 166.118  0.00  0.00    +0.043 C 
ATOM     18 CL   UNL     1     153.113 160.218 167.444  0.00  0.00    -0.083 Cl
ATOM     19  C   UNL     1     152.527 157.902 166.287  0.00  0.00    -0.048 C 
ATOM     20  C   UNL     1     152.100 156.950 165.203  0.00  0.00    +0.039 C 
ATOM     21  N   UNL     1     151.346 155.518 163.034  0.00  0.00    -0.244 N 
ATOM     22  H   UNL     1     151.246 156.508 158.512  0.00  0.00    +0.000 HD
ATOM     23  H   UNL     1     151.988 160.089 160.811  0.00  0.00    +0.000 HD
ATOM     24  H   UNL     1     151.190 158.326 161.507  0.00  0.00    +0.000 HD
ATOM     25  H   UNL     1     151.489 155.137 163.929  0.00  0.00    +0.000 HD
ENDROOT
TORSDOF 0
ENDMDL
