MODEL 1
REMARK VINA RESULT:    -4.520      0.000      0.000
REMARK INTER + INTRA:          -4.520
REMARK INTER:                  -4.520
REMARK INTRA:                   0.000
REMARK UNBOUND:                 0.000
REMARK  Name = /home/vital/Documents/PhD_2021/Malaria_codes/scripts/../data/pdbqt_ligands/ligand_278_temp.pdb
REMARK                            x       y       z     vdW  Elec       q    Type
REMARK                         _______ _______ _______ _____ _____    ______ ____
ROOT
ATOM      1  N   UNL     1     153.101 157.157 162.359  0.00  0.00    -0.286 N 
ATOM      2  C   UNL     1     152.181 157.588 163.163  0.00  0.00    +0.111 C 
ATOM      3  C   UNL     1     151.543 158.929 162.986  0.00  0.00    -0.023 C 
ATOM      4  C   UNL     1     151.463 159.685 161.878  0.00  0.00    -0.059 C 
ATOM      5  C   UNL     1     151.967 159.387 160.558  0.00  0.00    -0.064 C 
ATOM      6  C   UNL     1     151.847 160.223 159.512  0.00  0.00    -0.063 C 
ATOM      7  C   UNL     1     152.383 159.907 158.148  0.00  0.00    +0.060 C 
ATOM      8  N   UNL     1     151.366 160.057 157.108  0.00  0.00    -0.268 NA
ATOM      9  C   UNL     1     150.452 159.161 156.989  0.00  0.00    +0.111 C 
ATOM     10  N   UNL     1     150.330 158.081 157.810  0.00  0.00    -0.244 NA
ATOM     11  C   UNL     1     150.959 157.017 157.443  0.00  0.00    +0.029 C 
ATOM     12  C   UNL     1     151.037 155.800 158.288  0.00  0.00    -0.042 C 
ATOM     13  C   UNL     1     150.427 155.791 159.485  0.00  0.00    -0.020 C 
ATOM     14  C   UNL     1     150.484 154.770 160.586  0.00  0.00    +0.238 C 
ATOM     15 CL   UNL     1     151.881 153.680 160.415  0.00  0.00    -0.066 Cl
ATOM     16 CL   UNL     1     148.970 153.826 160.536  0.00  0.00    -0.066 Cl
ATOM     17  O   UNL     1     150.522 155.536 161.788  0.00  0.00    -0.341 OA
ATOM     18  C   UNL     1     150.828 154.864 163.003  0.00  0.00    +0.067 C 
ATOM     19  C   UNL     1     150.713 155.875 164.152  0.00  0.00    +0.034 C 
ATOM     20  N   UNL     1     151.864 156.797 164.247  0.00  0.00    -0.327 N 
ATOM     21  H   UNL     1     153.357 157.691 161.573  0.00  0.00    +0.000 HD
ATOM     22  H   UNL     1     153.543 156.295 162.534  0.00  0.00    +0.000 HD
ATOM     23  H   UNL     1     152.397 156.845 165.074  0.00  0.00    +0.000 HD
ENDROOT
TORSDOF 0
ENDMDL
MODEL 2
REMARK VINA RESULT:    -4.272      3.300      6.061
REMARK INTER + INTRA:          -4.272
REMARK INTER:                  -4.272
REMARK INTRA:                   0.000
REMARK UNBOUND:                 0.000
REMARK  Name = /home/vital/Documents/PhD_2021/Malaria_codes/scripts/../data/pdbqt_ligands/ligand_278_temp.pdb
REMARK                            x       y       z     vdW  Elec       q    Type
REMARK                         _______ _______ _______ _____ _____    ______ ____
ROOT
ATOM      1  N   UNL     1     153.179 159.505 158.349  0.00  0.00    -0.286 N 
ATOM      2  C   UNL     1     152.293 159.991 157.539  0.00  0.00    +0.111 C 
ATOM      3  C   UNL     1     151.340 159.113 156.791  0.00  0.00    -0.023 C 
ATOM      4  C   UNL     1     150.945 157.862 157.078  0.00  0.00    -0.059 C 
ATOM      5  C   UNL     1     151.334 157.040 158.200  0.00  0.00    -0.064 C 
ATOM      6  C   UNL     1     150.890 155.785 158.389  0.00  0.00    -0.063 C 
ATOM      7  C   UNL     1     151.309 154.937 159.552  0.00  0.00    +0.060 C 
ATOM      8  N   UNL     1     150.162 154.388 160.275  0.00  0.00    -0.268 NA
ATOM      9  C   UNL     1     149.477 155.158 161.044  0.00  0.00    +0.111 C 
ATOM     10  N   UNL     1     149.717 156.489 161.202  0.00  0.00    -0.244 NA
ATOM     11  C   UNL     1     150.527 156.809 162.153  0.00  0.00    +0.029 C 
ATOM     12  C   UNL     1     150.995 158.199 162.374  0.00  0.00    -0.042 C 
ATOM     13  C   UNL     1     150.560 159.176 161.559  0.00  0.00    -0.020 C 
ATOM     14  C   UNL     1     150.995 160.611 161.462  0.00  0.00    +0.238 C 
ATOM     15 CL   UNL     1     152.576 160.885 162.233  0.00  0.00    -0.066 Cl
ATOM     16 CL   UNL     1     149.751 161.615 162.258  0.00  0.00    -0.066 Cl
ATOM     17  O   UNL     1     151.003 160.892 160.064  0.00  0.00    -0.341 OA
ATOM     18  C   UNL     1     151.610 162.102 159.626  0.00  0.00    +0.067 C 
ATOM     19  C   UNL     1     151.406 162.217 158.110  0.00  0.00    +0.034 C 
ATOM     20  N   UNL     1     152.310 161.354 157.323  0.00  0.00    -0.327 N 
ATOM     21  H   UNL     1     153.201 158.538 158.531  0.00  0.00    +0.000 HD
ATOM     22  H   UNL     1     153.830 160.103 158.783  0.00  0.00    +0.000 HD
ATOM     23  H   UNL     1     152.917 161.746 156.654  0.00  0.00    +0.000 HD
ENDROOT
TORSDOF 0
ENDMDL
MODEL 3
REMARK VINA RESULT:    -3.845      4.065      6.695
REMARK INTER + INTRA:          -3.845
REMARK INTER:                  -3.845
REMARK INTRA:                   0.000
REMARK UNBOUND:                 0.000
REMARK  Name = /home/vital/Documents/PhD_2021/Malaria_codes/scripts/../data/pdbqt_ligands/ligand_278_temp.pdb
REMARK                            x       y       z     vdW  Elec       q    Type
REMARK                         _______ _______ _______ _____ _____    ______ ____
ROOT
ATOM      1  N   UNL     1     153.436 158.506 164.466  0.00  0.00    -0.286 N 
ATOM      2  C   UNL     1     152.873 157.345 164.356  0.00  0.00    +0.111 C 
ATOM      3  C   UNL     1     151.974 156.799 165.419  0.00  0.00    -0.023 C 
ATOM      4  C   UNL     1     151.294 157.461 166.371  0.00  0.00    -0.059 C 
ATOM      5  C   UNL     1     151.247 158.885 166.604  0.00  0.00    -0.064 C 
ATOM      6  C   UNL     1     150.544 159.451 167.599  0.00  0.00    -0.063 C 
ATOM      7  C   UNL     1     150.511 160.931 167.838  0.00  0.00    +0.060 C 
ATOM      8  N   UNL     1     149.144 161.445 167.921  0.00  0.00    -0.268 NA
ATOM      9  C   UNL     1     148.455 161.574 166.843  0.00  0.00    +0.111 C 
ATOM     10  N   UNL     1     148.897 161.212 165.606  0.00  0.00    -0.244 NA
ATOM     11  C   UNL     1     149.508 162.128 164.934  0.00  0.00    +0.029 C 
ATOM     12  C   UNL     1     150.164 161.862 163.630  0.00  0.00    -0.042 C 
ATOM     13  C   UNL     1     150.124 160.622 163.115  0.00  0.00    -0.020 C 
ATOM     14  C   UNL     1     150.832 160.055 161.917  0.00  0.00    +0.238 C 
ATOM     15 CL   UNL     1     152.210 161.063 161.415  0.00  0.00    -0.066 Cl
ATOM     16 CL   UNL     1     149.647 159.942 160.585  0.00  0.00    -0.066 Cl
ATOM     17  O   UNL     1     151.220 158.741 162.313  0.00  0.00    -0.341 OA
ATOM     18  C   UNL     1     152.129 158.031 161.483  0.00  0.00    +0.067 C 
ATOM     19  C   UNL     1     152.312 156.624 162.068  0.00  0.00    +0.034 C 
ATOM     20  N   UNL     1     153.196 156.585 163.250  0.00  0.00    -0.327 N 
ATOM     21  H   UNL     1     153.233 159.080 165.239  0.00  0.00    +0.000 HD
ATOM     22  H   UNL     1     154.068 158.814 163.776  0.00  0.00    +0.000 HD
ATOM     23  H   UNL     1     154.006 156.024 163.250  0.00  0.00    +0.000 HD
ENDROOT
TORSDOF 0
ENDMDL
MODEL 4
REMARK VINA RESULT:    -3.771      3.227      5.909
REMARK INTER + INTRA:          -3.771
REMARK INTER:                  -3.771
REMARK INTRA:                   0.000
REMARK UNBOUND:                 0.000
REMARK  Name = /home/vital/Documents/PhD_2021/Malaria_codes/scripts/../data/pdbqt_ligands/ligand_278_temp.pdb
REMARK                            x       y       z     vdW  Elec       q    Type
REMARK                         _______ _______ _______ _____ _____    ______ ____
ROOT
ATOM      1  N   UNL     1     152.314 155.470 162.697  0.00  0.00    -0.286 N 
ATOM      2  C   UNL     1     151.185 154.836 162.677  0.00  0.00    +0.111 C 
ATOM      3  C   UNL     1     150.330 154.705 163.897  0.00  0.00    -0.023 C 
ATOM      4  C   UNL     1     150.315 155.471 165.001  0.00  0.00    -0.059 C 
ATOM      5  C   UNL     1     151.120 156.634 165.290  0.00  0.00    -0.064 C 
ATOM      6  C   UNL     1     151.038 157.326 166.439  0.00  0.00    -0.063 C 
ATOM      7  C   UNL     1     151.886 158.527 166.732  0.00  0.00    +0.060 C 
ATOM      8  N   UNL     1     151.086 159.681 167.142  0.00  0.00    -0.268 NA
ATOM      9  C   UNL     1     150.419 160.330 166.255  0.00  0.00    +0.111 C 
ATOM     10  N   UNL     1     150.364 159.987 164.938  0.00  0.00    -0.244 NA
ATOM     11  C   UNL     1     151.260 160.517 164.177  0.00  0.00    +0.029 C 
ATOM     12  C   UNL     1     151.420 160.147 162.750  0.00  0.00    -0.042 C 
ATOM     13  C   UNL     1     150.602 159.226 162.214  0.00  0.00    -0.020 C 
ATOM     14  C   UNL     1     150.652 158.563 160.866  0.00  0.00    +0.238 C 
ATOM     15 CL   UNL     1     152.250 158.726 160.100  0.00  0.00    -0.066 Cl
ATOM     16 CL   UNL     1     149.406 159.323 159.836  0.00  0.00    -0.066 Cl
ATOM     17  O   UNL     1     150.292 157.207 161.117  0.00  0.00    -0.341 OA
ATOM     18  C   UNL     1     150.485 156.258 160.075  0.00  0.00    +0.067 C 
ATOM     19  C   UNL     1     149.939 154.905 160.553  0.00  0.00    +0.034 C 
ATOM     20  N   UNL     1     150.831 154.207 161.500  0.00  0.00    -0.327 N 
ATOM     21  H   UNL     1     152.604 155.932 163.516  0.00  0.00    +0.000 HD
ATOM     22  H   UNL     1     152.882 155.490 161.893  0.00  0.00    +0.000 HD
ATOM     23  H   UNL     1     151.169 153.305 161.295  0.00  0.00    +0.000 HD
ENDROOT
TORSDOF 0
ENDMDL
MODEL 5
REMARK VINA RESULT:    -3.720      1.620      5.069
REMARK INTER + INTRA:          -3.720
REMARK INTER:                  -3.720
REMARK INTRA:                   0.000
REMARK UNBOUND:                 0.000
REMARK  Name = /home/vital/Documents/PhD_2021/Malaria_codes/scripts/../data/pdbqt_ligands/ligand_278_temp.pdb
REMARK                            x       y       z     vdW  Elec       q    Type
REMARK                         _______ _______ _______ _____ _____    ______ ____
ROOT
ATOM      1  N   UNL     1     149.635 158.704 157.915  0.00  0.00    -0.286 N 
ATOM      2  C   UNL     1     150.721 158.936 157.249  0.00  0.00    +0.111 C 
ATOM      3  C   UNL     1     151.722 159.953 157.699  0.00  0.00    -0.023 C 
ATOM      4  C   UNL     1     151.917 160.455 158.930  0.00  0.00    -0.059 C 
ATOM      5  C   UNL     1     151.212 160.131 160.147  0.00  0.00    -0.064 C 
ATOM      6  C   UNL     1     151.476 160.705 161.333  0.00  0.00    -0.063 C 
ATOM      7  C   UNL     1     150.730 160.368 162.589  0.00  0.00    +0.060 C 
ATOM      8  N   UNL     1     151.630 160.013 163.686  0.00  0.00    -0.268 NA
ATOM      9  C   UNL     1     152.203 158.862 163.682  0.00  0.00    +0.111 C 
ATOM     10  N   UNL     1     152.069 157.946 162.683  0.00  0.00    -0.244 NA
ATOM     11  C   UNL     1     151.106 157.099 162.818  0.00  0.00    +0.029 C 
ATOM     12  C   UNL     1     150.742 156.124 161.761  0.00  0.00    -0.042 C 
ATOM     13  C   UNL     1     151.440 156.108 160.613  0.00  0.00    -0.020 C 
ATOM     14  C   UNL     1     151.183 155.349 159.341  0.00  0.00    +0.238 C 
ATOM     15 CL   UNL     1     149.507 154.758 159.243  0.00  0.00    -0.066 Cl
ATOM     16 CL   UNL     1     152.316 153.970 159.289  0.00  0.00    -0.066 Cl
ATOM     17  O   UNL     1     151.510 156.267 158.300  0.00  0.00    -0.341 OA
ATOM     18  C   UNL     1     151.138 155.932 156.969  0.00  0.00    +0.067 C 
ATOM     19  C   UNL     1     151.679 157.020 156.033  0.00  0.00    +0.034 C 
ATOM     20  N   UNL     1     150.888 158.267 156.054  0.00  0.00    -0.327 N 
ATOM     21  H   UNL     1     149.477 159.160 158.773  0.00  0.00    +0.000 HD
ATOM     22  H   UNL     1     148.967 158.071 157.564  0.00  0.00    +0.000 HD
ATOM     23  H   UNL     1     150.484 158.616 155.226  0.00  0.00    +0.000 HD
ENDROOT
TORSDOF 0
ENDMDL
MODEL 6
REMARK VINA RESULT:    -3.714      2.956      4.453
REMARK INTER + INTRA:          -3.714
REMARK INTER:                  -3.714
REMARK INTRA:                   0.000
REMARK UNBOUND:                 0.000
REMARK  Name = /home/vital/Documents/PhD_2021/Malaria_codes/scripts/../data/pdbqt_ligands/ligand_278_temp.pdb
REMARK                            x       y       z     vdW  Elec       q    Type
REMARK                         _______ _______ _______ _____ _____    ______ ____
ROOT
ATOM      1  N   UNL     1     149.502 156.781 161.063  0.00  0.00    -0.286 N 
ATOM      2  C   UNL     1     150.515 156.246 161.666  0.00  0.00    +0.111 C 
ATOM      3  C   UNL     1     151.408 155.258 160.986  0.00  0.00    -0.023 C 
ATOM      4  C   UNL     1     151.607 155.067 159.670  0.00  0.00    -0.059 C 
ATOM      5  C   UNL     1     151.011 155.783 158.567  0.00  0.00    -0.064 C 
ATOM      6  C   UNL     1     151.266 155.503 157.277  0.00  0.00    -0.063 C 
ATOM      7  C   UNL     1     150.634 156.246 156.139  0.00  0.00    +0.060 C 
ATOM      8  N   UNL     1     151.627 156.750 155.191  0.00  0.00    -0.268 NA
ATOM      9  C   UNL     1     152.334 157.776 155.507  0.00  0.00    +0.111 C 
ATOM     10  N   UNL     1     152.259 158.414 156.708  0.00  0.00    -0.244 NA
ATOM     11  C   UNL     1     151.413 159.385 156.781  0.00  0.00    +0.029 C 
ATOM     12  C   UNL     1     151.115 160.096 158.048  0.00  0.00    -0.042 C 
ATOM     13  C   UNL     1     151.748 159.724 159.174  0.00  0.00    -0.020 C 
ATOM     14  C   UNL     1     151.517 160.158 160.594  0.00  0.00    +0.238 C 
ATOM     15 CL   UNL     1     149.922 160.918 160.811  0.00  0.00    -0.066 Cl
ATOM     16 CL   UNL     1     152.804 161.317 161.028  0.00  0.00    -0.066 Cl
ATOM     17  O   UNL     1     151.676 158.969 161.366  0.00  0.00    -0.341 OA
ATOM     18  C   UNL     1     151.276 158.996 162.730  0.00  0.00    +0.067 C 
ATOM     19  C   UNL     1     151.632 157.643 163.360  0.00  0.00    +0.034 C 
ATOM     20  N   UNL     1     150.698 156.557 162.998  0.00  0.00    -0.327 N 
ATOM     21  H   UNL     1     149.336 156.585 160.113  0.00  0.00    +0.000 HD
ATOM     22  H   UNL     1     148.898 157.384 161.554  0.00  0.00    +0.000 HD
ATOM     23  H   UNL     1     150.212 156.063 163.698  0.00  0.00    +0.000 HD
ENDROOT
TORSDOF 0
ENDMDL
MODEL 7
REMARK VINA RESULT:    -3.659      3.458      5.715
REMARK INTER + INTRA:          -3.659
REMARK INTER:                  -3.659
REMARK INTRA:                   0.000
REMARK UNBOUND:                 0.000
REMARK  Name = /home/vital/Documents/PhD_2021/Malaria_codes/scripts/../data/pdbqt_ligands/ligand_278_temp.pdb
REMARK                            x       y       z     vdW  Elec       q    Type
REMARK                         _______ _______ _______ _____ _____    ______ ____
ROOT
ATOM      1  N   UNL     1     153.352 157.417 163.327  0.00  0.00    -0.286 N 
ATOM      2  C   UNL     1     152.447 156.636 163.826  0.00  0.00    +0.111 C 
ATOM      3  C   UNL     1     151.910 156.831 165.208  0.00  0.00    -0.023 C 
ATOM      4  C   UNL     1     151.908 157.943 165.963  0.00  0.00    -0.059 C 
ATOM      5  C   UNL     1     152.420 159.250 165.624  0.00  0.00    -0.064 C 
ATOM      6  C   UNL     1     152.385 160.300 166.462  0.00  0.00    -0.063 C 
ATOM      7  C   UNL     1     152.929 161.651 166.103  0.00  0.00    +0.060 C 
ATOM      8  N   UNL     1     151.949 162.715 166.321  0.00  0.00    -0.268 NA
ATOM      9  C   UNL     1     150.977 162.853 165.491  0.00  0.00    +0.111 C 
ATOM     10  N   UNL     1     150.759 162.032 164.426  0.00  0.00    -0.244 NA
ATOM     11  C   UNL     1     151.320 162.381 163.318  0.00  0.00    +0.029 C 
ATOM     12  C   UNL     1     151.292 161.532 162.103  0.00  0.00    -0.042 C 
ATOM     13  C   UNL     1     150.655 160.349 162.142  0.00  0.00    -0.020 C 
ATOM     14  C   UNL     1     150.615 159.245 161.124  0.00  0.00    +0.238 C 
ATOM     15 CL   UNL     1     151.935 159.380 159.937  0.00  0.00    -0.066 Cl
ATOM     16 CL   UNL     1     149.039 159.328 160.289  0.00  0.00    -0.066 Cl
ATOM     17  O   UNL     1     150.678 158.044 161.891  0.00  0.00    -0.341 OA
ATOM     18  C   UNL     1     150.908 156.821 161.203  0.00  0.00    +0.067 C 
ATOM     19  C   UNL     1     150.839 155.677 162.225  0.00  0.00    +0.034 C 
ATOM     20  N   UNL     1     152.049 155.557 163.063  0.00  0.00    -0.327 N 
ATOM     21  H   UNL     1     153.664 158.198 163.838  0.00  0.00    +0.000 HD
ATOM     22  H   UNL     1     153.728 157.229 162.436  0.00  0.00    +0.000 HD
ATOM     23  H   UNL     1     152.565 154.719 163.077  0.00  0.00    +0.000 HD
ENDROOT
TORSDOF 0
ENDMDL
MODEL 8
REMARK VINA RESULT:    -3.457      2.994      4.268
REMARK INTER + INTRA:          -3.457
REMARK INTER:                  -3.457
REMARK INTRA:                   0.000
REMARK UNBOUND:                 0.000
REMARK  Name = /home/vital/Documents/PhD_2021/Malaria_codes/scripts/../data/pdbqt_ligands/ligand_278_temp.pdb
REMARK                            x       y       z     vdW  Elec       q    Type
REMARK                         _______ _______ _______ _____ _____    ______ ____
ROOT
ATOM      1  N   UNL     1     152.586 155.792 165.840  0.00  0.00    -0.286 N 
ATOM      2  C   UNL     1     151.521 155.606 166.553  0.00  0.00    +0.111 C 
ATOM      3  C   UNL     1     150.769 156.747 167.161  0.00  0.00    -0.023 C 
ATOM      4  C   UNL     1     150.761 158.041 166.798  0.00  0.00    -0.059 C 
ATOM      5  C   UNL     1     151.475 158.665 165.709  0.00  0.00    -0.064 C 
ATOM      6  C   UNL     1     151.411 159.979 165.436  0.00  0.00    -0.063 C 
ATOM      7  C   UNL     1     152.165 160.618 164.309  0.00  0.00    +0.060 C 
ATOM      8  N   UNL     1     151.293 161.411 163.443  0.00  0.00    -0.268 NA
ATOM      9  C   UNL     1     150.511 160.810 162.619  0.00  0.00    +0.111 C 
ATOM     10  N   UNL     1     150.395 159.456 162.524  0.00  0.00    -0.244 NA
ATOM     11  C   UNL     1     151.185 158.879 161.683  0.00  0.00    +0.029 C 
ATOM     12  C   UNL     1     151.278 157.404 161.555  0.00  0.00    -0.042 C 
ATOM     13  C   UNL     1     150.511 156.626 162.337  0.00  0.00    -0.020 C 
ATOM     14  C   UNL     1     150.527 155.135 162.522  0.00  0.00    +0.238 C 
ATOM     15 CL   UNL     1     152.047 154.407 161.949  0.00  0.00    -0.066 Cl
ATOM     16 CL   UNL     1     149.149 154.457 161.611  0.00  0.00    -0.066 Cl
ATOM     17  O   UNL     1     150.310 154.941 163.918  0.00  0.00    -0.341 OA
ATOM     18  C   UNL     1     150.516 153.641 164.454  0.00  0.00    +0.067 C 
ATOM     19  C   UNL     1     150.129 153.669 165.939  0.00  0.00    +0.034 C 
ATOM     20  N   UNL     1     151.145 154.303 166.804  0.00  0.00    -0.327 N 
ATOM     21  H   UNL     1     152.889 156.706 165.637  0.00  0.00    +0.000 HD
ATOM     22  H   UNL     1     153.093 155.018 165.501  0.00  0.00    +0.000 HD
ATOM     23  H   UNL     1     151.548 153.801 167.550  0.00  0.00    +0.000 HD
ENDROOT
TORSDOF 0
ENDMDL
MODEL 9
REMARK VINA RESULT:    -3.430      4.916      6.865
REMARK INTER + INTRA:          -3.430
REMARK INTER:                  -3.430
REMARK INTRA:                   0.000
REMARK UNBOUND:                 0.000
REMARK  Name = /home/vital/Documents/PhD_2021/Malaria_codes/scripts/../data/pdbqt_ligands/ligand_278_temp.pdb
REMARK                            x       y       z     vdW  Elec       q    Type
REMARK                         _______ _______ _______ _____ _____    ______ ____
ROOT
ATOM      1  N   UNL     1     152.732 161.817 165.122  0.00  0.00    -0.286 N 
ATOM      2  C   UNL     1     151.634 162.464 164.893  0.00  0.00    +0.111 C 
ATOM      3  C   UNL     1     150.821 162.230 163.659  0.00  0.00    -0.023 C 
ATOM      4  C   UNL     1     150.802 161.154 162.854  0.00  0.00    -0.059 C 
ATOM      5  C   UNL     1     151.559 159.932 162.983  0.00  0.00    -0.064 C 
ATOM      6  C   UNL     1     151.479 158.914 162.110  0.00  0.00    -0.063 C 
ATOM      7  C   UNL     1     152.278 157.653 162.248  0.00  0.00    +0.060 C 
ATOM      8  N   UNL     1     151.436 156.458 162.190  0.00  0.00    -0.268 NA
ATOM      9  C   UNL     1     150.714 156.148 163.208  0.00  0.00    +0.111 C 
ATOM     10  N   UNL     1     150.637 156.894 164.346  0.00  0.00    -0.244 NA
ATOM     11  C   UNL     1     151.485 156.602 165.272  0.00  0.00    +0.029 C 
ATOM     12  C   UNL     1     151.622 157.401 166.515  0.00  0.00    -0.042 C 
ATOM     13  C   UNL     1     150.832 158.472 166.697  0.00  0.00    -0.020 C 
ATOM     14  C   UNL     1     150.874 159.527 167.766  0.00  0.00    +0.238 C 
ATOM     15 CL   UNL     1     152.440 159.560 168.612  0.00  0.00    -0.066 Cl
ATOM     16 CL   UNL     1     149.565 159.179 168.930  0.00  0.00    -0.066 Cl
ATOM     17  O   UNL     1     150.585 160.746 167.084  0.00  0.00    -0.341 OA
ATOM     18  C   UNL     1     150.793 161.969 167.779  0.00  0.00    +0.067 C 
ATOM     19  C   UNL     1     150.325 163.118 166.875  0.00  0.00    +0.034 C 
ATOM     20  N   UNL     1     151.276 163.446 165.794  0.00  0.00    -0.327 N 
ATOM     21  H   UNL     1     153.023 161.108 164.505  0.00  0.00    +0.000 HD
ATOM     22  H   UNL     1     153.275 162.034 165.915  0.00  0.00    +0.000 HD
ATOM     23  H   UNL     1     151.650 164.354 165.717  0.00  0.00    +0.000 HD
ENDROOT
TORSDOF 0
ENDMDL
