MODEL 1
REMARK VINA RESULT:    -2.434      0.000      0.000
REMARK INTER + INTRA:          -2.434
REMARK INTER:                  -2.434
REMARK INTRA:                   0.000
REMARK UNBOUND:                 0.000
REMARK  Name = /home/vital/Documents/PhD_2021/Malaria_codes/scripts/../data/pdbqt_ligands/ligand_375_temp.pdb
REMARK                            x       y       z     vdW  Elec       q    Type
REMARK                         _______ _______ _______ _____ _____    ______ ____
ROOT
ATOM      1  C   UNL     1     143.734 142.667 163.677  0.00  0.00    -0.064 C 
ATOM      2  C   UNL     1     145.163 142.654 164.197  0.00  0.00    -0.040 C 
ATOM      3  C   UNL     1     146.024 143.749 163.569  0.00  0.00    +0.008 C 
ATOM      4  N   UNL     1     145.603 145.076 164.016  0.00  0.00    -0.350 N 
ATOM      5  C   UNL     1     146.112 146.230 163.455  0.00  0.00    -0.011 C 
ATOM      6  C   UNL     1     146.075 147.486 163.919  0.00  0.00    -0.048 C 
ATOM      7  C   UNL     1     145.373 147.932 165.107  0.00  0.00    -0.052 C 
ATOM      8  C   UNL     1     145.473 149.145 165.673  0.00  0.00    -0.009 C 
ATOM      9  C   UNL     1     146.344 150.172 165.213  0.00  0.00    -0.040 C 
ATOM     10  C   UNL     1     147.101 151.011 164.806  0.00  0.00    +0.110 C 
ATOM     11  O   UNL     1     147.967 151.905 164.328  0.00  0.00    -0.093 OA
ATOM     12  O   UNL     1     147.936 153.017 165.271  0.00  0.00    -0.320 OA
ATOM     13  C   UNL     1     149.143 153.022 165.936  0.00  0.00    +0.193 A 
ATOM     14  C   UNL     1     149.071 153.097 167.332  0.00  0.00    -0.014 A 
ATOM     15  C   UNL     1     150.243 153.115 168.089  0.00  0.00    -0.058 A 
ATOM     16  C   UNL     1     151.482 153.054 167.457  0.00  0.00    -0.060 A 
ATOM     17  C   UNL     1     151.547 153.006 166.058  0.00  0.00    -0.033 A 
ATOM     18  C   UNL     1     150.383 153.025 165.279  0.00  0.00    +0.111 A 
ATOM     19  N   UNL     1     150.479 153.021 163.879  0.00  0.00    -0.231 N 
ATOM     20  C   UNL     1     150.858 154.083 163.232  0.00  0.00    +0.117 C 
ATOM     21  C   UNL     1     151.022 153.903 161.697  0.00  0.00    +0.065 C 
ATOM     22  N   UNL     1     150.513 155.104 161.030  0.00  0.00    -0.343 N 
ATOM     23  C   UNL     1     151.165 155.852 160.083  0.00  0.00    -0.010 C 
ATOM     24  C   UNL     1     150.612 156.817 159.343  0.00  0.00    -0.040 C 
ATOM     25  C   UNL     1     151.354 157.615 158.395  0.00  0.00    -0.009 C 
ATOM     26  C   UNL     1     150.785 158.559 157.700  0.00  0.00    -0.050 C 
ATOM     27  C   UNL     1     150.255 159.439 157.075  0.00  0.00    +0.031 C 
ATOM     28  N   UNL     1     149.736 160.299 156.470  0.00  0.00    -0.250 NA
ATOM     29  N   UNL     1     151.199 155.354 163.678  0.00  0.00    -0.308 N 
ATOM     30  C   UNL     1     150.667 156.093 164.710  0.00  0.00    -0.005 C 
ATOM     31  C   UNL     1     151.106 157.256 165.214  0.00  0.00    -0.044 C 
ATOM     32  C   UNL     1     152.358 157.893 164.849  0.00  0.00    -0.007 C 
ATOM     33  C   UNL     1     152.834 159.035 165.375  0.00  0.00    +0.188 C 
ATOM     34 CL   UNL     1     154.342 159.668 164.791  0.00  0.00    -0.044 Cl
ATOM     35  O   UNL     1     152.124 159.795 166.279  0.00  0.00    -0.480 OA
ATOM     36  C   UNL     1     152.484 159.472 167.622  0.00  0.00    +0.103 C 
ATOM     37  C   UNL     1     151.869 160.530 168.547  0.00  0.00    +0.030 C 
ATOM     38  N   UNL     1     151.984 160.167 169.964  0.00  0.00    -0.316 N 
ATOM     39  C   UNL     1     151.353 161.177 170.807  0.00  0.00    -0.016 C 
ATOM     40  H   UNL     1     144.938 145.149 164.738  0.00  0.00    +0.000 HD
ATOM     41  H   UNL     1     150.255 152.202 163.380  0.00  0.00    +0.000 HD
ATOM     42  H   UNL     1     149.611 155.404 161.287  0.00  0.00    +0.000 HD
ATOM     43  H   UNL     1     148.799 160.201 156.180  0.00  0.00    +0.000 HD
ATOM     44  H   UNL     1     151.930 155.791 163.182  0.00  0.00    +0.000 HD
ATOM     45  H   UNL     1     152.971 160.093 170.211  0.00  0.00    +0.000 HD
ATOM     46  H   UNL     1     151.514 159.274 170.113  0.00  0.00    +0.000 HD
ENDROOT
TORSDOF 0
ENDMDL
MODEL 2
REMARK VINA RESULT:    -0.565      1.025      1.072
REMARK INTER + INTRA:          -0.565
REMARK INTER:                  -0.565
REMARK INTRA:                   0.000
REMARK UNBOUND:                 0.000
REMARK  Name = /home/vital/Documents/PhD_2021/Malaria_codes/scripts/../data/pdbqt_ligands/ligand_375_temp.pdb
REMARK                            x       y       z     vdW  Elec       q    Type
REMARK                         _______ _______ _______ _____ _____    ______ ____
ROOT
ATOM      1  C   UNL     1     144.321 143.447 163.194  0.00  0.00    -0.064 C 
ATOM      2  C   UNL     1     145.693 143.434 163.852  0.00  0.00    -0.040 C 
ATOM      3  C   UNL     1     146.601 144.548 163.334  0.00  0.00    +0.008 C 
ATOM      4  N   UNL     1     146.126 145.862 163.764  0.00  0.00    -0.350 N 
ATOM      5  C   UNL     1     146.676 147.031 163.279  0.00  0.00    -0.011 C 
ATOM      6  C   UNL     1     146.582 148.277 163.762  0.00  0.00    -0.048 C 
ATOM      7  C   UNL     1     145.763 148.693 164.884  0.00  0.00    -0.052 C 
ATOM      8  C   UNL     1     145.794 149.895 165.481  0.00  0.00    -0.009 C 
ATOM      9  C   UNL     1     146.697 150.937 165.131  0.00  0.00    -0.040 C 
ATOM     10  C   UNL     1     147.482 151.790 164.817  0.00  0.00    +0.110 C 
ATOM     11  O   UNL     1     148.383 152.700 164.445  0.00  0.00    -0.093 OA
ATOM     12  O   UNL     1     148.248 153.792 165.403  0.00  0.00    -0.320 OA
ATOM     13  C   UNL     1     149.384 153.792 166.184  0.00  0.00    +0.193 A 
ATOM     14  C   UNL     1     149.174 153.837 167.566  0.00  0.00    -0.014 A 
ATOM     15  C   UNL     1     150.266 153.848 168.436  0.00  0.00    -0.058 A 
ATOM     16  C   UNL     1     151.562 153.809 167.928  0.00  0.00    -0.060 A 
ATOM     17  C   UNL     1     151.764 153.791 166.542  0.00  0.00    -0.033 A 
ATOM     18  C   UNL     1     150.682 153.818 165.652  0.00  0.00    +0.111 A 
ATOM     19  N   UNL     1     150.916 153.844 164.269  0.00  0.00    -0.231 N 
ATOM     20  C   UNL     1     151.347 154.922 163.683  0.00  0.00    +0.117 C 
ATOM     21  C   UNL     1     151.663 154.776 162.169  0.00  0.00    +0.065 C 
ATOM     22  N   UNL     1     151.210 155.986 161.479  0.00  0.00    -0.343 N 
ATOM     23  C   UNL     1     151.946 156.759 160.617  0.00  0.00    -0.010 C 
ATOM     24  C   UNL     1     151.459 157.736 159.845  0.00  0.00    -0.040 C 
ATOM     25  C   UNL     1     152.283 158.558 158.991  0.00  0.00    -0.009 C 
ATOM     26  C   UNL     1     151.776 159.513 158.263  0.00  0.00    -0.050 C 
ATOM     27  C   UNL     1     151.302 160.402 157.606  0.00  0.00    +0.031 C 
ATOM     28  N   UNL     1     150.837 161.270 156.970  0.00  0.00    -0.250 NA
ATOM     29  N   UNL     1     151.630 156.186 164.186  0.00  0.00    -0.308 N 
ATOM     30  C   UNL     1     150.992 156.899 165.175  0.00  0.00    -0.005 C 
ATOM     31  C   UNL     1     151.368 158.055 165.743  0.00  0.00    -0.044 C 
ATOM     32  C   UNL     1     152.645 158.709 165.517  0.00  0.00    -0.007 C 
ATOM     33  C   UNL     1     153.055 159.843 166.110  0.00  0.00    +0.188 C 
ATOM     34 CL   UNL     1     154.608 160.500 165.691  0.00  0.00    -0.044 Cl
ATOM     35  O   UNL     1     152.252 160.579 166.955  0.00  0.00    -0.480 OA
ATOM     36  C   UNL     1     152.482 160.230 168.320  0.00  0.00    +0.103 C 
ATOM     37  C   UNL     1     151.769 161.264 169.201  0.00  0.00    +0.030 C 
ATOM     38  N   UNL     1     151.747 160.872 170.614  0.00  0.00    -0.316 N 
ATOM     39  C   UNL     1     151.026 161.860 171.411  0.00  0.00    -0.016 C 
ATOM     40  H   UNL     1     145.392 145.915 164.418  0.00  0.00    +0.000 HD
ATOM     41  H   UNL     1     150.750 153.034 163.734  0.00  0.00    +0.000 HD
ATOM     42  H   UNL     1     150.284 156.275 161.652  0.00  0.00    +0.000 HD
ATOM     43  H   UNL     1     149.935 161.171 156.587  0.00  0.00    +0.000 HD
ATOM     44  H   UNL     1     152.402 156.639 163.774  0.00  0.00    +0.000 HD
ATOM     45  H   UNL     1     152.706 160.801 170.956  0.00  0.00    +0.000 HD
ATOM     46  H   UNL     1     151.274 159.973 170.699  0.00  0.00    +0.000 HD
ENDROOT
TORSDOF 0
ENDMDL
MODEL 3
REMARK VINA RESULT:     0.515      0.528      0.554
REMARK INTER + INTRA:           0.515
REMARK INTER:                   0.515
REMARK INTRA:                   0.000
REMARK UNBOUND:                 0.000
REMARK  Name = /home/vital/Documents/PhD_2021/Malaria_codes/scripts/../data/pdbqt_ligands/ligand_375_temp.pdb
REMARK                            x       y       z     vdW  Elec       q    Type
REMARK                         _______ _______ _______ _____ _____    ______ ____
ROOT
ATOM      1  C   UNL     1     142.568 143.156 163.633  0.00  0.00    -0.064 C 
ATOM      2  C   UNL     1     144.005 143.015 164.111  0.00  0.00    -0.040 C 
ATOM      3  C   UNL     1     144.937 144.044 163.474  0.00  0.00    +0.008 C 
ATOM      4  N   UNL     1     144.642 145.394 163.951  0.00  0.00    -0.350 N 
ATOM      5  C   UNL     1     145.230 146.511 163.390  0.00  0.00    -0.011 C 
ATOM      6  C   UNL     1     145.311 147.758 163.872  0.00  0.00    -0.048 C 
ATOM      7  C   UNL     1     144.683 148.242 165.086  0.00  0.00    -0.052 C 
ATOM      8  C   UNL     1     144.899 149.433 165.665  0.00  0.00    -0.009 C 
ATOM      9  C   UNL     1     145.840 150.391 165.194  0.00  0.00    -0.040 C 
ATOM     10  C   UNL     1     146.654 151.170 164.776  0.00  0.00    +0.110 C 
ATOM     11  O   UNL     1     147.578 151.996 164.285  0.00  0.00    -0.093 OA
ATOM     12  O   UNL     1     147.666 153.092 165.244  0.00  0.00    -0.320 OA
ATOM     13  C   UNL     1     148.888 152.985 165.874  0.00  0.00    +0.193 A 
ATOM     14  C   UNL     1     148.861 153.044 167.272  0.00  0.00    -0.014 A 
ATOM     15  C   UNL     1     150.051 152.952 167.995  0.00  0.00    -0.058 A 
ATOM     16  C   UNL     1     151.263 152.798 167.326  0.00  0.00    -0.060 A 
ATOM     17  C   UNL     1     151.284 152.767 165.926  0.00  0.00    -0.033 A 
ATOM     18  C   UNL     1     150.104 152.895 165.181  0.00  0.00    +0.111 A 
ATOM     19  N   UNL     1     150.161 152.905 163.779  0.00  0.00    -0.231 N 
ATOM     20  C   UNL     1     150.610 153.942 163.135  0.00  0.00    +0.117 C 
ATOM     21  C   UNL     1     150.715 153.774 161.595  0.00  0.00    +0.065 C 
ATOM     22  N   UNL     1     150.290 155.023 160.959  0.00  0.00    -0.343 N 
ATOM     23  C   UNL     1     150.977 155.729 160.004  0.00  0.00    -0.010 C 
ATOM     24  C   UNL     1     150.486 156.749 159.293  0.00  0.00    -0.040 C 
ATOM     25  C   UNL     1     151.266 157.497 158.335  0.00  0.00    -0.009 C 
ATOM     26  C   UNL     1     150.759 158.496 157.669  0.00  0.00    -0.050 C 
ATOM     27  C   UNL     1     150.287 159.427 157.072  0.00  0.00    +0.031 C 
ATOM     28  N   UNL     1     149.825 160.337 156.494  0.00  0.00    -0.250 NA
ATOM     29  N   UNL     1     151.069 155.173 163.589  0.00  0.00    -0.308 N 
ATOM     30  C   UNL     1     150.629 155.938 164.646  0.00  0.00    -0.005 C 
ATOM     31  C   UNL     1     151.178 157.052 165.152  0.00  0.00    -0.044 C 
ATOM     32  C   UNL     1     152.469 157.588 164.759  0.00  0.00    -0.007 C 
ATOM     33  C   UNL     1     153.053 158.678 165.287  0.00  0.00    +0.188 C 
ATOM     34 CL   UNL     1     154.592 159.192 164.668  0.00  0.00    -0.044 Cl
ATOM     35  O   UNL     1     152.434 159.480 166.221  0.00  0.00    -0.480 OA
ATOM     36  C   UNL     1     152.804 159.107 167.549  0.00  0.00    +0.103 C 
ATOM     37  C   UNL     1     152.305 160.197 168.506  0.00  0.00    +0.030 C 
ATOM     38  N   UNL     1     152.429 159.804 169.913  0.00  0.00    -0.316 N 
ATOM     39  C   UNL     1     151.908 160.850 170.788  0.00  0.00    -0.016 C 
ATOM     40  H   UNL     1     144.005 145.511 164.692  0.00  0.00    +0.000 HD
ATOM     41  H   UNL     1     149.856 152.116 163.276  0.00  0.00    +0.000 HD
ATOM     42  H   UNL     1     149.424 155.394 161.245  0.00  0.00    +0.000 HD
ATOM     43  H   UNL     1     148.877 160.322 156.230  0.00  0.00    +0.000 HD
ATOM     44  H   UNL     1     151.819 155.555 163.078  0.00  0.00    +0.000 HD
ATOM     45  H   UNL     1     153.413 159.644 170.131  0.00  0.00    +0.000 HD
ATOM     46  H   UNL     1     151.890 158.951 170.064  0.00  0.00    +0.000 HD
ENDROOT
TORSDOF 0
ENDMDL
