MODEL 1
REMARK VINA RESULT:    -4.722      0.000      0.000
REMARK INTER + INTRA:          -4.722
REMARK INTER:                  -4.722
REMARK INTRA:                   0.000
REMARK UNBOUND:                 0.000
REMARK  Name = /home/vital/Documents/PhD_2021/Malaria_codes/scripts/../data/pdbqt_ligands/ligand_384_temp.pdb
REMARK                            x       y       z     vdW  Elec       q    Type
REMARK                         _______ _______ _______ _____ _____    ______ ____
ROOT
ATOM      1 CL   UNL     1     153.406 155.316 151.812  0.00  0.00    -0.082 Cl
ATOM      2  C   UNL     1     152.683 155.871 153.278  0.00  0.00    +0.059 A 
ATOM      3  C   UNL     1     152.160 154.918 154.149  0.00  0.00    -0.040 A 
ATOM      4  C   UNL     1     151.566 155.319 155.351  0.00  0.00    -0.039 A 
ATOM      5  C   UNL     1     151.504 156.671 155.726  0.00  0.00    +0.030 A 
ATOM      6  N   UNL     1     150.833 156.995 156.905  0.00  0.00    -0.327 N 
ATOM      7  C   UNL     1     151.026 158.281 157.572  0.00  0.00    +0.095 C 
ATOM      8  C   UNL     1     149.813 158.416 158.610  0.00  0.00    -0.018 C 
ATOM      9  C   UNL     1     150.247 159.486 159.557  0.00  0.00    -0.037 C 
ATOM     10  C   UNL     1     149.693 160.268 160.694  0.00  0.00    -0.004 C 
ATOM     11  N   UNL     1     150.876 160.946 161.314  0.00  0.00    -0.314 N 
ATOM     12  C   UNL     1     151.983 161.396 160.398  0.00  0.00    +0.021 C 
ATOM     13  C   UNL     1     152.956 160.334 159.719  0.00  0.00    +0.082 C 
ATOM     14  O   UNL     1     152.584 159.981 158.350  0.00  0.00    -0.297 OA
ATOM     15  N   UNL     1     152.378 158.516 158.185  0.00  0.00    -0.181 NA
ATOM     16  C   UNL     1     151.998 157.616 154.818  0.00  0.00    -0.021 A 
ATOM     17  C   UNL     1     152.596 157.224 153.612  0.00  0.00    +0.061 A 
ATOM     18 CL   UNL     1     153.200 158.470 152.575  0.00  0.00    -0.082 Cl
ATOM     19  H   UNL     1     150.212 156.340 157.299  0.00  0.00    +0.000 HD
ATOM     20  H   UNL     1     151.282 160.295 161.986  0.00  0.00    +0.000 HD
ATOM     21  H   UNL     1     150.501 161.808 161.709  0.00  0.00    +0.000 HD
ATOM     22  H   UNL     1     153.102 158.136 157.576  0.00  0.00    +0.000 HD
ENDROOT
TORSDOF 0
ENDMDL
MODEL 2
REMARK VINA RESULT:    -4.236      5.603      7.214
REMARK INTER + INTRA:          -4.236
REMARK INTER:                  -4.236
REMARK INTRA:                   0.000
REMARK UNBOUND:                 0.000
REMARK  Name = /home/vital/Documents/PhD_2021/Malaria_codes/scripts/../data/pdbqt_ligands/ligand_384_temp.pdb
REMARK                            x       y       z     vdW  Elec       q    Type
REMARK                         _______ _______ _______ _____ _____    ______ ____
ROOT
ATOM      1 CL   UNL     1     149.963 157.932 157.075  0.00  0.00    -0.082 Cl
ATOM      2  C   UNL     1     150.282 158.043 158.769  0.00  0.00    +0.059 A 
ATOM      3  C   UNL     1     149.791 159.153 159.453  0.00  0.00    -0.040 A 
ATOM      4  C   UNL     1     150.022 159.286 160.826  0.00  0.00    -0.039 A 
ATOM      5  C   UNL     1     150.719 158.308 161.554  0.00  0.00    +0.030 A 
ATOM      6  N   UNL     1     150.969 158.548 162.905  0.00  0.00    -0.327 N 
ATOM      7  C   UNL     1     151.337 157.473 163.823  0.00  0.00    +0.095 C 
ATOM      8  C   UNL     1     151.922 158.198 165.127  0.00  0.00    -0.018 C 
ATOM      9  C   UNL     1     151.887 157.148 166.187  0.00  0.00    -0.037 C 
ATOM     10  C   UNL     1     152.334 156.960 167.593  0.00  0.00    -0.004 C 
ATOM     11  N   UNL     1     151.644 155.714 168.059  0.00  0.00    -0.314 N 
ATOM     12  C   UNL     1     151.433 154.614 167.053  0.00  0.00    +0.021 C 
ATOM     13  C   UNL     1     150.352 154.772 165.894  0.00  0.00    +0.082 C 
ATOM     14  O   UNL     1     150.913 155.211 164.617  0.00  0.00    -0.297 OA
ATOM     15  N   UNL     1     150.268 156.458 164.122  0.00  0.00    -0.181 NA
ATOM     16  C   UNL     1     151.239 157.221 160.840  0.00  0.00    -0.021 A 
ATOM     17  C   UNL     1     151.013 157.078 159.464  0.00  0.00    +0.061 A 
ATOM     18 CL   UNL     1     151.674 155.683 158.684  0.00  0.00    -0.082 Cl
ATOM     19  H   UNL     1     150.896 159.468 163.250  0.00  0.00    +0.000 HD
ATOM     20  H   UNL     1     150.726 155.988 168.409  0.00  0.00    +0.000 HD
ATOM     21  H   UNL     1     152.276 155.313 168.751  0.00  0.00    +0.000 HD
ATOM     22  H   UNL     1     149.740 156.257 163.272  0.00  0.00    +0.000 HD
ENDROOT
TORSDOF 0
ENDMDL
MODEL 3
REMARK VINA RESULT:    -3.984      8.174     10.258
REMARK INTER + INTRA:          -3.984
REMARK INTER:                  -3.984
REMARK INTRA:                   0.000
REMARK UNBOUND:                 0.000
REMARK  Name = /home/vital/Documents/PhD_2021/Malaria_codes/scripts/../data/pdbqt_ligands/ligand_384_temp.pdb
REMARK                            x       y       z     vdW  Elec       q    Type
REMARK                         _______ _______ _______ _____ _____    ______ ____
ROOT
ATOM      1 CL   UNL     1     152.442 151.948 168.287  0.00  0.00    -0.082 Cl
ATOM      2  C   UNL     1     152.370 153.591 167.760  0.00  0.00    +0.059 A 
ATOM      3  C   UNL     1     153.437 154.427 168.084  0.00  0.00    -0.040 A 
ATOM      4  C   UNL     1     153.425 155.765 167.678  0.00  0.00    -0.039 A 
ATOM      5  C   UNL     1     152.369 156.294 166.919  0.00  0.00    +0.030 A 
ATOM      6  N   UNL     1     152.397 157.656 166.613  0.00  0.00    -0.327 N 
ATOM      7  C   UNL     1     151.579 158.222 165.544  0.00  0.00    +0.095 C 
ATOM      8  C   UNL     1     151.587 159.806 165.785  0.00  0.00    -0.018 C 
ATOM      9  C   UNL     1     151.130 160.385 164.488  0.00  0.00    -0.037 C 
ATOM     10  C   UNL     1     150.766 161.711 163.919  0.00  0.00    -0.004 C 
ATOM     11  N   UNL     1     150.704 161.495 162.437  0.00  0.00    -0.314 N 
ATOM     12  C   UNL     1     150.204 160.163 161.945  0.00  0.00    +0.021 C 
ATOM     13  C   UNL     1     151.101 158.856 162.091  0.00  0.00    +0.082 C 
ATOM     14  O   UNL     1     150.770 158.037 163.256  0.00  0.00    -0.297 OA
ATOM     15  N   UNL     1     151.946 157.821 164.142  0.00  0.00    -0.181 NA
ATOM     16  C   UNL     1     151.288 155.450 166.639  0.00  0.00    -0.021 A 
ATOM     17  C   UNL     1     151.290 154.106 167.041  0.00  0.00    +0.061 A 
ATOM     18 CL   UNL     1     149.918 153.141 166.620  0.00  0.00    -0.082 Cl
ATOM     19  H   UNL     1     152.985 158.251 167.133  0.00  0.00    +0.000 HD
ATOM     20  H   UNL     1     151.648 161.621 162.072  0.00  0.00    +0.000 HD
ATOM     21  H   UNL     1     150.013 162.168 162.108  0.00  0.00    +0.000 HD
ATOM     22  H   UNL     1     152.210 156.836 164.126  0.00  0.00    +0.000 HD
ENDROOT
TORSDOF 0
ENDMDL
MODEL 4
REMARK VINA RESULT:    -3.889      4.360      4.832
REMARK INTER + INTRA:          -3.889
REMARK INTER:                  -3.889
REMARK INTRA:                   0.000
REMARK UNBOUND:                 0.000
REMARK  Name = /home/vital/Documents/PhD_2021/Malaria_codes/scripts/../data/pdbqt_ligands/ligand_384_temp.pdb
REMARK                            x       y       z     vdW  Elec       q    Type
REMARK                         _______ _______ _______ _____ _____    ______ ____
ROOT
ATOM      1 CL   UNL     1     151.634 158.238 154.628  0.00  0.00    -0.082 Cl
ATOM      2  C   UNL     1     151.485 157.389 156.124  0.00  0.00    +0.059 A 
ATOM      3  C   UNL     1     152.070 156.127 156.218  0.00  0.00    -0.040 A 
ATOM      4  C   UNL     1     151.978 155.402 157.411  0.00  0.00    -0.039 A 
ATOM      5  C   UNL     1     151.330 155.923 158.542  0.00  0.00    +0.030 A 
ATOM      6  N   UNL     1     151.220 155.109 159.670  0.00  0.00    -0.327 N 
ATOM      7  C   UNL     1     150.915 155.658 160.989  0.00  0.00    +0.095 C 
ATOM      8  C   UNL     1     150.480 154.406 161.889  0.00  0.00    -0.018 C 
ATOM      9  C   UNL     1     150.591 154.898 163.294  0.00  0.00    -0.037 C 
ATOM     10  C   UNL     1     150.279 154.433 164.672  0.00  0.00    -0.004 C 
ATOM     11  N   UNL     1     150.978 155.400 165.577  0.00  0.00    -0.314 N 
ATOM     12  C   UNL     1     151.060 156.836 165.136  0.00  0.00    +0.021 C 
ATOM     13  C   UNL     1     152.026 157.264 163.945  0.00  0.00    +0.082 C 
ATOM     14  O   UNL     1     151.355 157.381 162.651  0.00  0.00    -0.297 OA
ATOM     15  N   UNL     1     151.981 156.514 161.615  0.00  0.00    -0.181 NA
ATOM     16  C   UNL     1     150.714 157.174 158.414  0.00  0.00    -0.021 A 
ATOM     17  C   UNL     1     150.800 157.910 157.223  0.00  0.00    +0.061 A 
ATOM     18 CL   UNL     1     150.029 159.458 157.179  0.00  0.00    -0.082 Cl
ATOM     19  H   UNL     1     151.350 154.138 159.574  0.00  0.00    +0.000 HD
ATOM     20  H   UNL     1     151.933 155.063 165.703  0.00  0.00    +0.000 HD
ATOM     21  H   UNL     1     150.407 155.421 166.422  0.00  0.00    +0.000 HD
ATOM     22  H   UNL     1     152.417 157.096 160.900  0.00  0.00    +0.000 HD
ENDROOT
TORSDOF 0
ENDMDL
MODEL 5
REMARK VINA RESULT:    -3.838      9.624     11.722
REMARK INTER + INTRA:          -3.838
REMARK INTER:                  -3.838
REMARK INTRA:                   0.000
REMARK UNBOUND:                 0.000
REMARK  Name = /home/vital/Documents/PhD_2021/Malaria_codes/scripts/../data/pdbqt_ligands/ligand_384_temp.pdb
REMARK                            x       y       z     vdW  Elec       q    Type
REMARK                         _______ _______ _______ _____ _____    ______ ____
ROOT
ATOM      1 CL   UNL     1     151.621 162.710 165.427  0.00  0.00    -0.082 Cl
ATOM      2  C   UNL     1     151.939 161.146 166.086  0.00  0.00    +0.059 A 
ATOM      3  C   UNL     1     152.093 161.039 167.467  0.00  0.00    -0.040 A 
ATOM      4  C   UNL     1     152.349 159.793 168.047  0.00  0.00    -0.039 A 
ATOM      5  C   UNL     1     152.431 158.624 167.274  0.00  0.00    +0.030 A 
ATOM      6  N   UNL     1     152.760 157.431 167.920  0.00  0.00    -0.327 N 
ATOM      7  C   UNL     1     152.508 156.129 167.307  0.00  0.00    +0.095 C 
ATOM      8  C   UNL     1     153.375 155.079 168.151  0.00  0.00    -0.018 C 
ATOM      9  C   UNL     1     152.792 153.748 167.806  0.00  0.00    -0.037 C 
ATOM     10  C   UNL     1     153.066 152.307 168.052  0.00  0.00    -0.004 C 
ATOM     11  N   UNL     1     151.826 151.594 167.608  0.00  0.00    -0.314 N 
ATOM     12  C   UNL     1     151.082 152.154 166.426  0.00  0.00    +0.021 C 
ATOM     13  C   UNL     1     150.248 153.505 166.560  0.00  0.00    +0.082 C 
ATOM     14  O   UNL     1     150.965 154.691 166.093  0.00  0.00    -0.297 OA
ATOM     15  N   UNL     1     151.066 155.736 167.149  0.00  0.00    -0.181 NA
ATOM     16  C   UNL     1     152.315 158.758 165.886  0.00  0.00    -0.021 A 
ATOM     17  C   UNL     1     152.057 160.003 165.293  0.00  0.00    +0.061 A 
ATOM     18 CL   UNL     1     151.903 160.055 163.571  0.00  0.00    -0.082 Cl
ATOM     19  H   UNL     1     153.173 157.468 168.813  0.00  0.00    +0.000 HD
ATOM     20  H   UNL     1     151.182 151.584 168.399  0.00  0.00    +0.000 HD
ATOM     21  H   UNL     1     152.152 150.679 167.298  0.00  0.00    +0.000 HD
ATOM     22  H   UNL     1     150.516 156.551 166.877  0.00  0.00    +0.000 HD
ENDROOT
TORSDOF 0
ENDMDL
MODEL 6
REMARK VINA RESULT:    -3.802      5.392      6.547
REMARK INTER + INTRA:          -3.802
REMARK INTER:                  -3.802
REMARK INTRA:                   0.000
REMARK UNBOUND:                 0.000
REMARK  Name = /home/vital/Documents/PhD_2021/Malaria_codes/scripts/../data/pdbqt_ligands/ligand_384_temp.pdb
REMARK                            x       y       z     vdW  Elec       q    Type
REMARK                         _______ _______ _______ _____ _____    ______ ____
ROOT
ATOM      1 CL   UNL     1     151.242 158.419 155.553  0.00  0.00    -0.082 Cl
ATOM      2  C   UNL     1     151.028 157.864 157.174  0.00  0.00    +0.059 A 
ATOM      3  C   UNL     1     150.923 158.821 158.182  0.00  0.00    -0.040 A 
ATOM      4  C   UNL     1     150.746 158.421 159.510  0.00  0.00    -0.039 A 
ATOM      5  C   UNL     1     150.643 157.066 159.863  0.00  0.00    +0.030 A 
ATOM      6  N   UNL     1     150.540 156.746 161.218  0.00  0.00    -0.327 N 
ATOM      7  C   UNL     1     150.059 155.441 161.666  0.00  0.00    +0.095 C 
ATOM      8  C   UNL     1     150.473 155.335 163.210  0.00  0.00    -0.018 C 
ATOM      9  C   UNL     1     149.625 154.231 163.750  0.00  0.00    -0.037 C 
ATOM     10  C   UNL     1     149.469 153.449 165.006  0.00  0.00    -0.004 C 
ATOM     11  N   UNL     1     148.174 152.713 164.849  0.00  0.00    -0.314 N 
ATOM     12  C   UNL     1     147.804 152.237 163.470  0.00  0.00    +0.021 C 
ATOM     13  C   UNL     1     147.343 153.272 162.352  0.00  0.00    +0.082 C 
ATOM     14  O   UNL     1     148.410 153.666 161.433  0.00  0.00    -0.297 OA
ATOM     15  N   UNL     1     148.609 155.141 161.404  0.00  0.00    -0.181 NA
ATOM     16  C   UNL     1     150.793 156.120 158.843  0.00  0.00    -0.021 A 
ATOM     17  C   UNL     1     150.969 156.510 157.507  0.00  0.00    +0.061 A 
ATOM     18 CL   UNL     1     151.115 155.261 156.319  0.00  0.00    -0.082 Cl
ATOM     19  H   UNL     1     150.798 157.418 161.890  0.00  0.00    +0.000 HD
ATOM     20  H   UNL     1     147.431 153.334 165.168  0.00  0.00    +0.000 HD
ATOM     21  H   UNL     1     148.296 151.859 165.393  0.00  0.00    +0.000 HD
ATOM     22  H   UNL     1     148.344 155.504 160.489  0.00  0.00    +0.000 HD
ENDROOT
TORSDOF 0
ENDMDL
MODEL 7
REMARK VINA RESULT:    -3.711      6.108      6.855
REMARK INTER + INTRA:          -3.711
REMARK INTER:                  -3.711
REMARK INTRA:                   0.000
REMARK UNBOUND:                 0.000
REMARK  Name = /home/vital/Documents/PhD_2021/Malaria_codes/scripts/../data/pdbqt_ligands/ligand_384_temp.pdb
REMARK                            x       y       z     vdW  Elec       q    Type
REMARK                         _______ _______ _______ _____ _____    ______ ____
ROOT
ATOM      1 CL   UNL     1     150.916 157.679 156.909  0.00  0.00    -0.082 Cl
ATOM      2  C   UNL     1     150.852 156.865 158.431  0.00  0.00    +0.059 A 
ATOM      3  C   UNL     1     151.249 155.529 158.473  0.00  0.00    -0.040 A 
ATOM      4  C   UNL     1     151.217 154.828 159.683  0.00  0.00    -0.039 A 
ATOM      5  C   UNL     1     150.817 155.444 160.880  0.00  0.00    +0.030 A 
ATOM      6  N   UNL     1     150.744 154.658 162.030  0.00  0.00    -0.327 N 
ATOM      7  C   UNL     1     150.710 155.249 163.366  0.00  0.00    +0.095 C 
ATOM      8  C   UNL     1     150.223 154.078 164.345  0.00  0.00    -0.018 C 
ATOM      9  C   UNL     1     150.599 154.550 165.710  0.00  0.00    -0.037 C 
ATOM     10  C   UNL     1     150.415 154.140 167.128  0.00  0.00    -0.004 C 
ATOM     11  N   UNL     1     151.369 154.992 167.908  0.00  0.00    -0.314 N 
ATOM     12  C   UNL     1     151.603 156.399 167.426  0.00  0.00    +0.021 C 
ATOM     13  C   UNL     1     152.447 156.674 166.105  0.00  0.00    +0.082 C 
ATOM     14  O   UNL     1     151.628 156.888 164.913  0.00  0.00    -0.297 OA
ATOM     15  N   UNL     1     151.968 155.935 163.821  0.00  0.00    -0.181 NA
ATOM     16  C   UNL     1     150.383 156.773 160.809  0.00  0.00    -0.021 A 
ATOM     17  C   UNL     1     150.412 157.485 159.601  0.00  0.00    +0.061 A 
ATOM     18 CL   UNL     1     149.881 159.131 159.628  0.00  0.00    -0.082 Cl
ATOM     19  H   UNL     1     150.714 153.677 161.940  0.00  0.00    +0.000 HD
ATOM     20  H   UNL     1     152.271 154.516 167.909  0.00  0.00    +0.000 HD
ATOM     21  H   UNL     1     150.930 155.101 168.821  0.00  0.00    +0.000 HD
ATOM     22  H   UNL     1     152.383 156.443 163.040  0.00  0.00    +0.000 HD
ENDROOT
TORSDOF 0
ENDMDL
MODEL 8
REMARK VINA RESULT:    -3.470      6.671     10.219
REMARK INTER + INTRA:          -3.470
REMARK INTER:                  -3.470
REMARK INTRA:                   0.000
REMARK UNBOUND:                 0.000
REMARK  Name = /home/vital/Documents/PhD_2021/Malaria_codes/scripts/../data/pdbqt_ligands/ligand_384_temp.pdb
REMARK                            x       y       z     vdW  Elec       q    Type
REMARK                         _______ _______ _______ _____ _____    ______ ____
ROOT
ATOM      1 CL   UNL     1     150.097 163.519 168.610  0.00  0.00    -0.082 Cl
ATOM      2  C   UNL     1     150.256 162.937 166.992  0.00  0.00    +0.059 A 
ATOM      3  C   UNL     1     151.207 163.542 166.172  0.00  0.00    -0.040 A 
ATOM      4  C   UNL     1     151.374 163.103 164.855  0.00  0.00    -0.039 A 
ATOM      5  C   UNL     1     150.623 162.039 164.332  0.00  0.00    +0.030 A 
ATOM      6  N   UNL     1     150.798 161.708 162.988  0.00  0.00    -0.327 N 
ATOM      7  C   UNL     1     150.369 160.419 162.449  0.00  0.00    +0.095 C 
ATOM      8  C   UNL     1     150.368 160.594 160.857  0.00  0.00    -0.018 C 
ATOM      9  C   UNL     1     150.353 159.199 160.326  0.00  0.00    -0.037 C 
ATOM     10  C   UNL     1     150.234 158.498 159.019  0.00  0.00    -0.004 C 
ATOM     11  N   UNL     1     150.617 157.078 159.302  0.00  0.00    -0.314 N 
ATOM     12  C   UNL     1     150.237 156.505 160.641  0.00  0.00    +0.021 C 
ATOM     13  C   UNL     1     150.993 156.966 161.965  0.00  0.00    +0.082 C 
ATOM     14  O   UNL     1     150.289 158.001 162.719  0.00  0.00    -0.297 OA
ATOM     15  N   UNL     1     151.129 159.213 162.926  0.00  0.00    -0.181 NA
ATOM     16  C   UNL     1     149.645 161.472 165.158  0.00  0.00    -0.021 A 
ATOM     17  C   UNL     1     149.469 161.903 166.481  0.00  0.00    +0.061 A 
ATOM     18 CL   UNL     1     148.253 161.117 167.426  0.00  0.00    -0.082 Cl
ATOM     19  H   UNL     1     151.223 162.361 162.385  0.00  0.00    +0.000 HD
ATOM     20  H   UNL     1     151.632 157.015 159.220  0.00  0.00    +0.000 HD
ATOM     21  H   UNL     1     150.088 156.529 158.626  0.00  0.00    +0.000 HD
ATOM     22  H   UNL     1     151.345 159.313 163.918  0.00  0.00    +0.000 HD
ENDROOT
TORSDOF 0
ENDMDL
MODEL 9
REMARK VINA RESULT:    -3.186      5.584      7.402
REMARK INTER + INTRA:          -3.186
REMARK INTER:                  -3.186
REMARK INTRA:                   0.000
REMARK UNBOUND:                 0.000
REMARK  Name = /home/vital/Documents/PhD_2021/Malaria_codes/scripts/../data/pdbqt_ligands/ligand_384_temp.pdb
REMARK                            x       y       z     vdW  Elec       q    Type
REMARK                         _______ _______ _______ _____ _____    ______ ____
ROOT
ATOM      1 CL   UNL     1     150.371 155.461 158.789  0.00  0.00    -0.082 Cl
ATOM      2  C   UNL     1     150.752 156.661 159.971  0.00  0.00    +0.059 A 
ATOM      3  C   UNL     1     150.399 157.981 159.698  0.00  0.00    -0.040 A 
ATOM      4  C   UNL     1     150.684 158.988 160.626  0.00  0.00    -0.039 A 
ATOM      5  C   UNL     1     151.300 158.703 161.855  0.00  0.00    +0.030 A 
ATOM      6  N   UNL     1     151.616 159.771 162.695  0.00  0.00    -0.327 N 
ATOM      7  C   UNL     1     151.900 159.577 164.115  0.00  0.00    +0.095 C 
ATOM      8  C   UNL     1     152.596 160.933 164.607  0.00  0.00    -0.018 C 
ATOM      9  C   UNL     1     152.488 160.892 166.095  0.00  0.00    -0.037 C 
ATOM     10  C   UNL     1     152.957 161.667 167.275  0.00  0.00    -0.004 C 
ATOM     11  N   UNL     1     152.158 161.143 168.429  0.00  0.00    -0.314 N 
ATOM     12  C   UNL     1     151.805 159.679 168.426  0.00  0.00    +0.021 C 
ATOM     13  C   UNL     1     150.710 159.111 167.419  0.00  0.00    +0.082 C 
ATOM     14  O   UNL     1     151.273 158.510 166.211  0.00  0.00    -0.297 OA
ATOM     15  N   UNL     1     150.743 159.143 164.972  0.00  0.00    -0.181 NA
ATOM     16  C   UNL     1     151.684 157.378 162.093  0.00  0.00    -0.021 A 
ATOM     17  C   UNL     1     151.402 156.361 161.170  0.00  0.00    +0.061 A 
ATOM     18 CL   UNL     1     151.894 154.752 161.574  0.00  0.00    -0.082 Cl
ATOM     19  H   UNL     1     151.648 160.682 162.321  0.00  0.00    +0.000 HD
ATOM     20  H   UNL     1     151.284 161.668 168.458  0.00  0.00    +0.000 HD
ATOM     21  H   UNL     1     152.767 161.260 169.238  0.00  0.00    +0.000 HD
ATOM     22  H   UNL     1     150.172 158.470 164.461  0.00  0.00    +0.000 HD
ENDROOT
TORSDOF 0
ENDMDL
