MODEL 1
REMARK VINA RESULT:    -4.571      0.000      0.000
REMARK INTER + INTRA:          -4.571
REMARK INTER:                  -4.571
REMARK INTRA:                   0.000
REMARK UNBOUND:                 0.000
REMARK  Name = /home/vital/Documents/PhD_2021/Malaria_codes/scripts/../data/pdbqt_ligands/ligand_355_temp.pdb
REMARK                            x       y       z     vdW  Elec       q    Type
REMARK                         _______ _______ _______ _____ _____    ______ ____
ROOT
ATOM      1  C   UNL     1     153.284 155.381 153.584  0.00  0.00    -0.015 C 
ATOM      2  C   UNL     1     152.228 155.651 154.674  0.00  0.00    -0.088 C 
ATOM      3  C   UNL     1     151.216 155.906 155.707  0.00  0.00    +0.011 C 
ATOM      4  C   UNL     1     151.768 155.609 157.101  0.00  0.00    -0.030 C 
ATOM      5  C   UNL     1     150.706 155.858 158.174  0.00  0.00    -0.003 C 
ATOM      6  N   UNL     1     151.230 155.708 159.530  0.00  0.00    -0.314 N 
ATOM      7  C   UNL     1     151.491 154.304 159.893  0.00  0.00    +0.022 C 
ATOM      8  C   UNL     1     151.845 154.177 161.381  0.00  0.00    +0.088 C 
ATOM      9  O   UNL     1     150.700 154.544 162.162  0.00  0.00    -0.273 OA
ATOM     10  N   UNL     1     151.056 154.372 163.505  0.00  0.00    -0.266 N 
ATOM     11  C   UNL     1     150.133 153.745 164.372  0.00  0.00    +0.063 A 
ATOM     12  C   UNL     1     150.311 153.840 165.757  0.00  0.00    -0.035 A 
ATOM     13  C   UNL     1     149.452 153.171 166.635  0.00  0.00    -0.040 A 
ATOM     14  C   UNL     1     148.421 152.374 166.136  0.00  0.00    +0.059 A 
ATOM     15 CL   UNL     1     147.399 151.574 167.276  0.00  0.00    -0.082 Cl
ATOM     16  C   UNL     1     148.257 152.240 164.755  0.00  0.00    +0.061 A 
ATOM     17 CL   UNL     1     147.021 151.252 164.061  0.00  0.00    -0.082 Cl
ATOM     18  C   UNL     1     149.118 152.915 163.881  0.00  0.00    -0.017 A 
ATOM     19  H   UNL     1     150.550 156.093 160.187  0.00  0.00    +0.000 HD
ATOM     20  H   UNL     1     152.121 156.203 159.570  0.00  0.00    +0.000 HD
ATOM     21  H   UNL     1     151.929 154.682 163.838  0.00  0.00    +0.000 HD
ENDROOT
TORSDOF 0
ENDMDL
MODEL 2
REMARK VINA RESULT:    -4.465      6.752      7.477
REMARK INTER + INTRA:          -4.465
REMARK INTER:                  -4.465
REMARK INTRA:                   0.000
REMARK UNBOUND:                 0.000
REMARK  Name = /home/vital/Documents/PhD_2021/Malaria_codes/scripts/../data/pdbqt_ligands/ligand_355_temp.pdb
REMARK                            x       y       z     vdW  Elec       q    Type
REMARK                         _______ _______ _______ _____ _____    ______ ____
ROOT
ATOM      1  C   UNL     1     153.369 157.198 153.033  0.00  0.00    -0.015 C 
ATOM      2  C   UNL     1     152.529 157.210 154.325  0.00  0.00    -0.088 C 
ATOM      3  C   UNL     1     151.729 157.213 155.557  0.00  0.00    +0.011 C 
ATOM      4  C   UNL     1     151.890 158.532 156.313  0.00  0.00    -0.030 C 
ATOM      5  C   UNL     1     151.070 158.525 157.605  0.00  0.00    -0.003 C 
ATOM      6  N   UNL     1     151.097 159.813 158.295  0.00  0.00    -0.314 N 
ATOM      7  C   UNL     1     152.392 160.096 158.935  0.00  0.00    +0.022 C 
ATOM      8  C   UNL     1     152.311 161.354 159.810  0.00  0.00    +0.088 C 
ATOM      9  O   UNL     1     151.417 161.101 160.903  0.00  0.00    -0.273 OA
ATOM     10  N   UNL     1     151.408 162.257 161.693  0.00  0.00    -0.266 N 
ATOM     11  C   UNL     1     151.483 162.114 163.097  0.00  0.00    +0.063 A 
ATOM     12  C   UNL     1     151.159 163.199 163.920  0.00  0.00    -0.035 A 
ATOM     13  C   UNL     1     151.291 163.106 165.309  0.00  0.00    -0.040 A 
ATOM     14  C   UNL     1     151.775 161.933 165.890  0.00  0.00    +0.059 A 
ATOM     15 CL   UNL     1     151.914 161.886 167.611  0.00  0.00    -0.082 Cl
ATOM     16  C   UNL     1     152.138 160.856 165.076  0.00  0.00    +0.061 A 
ATOM     17 CL   UNL     1     152.768 159.381 165.718  0.00  0.00    -0.082 Cl
ATOM     18  C   UNL     1     152.000 160.955 163.687  0.00  0.00    -0.017 A 
ATOM     19  H   UNL     1     150.372 159.813 159.013  0.00  0.00    +0.000 HD
ATOM     20  H   UNL     1     150.938 160.538 157.594  0.00  0.00    +0.000 HD
ATOM     21  H   UNL     1     151.352 163.149 161.280  0.00  0.00    +0.000 HD
ENDROOT
TORSDOF 0
ENDMDL
MODEL 3
REMARK VINA RESULT:    -4.306      4.987      5.787
REMARK INTER + INTRA:          -4.306
REMARK INTER:                  -4.306
REMARK INTRA:                   0.000
REMARK UNBOUND:                 0.000
REMARK  Name = /home/vital/Documents/PhD_2021/Malaria_codes/scripts/../data/pdbqt_ligands/ligand_355_temp.pdb
REMARK                            x       y       z     vdW  Elec       q    Type
REMARK                         _______ _______ _______ _____ _____    ______ ____
ROOT
ATOM      1  C   UNL     1     151.262 155.485 150.931  0.00  0.00    -0.015 C 
ATOM      2  C   UNL     1     152.023 156.173 152.081  0.00  0.00    -0.088 C 
ATOM      3  C   UNL     1     152.748 156.836 153.173  0.00  0.00    +0.011 C 
ATOM      4  C   UNL     1     152.286 156.315 154.534  0.00  0.00    -0.030 C 
ATOM      5  C   UNL     1     153.030 157.021 155.670  0.00  0.00    -0.003 C 
ATOM      6  N   UNL     1     152.709 156.464 156.983  0.00  0.00    -0.314 N 
ATOM      7  C   UNL     1     151.355 156.819 157.442  0.00  0.00    +0.022 C 
ATOM      8  C   UNL     1     151.137 156.388 158.899  0.00  0.00    +0.088 C 
ATOM      9  O   UNL     1     152.013 157.148 159.742  0.00  0.00    -0.273 OA
ATOM     10  N   UNL     1     151.749 156.752 161.059  0.00  0.00    -0.266 N 
ATOM     11  C   UNL     1     151.642 157.750 162.054  0.00  0.00    +0.063 A 
ATOM     12  C   UNL     1     151.699 157.387 163.405  0.00  0.00    -0.035 A 
ATOM     13  C   UNL     1     151.526 158.345 164.409  0.00  0.00    -0.040 A 
ATOM     14  C   UNL     1     151.266 159.675 164.072  0.00  0.00    +0.059 A 
ATOM     15 CL   UNL     1     151.062 160.805 165.361  0.00  0.00    -0.082 Cl
ATOM     16  C   UNL     1     151.169 160.041 162.727  0.00  0.00    +0.061 A 
ATOM     17 CL   UNL     1     150.826 161.661 162.232  0.00  0.00    -0.082 Cl
ATOM     18  C   UNL     1     151.347 159.078 161.727  0.00  0.00    -0.017 A 
ATOM     19  H   UNL     1     153.385 156.818 157.660  0.00  0.00    +0.000 HD
ATOM     20  H   UNL     1     152.748 155.449 156.902  0.00  0.00    +0.000 HD
ATOM     21  H   UNL     1     151.641 155.801 161.286  0.00  0.00    +0.000 HD
ENDROOT
TORSDOF 0
ENDMDL
MODEL 4
REMARK VINA RESULT:    -4.269      6.743      8.960
REMARK INTER + INTRA:          -4.269
REMARK INTER:                  -4.269
REMARK INTRA:                   0.000
REMARK UNBOUND:                 0.000
REMARK  Name = /home/vital/Documents/PhD_2021/Malaria_codes/scripts/../data/pdbqt_ligands/ligand_355_temp.pdb
REMARK                            x       y       z     vdW  Elec       q    Type
REMARK                         _______ _______ _______ _____ _____    ______ ____
ROOT
ATOM      1  C   UNL     1     156.268 153.526 146.879  0.00  0.00    -0.015 C 
ATOM      2  C   UNL     1     156.493 153.973 148.337  0.00  0.00    -0.088 C 
ATOM      3  C   UNL     1     156.713 154.405 149.723  0.00  0.00    +0.011 C 
ATOM      4  C   UNL     1     155.433 154.270 150.549  0.00  0.00    -0.030 C 
ATOM      5  C   UNL     1     155.661 154.737 151.988  0.00  0.00    -0.003 C 
ATOM      6  N   UNL     1     154.497 154.508 152.844  0.00  0.00    -0.314 N 
ATOM      7  C   UNL     1     153.383 155.427 152.558  0.00  0.00    +0.022 C 
ATOM      8  C   UNL     1     152.269 155.285 153.605  0.00  0.00    +0.088 C 
ATOM      9  O   UNL     1     152.773 155.717 154.876  0.00  0.00    -0.273 OA
ATOM     10  N   UNL     1     151.715 155.610 155.786  0.00  0.00    -0.266 N 
ATOM     11  C   UNL     1     151.498 156.670 156.695  0.00  0.00    +0.063 A 
ATOM     12  C   UNL     1     150.674 156.469 157.808  0.00  0.00    -0.035 A 
ATOM     13  C   UNL     1     150.387 157.520 158.684  0.00  0.00    -0.040 A 
ATOM     14  C   UNL     1     150.901 158.795 158.440  0.00  0.00    +0.059 A 
ATOM     15 CL   UNL     1     150.506 160.049 159.561  0.00  0.00    -0.082 Cl
ATOM     16  C   UNL     1     151.693 159.018 157.311  0.00  0.00    +0.061 A 
ATOM     17 CL   UNL     1     152.344 160.572 156.929  0.00  0.00    -0.082 Cl
ATOM     18  C   UNL     1     151.979 157.960 156.440  0.00  0.00    -0.017 A 
ATOM     19  H   UNL     1     154.780 154.632 153.817  0.00  0.00    +0.000 HD
ATOM     20  H   UNL     1     154.167 153.561 152.662  0.00  0.00    +0.000 HD
ATOM     21  H   UNL     1     151.135 154.815 155.793  0.00  0.00    +0.000 HD
ENDROOT
TORSDOF 0
ENDMDL
MODEL 5
REMARK VINA RESULT:    -4.269      7.373     11.219
REMARK INTER + INTRA:          -4.269
REMARK INTER:                  -4.269
REMARK INTRA:                   0.000
REMARK UNBOUND:                 0.000
REMARK  Name = /home/vital/Documents/PhD_2021/Malaria_codes/scripts/../data/pdbqt_ligands/ligand_355_temp.pdb
REMARK                            x       y       z     vdW  Elec       q    Type
REMARK                         _______ _______ _______ _____ _____    ______ ____
ROOT
ATOM      1  C   UNL     1     152.048 161.465 171.042  0.00  0.00    -0.015 C 
ATOM      2  C   UNL     1     152.743 160.978 169.756  0.00  0.00    -0.088 C 
ATOM      3  C   UNL     1     153.406 160.507 168.533  0.00  0.00    +0.011 C 
ATOM      4  C   UNL     1     152.898 161.264 167.306  0.00  0.00    -0.030 C 
ATOM      5  C   UNL     1     153.577 160.758 166.032  0.00  0.00    -0.003 C 
ATOM      6  N   UNL     1     153.212 161.540 164.852  0.00  0.00    -0.314 N 
ATOM      7  C   UNL     1     151.832 161.291 164.401  0.00  0.00    +0.022 C 
ATOM      8  C   UNL     1     151.561 161.974 163.053  0.00  0.00    +0.088 C 
ATOM      9  O   UNL     1     152.383 161.361 162.051  0.00  0.00    -0.273 OA
ATOM     10  N   UNL     1     152.072 161.985 160.837  0.00  0.00    -0.266 N 
ATOM     11  C   UNL     1     151.900 161.179 159.689  0.00  0.00    +0.063 A 
ATOM     12  C   UNL     1     151.907 161.772 158.421  0.00  0.00    -0.035 A 
ATOM     13  C   UNL     1     151.670 161.007 157.274  0.00  0.00    -0.040 A 
ATOM     14  C   UNL     1     151.395 159.643 157.386  0.00  0.00    +0.059 A 
ATOM     15 CL   UNL     1     151.110 158.759 155.930  0.00  0.00    -0.082 Cl
ATOM     16  C   UNL     1     151.348 159.048 158.649  0.00  0.00    +0.061 A 
ATOM     17 CL   UNL     1     150.990 157.372 158.870  0.00  0.00    -0.082 Cl
ATOM     18  C   UNL     1     151.589 159.818 159.792  0.00  0.00    -0.017 A 
ATOM     19  H   UNL     1     153.850 161.301 164.092  0.00  0.00    +0.000 HD
ATOM     20  H   UNL     1     153.276 162.525 165.107  0.00  0.00    +0.000 HD
ATOM     21  H   UNL     1     151.975 162.963 160.784  0.00  0.00    +0.000 HD
ENDROOT
TORSDOF 0
ENDMDL
MODEL 6
REMARK VINA RESULT:    -3.989      7.283     10.504
REMARK INTER + INTRA:          -3.989
REMARK INTER:                  -3.989
REMARK INTRA:                   0.000
REMARK UNBOUND:                 0.000
REMARK  Name = /home/vital/Documents/PhD_2021/Malaria_codes/scripts/../data/pdbqt_ligands/ligand_355_temp.pdb
REMARK                            x       y       z     vdW  Elec       q    Type
REMARK                         _______ _______ _______ _____ _____    ______ ____
ROOT
ATOM      1  C   UNL     1     151.477 160.853 165.276  0.00  0.00    -0.015 C 
ATOM      2  C   UNL     1     150.922 160.865 163.838  0.00  0.00    -0.088 C 
ATOM      3  C   UNL     1     150.395 160.884 162.467  0.00  0.00    +0.011 C 
ATOM      4  C   UNL     1     150.615 159.538 161.776  0.00  0.00    -0.030 C 
ATOM      5  C   UNL     1     150.081 159.567 160.342  0.00  0.00    -0.003 C 
ATOM      6  N   UNL     1     150.158 158.262 159.687  0.00  0.00    -0.314 N 
ATOM      7  C   UNL     1     151.535 157.878 159.332  0.00  0.00    +0.022 C 
ATOM      8  C   UNL     1     151.547 156.606 158.473  0.00  0.00    +0.088 C 
ATOM      9  O   UNL     1     150.918 156.890 157.217  0.00  0.00    -0.273 OA
ATOM     10  N   UNL     1     150.990 155.718 156.455  0.00  0.00    -0.266 N 
ATOM     11  C   UNL     1     151.362 155.820 155.095  0.00  0.00    +0.063 A 
ATOM     12  C   UNL     1     151.139 154.738 154.235  0.00  0.00    -0.035 A 
ATOM     13  C   UNL     1     151.560 154.786 152.903  0.00  0.00    -0.040 A 
ATOM     14  C   UNL     1     152.235 155.910 152.421  0.00  0.00    +0.059 A 
ATOM     15 CL   UNL     1     152.729 155.904 150.766  0.00  0.00    -0.082 Cl
ATOM     16  C   UNL     1     152.497 156.980 153.281  0.00  0.00    +0.061 A 
ATOM     17 CL   UNL     1     153.349 158.393 152.766  0.00  0.00    -0.082 Cl
ATOM     18  C   UNL     1     152.070 156.926 154.612  0.00  0.00    -0.017 A 
ATOM     19  H   UNL     1     149.599 158.292 158.835  0.00  0.00    +0.000 HD
ATOM     20  H   UNL     1     149.809 157.568 160.348  0.00  0.00    +0.000 HD
ATOM     21  H   UNL     1     150.787 154.843 156.857  0.00  0.00    +0.000 HD
ENDROOT
TORSDOF 0
ENDMDL
MODEL 7
REMARK VINA RESULT:    -3.784      7.206      7.837
REMARK INTER + INTRA:          -3.784
REMARK INTER:                  -3.784
REMARK INTRA:                   0.000
REMARK UNBOUND:                 0.000
REMARK  Name = /home/vital/Documents/PhD_2021/Malaria_codes/scripts/../data/pdbqt_ligands/ligand_355_temp.pdb
REMARK                            x       y       z     vdW  Elec       q    Type
REMARK                         _______ _______ _______ _____ _____    ______ ____
ROOT
ATOM      1  C   UNL     1     152.490 157.112 154.124  0.00  0.00    -0.015 C 
ATOM      2  C   UNL     1     151.916 157.038 155.553  0.00  0.00    -0.088 C 
ATOM      3  C   UNL     1     151.373 156.961 156.915  0.00  0.00    +0.011 C 
ATOM      4  C   UNL     1     151.282 158.348 157.550  0.00  0.00    -0.030 C 
ATOM      5  C   UNL     1     150.733 158.262 158.975  0.00  0.00    -0.003 C 
ATOM      6  N   UNL     1     150.513 159.578 159.573  0.00  0.00    -0.314 N 
ATOM      7  C   UNL     1     151.766 160.264 159.932  0.00  0.00    +0.022 C 
ATOM      8  C   UNL     1     151.484 161.542 160.734  0.00  0.00    +0.088 C 
ATOM      9  O   UNL     1     150.900 161.179 161.992  0.00  0.00    -0.273 OA
ATOM     10  N   UNL     1     150.701 162.369 162.703  0.00  0.00    -0.266 N 
ATOM     11  C   UNL     1     151.053 162.403 164.071  0.00  0.00    +0.063 A 
ATOM     12  C   UNL     1     150.583 163.445 164.879  0.00  0.00    -0.035 A 
ATOM     13  C   UNL     1     150.973 163.541 166.218  0.00  0.00    -0.040 A 
ATOM     14  C   UNL     1     151.862 162.610 166.758  0.00  0.00    +0.059 A 
ATOM     15 CL   UNL     1     152.302 162.788 168.419  0.00  0.00    -0.082 Cl
ATOM     16  C   UNL     1     152.368 161.588 165.951  0.00  0.00    +0.061 A 
ATOM     17 CL   UNL     1     153.490 160.414 166.540  0.00  0.00    -0.082 Cl
ATOM     18  C   UNL     1     151.971 161.495 164.612  0.00  0.00    -0.017 A 
ATOM     19  H   UNL     1     149.952 159.462 160.418  0.00  0.00    +0.000 HD
ATOM     20  H   UNL     1     150.038 160.154 158.878  0.00  0.00    +0.000 HD
ATOM     21  H   UNL     1     150.325 163.163 162.259  0.00  0.00    +0.000 HD
ENDROOT
TORSDOF 0
ENDMDL
MODEL 8
REMARK VINA RESULT:    -3.592      5.747      9.567
REMARK INTER + INTRA:          -3.592
REMARK INTER:                  -3.592
REMARK INTRA:                   0.000
REMARK UNBOUND:                 0.000
REMARK  Name = /home/vital/Documents/PhD_2021/Malaria_codes/scripts/../data/pdbqt_ligands/ligand_355_temp.pdb
REMARK                            x       y       z     vdW  Elec       q    Type
REMARK                         _______ _______ _______ _____ _____    ______ ____
ROOT
ATOM      1  C   UNL     1     153.536 162.362 170.938  0.00  0.00    -0.015 C 
ATOM      2  C   UNL     1     152.481 161.676 170.048  0.00  0.00    -0.088 C 
ATOM      3  C   UNL     1     151.472 161.029 169.200  0.00  0.00    +0.011 C 
ATOM      4  C   UNL     1     152.102 159.944 168.327  0.00  0.00    -0.030 C 
ATOM      5  C   UNL     1     151.051 159.284 167.432  0.00  0.00    -0.003 C 
ATOM      6  N   UNL     1     151.588 158.156 166.672  0.00  0.00    -0.314 N 
ATOM      7  C   UNL     1     152.483 158.573 165.579  0.00  0.00    +0.022 C 
ATOM      8  C   UNL     1     152.859 157.379 164.690  0.00  0.00    +0.088 C 
ATOM      9  O   UNL     1     151.679 156.907 164.028  0.00  0.00    -0.273 OA
ATOM     10  N   UNL     1     152.077 155.850 163.200  0.00  0.00    -0.266 N 
ATOM     11  C   UNL     1     151.564 155.795 161.884  0.00  0.00    +0.063 A 
ATOM     12  C   UNL     1     151.679 154.610 161.147  0.00  0.00    -0.035 A 
ATOM     13  C   UNL     1     151.243 154.550 159.820  0.00  0.00    -0.040 A 
ATOM     14  C   UNL     1     150.710 155.684 159.205  0.00  0.00    +0.059 A 
ATOM     15 CL   UNL     1     150.192 155.540 157.564  0.00  0.00    -0.082 Cl
ATOM     16  C   UNL     1     150.626 156.883 159.919  0.00  0.00    +0.061 A 
ATOM     17 CL   UNL     1     150.003 158.335 159.219  0.00  0.00    -0.082 Cl
ATOM     18  C   UNL     1     151.062 156.935 161.248  0.00  0.00    -0.017 A 
ATOM     19  H   UNL     1     150.809 157.633 166.273  0.00  0.00    +0.000 HD
ATOM     20  H   UNL     1     152.138 157.588 167.317  0.00  0.00    +0.000 HD
ATOM     21  H   UNL     1     152.701 155.162 163.526  0.00  0.00    +0.000 HD
ENDROOT
TORSDOF 0
ENDMDL
MODEL 9
REMARK VINA RESULT:    -3.424      7.399      8.105
REMARK INTER + INTRA:          -3.424
REMARK INTER:                  -3.424
REMARK INTRA:                   0.000
REMARK UNBOUND:                 0.000
REMARK  Name = /home/vital/Documents/PhD_2021/Malaria_codes/scripts/../data/pdbqt_ligands/ligand_355_temp.pdb
REMARK                            x       y       z     vdW  Elec       q    Type
REMARK                         _______ _______ _______ _____ _____    ______ ____
ROOT
ATOM      1  C   UNL     1     151.494 155.563 156.291  0.00  0.00    -0.015 C 
ATOM      2  C   UNL     1     151.393 155.590 157.829  0.00  0.00    -0.088 C 
ATOM      3  C   UNL     1     151.302 155.610 159.294  0.00  0.00    +0.011 C 
ATOM      4  C   UNL     1     150.893 156.993 159.800  0.00  0.00    -0.030 C 
ATOM      5  C   UNL     1     150.818 157.016 161.328  0.00  0.00    -0.003 C 
ATOM      6  N   UNL     1     150.309 158.284 161.847  0.00  0.00    -0.314 N 
ATOM      7  C   UNL     1     151.278 159.386 161.725  0.00  0.00    +0.022 C 
ATOM      8  C   UNL     1     150.783 160.639 162.459  0.00  0.00    +0.088 C 
ATOM      9  O   UNL     1     150.731 160.361 163.865  0.00  0.00    -0.273 OA
ATOM     10  N   UNL     1     150.317 161.541 164.494  0.00  0.00    -0.266 N 
ATOM     11  C   UNL     1     150.987 161.949 165.669  0.00  0.00    +0.063 A 
ATOM     12  C   UNL     1     150.410 162.925 166.491  0.00  0.00    -0.035 A 
ATOM     13  C   UNL     1     151.084 163.396 167.621  0.00  0.00    -0.040 A 
ATOM     14  C   UNL     1     152.359 162.916 167.928  0.00  0.00    +0.059 A 
ATOM     15 CL   UNL     1     153.136 163.542 169.338  0.00  0.00    -0.082 Cl
ATOM     16  C   UNL     1     152.961 161.970 167.095  0.00  0.00    +0.061 A 
ATOM     17 CL   UNL     1     154.545 161.347 167.394  0.00  0.00    -0.082 Cl
ATOM     18  C   UNL     1     152.279 161.500 165.967  0.00  0.00    -0.017 A 
ATOM     19  H   UNL     1     150.077 158.163 162.834  0.00  0.00    +0.000 HD
ATOM     20  H   UNL     1     149.490 158.534 161.292  0.00  0.00    +0.000 HD
ATOM     21  H   UNL     1     149.575 162.074 164.127  0.00  0.00    +0.000 HD
ENDROOT
TORSDOF 0
ENDMDL
