MODEL 1
REMARK VINA RESULT:    -9.102      0.000      0.000
REMARK INTER + INTRA:          -9.102
REMARK INTER:                  -9.102
REMARK INTRA:                   0.000
REMARK UNBOUND:                 0.000
REMARK  Name = /home/vital/Documents/PhD_2021/Malaria_codes/scripts/../data/pdbqt_ligands/ligand_42_temp.pdb
REMARK                            x       y       z     vdW  Elec       q    Type
REMARK                         _______ _______ _______ _____ _____    ______ ____
ROOT
ATOM      1  C1  UNL     1     150.500 163.540 169.790  0.00  0.00    -0.031 C 
ATOM      2  C2  UNL     1     151.482 162.796 168.902  0.00  0.00    +0.087 C 
ATOM      3  O1  UNL     1     150.872 162.619 167.625  0.00  0.00    -0.492 OA
ATOM      4  C3  UNL     1     151.603 161.962 166.672  0.00  0.00    +0.122 A 
ATOM      5  C4  UNL     1     152.889 161.452 166.833  0.00  0.00    -0.020 A 
ATOM      6  C5  UNL     1     153.514 160.801 165.767  0.00  0.00    -0.057 A 
ATOM      7  C6  UNL     1     152.862 160.659 164.540  0.00  0.00    -0.040 A 
ATOM      8  C7  UNL     1     151.575 161.164 164.365  0.00  0.00    +0.037 A 
ATOM      9  N1  UNL     1     150.841 161.066 163.163  0.00  0.00    -0.284 N 
ATOM     10  C8  UNL     1     151.240 160.468 161.973  0.00  0.00    +0.237 C 
ATOM     11  O2  UNL     1     152.317 159.917 161.766  0.00  0.00    -0.274 OA
ATOM     12  C9  UNL     1     150.153 160.579 160.894  0.00  0.00    +0.107 C 
ATOM     13  N2  UNL     1     150.576 159.901 159.681  0.00  0.00    -0.252 N 
ATOM     14  C10 UNL     1     151.313 160.626 158.762  0.00  0.00    +0.330 A 
ATOM     15  O3  UNL     1     151.558 161.828 158.875  0.00  0.00    -0.246 OA
ATOM     16  N3  UNL     1     151.766 159.949 157.666  0.00  0.00    -0.307 N 
ATOM     17  C11 UNL     1     151.547 158.592 157.448  0.00  0.00    +0.056 A 
ATOM     18  C12 UNL     1     152.061 157.976 156.307  0.00  0.00    -0.038 A 
ATOM     19  C13 UNL     1     151.836 156.613 156.099  0.00  0.00    -0.060 A 
ATOM     20  C14 UNL     1     151.101 155.871 157.025  0.00  0.00    -0.061 A 
ATOM     21  C15 UNL     1     150.589 156.491 158.167  0.00  0.00    -0.047 A 
ATOM     22  C16 UNL     1     150.815 157.855 158.374  0.00  0.00    +0.063 A 
ATOM     23  C17 UNL     1     150.290 158.544 159.568  0.00  0.00    +0.265 A 
ATOM     24  O4  UNL     1     149.626 157.915 160.388  0.00  0.00    -0.267 OA
ATOM     25  C18 UNL     1     150.956 161.816 165.440  0.00  0.00    +0.001 A 
ATOM     26  H   UNL     1     149.943 161.469 163.168  0.00  0.00    +0.000 HD
ATOM     27  H   UNL     1     152.277 160.451 156.990  0.00  0.00    +0.000 HD
ENDROOT
TORSDOF 0
ENDMDL
MODEL 2
REMARK VINA RESULT:    -8.765      1.986      9.130
REMARK INTER + INTRA:          -8.765
REMARK INTER:                  -8.765
REMARK INTRA:                   0.000
REMARK UNBOUND:                 0.000
REMARK  Name = /home/vital/Documents/PhD_2021/Malaria_codes/scripts/../data/pdbqt_ligands/ligand_42_temp.pdb
REMARK                            x       y       z     vdW  Elec       q    Type
REMARK                         _______ _______ _______ _____ _____    ______ ____
ROOT
ATOM      1  C1  UNL     1     151.935 157.954 154.355  0.00  0.00    -0.031 C 
ATOM      2  C2  UNL     1     151.513 157.370 155.691  0.00  0.00    +0.087 C 
ATOM      3  O1  UNL     1     151.701 158.374 156.688  0.00  0.00    -0.492 OA
ATOM      4  C3  UNL     1     151.376 158.041 157.975  0.00  0.00    +0.122 A 
ATOM      5  C4  UNL     1     150.875 156.814 158.403  0.00  0.00    -0.020 A 
ATOM      6  C5  UNL     1     150.586 156.616 159.755  0.00  0.00    -0.057 A 
ATOM      7  C6  UNL     1     150.795 157.640 160.683  0.00  0.00    -0.040 A 
ATOM      8  C7  UNL     1     151.296 158.872 160.269  0.00  0.00    +0.037 A 
ATOM      9  N1  UNL     1     151.538 159.962 161.135  0.00  0.00    -0.284 N 
ATOM     10  C8  UNL     1     151.337 160.012 162.509  0.00  0.00    +0.237 C 
ATOM     11  O2  UNL     1     150.907 159.102 163.211  0.00  0.00    -0.274 OA
ATOM     12  C9  UNL     1     151.717 161.384 163.085  0.00  0.00    +0.107 C 
ATOM     13  N2  UNL     1     151.546 161.390 164.528  0.00  0.00    -0.252 N 
ATOM     14  C10 UNL     1     150.299 161.722 165.026  0.00  0.00    +0.330 A 
ATOM     15  O3  UNL     1     149.357 162.092 164.325  0.00  0.00    -0.246 OA
ATOM     16  N3  UNL     1     150.140 161.647 166.381  0.00  0.00    -0.307 N 
ATOM     17  C11 UNL     1     151.140 161.238 167.257  0.00  0.00    +0.056 A 
ATOM     18  C12 UNL     1     150.885 161.174 168.627  0.00  0.00    -0.038 A 
ATOM     19  C13 UNL     1     151.897 160.762 169.499  0.00  0.00    -0.060 A 
ATOM     20  C14 UNL     1     153.155 160.415 169.002  0.00  0.00    -0.061 A 
ATOM     21  C15 UNL     1     153.406 160.479 167.631  0.00  0.00    -0.047 A 
ATOM     22  C16 UNL     1     152.393 160.892 166.761  0.00  0.00    +0.063 A 
ATOM     23  C17 UNL     1     152.621 160.973 165.305  0.00  0.00    +0.265 A 
ATOM     24  O4  UNL     1     153.726 160.689 164.848  0.00  0.00    -0.267 OA
ATOM     25  C18 UNL     1     151.582 159.062 158.910  0.00  0.00    +0.001 A 
ATOM     26  H   UNL     1     151.889 160.781 160.716  0.00  0.00    +0.000 HD
ATOM     27  H   UNL     1     149.266 161.898 166.758  0.00  0.00    +0.000 HD
ENDROOT
TORSDOF 0
ENDMDL
MODEL 3
REMARK VINA RESULT:    -8.729     10.113     12.908
REMARK INTER + INTRA:          -8.729
REMARK INTER:                  -8.729
REMARK INTRA:                   0.000
REMARK UNBOUND:                 0.000
REMARK  Name = /home/vital/Documents/PhD_2021/Malaria_codes/scripts/../data/pdbqt_ligands/ligand_42_temp.pdb
REMARK                            x       y       z     vdW  Elec       q    Type
REMARK                         _______ _______ _______ _____ _____    ______ ____
ROOT
ATOM      1  C1  UNL     1     142.237 144.970 163.106  0.00  0.00    -0.031 C 
ATOM      2  C2  UNL     1     142.580 145.850 164.294  0.00  0.00    +0.087 C 
ATOM      3  O1  UNL     1     143.623 146.739 163.896  0.00  0.00    -0.492 OA
ATOM      4  C3  UNL     1     144.079 147.623 164.835  0.00  0.00    +0.122 A 
ATOM      5  C4  UNL     1     143.620 147.738 166.145  0.00  0.00    -0.020 A 
ATOM      6  C5  UNL     1     144.182 148.691 166.997  0.00  0.00    -0.057 A 
ATOM      7  C6  UNL     1     145.203 149.532 166.546  0.00  0.00    -0.040 A 
ATOM      8  C7  UNL     1     145.673 149.428 165.238  0.00  0.00    +0.037 A 
ATOM      9  N1  UNL     1     146.699 150.235 164.698  0.00  0.00    -0.284 N 
ATOM     10  C8  UNL     1     147.412 151.241 165.338  0.00  0.00    +0.237 C 
ATOM     11  O2  UNL     1     147.264 151.604 166.502  0.00  0.00    -0.274 OA
ATOM     12  C9  UNL     1     148.442 151.888 164.401  0.00  0.00    +0.107 C 
ATOM     13  N2  UNL     1     149.206 152.898 165.112  0.00  0.00    -0.252 N 
ATOM     14  C10 UNL     1     148.695 154.183 165.149  0.00  0.00    +0.330 A 
ATOM     15  O3  UNL     1     147.680 154.535 164.547  0.00  0.00    -0.246 OA
ATOM     16  N3  UNL     1     149.390 155.099 165.886  0.00  0.00    -0.307 N 
ATOM     17  C11 UNL     1     150.544 154.801 166.605  0.00  0.00    +0.056 A 
ATOM     18  C12 UNL     1     151.181 155.796 167.347  0.00  0.00    -0.038 A 
ATOM     19  C13 UNL     1     152.339 155.486 168.064  0.00  0.00    -0.060 A 
ATOM     20  C14 UNL     1     152.856 154.189 168.040  0.00  0.00    -0.061 A 
ATOM     21  C15 UNL     1     152.215 153.196 167.298  0.00  0.00    -0.047 A 
ATOM     22  C16 UNL     1     151.056 153.508 166.580  0.00  0.00    +0.063 A 
ATOM     23  C17 UNL     1     150.351 152.485 165.784  0.00  0.00    +0.265 A 
ATOM     24  O4  UNL     1     150.798 151.341 165.734  0.00  0.00    -0.267 OA
ATOM     25  C18 UNL     1     145.102 148.469 164.391  0.00  0.00    +0.001 A 
ATOM     26  H   UNL     1     146.936 150.064 163.757  0.00  0.00    +0.000 HD
ATOM     27  H   UNL     1     149.054 156.024 165.911  0.00  0.00    +0.000 HD
ENDROOT
TORSDOF 0
ENDMDL
MODEL 4
REMARK VINA RESULT:    -8.647      1.728      2.815
REMARK INTER + INTRA:          -8.647
REMARK INTER:                  -8.647
REMARK INTRA:                   0.000
REMARK UNBOUND:                 0.000
REMARK  Name = /home/vital/Documents/PhD_2021/Malaria_codes/scripts/../data/pdbqt_ligands/ligand_42_temp.pdb
REMARK                            x       y       z     vdW  Elec       q    Type
REMARK                         _______ _______ _______ _____ _____    ______ ____
ROOT
ATOM      1  C1  UNL     1     151.794 163.542 169.902  0.00  0.00    -0.031 C 
ATOM      2  C2  UNL     1     150.869 163.446 168.702  0.00  0.00    +0.087 C 
ATOM      3  O1  UNL     1     151.421 162.490 167.797  0.00  0.00    -0.492 OA
ATOM      4  C3  UNL     1     150.729 162.258 166.639  0.00  0.00    +0.122 A 
ATOM      5  C4  UNL     1     149.535 162.867 166.262  0.00  0.00    -0.020 A 
ATOM      6  C5  UNL     1     148.939 162.530 165.045  0.00  0.00    -0.057 A 
ATOM      7  C6  UNL     1     149.531 161.586 164.201  0.00  0.00    -0.040 A 
ATOM      8  C7  UNL     1     150.726 160.969 164.566  0.00  0.00    +0.037 A 
ATOM      9  N1  UNL     1     151.394 160.006 163.779  0.00  0.00    -0.284 N 
ATOM     10  C8  UNL     1     151.010 159.511 162.538  0.00  0.00    +0.237 C 
ATOM     11  O2  UNL     1     150.006 159.834 161.910  0.00  0.00    -0.274 OA
ATOM     12  C9  UNL     1     152.006 158.467 162.013  0.00  0.00    +0.107 C 
ATOM     13  N2  UNL     1     151.606 158.007 160.694  0.00  0.00    -0.252 N 
ATOM     14  C10 UNL     1     150.726 156.943 160.624  0.00  0.00    +0.330 A 
ATOM     15  O3  UNL     1     150.330 156.315 161.607  0.00  0.00    -0.246 OA
ATOM     16  N3  UNL     1     150.303 156.576 159.378  0.00  0.00    -0.307 N 
ATOM     17  C11 UNL     1     150.688 157.224 158.208  0.00  0.00    +0.056 A 
ATOM     18  C12 UNL     1     150.194 156.793 156.976  0.00  0.00    -0.038 A 
ATOM     19  C13 UNL     1     150.587 157.450 155.808  0.00  0.00    -0.060 A 
ATOM     20  C14 UNL     1     151.468 158.531 155.870  0.00  0.00    -0.061 A 
ATOM     21  C15 UNL     1     151.959 158.961 157.104  0.00  0.00    -0.047 A 
ATOM     22  C16 UNL     1     151.565 158.302 158.273  0.00  0.00    +0.063 A 
ATOM     23  C17 UNL     1     152.063 158.727 159.595  0.00  0.00    +0.265 A 
ATOM     24  O4  UNL     1     152.853 159.665 159.672  0.00  0.00    -0.267 OA
ATOM     25  C18 UNL     1     151.316 161.314 165.790  0.00  0.00    +0.001 A 
ATOM     26  H   UNL     1     152.230 159.642 164.152  0.00  0.00    +0.000 HD
ATOM     27  H   UNL     1     149.691 155.809 159.304  0.00  0.00    +0.000 HD
ENDROOT
TORSDOF 0
ENDMDL
MODEL 5
REMARK VINA RESULT:    -8.633      2.583      9.428
REMARK INTER + INTRA:          -8.633
REMARK INTER:                  -8.633
REMARK INTRA:                   0.000
REMARK UNBOUND:                 0.000
REMARK  Name = /home/vital/Documents/PhD_2021/Malaria_codes/scripts/../data/pdbqt_ligands/ligand_42_temp.pdb
REMARK                            x       y       z     vdW  Elec       q    Type
REMARK                         _______ _______ _______ _____ _____    ______ ____
ROOT
ATOM      1  C1  UNL     1     151.245 156.030 155.888  0.00  0.00    -0.031 C 
ATOM      2  C2  UNL     1     151.344 155.565 157.330  0.00  0.00    +0.087 C 
ATOM      3  O1  UNL     1     151.397 156.723 158.162  0.00  0.00    -0.492 OA
ATOM      4  C3  UNL     1     151.490 156.515 159.511  0.00  0.00    +0.122 A 
ATOM      5  C4  UNL     1     151.536 155.278 160.149  0.00  0.00    -0.020 A 
ATOM      6  C5  UNL     1     151.632 155.219 161.541  0.00  0.00    -0.057 A 
ATOM      7  C6  UNL     1     151.681 156.391 162.300  0.00  0.00    -0.040 A 
ATOM      8  C7  UNL     1     151.636 157.635 161.676  0.00  0.00    +0.037 A 
ATOM      9  N1  UNL     1     151.680 158.869 162.361  0.00  0.00    -0.284 N 
ATOM     10  C8  UNL     1     151.778 159.074 163.733  0.00  0.00    +0.237 C 
ATOM     11  O2  UNL     1     151.842 158.199 164.591  0.00  0.00    -0.274 OA
ATOM     12  C9  UNL     1     151.791 160.569 164.081  0.00  0.00    +0.107 C 
ATOM     13  N2  UNL     1     151.946 160.752 165.514  0.00  0.00    -0.252 N 
ATOM     14  C10 UNL     1     150.800 160.761 166.289  0.00  0.00    +0.330 A 
ATOM     15  O3  UNL     1     149.660 160.707 165.827  0.00  0.00    -0.246 OA
ATOM     16  N3  UNL     1     150.973 160.856 167.640  0.00  0.00    -0.307 N 
ATOM     17  C11 UNL     1     152.219 160.918 168.259  0.00  0.00    +0.056 A 
ATOM     18  C12 UNL     1     152.304 160.997 169.649  0.00  0.00    -0.038 A 
ATOM     19  C13 UNL     1     153.559 161.058 170.261  0.00  0.00    -0.060 A 
ATOM     20  C14 UNL     1     154.721 161.040 169.486  0.00  0.00    -0.061 A 
ATOM     21  C15 UNL     1     154.632 160.959 168.096  0.00  0.00    -0.047 A 
ATOM     22  C16 UNL     1     153.375 160.898 167.486  0.00  0.00    +0.063 A 
ATOM     23  C17 UNL     1     153.240 160.812 166.019  0.00  0.00    +0.265 A 
ATOM     24  O4  UNL     1     154.249 160.812 165.316  0.00  0.00    -0.267 OA
ATOM     25  C18 UNL     1     151.539 157.685 160.278  0.00  0.00    +0.001 A 
ATOM     26  H   UNL     1     151.636 159.679 161.803  0.00  0.00    +0.000 HD
ATOM     27  H   UNL     1     150.171 160.884 168.209  0.00  0.00    +0.000 HD
ENDROOT
TORSDOF 0
ENDMDL
MODEL 6
REMARK VINA RESULT:    -8.325      2.044      9.211
REMARK INTER + INTRA:          -8.325
REMARK INTER:                  -8.325
REMARK INTRA:                   0.000
REMARK UNBOUND:                 0.000
REMARK  Name = /home/vital/Documents/PhD_2021/Malaria_codes/scripts/../data/pdbqt_ligands/ligand_42_temp.pdb
REMARK                            x       y       z     vdW  Elec       q    Type
REMARK                         _______ _______ _______ _____ _____    ______ ____
ROOT
ATOM      1  C1  UNL     1     150.559 155.541 155.820  0.00  0.00    -0.031 C 
ATOM      2  C2  UNL     1     150.529 156.950 156.385  0.00  0.00    +0.087 C 
ATOM      3  O1  UNL     1     150.867 156.876 157.770  0.00  0.00    -0.492 OA
ATOM      4  C3  UNL     1     150.894 158.053 158.467  0.00  0.00    +0.122 A 
ATOM      5  C4  UNL     1     150.625 159.318 157.951  0.00  0.00    -0.020 A 
ATOM      6  C5  UNL     1     150.691 160.436 158.785  0.00  0.00    -0.057 A 
ATOM      7  C6  UNL     1     151.026 160.296 160.135  0.00  0.00    -0.040 A 
ATOM      8  C7  UNL     1     151.298 159.037 160.665  0.00  0.00    +0.037 A 
ATOM      9  N1  UNL     1     151.644 158.801 162.013  0.00  0.00    -0.284 N 
ATOM     10  C8  UNL     1     151.771 159.739 163.032  0.00  0.00    +0.237 C 
ATOM     11  O2  UNL     1     151.601 160.950 162.925  0.00  0.00    -0.274 OA
ATOM     12  C9  UNL     1     152.170 159.080 164.360  0.00  0.00    +0.107 C 
ATOM     13  N2  UNL     1     152.244 160.076 165.415  0.00  0.00    -0.252 N 
ATOM     14  C10 UNL     1     153.444 160.742 165.587  0.00  0.00    +0.330 A 
ATOM     15  O3  UNL     1     154.469 160.481 164.958  0.00  0.00    -0.246 OA
ATOM     16  N3  UNL     1     153.469 161.727 166.533  0.00  0.00    -0.307 N 
ATOM     17  C11 UNL     1     152.364 162.100 167.293  0.00  0.00    +0.056 A 
ATOM     18  C12 UNL     1     152.474 163.130 168.227  0.00  0.00    -0.038 A 
ATOM     19  C13 UNL     1     151.359 163.496 168.985  0.00  0.00    -0.060 A 
ATOM     20  C14 UNL     1     150.142 162.835 168.810  0.00  0.00    -0.061 A 
ATOM     21  C15 UNL     1     150.034 161.805 167.874  0.00  0.00    -0.047 A 
ATOM     22  C16 UNL     1     151.152 161.440 167.116  0.00  0.00    +0.063 A 
ATOM     23  C17 UNL     1     151.077 160.357 166.118  0.00  0.00    +0.265 A 
ATOM     24  O4  UNL     1     150.021 159.750 165.959  0.00  0.00    -0.267 OA
ATOM     25  C18 UNL     1     151.229 157.921 159.819  0.00  0.00    +0.001 A 
ATOM     26  H   UNL     1     151.816 157.864 162.261  0.00  0.00    +0.000 HD
ATOM     27  H   UNL     1     154.318 162.201 166.686  0.00  0.00    +0.000 HD
ENDROOT
TORSDOF 0
ENDMDL
MODEL 7
REMARK VINA RESULT:    -7.893     11.872     13.393
REMARK INTER + INTRA:          -7.893
REMARK INTER:                  -7.893
REMARK INTRA:                   0.000
REMARK UNBOUND:                 0.000
REMARK  Name = /home/vital/Documents/PhD_2021/Malaria_codes/scripts/../data/pdbqt_ligands/ligand_42_temp.pdb
REMARK                            x       y       z     vdW  Elec       q    Type
REMARK                         _______ _______ _______ _____ _____    ______ ____
ROOT
ATOM      1  C1  UNL     1     150.776 156.361 166.903  0.00  0.00    -0.031 C 
ATOM      2  C2  UNL     1     150.178 155.592 165.738  0.00  0.00    +0.087 C 
ATOM      3  O1  UNL     1     149.472 154.470 166.268  0.00  0.00    -0.492 OA
ATOM      4  C3  UNL     1     148.856 153.642 165.369  0.00  0.00    +0.122 A 
ATOM      5  C4  UNL     1     148.851 153.794 163.984  0.00  0.00    -0.020 A 
ATOM      6  C5  UNL     1     148.177 152.866 163.188  0.00  0.00    -0.057 A 
ATOM      7  C6  UNL     1     147.506 151.786 163.768  0.00  0.00    -0.040 A 
ATOM      8  C7  UNL     1     147.502 151.622 165.152  0.00  0.00    +0.037 A 
ATOM      9  N1  UNL     1     146.852 150.564 165.824  0.00  0.00    -0.284 N 
ATOM     10  C8  UNL     1     146.124 149.523 165.260  0.00  0.00    +0.237 C 
ATOM     11  O2  UNL     1     145.922 149.348 164.062  0.00  0.00    -0.274 OA
ATOM     12  C9  UNL     1     145.569 148.576 166.334  0.00  0.00    +0.107 C 
ATOM     13  N2  UNL     1     144.859 147.471 165.713  0.00  0.00    -0.252 N 
ATOM     14  C10 UNL     1     143.517 147.649 165.426  0.00  0.00    +0.330 A 
ATOM     15  O3  UNL     1     142.876 148.651 165.741  0.00  0.00    -0.246 OA
ATOM     16  N3  UNL     1     142.888 146.627 164.774  0.00  0.00    -0.307 N 
ATOM     17  C11 UNL     1     143.525 145.456 164.372  0.00  0.00    +0.056 A 
ATOM     18  C12 UNL     1     142.808 144.469 163.694  0.00  0.00    -0.038 A 
ATOM     19  C13 UNL     1     143.456 143.298 163.295  0.00  0.00    -0.060 A 
ATOM     20  C14 UNL     1     144.812 143.115 163.572  0.00  0.00    -0.061 A 
ATOM     21  C15 UNL     1     145.527 144.105 164.249  0.00  0.00    -0.047 A 
ATOM     22  C16 UNL     1     144.876 145.276 164.648  0.00  0.00    +0.063 A 
ATOM     23  C17 UNL     1     145.597 146.345 165.366  0.00  0.00    +0.265 A 
ATOM     24  O4  UNL     1     146.787 146.198 165.635  0.00  0.00    -0.267 OA
ATOM     25  C18 UNL     1     148.182 152.559 165.943  0.00  0.00    +0.001 A 
ATOM     26  H   UNL     1     146.922 150.564 166.806  0.00  0.00    +0.000 HD
ATOM     27  H   UNL     1     141.929 146.724 164.577  0.00  0.00    +0.000 HD
ENDROOT
TORSDOF 0
ENDMDL
MODEL 8
REMARK VINA RESULT:    -7.823     14.545     17.337
REMARK INTER + INTRA:          -7.823
REMARK INTER:                  -7.823
REMARK INTRA:                   0.000
REMARK UNBOUND:                 0.000
REMARK  Name = /home/vital/Documents/PhD_2021/Malaria_codes/scripts/../data/pdbqt_ligands/ligand_42_temp.pdb
REMARK                            x       y       z     vdW  Elec       q    Type
REMARK                         _______ _______ _______ _____ _____    ______ ____
ROOT
ATOM      1  C1  UNL     1     140.524 138.927 163.839  0.00  0.00    -0.031 C 
ATOM      2  C2  UNL     1     141.801 139.500 164.427  0.00  0.00    +0.087 C 
ATOM      3  O1  UNL     1     141.722 140.923 164.346  0.00  0.00    -0.492 OA
ATOM      4  C3  UNL     1     142.788 141.633 164.828  0.00  0.00    +0.122 A 
ATOM      5  C4  UNL     1     143.942 141.097 165.393  0.00  0.00    -0.020 A 
ATOM      6  C5  UNL     1     144.953 141.948 165.845  0.00  0.00    -0.057 A 
ATOM      7  C6  UNL     1     144.816 143.335 165.735  0.00  0.00    -0.040 A 
ATOM      8  C7  UNL     1     143.667 143.885 165.171  0.00  0.00    +0.037 A 
ATOM      9  N1  UNL     1     143.442 145.271 165.021  0.00  0.00    -0.284 N 
ATOM     10  C8  UNL     1     144.290 146.311 165.384  0.00  0.00    +0.237 C 
ATOM     11  O2  UNL     1     145.394 146.194 165.908  0.00  0.00    -0.274 OA
ATOM     12  C9  UNL     1     143.676 147.680 165.058  0.00  0.00    +0.107 C 
ATOM     13  N2  UNL     1     144.604 148.743 165.400  0.00  0.00    -0.252 N 
ATOM     14  C10 UNL     1     144.571 149.234 166.693  0.00  0.00    +0.330 A 
ATOM     15  O3  UNL     1     143.750 148.881 167.540  0.00  0.00    -0.246 OA
ATOM     16  N3  UNL     1     145.503 150.179 167.015  0.00  0.00    -0.307 N 
ATOM     17  C11 UNL     1     146.476 150.640 166.133  0.00  0.00    +0.056 A 
ATOM     18  C12 UNL     1     147.401 151.597 166.551  0.00  0.00    -0.038 A 
ATOM     19  C13 UNL     1     148.373 152.053 165.657  0.00  0.00    -0.060 A 
ATOM     20  C14 UNL     1     148.419 151.556 164.354  0.00  0.00    -0.061 A 
ATOM     21  C15 UNL     1     147.493 150.598 163.938  0.00  0.00    -0.047 A 
ATOM     22  C16 UNL     1     146.520 150.143 164.834  0.00  0.00    +0.063 A 
ATOM     23  C17 UNL     1     145.524 149.132 164.432  0.00  0.00    +0.265 A 
ATOM     24  O4  UNL     1     145.535 148.693 163.284  0.00  0.00    -0.267 OA
ATOM     25  C18 UNL     1     142.657 143.022 164.722  0.00  0.00    +0.001 A 
ATOM     26  H   UNL     1     142.585 145.531 164.610  0.00  0.00    +0.000 HD
ATOM     27  H   UNL     1     145.486 150.555 167.924  0.00  0.00    +0.000 HD
ENDROOT
TORSDOF 0
ENDMDL
MODEL 9
REMARK VINA RESULT:    -7.516     14.060     15.948
REMARK INTER + INTRA:          -7.516
REMARK INTER:                  -7.516
REMARK INTRA:                   0.000
REMARK UNBOUND:                 0.000
REMARK  Name = /home/vital/Documents/PhD_2021/Malaria_codes/scripts/../data/pdbqt_ligands/ligand_42_temp.pdb
REMARK                            x       y       z     vdW  Elec       q    Type
REMARK                         _______ _______ _______ _____ _____    ______ ____
ROOT
ATOM      1  C1  UNL     1     149.415 154.467 165.336  0.00  0.00    -0.031 C 
ATOM      2  C2  UNL     1     148.580 153.592 164.418  0.00  0.00    +0.087 C 
ATOM      3  O1  UNL     1     148.102 152.484 165.180  0.00  0.00    -0.492 OA
ATOM      4  C3  UNL     1     147.322 151.569 164.526  0.00  0.00    +0.122 A 
ATOM      5  C4  UNL     1     146.950 151.619 163.185  0.00  0.00    -0.020 A 
ATOM      6  C5  UNL     1     146.146 150.609 162.651  0.00  0.00    -0.057 A 
ATOM      7  C6  UNL     1     145.712 149.549 163.451  0.00  0.00    -0.040 A 
ATOM      8  C7  UNL     1     146.077 149.486 164.794  0.00  0.00    +0.037 A 
ATOM      9  N1  UNL     1     145.686 148.455 165.676  0.00  0.00    -0.284 N 
ATOM     10  C8  UNL     1     144.898 147.347 165.386  0.00  0.00    +0.237 C 
ATOM     11  O2  UNL     1     144.402 147.077 164.296  0.00  0.00    -0.274 OA
ATOM     12  C9  UNL     1     144.695 146.459 166.623  0.00  0.00    +0.107 C 
ATOM     13  N2  UNL     1     143.913 145.285 166.279  0.00  0.00    -0.252 N 
ATOM     14  C10 UNL     1     142.535 145.388 166.345  0.00  0.00    +0.330 A 
ATOM     15  O3  UNL     1     141.941 146.384 166.756  0.00  0.00    -0.246 OA
ATOM     16  N3  UNL     1     141.819 144.297 165.943  0.00  0.00    -0.307 N 
ATOM     17  C11 UNL     1     142.395 143.126 165.458  0.00  0.00    +0.056 A 
ATOM     18  C12 UNL     1     141.585 142.064 165.054  0.00  0.00    -0.038 A 
ATOM     19  C13 UNL     1     142.174 140.894 164.569  0.00  0.00    -0.060 A 
ATOM     20  C14 UNL     1     143.564 140.786 164.490  0.00  0.00    -0.061 A 
ATOM     21  C15 UNL     1     144.371 141.850 164.895  0.00  0.00    -0.047 A 
ATOM     22  C16 UNL     1     143.780 143.021 165.380  0.00  0.00    +0.063 A 
ATOM     23  C17 UNL     1     144.600 144.167 165.817  0.00  0.00    +0.265 A 
ATOM     24  O4  UNL     1     145.826 144.087 165.773  0.00  0.00    -0.267 OA
ATOM     25  C18 UNL     1     146.883 150.504 165.321  0.00  0.00    +0.001 A 
ATOM     26  H   UNL     1     146.008 148.529 166.603  0.00  0.00    +0.000 HD
ATOM     27  H   UNL     1     140.837 144.341 166.000  0.00  0.00    +0.000 HD
ENDROOT
TORSDOF 0
ENDMDL
