MODEL 1
REMARK VINA RESULT:    -5.076      0.000      0.000
REMARK INTER + INTRA:          -5.076
REMARK INTER:                  -5.076
REMARK INTRA:                   0.000
REMARK UNBOUND:                 0.000
REMARK  Name = /home/vital/Documents/PhD_2021/Malaria_codes/scripts/../data/pdbqt_ligands/ligand_436_temp.pdb
REMARK                            x       y       z     vdW  Elec       q    Type
REMARK                         _______ _______ _______ _____ _____    ______ ____
ROOT
ATOM      1  C   UNL     1     151.472 160.375 163.351  0.00  0.00    +0.029 C 
ATOM      2  N   UNL     1     151.062 159.868 164.660  0.00  0.00    -0.289 NA
ATOM      3  C   UNL     1     151.998 159.494 165.481  0.00  0.00    +0.061 C 
ATOM      4  C   UNL     1     153.491 159.588 165.243  0.00  0.00    +0.051 C 
ATOM      5  N   UNL     1     153.953 160.910 165.575  0.00  0.00    -0.343 N 
ATOM      6  C   UNL     1     154.034 161.454 166.826  0.00  0.00    +0.008 C 
ATOM      7  C   UNL     1     153.376 161.340 167.985  0.00  0.00    +0.041 C 
ATOM      8  N   UNL     1     152.249 160.733 168.435  0.00  0.00    -0.258 NA
ATOM      9  C   UNL     1     151.510 159.772 167.996  0.00  0.00    +0.052 C 
ATOM     10  C   UNL     1     150.290 159.505 168.905  0.00  0.00    +0.010 C 
ATOM     11  C   UNL     1     148.949 159.591 168.179  0.00  0.00    +0.046 C 
ATOM     12  N   UNL     1     148.772 160.942 167.644  0.00  0.00    -0.276 NA
ATOM     13  C   UNL     1     148.504 160.994 166.391  0.00  0.00    +0.076 C 
ATOM     14  N   UNL     1     148.334 162.137 165.669  0.00  0.00    -0.333 N 
ATOM     15  C   UNL     1     148.767 163.440 166.148  0.00  0.00    +0.033 C 
ATOM     16  C   UNL     1     150.292 163.540 166.241  0.00  0.00    +0.060 C 
ATOM     17  O   UNL     1     150.890 163.090 165.019  0.00  0.00    -0.393 OA
ATOM     18  C   UNL     1     151.647 158.895 166.788  0.00  0.00    +0.015 C 
ATOM     19  C   UNL     1     151.510 157.556 166.928  0.00  0.00    -0.070 C 
ATOM     20  C   UNL     1     151.581 156.377 165.980  0.00  0.00    -0.014 C 
ATOM     21  C   UNL     1     151.406 156.641 164.520  0.00  0.00    -0.066 C 
ATOM     22  C   UNL     1     150.549 156.084 163.652  0.00  0.00    -0.010 C 
ATOM     23  N   UNL     1     149.646 155.056 163.724  0.00  0.00    -0.327 N 
ATOM     24  C   UNL     1     149.684 153.889 164.449  0.00  0.00    -0.007 C 
ATOM     25  C   UNL     1     148.911 152.793 164.321  0.00  0.00    -0.048 C 
ATOM     26  C   UNL     1     147.822 152.637 163.385  0.00  0.00    -0.065 C 
ATOM     27  C   UNL     1     147.112 151.524 163.145  0.00  0.00    -0.084 C 
ATOM     28  C   UNL     1     147.261 150.152 163.742  0.00  0.00    -0.034 C 
ATOM     29  C   UNL     1     146.026 149.796 164.578  0.00  0.00    -0.048 C 
ATOM     30  C   UNL     1     146.006 148.309 164.959  0.00  0.00    -0.040 C 
ATOM     31  C   UNL     1     144.844 148.011 165.914  0.00  0.00    -0.004 C 
ATOM     32  N   UNL     1     144.754 146.602 166.290  0.00  0.00    -0.311 N 
ATOM     33  C   UNL     1     144.018 145.802 165.306  0.00  0.00    +0.031 C 
ATOM     34  C   UNL     1     143.862 144.415 165.900  0.00  0.00    +0.015 C 
ATOM     35  N   UNL     1     144.541 143.420 165.448  0.00  0.00    -0.279 NA
ATOM     36  C   UNL     1     144.286 142.183 166.178  0.00  0.00    +0.113 C 
ATOM     37 CL   UNL     1     145.487 140.979 165.670  0.00  0.00    -0.100 Cl
ATOM     38  H   UNL     1     154.239 161.481 164.826  0.00  0.00    +0.000 HD
ATOM     39  H   UNL     1     147.900 162.079 164.787  0.00  0.00    +0.000 HD
ATOM     40  H   UNL     1     150.644 162.164 164.861  0.00  0.00    +0.000 HD
ATOM     41  H   UNL     1     148.842 155.171 163.167  0.00  0.00    +0.000 HD
ATOM     42  H   UNL     1     144.277 146.533 167.189  0.00  0.00    +0.000 HD
ATOM     43  H   UNL     1     145.704 146.234 166.338  0.00  0.00    +0.000 HD
ENDROOT
TORSDOF 0
ENDMDL
MODEL 2
REMARK VINA RESULT:    -4.744      0.241      0.241
REMARK INTER + INTRA:          -4.744
REMARK INTER:                  -4.744
REMARK INTRA:                   0.000
REMARK UNBOUND:                 0.000
REMARK  Name = /home/vital/Documents/PhD_2021/Malaria_codes/scripts/../data/pdbqt_ligands/ligand_436_temp.pdb
REMARK                            x       y       z     vdW  Elec       q    Type
REMARK                         _______ _______ _______ _____ _____    ______ ____
ROOT
ATOM      1  C   UNL     1     151.348 160.176 163.339  0.00  0.00    +0.029 C 
ATOM      2  N   UNL     1     150.983 159.656 164.656  0.00  0.00    -0.289 NA
ATOM      3  C   UNL     1     151.946 159.274 165.441  0.00  0.00    +0.061 C 
ATOM      4  C   UNL     1     153.430 159.373 165.154  0.00  0.00    +0.051 C 
ATOM      5  N   UNL     1     153.902 160.692 165.483  0.00  0.00    -0.343 N 
ATOM      6  C   UNL     1     154.025 161.224 166.737  0.00  0.00    +0.008 C 
ATOM      7  C   UNL     1     153.406 161.098 167.916  0.00  0.00    +0.041 C 
ATOM      8  N   UNL     1     152.296 160.485 168.398  0.00  0.00    -0.258 NA
ATOM      9  C   UNL     1     151.543 159.527 167.974  0.00  0.00    +0.052 C 
ATOM     10  C   UNL     1     150.355 159.250 168.921  0.00  0.00    +0.010 C 
ATOM     11  C   UNL     1     148.990 159.342 168.241  0.00  0.00    +0.046 C 
ATOM     12  N   UNL     1     148.794 160.698 167.727  0.00  0.00    -0.276 NA
ATOM     13  C   UNL     1     148.484 160.761 166.483  0.00  0.00    +0.076 C 
ATOM     14  N   UNL     1     148.288 161.912 165.779  0.00  0.00    -0.333 N 
ATOM     15  C   UNL     1     148.737 163.210 166.256  0.00  0.00    +0.033 C 
ATOM     16  C   UNL     1     150.264 163.312 166.298  0.00  0.00    +0.060 C 
ATOM     17  O   UNL     1     150.821 162.873 165.052  0.00  0.00    -0.393 OA
ATOM     18  C   UNL     1     151.641 158.663 166.754  0.00  0.00    +0.015 C 
ATOM     19  C   UNL     1     151.509 157.322 166.885  0.00  0.00    -0.070 C 
ATOM     20  C   UNL     1     151.549 156.152 165.924  0.00  0.00    -0.014 C 
ATOM     21  C   UNL     1     151.325 156.431 164.472  0.00  0.00    -0.066 C 
ATOM     22  C   UNL     1     150.439 155.881 163.629  0.00  0.00    -0.010 C 
ATOM     23  N   UNL     1     149.540 154.851 163.721  0.00  0.00    -0.327 N 
ATOM     24  C   UNL     1     149.603 153.678 164.433  0.00  0.00    -0.007 C 
ATOM     25  C   UNL     1     148.828 152.582 164.320  0.00  0.00    -0.048 C 
ATOM     26  C   UNL     1     147.708 152.434 163.420  0.00  0.00    -0.065 C 
ATOM     27  C   UNL     1     146.991 151.322 163.193  0.00  0.00    -0.084 C 
ATOM     28  C   UNL     1     147.161 149.945 163.771  0.00  0.00    -0.034 C 
ATOM     29  C   UNL     1     145.956 149.579 164.644  0.00  0.00    -0.048 C 
ATOM     30  C   UNL     1     145.949 148.089 165.011  0.00  0.00    -0.040 C 
ATOM     31  C   UNL     1     144.820 147.779 166.002  0.00  0.00    -0.004 C 
ATOM     32  N   UNL     1     144.745 146.367 166.366  0.00  0.00    -0.311 N 
ATOM     33  C   UNL     1     143.976 145.576 165.400  0.00  0.00    +0.031 C 
ATOM     34  C   UNL     1     143.842 144.183 165.986  0.00  0.00    +0.015 C 
ATOM     35  N   UNL     1     144.506 143.193 165.501  0.00  0.00    -0.279 NA
ATOM     36  C   UNL     1     144.277 141.949 166.227  0.00  0.00    +0.113 C 
ATOM     37 CL   UNL     1     145.461 140.751 165.667  0.00  0.00    -0.100 Cl
ATOM     38  H   UNL     1     154.162 161.271 164.730  0.00  0.00    +0.000 HD
ATOM     39  H   UNL     1     147.825 161.861 164.912  0.00  0.00    +0.000 HD
ATOM     40  H   UNL     1     150.570 161.949 164.893  0.00  0.00    +0.000 HD
ATOM     41  H   UNL     1     148.718 154.971 163.192  0.00  0.00    +0.000 HD
ATOM     42  H   UNL     1     144.299 146.289 167.281  0.00  0.00    +0.000 HD
ATOM     43  H   UNL     1     145.696 146.000 166.380  0.00  0.00    +0.000 HD
ENDROOT
TORSDOF 0
ENDMDL
