MODEL 1
REMARK VINA RESULT:    -2.364      0.000      0.000
REMARK INTER + INTRA:          -2.364
REMARK INTER:                  -2.364
REMARK INTRA:                   0.000
REMARK UNBOUND:                 0.000
REMARK  Name = /home/vital/Documents/PhD_2021/Malaria_codes/scripts/../data/pdbqt_ligands/ligand_249_temp.pdb
REMARK                            x       y       z     vdW  Elec       q    Type
REMARK                         _______ _______ _______ _____ _____    ______ ____
ROOT
ATOM      1  C   UNL     1     151.549 157.877 160.799  0.00  0.00    -0.031 C 
ATOM      2  C   UNL     1     150.424 158.017 161.807  0.00  0.00    +0.090 C 
ATOM      3  O   UNL     1     150.926 157.830 163.138  0.00  0.00    -0.462 OA
ATOM      4  C   UNL     1     151.418 158.941 163.744  0.00  0.00    +0.337 C 
ATOM      5  O   UNL     1     151.472 160.056 163.249  0.00  0.00    -0.245 OA
ATOM      6  C   UNL     1     151.881 158.639 165.117  0.00  0.00    +0.062 C 
ATOM      7  C   UNL     1     152.183 157.388 165.514  0.00  0.00    +0.007 C 
ATOM      8  N   UNL     1     152.704 157.082 166.770  0.00  0.00    -0.309 N 
ATOM      9  C   UNL     1     152.971 155.683 167.159  0.00  0.00    +0.040 C 
ATOM     10  C   UNL     1     151.751 155.064 167.852  0.00  0.00    +0.063 C 
ATOM     11  O   UNL     1     152.012 153.731 168.297  0.00  0.00    -0.381 OA
ATOM     12  C   UNL     1     151.837 152.759 167.274  0.00  0.00    +0.037 C 
ATOM     13  C   UNL     1     153.018 158.132 167.632  0.00  0.00    +0.007 C 
ATOM     14  C   UNL     1     152.762 159.424 167.353  0.00  0.00    +0.062 C 
ATOM     15  C   UNL     1     153.192 160.524 168.247  0.00  0.00    +0.337 C 
ATOM     16  O   UNL     1     153.292 161.685 167.878  0.00  0.00    -0.245 OA
ATOM     17  O   UNL     1     153.436 160.068 169.502  0.00  0.00    -0.462 OA
ATOM     18  C   UNL     1     153.836 161.059 170.459  0.00  0.00    +0.090 C 
ATOM     19  C   UNL     1     155.340 161.259 170.407  0.00  0.00    -0.031 C 
ATOM     20  C   UNL     1     152.058 159.822 166.062  0.00  0.00    +0.050 C 
ATOM     21  C   UNL     1     150.703 160.482 166.363  0.00  0.00    -0.035 A 
ATOM     22  C   UNL     1     149.679 159.778 167.023  0.00  0.00    -0.056 A 
ATOM     23  C   UNL     1     148.452 160.391 167.288  0.00  0.00    -0.031 A 
ATOM     24  C   UNL     1     148.243 161.718 166.893  0.00  0.00    +0.126 A 
ATOM     25  N   UNL     1     146.954 162.364 167.171  0.00  0.00    +0.056 N 
ATOM     26  O   UNL     1     146.807 163.541 166.812  0.00  0.00    -0.126 OA
ATOM     27  O   UNL     1     146.085 161.695 167.748  0.00  0.00    -0.126 OA
ATOM     28  C   UNL     1     149.250 162.433 166.236  0.00  0.00    -0.031 A 
ATOM     29  C   UNL     1     150.474 161.812 165.974  0.00  0.00    -0.056 A 
ENDROOT
TORSDOF 0
ENDMDL
MODEL 2
REMARK VINA RESULT:    -2.362      4.053      8.348
REMARK INTER + INTRA:          -2.362
REMARK INTER:                  -2.362
REMARK INTRA:                   0.000
REMARK UNBOUND:                 0.000
REMARK  Name = /home/vital/Documents/PhD_2021/Malaria_codes/scripts/../data/pdbqt_ligands/ligand_249_temp.pdb
REMARK                            x       y       z     vdW  Elec       q    Type
REMARK                         _______ _______ _______ _____ _____    ______ ____
ROOT
ATOM      1  C   UNL     1     151.918 159.770 165.965  0.00  0.00    -0.031 C 
ATOM      2  C   UNL     1     152.604 158.834 164.988  0.00  0.00    +0.090 C 
ATOM      3  O   UNL     1     152.263 157.472 165.285  0.00  0.00    -0.462 OA
ATOM      4  C   UNL     1     151.122 157.012 164.709  0.00  0.00    +0.337 C 
ATOM      5  O   UNL     1     150.380 157.656 163.984  0.00  0.00    -0.245 OA
ATOM      6  C   UNL     1     150.882 155.593 165.061  0.00  0.00    +0.062 C 
ATOM      7  C   UNL     1     151.453 155.014 166.134  0.00  0.00    +0.007 C 
ATOM      8  N   UNL     1     151.180 153.710 166.542  0.00  0.00    -0.309 N 
ATOM      9  C   UNL     1     151.875 153.118 167.702  0.00  0.00    +0.040 C 
ATOM     10  C   UNL     1     153.151 152.389 167.265  0.00  0.00    +0.063 C 
ATOM     11  O   UNL     1     153.804 151.751 168.365  0.00  0.00    -0.381 OA
ATOM     12  C   UNL     1     154.641 152.633 169.101  0.00  0.00    +0.037 C 
ATOM     13  C   UNL     1     150.197 152.993 165.860  0.00  0.00    +0.007 C 
ATOM     14  C   UNL     1     149.557 153.460 164.772  0.00  0.00    +0.062 C 
ATOM     15  C   UNL     1     148.452 152.715 164.125  0.00  0.00    +0.337 C 
ATOM     16  O   UNL     1     147.637 153.240 163.381  0.00  0.00    -0.245 OA
ATOM     17  O   UNL     1     148.486 151.400 164.462  0.00  0.00    -0.462 OA
ATOM     18  C   UNL     1     147.470 150.578 163.869  0.00  0.00    +0.090 C 
ATOM     19  C   UNL     1     146.214 150.603 164.720  0.00  0.00    -0.031 C 
ATOM     20  C   UNL     1     149.909 154.820 164.180  0.00  0.00    +0.050 C 
ATOM     21  C   UNL     1     150.471 154.664 162.758  0.00  0.00    -0.035 A 
ATOM     22  C   UNL     1     151.659 153.949 162.516  0.00  0.00    -0.056 A 
ATOM     23  C   UNL     1     152.158 153.817 161.219  0.00  0.00    -0.031 A 
ATOM     24  C   UNL     1     151.468 154.403 160.150  0.00  0.00    +0.126 A 
ATOM     25  N   UNL     1     151.992 154.266 158.785  0.00  0.00    +0.056 N 
ATOM     26  O   UNL     1     151.351 154.792 157.864  0.00  0.00    -0.126 OA
ATOM     27  O   UNL     1     153.046 153.632 158.632  0.00  0.00    -0.126 OA
ATOM     28  C   UNL     1     150.286 155.117 160.372  0.00  0.00    -0.031 A 
ATOM     29  C   UNL     1     149.793 155.244 161.673  0.00  0.00    -0.056 A 
ENDROOT
TORSDOF 0
ENDMDL
MODEL 3
REMARK VINA RESULT:    -1.571      2.905      4.932
REMARK INTER + INTRA:          -1.571
REMARK INTER:                  -1.571
REMARK INTRA:                   0.000
REMARK UNBOUND:                 0.000
REMARK  Name = /home/vital/Documents/PhD_2021/Malaria_codes/scripts/../data/pdbqt_ligands/ligand_249_temp.pdb
REMARK                            x       y       z     vdW  Elec       q    Type
REMARK                         _______ _______ _______ _____ _____    ______ ____
ROOT
ATOM      1  C   UNL     1     152.239 159.112 160.346  0.00  0.00    -0.031 C 
ATOM      2  C   UNL     1     151.317 159.442 161.504  0.00  0.00    +0.090 C 
ATOM      3  O   UNL     1     151.011 158.253 162.248  0.00  0.00    -0.462 OA
ATOM      4  C   UNL     1     151.894 157.927 163.226  0.00  0.00    +0.337 C 
ATOM      5  O   UNL     1     152.908 158.548 163.507  0.00  0.00    -0.245 OA
ATOM      6  C   UNL     1     151.469 156.703 163.943  0.00  0.00    +0.062 C 
ATOM      7  C   UNL     1     150.604 155.822 163.407  0.00  0.00    +0.007 C 
ATOM      8  N   UNL     1     150.251 154.620 164.017  0.00  0.00    -0.309 N 
ATOM      9  C   UNL     1     149.260 153.718 163.397  0.00  0.00    +0.040 C 
ATOM     10  C   UNL     1     147.844 154.033 163.894  0.00  0.00    +0.063 C 
ATOM     11  O   UNL     1     146.877 153.127 163.356  0.00  0.00    -0.381 OA
ATOM     12  C   UNL     1     146.430 153.497 162.058  0.00  0.00    +0.037 C 
ATOM     13  C   UNL     1     150.893 154.263 165.202  0.00  0.00    +0.007 C 
ATOM     14  C   UNL     1     151.774 155.058 165.838  0.00  0.00    +0.062 C 
ATOM     15  C   UNL     1     152.511 154.613 167.044  0.00  0.00    +0.337 C 
ATOM     16  O   UNL     1     153.540 155.146 167.432  0.00  0.00    -0.245 OA
ATOM     17  O   UNL     1     151.885 153.568 167.642  0.00  0.00    -0.462 OA
ATOM     18  C   UNL     1     152.503 153.072 168.838  0.00  0.00    +0.090 C 
ATOM     19  C   UNL     1     153.560 152.039 168.491  0.00  0.00    -0.031 C 
ATOM     20  C   UNL     1     152.098 156.449 165.308  0.00  0.00    +0.050 C 
ATOM     21  C   UNL     1     151.664 157.528 166.313  0.00  0.00    -0.035 A 
ATOM     22  C   UNL     1     150.315 157.686 166.679  0.00  0.00    -0.056 A 
ATOM     23  C   UNL     1     149.936 158.671 167.593  0.00  0.00    -0.031 A 
ATOM     24  C   UNL     1     150.911 159.509 168.150  0.00  0.00    +0.126 A 
ATOM     25  N   UNL     1     150.515 160.546 169.111  0.00  0.00    +0.056 N 
ATOM     26  O   UNL     1     151.405 161.264 169.587  0.00  0.00    -0.126 OA
ATOM     27  O   UNL     1     149.311 160.644 169.390  0.00  0.00    -0.126 OA
ATOM     28  C   UNL     1     152.257 159.366 167.798  0.00  0.00    -0.031 A 
ATOM     29  C   UNL     1     152.628 158.378 166.883  0.00  0.00    -0.056 A 
ENDROOT
TORSDOF 0
ENDMDL
MODEL 4
REMARK VINA RESULT:    -0.727      1.534      7.445
REMARK INTER + INTRA:          -0.727
REMARK INTER:                  -0.727
REMARK INTRA:                   0.000
REMARK UNBOUND:                 0.000
REMARK  Name = /home/vital/Documents/PhD_2021/Malaria_codes/scripts/../data/pdbqt_ligands/ligand_249_temp.pdb
REMARK                            x       y       z     vdW  Elec       q    Type
REMARK                         _______ _______ _______ _____ _____    ______ ____
ROOT
ATOM      1  C   UNL     1     154.471 161.707 170.863  0.00  0.00    -0.031 C 
ATOM      2  C   UNL     1     153.478 160.561 170.809  0.00  0.00    +0.090 C 
ATOM      3  O   UNL     1     152.675 160.658 169.624  0.00  0.00    -0.462 OA
ATOM      4  C   UNL     1     153.193 160.077 168.512  0.00  0.00    +0.337 C 
ATOM      5  O   UNL     1     154.268 159.500 168.445  0.00  0.00    -0.245 OA
ATOM      6  C   UNL     1     152.272 160.213 167.360  0.00  0.00    +0.062 C 
ATOM      7  C   UNL     1     151.308 161.151 167.321  0.00  0.00    +0.007 C 
ATOM      8  N   UNL     1     150.483 161.363 166.217  0.00  0.00    -0.309 N 
ATOM      9  C   UNL     1     149.413 162.379 166.255  0.00  0.00    +0.040 C 
ATOM     10  C   UNL     1     148.092 161.768 166.739  0.00  0.00    +0.063 C 
ATOM     11  O   UNL     1     147.026 162.720 166.720  0.00  0.00    -0.381 OA
ATOM     12  C   UNL     1     146.993 163.541 167.880  0.00  0.00    +0.037 C 
ATOM     13  C   UNL     1     150.726 160.628 165.057  0.00  0.00    +0.007 C 
ATOM     14  C   UNL     1     151.658 159.661 164.971  0.00  0.00    +0.062 C 
ATOM     15  C   UNL     1     151.957 158.964 163.699  0.00  0.00    +0.337 C 
ATOM     16  O   UNL     1     152.996 158.353 163.499  0.00  0.00    -0.245 OA
ATOM     17  O   UNL     1     150.930 159.087 162.820  0.00  0.00    -0.462 OA
ATOM     18  C   UNL     1     151.104 158.426 161.559  0.00  0.00    +0.090 C 
ATOM     19  C   UNL     1     151.838 159.333 160.589  0.00  0.00    -0.031 C 
ATOM     20  C   UNL     1     152.497 159.272 166.182  0.00  0.00    +0.050 C 
ATOM     21  C   UNL     1     152.220 157.817 166.591  0.00  0.00    -0.035 A 
ATOM     22  C   UNL     1     150.940 157.406 167.006  0.00  0.00    -0.056 A 
ATOM     23  C   UNL     1     150.704 156.080 167.375  0.00  0.00    -0.031 A 
ATOM     24  C   UNL     1     151.753 155.153 167.330  0.00  0.00    +0.126 A 
ATOM     25  N   UNL     1     151.507 153.758 167.718  0.00  0.00    +0.056 N 
ATOM     26  O   UNL     1     152.458 152.965 167.660  0.00  0.00    -0.126 OA
ATOM     27  O   UNL     1     150.362 153.454 168.083  0.00  0.00    -0.126 OA
ATOM     28  C   UNL     1     153.032 155.544 166.919  0.00  0.00    -0.031 A 
ATOM     29  C   UNL     1     153.260 156.872 166.552  0.00  0.00    -0.056 A 
ENDROOT
TORSDOF 0
ENDMDL
MODEL 5
REMARK VINA RESULT:    -0.220      2.412      6.273
REMARK INTER + INTRA:          -0.220
REMARK INTER:                  -0.220
REMARK INTRA:                   0.000
REMARK UNBOUND:                 0.000
REMARK  Name = /home/vital/Documents/PhD_2021/Malaria_codes/scripts/../data/pdbqt_ligands/ligand_249_temp.pdb
REMARK                            x       y       z     vdW  Elec       q    Type
REMARK                         _______ _______ _______ _____ _____    ______ ____
ROOT
ATOM      1  C   UNL     1     146.973 163.405 167.879  0.00  0.00    -0.031 C 
ATOM      2  C   UNL     1     148.172 163.542 166.960  0.00  0.00    +0.090 C 
ATOM      3  O   UNL     1     149.249 162.716 167.427  0.00  0.00    -0.462 OA
ATOM      4  C   UNL     1     149.237 161.430 166.990  0.00  0.00    +0.337 C 
ATOM      5  O   UNL     1     148.395 160.935 166.256  0.00  0.00    -0.245 OA
ATOM      6  C   UNL     1     150.403 160.680 167.508  0.00  0.00    +0.062 C 
ATOM      7  C   UNL     1     151.091 161.084 168.593  0.00  0.00    +0.007 C 
ATOM      8  N   UNL     1     152.137 160.355 169.158  0.00  0.00    -0.309 N 
ATOM      9  C   UNL     1     152.882 160.876 170.320  0.00  0.00    +0.040 C 
ATOM     10  C   UNL     1     154.100 161.692 169.872  0.00  0.00    +0.063 C 
ATOM     11  O   UNL     1     154.873 162.151 170.983  0.00  0.00    -0.381 OA
ATOM     12  C   UNL     1     154.366 163.349 171.557  0.00  0.00    +0.037 C 
ATOM     13  C   UNL     1     152.429 159.097 168.631  0.00  0.00    +0.007 C 
ATOM     14  C   UNL     1     151.815 158.583 167.549  0.00  0.00    +0.062 C 
ATOM     15  C   UNL     1     152.081 157.207 167.070  0.00  0.00    +0.337 C 
ATOM     16  O   UNL     1     151.320 156.596 166.335  0.00  0.00    -0.245 OA
ATOM     17  O   UNL     1     153.267 156.745 167.543  0.00  0.00    -0.462 OA
ATOM     18  C   UNL     1     153.636 155.425 167.118  0.00  0.00    +0.090 C 
ATOM     19  C   UNL     1     153.038 154.389 168.052  0.00  0.00    -0.031 C 
ATOM     20  C   UNL     1     150.765 159.385 166.790  0.00  0.00    +0.050 C 
ATOM     21  C   UNL     1     151.235 159.675 165.356  0.00  0.00    -0.035 A 
ATOM     22  C   UNL     1     152.391 160.438 165.106  0.00  0.00    -0.056 A 
ATOM     23  C   UNL     1     152.804 160.695 163.796  0.00  0.00    -0.031 A 
ATOM     24  C   UNL     1     152.061 160.185 162.725  0.00  0.00    +0.126 A 
ATOM     25  N   UNL     1     152.494 160.453 161.348  0.00  0.00    +0.056 N 
ATOM     26  O   UNL     1     151.814 159.981 160.425  0.00  0.00    -0.126 OA
ATOM     27  O   UNL     1     153.514 161.138 161.186  0.00  0.00    -0.126 OA
ATOM     28  C   UNL     1     150.910 159.424 162.955  0.00  0.00    -0.031 A 
ATOM     29  C   UNL     1     150.502 159.172 164.267  0.00  0.00    -0.056 A 
ENDROOT
TORSDOF 0
ENDMDL
MODEL 6
REMARK VINA RESULT:     0.279      3.794      8.607
REMARK INTER + INTRA:           0.279
REMARK INTER:                   0.279
REMARK INTRA:                   0.000
REMARK UNBOUND:                 0.000
REMARK  Name = /home/vital/Documents/PhD_2021/Malaria_codes/scripts/../data/pdbqt_ligands/ligand_249_temp.pdb
REMARK                            x       y       z     vdW  Elec       q    Type
REMARK                         _______ _______ _______ _____ _____    ______ ____
ROOT
ATOM      1  C   UNL     1     154.488 152.404 169.163  0.00  0.00    -0.031 C 
ATOM      2  C   UNL     1     152.973 152.332 169.166  0.00  0.00    +0.090 C 
ATOM      3  O   UNL     1     152.427 153.372 168.341  0.00  0.00    -0.462 OA
ATOM      4  C   UNL     1     152.299 153.072 167.023  0.00  0.00    +0.337 C 
ATOM      5  O   UNL     1     152.615 152.014 166.499  0.00  0.00    -0.245 OA
ATOM      6  C   UNL     1     151.704 154.202 166.274  0.00  0.00    +0.062 C 
ATOM      7  C   UNL     1     151.721 155.463 166.745  0.00  0.00    +0.007 C 
ATOM      8  N   UNL     1     151.249 156.560 166.027  0.00  0.00    -0.309 N 
ATOM      9  C   UNL     1     151.254 157.912 166.619  0.00  0.00    +0.040 C 
ATOM     10  C   UNL     1     149.932 158.201 167.340  0.00  0.00    +0.063 C 
ATOM     11  O   UNL     1     149.890 159.531 167.864  0.00  0.00    -0.381 OA
ATOM     12  C   UNL     1     150.527 159.650 169.130  0.00  0.00    +0.037 C 
ATOM     13  C   UNL     1     150.819 156.360 164.716  0.00  0.00    +0.007 C 
ATOM     14  C   UNL     1     150.751 155.149 164.132  0.00  0.00    +0.062 C 
ATOM     15  C   UNL     1     150.380 154.978 162.709  0.00  0.00    +0.337 C 
ATOM     16  O   UNL     1     150.639 153.971 162.066  0.00  0.00    -0.245 OA
ATOM     17  O   UNL     1     149.717 156.067 162.242  0.00  0.00    -0.462 OA
ATOM     18  C   UNL     1     149.288 155.997 160.874  0.00  0.00    +0.090 C 
ATOM     19  C   UNL     1     150.396 156.471 159.953  0.00  0.00    -0.031 C 
ATOM     20  C   UNL     1     151.111 153.886 164.906  0.00  0.00    +0.050 C 
ATOM     21  C   UNL     1     149.887 152.967 165.045  0.00  0.00    -0.035 A 
ATOM     22  C   UNL     1     148.734 153.386 165.733  0.00  0.00    -0.056 A 
ATOM     23  C   UNL     1     147.630 152.538 165.852  0.00  0.00    -0.031 A 
ATOM     24  C   UNL     1     147.674 151.261 165.280  0.00  0.00    +0.126 A 
ATOM     25  N   UNL     1     146.515 150.369 165.404  0.00  0.00    +0.056 N 
ATOM     26  O   UNL     1     146.588 149.249 164.880  0.00  0.00    -0.126 OA
ATOM     27  O   UNL     1     145.529 150.787 166.028  0.00  0.00    -0.126 OA
ATOM     28  C   UNL     1     148.812 150.829 164.591  0.00  0.00    -0.031 A 
ATOM     29  C   UNL     1     149.913 151.682 164.477  0.00  0.00    -0.056 A 
ENDROOT
TORSDOF 0
ENDMDL
