MODEL 1
REMARK VINA RESULT:    -7.565      0.000      0.000
REMARK INTER + INTRA:          -7.565
REMARK INTER:                  -7.565
REMARK INTRA:                   0.000
REMARK UNBOUND:                 0.000
REMARK  Name = /home/vital/Documents/PhD_2021/Malaria_codes/scripts/../data/pdbqt_ligands/ligand_286_temp.pdb
REMARK                            x       y       z     vdW  Elec       q    Type
REMARK                         _______ _______ _______ _____ _____    ______ ____
ROOT
ATOM      1  C   UNL     1     150.497 153.734 164.576  0.00  0.00    -0.104 C 
ATOM      2  N   UNL     1     150.188 153.567 163.116  0.00  0.00    +0.376 N 
ATOM      3  C   UNL     1     148.707 153.480 162.855  0.00  0.00    -0.104 C 
ATOM      4  C   UNL     1     150.912 154.544 162.211  0.00  0.00    -0.090 C 
ATOM      5  C   UNL     1     150.508 155.995 162.457  0.00  0.00    -0.055 C 
ATOM      6  C   UNL     1     151.206 156.914 161.452  0.00  0.00    -0.005 C 
ATOM      7  N   UNL     1     150.709 158.277 161.628  0.00  0.00    -0.309 N 
ATOM      8  C   UNL     1     151.215 159.189 160.587  0.00  0.00    +0.055 C 
ATOM      9  C   UNL     1     150.638 158.888 159.250  0.00  0.00    +0.119 A 
ATOM     10  C   UNL     1     149.407 159.119 158.675  0.00  0.00    -0.019 A 
ATOM     11  C   UNL     1     149.462 158.557 157.375  0.00  0.00    -0.016 A 
ATOM     12  C   UNL     1     150.724 158.017 157.232  0.00  0.00    +0.137 A 
ATOM     13  C   UNL     1     151.420 157.304 156.169  0.00  0.00    +0.036 A 
ATOM     14  C   UNL     1     152.708 157.737 155.804  0.00  0.00    -0.048 A 
ATOM     15  C   UNL     1     153.416 157.102 154.779  0.00  0.00    -0.043 A 
ATOM     16  C   UNL     1     152.845 156.024 154.111  0.00  0.00    +0.042 A 
ATOM     17 CL   UNL     1     153.717 155.236 152.856  0.00  0.00    -0.083 Cl
ATOM     18  C   UNL     1     151.574 155.572 154.459  0.00  0.00    -0.024 A 
ATOM     19  C   UNL     1     150.865 156.208 155.485  0.00  0.00    +0.053 A 
ATOM     20 CL   UNL     1     149.319 155.545 155.896  0.00  0.00    -0.083 Cl
ATOM     21  O   UNL     1     151.447 158.226 158.371  0.00  0.00    -0.458 OA
ATOM     22  H   UNL     1     150.577 152.662 162.853  0.00  0.00    +0.000 HD
ATOM     23  H   UNL     1     151.010 158.621 162.540  0.00  0.00    +0.000 HD
ATOM     24  H   UNL     1     149.693 158.253 161.559  0.00  0.00    +0.000 HD
ENDROOT
TORSDOF 0
ENDMDL
MODEL 2
REMARK VINA RESULT:    -7.558     10.986     14.093
REMARK INTER + INTRA:          -7.558
REMARK INTER:                  -7.558
REMARK INTRA:                   0.000
REMARK UNBOUND:                 0.000
REMARK  Name = /home/vital/Documents/PhD_2021/Malaria_codes/scripts/../data/pdbqt_ligands/ligand_286_temp.pdb
REMARK                            x       y       z     vdW  Elec       q    Type
REMARK                         _______ _______ _______ _____ _____    ______ ____
ROOT
ATOM      1  C   UNL     1     145.132 140.785 165.488  0.00  0.00    -0.104 C 
ATOM      2  N   UNL     1     145.418 142.060 164.748  0.00  0.00    +0.376 N 
ATOM      3  C   UNL     1     144.577 142.197 163.507  0.00  0.00    -0.104 C 
ATOM      4  C   UNL     1     145.427 143.298 165.622  0.00  0.00    -0.090 C 
ATOM      5  C   UNL     1     144.067 143.594 166.248  0.00  0.00    -0.055 C 
ATOM      6  C   UNL     1     144.125 144.903 167.040  0.00  0.00    -0.005 C 
ATOM      7  N   UNL     1     142.785 145.225 167.525  0.00  0.00    -0.309 N 
ATOM      8  C   UNL     1     142.731 146.555 168.157  0.00  0.00    +0.055 C 
ATOM      9  C   UNL     1     142.907 147.653 167.169  0.00  0.00    +0.119 A 
ATOM     10  C   UNL     1     142.082 148.213 166.218  0.00  0.00    -0.019 A 
ATOM     11  C   UNL     1     142.847 149.208 165.562  0.00  0.00    -0.016 A 
ATOM     12  C   UNL     1     144.095 149.200 166.152  0.00  0.00    +0.137 A 
ATOM     13  C   UNL     1     145.327 149.951 165.957  0.00  0.00    +0.036 A 
ATOM     14  C   UNL     1     145.956 150.513 167.082  0.00  0.00    -0.048 A 
ATOM     15  C   UNL     1     147.131 151.258 166.953  0.00  0.00    -0.043 A 
ATOM     16  C   UNL     1     147.693 151.446 165.694  0.00  0.00    +0.042 A 
ATOM     17 CL   UNL     1     149.144 152.355 165.533  0.00  0.00    -0.083 Cl
ATOM     18  C   UNL     1     147.094 150.893 164.565  0.00  0.00    -0.024 A 
ATOM     19  C   UNL     1     145.917 150.148 164.696  0.00  0.00    +0.053 A 
ATOM     20 CL   UNL     1     145.272 149.444 163.250  0.00  0.00    -0.083 Cl
ATOM     21  O   UNL     1     144.131 148.258 167.141  0.00  0.00    -0.458 OA
ATOM     22  H   UNL     1     146.384 141.983 164.429  0.00  0.00    +0.000 HD
ATOM     23  H   UNL     1     142.506 144.524 168.211  0.00  0.00    +0.000 HD
ATOM     24  H   UNL     1     142.153 145.231 166.725  0.00  0.00    +0.000 HD
ENDROOT
TORSDOF 0
ENDMDL
MODEL 3
REMARK VINA RESULT:    -7.478      3.739      5.043
REMARK INTER + INTRA:          -7.478
REMARK INTER:                  -7.478
REMARK INTRA:                   0.000
REMARK UNBOUND:                 0.000
REMARK  Name = /home/vital/Documents/PhD_2021/Malaria_codes/scripts/../data/pdbqt_ligands/ligand_286_temp.pdb
REMARK                            x       y       z     vdW  Elec       q    Type
REMARK                         _______ _______ _______ _____ _____    ______ ____
ROOT
ATOM      1  C   UNL     1     152.877 155.322 167.817  0.00  0.00    -0.104 C 
ATOM      2  N   UNL     1     152.056 155.472 166.569  0.00  0.00    +0.376 N 
ATOM      3  C   UNL     1     150.583 155.569 166.866  0.00  0.00    -0.104 C 
ATOM      4  C   UNL     1     152.560 156.539 165.617  0.00  0.00    -0.090 C 
ATOM      5  C   UNL     1     152.496 157.943 166.210  0.00  0.00    -0.055 C 
ATOM      6  C   UNL     1     152.931 158.976 165.167  0.00  0.00    -0.005 C 
ATOM      7  N   UNL     1     152.744 160.317 165.718  0.00  0.00    -0.309 N 
ATOM      8  C   UNL     1     152.988 161.366 164.712  0.00  0.00    +0.055 C 
ATOM      9  C   UNL     1     151.942 161.385 163.656  0.00  0.00    +0.119 A 
ATOM     10  C   UNL     1     150.639 161.832 163.620  0.00  0.00    -0.019 A 
ATOM     11  C   UNL     1     150.150 161.533 162.325  0.00  0.00    -0.016 A 
ATOM     12  C   UNL     1     151.183 160.921 161.644  0.00  0.00    +0.137 A 
ATOM     13  C   UNL     1     151.345 160.372 160.305  0.00  0.00    +0.036 A 
ATOM     14  C   UNL     1     152.475 160.751 159.557  0.00  0.00    -0.048 A 
ATOM     15  C   UNL     1     152.674 160.268 158.260  0.00  0.00    -0.043 A 
ATOM     16  C   UNL     1     151.747 159.397 157.699  0.00  0.00    +0.042 A 
ATOM     17 CL   UNL     1     151.993 158.796 156.107  0.00  0.00    -0.083 Cl
ATOM     18  C   UNL     1     150.624 159.001 158.422  0.00  0.00    -0.024 A 
ATOM     19  C   UNL     1     150.425 159.484 159.720  0.00  0.00    +0.053 A 
ATOM     20 CL   UNL     1     149.036 158.894 160.571  0.00  0.00    -0.083 Cl
ATOM     21  O   UNL     1     152.282 160.838 162.451  0.00  0.00    -0.458 OA
ATOM     22  H   UNL     1     152.184 154.604 166.048  0.00  0.00    +0.000 HD
ATOM     23  H   UNL     1     153.393 160.447 166.493  0.00  0.00    +0.000 HD
ATOM     24  H   UNL     1     151.777 160.397 166.028  0.00  0.00    +0.000 HD
ENDROOT
TORSDOF 0
ENDMDL
MODEL 4
REMARK VINA RESULT:    -6.682      6.802      9.313
REMARK INTER + INTRA:          -6.682
REMARK INTER:                  -6.682
REMARK INTRA:                   0.000
REMARK UNBOUND:                 0.000
REMARK  Name = /home/vital/Documents/PhD_2021/Malaria_codes/scripts/../data/pdbqt_ligands/ligand_286_temp.pdb
REMARK                            x       y       z     vdW  Elec       q    Type
REMARK                         _______ _______ _______ _____ _____    ______ ____
ROOT
ATOM      1  C   UNL     1     149.112 151.733 164.878  0.00  0.00    -0.104 C 
ATOM      2  N   UNL     1     149.247 152.866 165.854  0.00  0.00    +0.376 N 
ATOM      3  C   UNL     1     150.361 152.638 166.840  0.00  0.00    -0.104 C 
ATOM      4  C   UNL     1     149.269 154.240 165.213  0.00  0.00    -0.090 C 
ATOM      5  C   UNL     1     150.478 154.455 164.308  0.00  0.00    -0.055 C 
ATOM      6  C   UNL     1     150.486 155.888 163.769  0.00  0.00    -0.005 C 
ATOM      7  N   UNL     1     151.714 156.104 163.008  0.00  0.00    -0.309 N 
ATOM      8  C   UNL     1     151.869 157.511 162.596  0.00  0.00    +0.055 C 
ATOM      9  C   UNL     1     152.133 158.408 163.752  0.00  0.00    +0.119 A 
ATOM     10  C   UNL     1     153.244 158.648 164.531  0.00  0.00    -0.019 A 
ATOM     11  C   UNL     1     152.850 159.595 165.508  0.00  0.00    -0.016 A 
ATOM     12  C   UNL     1     151.520 159.880 165.267  0.00  0.00    +0.137 A 
ATOM     13  C   UNL     1     150.529 160.747 165.889  0.00  0.00    +0.036 A 
ATOM     14  C   UNL     1     149.775 161.602 165.065  0.00  0.00    -0.048 A 
ATOM     15  C   UNL     1     148.820 162.467 165.609  0.00  0.00    -0.043 A 
ATOM     16  C   UNL     1     148.608 162.484 166.983  0.00  0.00    +0.042 A 
ATOM     17 CL   UNL     1     147.430 163.542 167.653  0.00  0.00    -0.083 Cl
ATOM     18  C   UNL     1     149.337 161.642 167.819  0.00  0.00    -0.024 A 
ATOM     19  C   UNL     1     150.292 160.776 167.275  0.00  0.00    +0.053 A 
ATOM     20 CL   UNL     1     151.109 159.719 168.378  0.00  0.00    -0.083 Cl
ATOM     21  O   UNL     1     151.083 159.164 164.190  0.00  0.00    -0.458 OA
ATOM     22  H   UNL     1     148.383 152.867 166.396  0.00  0.00    +0.000 HD
ATOM     23  H   UNL     1     151.692 155.518 162.174  0.00  0.00    +0.000 HD
ATOM     24  H   UNL     1     152.503 155.864 163.608  0.00  0.00    +0.000 HD
ENDROOT
TORSDOF 0
ENDMDL
MODEL 5
REMARK VINA RESULT:    -6.061      5.544      8.553
REMARK INTER + INTRA:          -6.061
REMARK INTER:                  -6.061
REMARK INTRA:                   0.000
REMARK UNBOUND:                 0.000
REMARK  Name = /home/vital/Documents/PhD_2021/Malaria_codes/scripts/../data/pdbqt_ligands/ligand_286_temp.pdb
REMARK                            x       y       z     vdW  Elec       q    Type
REMARK                         _______ _______ _______ _____ _____    ______ ____
ROOT
ATOM      1  C   UNL     1     150.095 153.590 160.924  0.00  0.00    -0.104 C 
ATOM      2  N   UNL     1     150.780 154.480 161.920  0.00  0.00    +0.376 N 
ATOM      3  C   UNL     1     152.277 154.462 161.764  0.00  0.00    -0.104 C 
ATOM      4  C   UNL     1     150.192 155.874 162.017  0.00  0.00    -0.090 C 
ATOM      5  C   UNL     1     150.338 156.672 160.725  0.00  0.00    -0.055 C 
ATOM      6  C   UNL     1     149.808 158.095 160.921  0.00  0.00    -0.005 C 
ATOM      7  N   UNL     1     150.072 158.873 159.712  0.00  0.00    -0.309 N 
ATOM      8  C   UNL     1     149.736 160.297 159.887  0.00  0.00    +0.055 C 
ATOM      9  C   UNL     1     150.663 160.980 160.827  0.00  0.00    +0.119 A 
ATOM     10  C   UNL     1     151.961 161.431 160.719  0.00  0.00    -0.019 A 
ATOM     11  C   UNL     1     152.305 161.967 161.984  0.00  0.00    -0.016 A 
ATOM     12  C   UNL     1     151.196 161.813 162.792  0.00  0.00    +0.137 A 
ATOM     13  C   UNL     1     150.884 162.138 164.177  0.00  0.00    +0.036 A 
ATOM     14  C   UNL     1     149.687 162.823 164.451  0.00  0.00    -0.048 A 
ATOM     15  C   UNL     1     149.343 163.175 165.760  0.00  0.00    -0.043 A 
ATOM     16  C   UNL     1     150.193 162.843 166.809  0.00  0.00    +0.042 A 
ATOM     17 CL   UNL     1     149.769 163.268 168.420  0.00  0.00    -0.083 Cl
ATOM     18  C   UNL     1     151.381 162.158 166.564  0.00  0.00    -0.024 A 
ATOM     19  C   UNL     1     151.724 161.806 165.254  0.00  0.00    +0.053 A 
ATOM     20 CL   UNL     1     153.187 160.902 165.045  0.00  0.00    -0.083 Cl
ATOM     21  O   UNL     1     150.190 161.220 162.085  0.00  0.00    -0.458 OA
ATOM     22  H   UNL     1     150.585 154.072 162.835  0.00  0.00    +0.000 HD
ATOM     23  H   UNL     1     149.512 158.494 158.949  0.00  0.00    +0.000 HD
ATOM     24  H   UNL     1     151.068 158.807 159.507  0.00  0.00    +0.000 HD
ENDROOT
TORSDOF 0
ENDMDL
MODEL 6
REMARK VINA RESULT:    -5.868      5.895      8.479
REMARK INTER + INTRA:          -5.868
REMARK INTER:                  -5.868
REMARK INTRA:                   0.000
REMARK UNBOUND:                 0.000
REMARK  Name = /home/vital/Documents/PhD_2021/Malaria_codes/scripts/../data/pdbqt_ligands/ligand_286_temp.pdb
REMARK                            x       y       z     vdW  Elec       q    Type
REMARK                         _______ _______ _______ _____ _____    ______ ____
ROOT
ATOM      1  C   UNL     1     147.414 151.324 163.430  0.00  0.00    -0.104 C 
ATOM      2  N   UNL     1     148.003 152.230 164.472  0.00  0.00    +0.376 N 
ATOM      3  C   UNL     1     149.122 151.570 165.233  0.00  0.00    -0.104 C 
ATOM      4  C   UNL     1     148.342 153.620 163.968  0.00  0.00    -0.090 C 
ATOM      5  C   UNL     1     149.430 153.616 162.899  0.00  0.00    -0.055 C 
ATOM      6  C   UNL     1     149.786 155.051 162.504  0.00  0.00    -0.005 C 
ATOM      7  N   UNL     1     150.912 155.024 161.573  0.00  0.00    -0.309 N 
ATOM      8  C   UNL     1     151.415 156.377 161.275  0.00  0.00    +0.055 C 
ATOM      9  C   UNL     1     152.082 156.998 162.450  0.00  0.00    +0.119 A 
ATOM     10  C   UNL     1     153.307 156.813 163.053  0.00  0.00    -0.019 A 
ATOM     11  C   UNL     1     153.341 157.688 164.166  0.00  0.00    -0.016 A 
ATOM     12  C   UNL     1     152.134 158.358 164.178  0.00  0.00    +0.137 A 
ATOM     13  C   UNL     1     151.532 159.370 165.036  0.00  0.00    +0.036 A 
ATOM     14  C   UNL     1     150.959 160.505 164.433  0.00  0.00    -0.048 A 
ATOM     15  C   UNL     1     150.381 161.516 165.206  0.00  0.00    -0.043 A 
ATOM     16  C   UNL     1     150.367 161.400 166.592  0.00  0.00    +0.042 A 
ATOM     17 CL   UNL     1     149.650 162.639 167.546  0.00  0.00    -0.083 Cl
ATOM     18  C   UNL     1     150.921 160.283 167.213  0.00  0.00    -0.024 A 
ATOM     19  C   UNL     1     151.499 159.271 166.438  0.00  0.00    +0.053 A 
ATOM     20 CL   UNL     1     152.110 157.889 167.285  0.00  0.00    -0.083 Cl
ATOM     21  O   UNL     1     151.368 157.946 163.126  0.00  0.00    -0.458 OA
ATOM     22  H   UNL     1     147.257 152.394 165.148  0.00  0.00    +0.000 HD
ATOM     23  H   UNL     1     150.609 154.587 160.703  0.00  0.00    +0.000 HD
ATOM     24  H   UNL     1     151.667 154.496 162.008  0.00  0.00    +0.000 HD
ENDROOT
TORSDOF 0
ENDMDL
MODEL 7
REMARK VINA RESULT:    -5.865      7.413     11.070
REMARK INTER + INTRA:          -5.865
REMARK INTER:                  -5.865
REMARK INTRA:                   0.000
REMARK UNBOUND:                 0.000
REMARK  Name = /home/vital/Documents/PhD_2021/Malaria_codes/scripts/../data/pdbqt_ligands/ligand_286_temp.pdb
REMARK                            x       y       z     vdW  Elec       q    Type
REMARK                         _______ _______ _______ _____ _____    ______ ____
ROOT
ATOM      1  C   UNL     1     151.475 159.788 159.305  0.00  0.00    -0.104 C 
ATOM      2  N   UNL     1     150.977 160.448 160.558  0.00  0.00    +0.376 N 
ATOM      3  C   UNL     1     149.479 160.364 160.688  0.00  0.00    -0.104 C 
ATOM      4  C   UNL     1     151.724 160.044 161.814  0.00  0.00    -0.090 C 
ATOM      5  C   UNL     1     151.566 158.565 162.150  0.00  0.00    -0.055 C 
ATOM      6  C   UNL     1     152.267 158.247 163.474  0.00  0.00    -0.005 C 
ATOM      7  N   UNL     1     151.997 156.857 163.834  0.00  0.00    -0.309 N 
ATOM      8  C   UNL     1     152.504 156.526 165.178  0.00  0.00    +0.055 C 
ATOM      9  C   UNL     1     151.738 157.213 166.251  0.00  0.00    +0.119 A 
ATOM     10  C   UNL     1     150.495 157.007 166.809  0.00  0.00    -0.019 A 
ATOM     11  C   UNL     1     150.316 158.027 167.775  0.00  0.00    -0.016 A 
ATOM     12  C   UNL     1     151.461 158.797 167.752  0.00  0.00    +0.137 A 
ATOM     13  C   UNL     1     151.918 159.978 168.473  0.00  0.00    +0.036 A 
ATOM     14  C   UNL     1     153.203 159.959 169.044  0.00  0.00    -0.048 A 
ATOM     15  C   UNL     1     153.688 161.056 169.761  0.00  0.00    -0.043 A 
ATOM     16  C   UNL     1     152.893 162.187 169.911  0.00  0.00    +0.042 A 
ATOM     17 CL   UNL     1     153.490 163.541 170.786  0.00  0.00    -0.083 Cl
ATOM     18  C   UNL     1     151.620 162.234 169.349  0.00  0.00    -0.024 A 
ATOM     19  C   UNL     1     151.135 161.134 168.631  0.00  0.00    +0.053 A 
ATOM     20 CL   UNL     1     149.567 161.299 167.913  0.00  0.00    -0.083 Cl
ATOM     21  O   UNL     1     152.335 158.296 166.829  0.00  0.00    -0.458 OA
ATOM     22  H   UNL     1     151.197 161.439 160.454  0.00  0.00    +0.000 HD
ATOM     23  H   UNL     1     152.448 156.247 163.153  0.00  0.00    +0.000 HD
ATOM     24  H   UNL     1     150.986 156.724 163.838  0.00  0.00    +0.000 HD
ENDROOT
TORSDOF 0
ENDMDL
MODEL 8
REMARK VINA RESULT:    -5.263     11.726     16.342
REMARK INTER + INTRA:          -5.263
REMARK INTER:                  -5.263
REMARK INTRA:                   0.000
REMARK UNBOUND:                 0.000
REMARK  Name = /home/vital/Documents/PhD_2021/Malaria_codes/scripts/../data/pdbqt_ligands/ligand_286_temp.pdb
REMARK                            x       y       z     vdW  Elec       q    Type
REMARK                         _______ _______ _______ _____ _____    ______ ____
ROOT
ATOM      1  C   UNL     1     146.545 150.664 162.156  0.00  0.00    -0.104 C 
ATOM      2  N   UNL     1     146.627 149.307 162.795  0.00  0.00    +0.376 N 
ATOM      3  C   UNL     1     147.482 149.314 164.035  0.00  0.00    -0.104 C 
ATOM      4  C   UNL     1     145.287 148.624 162.979  0.00  0.00    -0.090 C 
ATOM      5  C   UNL     1     144.365 149.371 163.938  0.00  0.00    -0.055 C 
ATOM      6  C   UNL     1     143.071 148.580 164.149  0.00  0.00    -0.005 C 
ATOM      7  N   UNL     1     142.261 149.253 165.163  0.00  0.00    -0.309 N 
ATOM      8  C   UNL     1     141.075 148.463 165.536  0.00  0.00    +0.055 C 
ATOM      9  C   UNL     1     141.435 147.230 166.285  0.00  0.00    +0.119 A 
ATOM     10  C   UNL     1     141.843 146.993 167.581  0.00  0.00    -0.019 A 
ATOM     11  C   UNL     1     142.070 145.599 167.679  0.00  0.00    -0.016 A 
ATOM     12  C   UNL     1     141.787 145.064 166.438  0.00  0.00    +0.137 A 
ATOM     13  C   UNL     1     141.818 143.724 165.868  0.00  0.00    +0.036 A 
ATOM     14  C   UNL     1     140.692 143.273 165.155  0.00  0.00    -0.048 A 
ATOM     15  C   UNL     1     140.658 141.991 164.599  0.00  0.00    -0.043 A 
ATOM     16  C   UNL     1     141.753 141.146 164.748  0.00  0.00    +0.042 A 
ATOM     17 CL   UNL     1     141.718 139.571 164.060  0.00  0.00    -0.083 Cl
ATOM     18  C   UNL     1     142.883 141.572 165.444  0.00  0.00    -0.024 A 
ATOM     19  C   UNL     1     142.916 142.856 165.999  0.00  0.00    +0.053 A 
ATOM     20 CL   UNL     1     144.381 143.327 166.794  0.00  0.00    -0.083 Cl
ATOM     21  O   UNL     1     141.390 146.057 165.588  0.00  0.00    -0.458 OA
ATOM     22  H   UNL     1     147.110 148.714 162.120  0.00  0.00    +0.000 HD
ATOM     23  H   UNL     1     141.955 150.153 164.794  0.00  0.00    +0.000 HD
ATOM     24  H   UNL     1     142.836 149.371 165.996  0.00  0.00    +0.000 HD
ENDROOT
TORSDOF 0
ENDMDL
