MODEL 1
REMARK VINA RESULT:    -5.042      0.000      0.000
REMARK INTER + INTRA:          -5.042
REMARK INTER:                  -5.042
REMARK INTRA:                   0.000
REMARK UNBOUND:                 0.000
REMARK  Name = /home/vital/Documents/PhD_2021/Malaria_codes/scripts/../data/pdbqt_ligands/ligand_185_temp.pdb
REMARK                            x       y       z     vdW  Elec       q    Type
REMARK                         _______ _______ _______ _____ _____    ______ ____
ROOT
ATOM      1 CL1  UNL     1     150.132 155.622 156.140  0.00  0.00    -0.082 Cl
ATOM      2  C1  UNL     1     150.641 156.591 157.474  0.00  0.00    +0.059 A 
ATOM      3  C2  UNL     1     150.516 156.057 158.756  0.00  0.00    -0.040 A 
ATOM      4  C3  UNL     1     150.914 156.801 159.873  0.00  0.00    -0.039 A 
ATOM      5  C4  UNL     1     151.446 158.087 159.740  0.00  0.00    +0.035 A 
ATOM      6  N1  UNL     1     151.847 158.881 160.819  0.00  0.00    -0.284 N 
ATOM      7  C5  UNL     1     151.894 158.689 162.197  0.00  0.00    +0.220 A 
ATOM      8  N2  UNL     1     152.397 159.721 162.888  0.00  0.00    -0.219 NA
ATOM      9  C6  UNL     1     152.488 159.605 164.235  0.00  0.00    +0.054 A 
ATOM     10  C7  UNL     1     153.046 160.822 164.934  0.00  0.00    -0.007 C 
ATOM     11  C8  UNL     1     151.947 161.762 165.432  0.00  0.00    -0.020 C 
ATOM     12  C9  UNL     1     151.184 162.381 164.304  0.00  0.00    +0.085 C 
ATOM     13  C10 UNL     1     149.913 161.943 163.859  0.00  0.00    +0.025 C 
ATOM     14  N3  UNL     1     149.784 162.921 164.621  0.00  0.00    -0.285 NA
ATOM     15  C11 UNL     1     152.051 158.466 164.922  0.00  0.00    +0.022 A 
ATOM     16  C12 UNL     1     152.091 158.275 166.328  0.00  0.00    -0.051 A 
ATOM     17  C13 UNL     1     151.623 157.095 166.900  0.00  0.00    -0.061 A 
ATOM     18  C14 UNL     1     151.113 156.097 166.082  0.00  0.00    -0.060 A 
ATOM     19  C15 UNL     1     151.074 156.288 164.699  0.00  0.00    -0.036 A 
ATOM     20  C16 UNL     1     151.534 157.457 164.104  0.00  0.00    +0.076 A 
ATOM     21  N4  UNL     1     151.456 157.567 162.773  0.00  0.00    -0.214 NA
ATOM     22  C17 UNL     1     151.559 158.612 158.442  0.00  0.00    -0.021 A 
ATOM     23  C18 UNL     1     151.163 157.875 157.317  0.00  0.00    +0.061 A 
ATOM     24 CL2  UNL     1     151.349 158.616 155.767  0.00  0.00    -0.082 Cl
ATOM     25  H   UNL     1     152.167 159.770 160.543  0.00  0.00    +0.000 HD
ENDROOT
TORSDOF 0
ENDMDL
MODEL 2
REMARK VINA RESULT:    -4.964      5.494      6.855
REMARK INTER + INTRA:          -4.964
REMARK INTER:                  -4.964
REMARK INTRA:                   0.000
REMARK UNBOUND:                 0.000
REMARK  Name = /home/vital/Documents/PhD_2021/Malaria_codes/scripts/../data/pdbqt_ligands/ligand_185_temp.pdb
REMARK                            x       y       z     vdW  Elec       q    Type
REMARK                         _______ _______ _______ _____ _____    ______ ____
ROOT
ATOM      1 CL1  UNL     1     152.060 151.767 167.802  0.00  0.00    -0.082 Cl
ATOM      2  C1  UNL     1     151.760 153.408 167.357  0.00  0.00    +0.059 A 
ATOM      3  C2  UNL     1     152.437 154.408 168.053  0.00  0.00    -0.040 A 
ATOM      4  C3  UNL     1     152.230 155.755 167.732  0.00  0.00    -0.039 A 
ATOM      5  C4  UNL     1     151.352 156.135 166.712  0.00  0.00    +0.035 A 
ATOM      6  N1  UNL     1     151.095 157.462 166.357  0.00  0.00    -0.284 N 
ATOM      7  C5  UNL     1     151.580 158.692 166.794  0.00  0.00    +0.220 A 
ATOM      8  N2  UNL     1     151.084 159.753 166.143  0.00  0.00    -0.219 NA
ATOM      9  C6  UNL     1     151.518 160.984 166.502  0.00  0.00    +0.054 A 
ATOM     10  C7  UNL     1     150.891 162.121 165.730  0.00  0.00    -0.007 C 
ATOM     11  C8  UNL     1     149.678 162.714 166.448  0.00  0.00    -0.020 C 
ATOM     12  C9  UNL     1     148.546 161.741 166.534  0.00  0.00    +0.085 C 
ATOM     13  C10 UNL     1     148.226 160.980 167.684  0.00  0.00    +0.025 C 
ATOM     14  N3  UNL     1     147.495 161.987 167.623  0.00  0.00    -0.285 NA
ATOM     15  C11 UNL     1     152.437 161.185 167.539  0.00  0.00    +0.022 A 
ATOM     16  C12 UNL     1     152.924 162.439 167.990  0.00  0.00    -0.051 A 
ATOM     17  C13 UNL     1     153.838 162.514 169.038  0.00  0.00    -0.061 A 
ATOM     18  C14 UNL     1     154.274 161.345 169.646  0.00  0.00    -0.060 A 
ATOM     19  C15 UNL     1     153.792 160.111 169.201  0.00  0.00    -0.036 A 
ATOM     20  C16 UNL     1     152.879 160.011 168.158  0.00  0.00    +0.076 A 
ATOM     21  N4  UNL     1     152.459 158.794 167.794  0.00  0.00    -0.214 NA
ATOM     22  C17 UNL     1     150.674 155.114 166.026  0.00  0.00    -0.021 A 
ATOM     23  C18 UNL     1     150.873 153.762 166.339  0.00  0.00    +0.061 A 
ATOM     24 CL2  UNL     1     149.990 152.588 165.430  0.00  0.00    -0.082 Cl
ATOM     25  H   UNL     1     150.425 157.546 165.641  0.00  0.00    +0.000 HD
ENDROOT
TORSDOF 0
ENDMDL
MODEL 3
REMARK VINA RESULT:    -4.773      5.922      8.397
REMARK INTER + INTRA:          -4.773
REMARK INTER:                  -4.773
REMARK INTRA:                   0.000
REMARK UNBOUND:                 0.000
REMARK  Name = /home/vital/Documents/PhD_2021/Malaria_codes/scripts/../data/pdbqt_ligands/ligand_185_temp.pdb
REMARK                            x       y       z     vdW  Elec       q    Type
REMARK                         _______ _______ _______ _____ _____    ______ ____
ROOT
ATOM      1 CL1  UNL     1     144.945 148.305 163.373  0.00  0.00    -0.082 Cl
ATOM      2  C1  UNL     1     145.893 149.524 164.144  0.00  0.00    +0.059 A 
ATOM      3  C2  UNL     1     146.664 150.360 163.338  0.00  0.00    -0.040 A 
ATOM      4  C3  UNL     1     147.451 151.366 163.912  0.00  0.00    -0.039 A 
ATOM      5  C4  UNL     1     147.484 151.564 165.296  0.00  0.00    +0.035 A 
ATOM      6  N1  UNL     1     148.260 152.542 165.926  0.00  0.00    -0.284 N 
ATOM      7  C5  UNL     1     149.113 153.543 165.469  0.00  0.00    +0.220 A 
ATOM      8  N2  UNL     1     149.643 154.309 166.433  0.00  0.00    -0.219 NA
ATOM      9  C6  UNL     1     150.473 155.314 166.066  0.00  0.00    +0.054 A 
ATOM     10  C7  UNL     1     151.040 156.112 167.217  0.00  0.00    -0.007 C 
ATOM     11  C8  UNL     1     152.411 155.600 167.661  0.00  0.00    -0.020 C 
ATOM     12  C9  UNL     1     152.334 154.227 168.249  0.00  0.00    +0.085 C 
ATOM     13  C10 UNL     1     152.670 153.037 167.559  0.00  0.00    +0.025 C 
ATOM     14  N3  UNL     1     153.627 153.403 168.270  0.00  0.00    -0.285 NA
ATOM     15  C11 UNL     1     150.815 155.558 164.731  0.00  0.00    +0.022 A 
ATOM     16  C12 UNL     1     151.692 156.573 164.267  0.00  0.00    -0.051 A 
ATOM     17  C13 UNL     1     151.959 156.717 162.908  0.00  0.00    -0.061 A 
ATOM     18  C14 UNL     1     151.358 155.857 162.001  0.00  0.00    -0.060 A 
ATOM     19  C15 UNL     1     150.497 154.857 162.460  0.00  0.00    -0.036 A 
ATOM     20  C16 UNL     1     150.215 154.692 163.811  0.00  0.00    +0.076 A 
ATOM     21  N4  UNL     1     149.385 153.708 164.172  0.00  0.00    -0.214 NA
ATOM     22  C17 UNL     1     146.705 150.709 166.093  0.00  0.00    -0.021 A 
ATOM     23  C18 UNL     1     145.914 149.699 165.528  0.00  0.00    +0.061 A 
ATOM     24 CL2  UNL     1     144.993 148.706 166.602  0.00  0.00    -0.082 Cl
ATOM     25  H   UNL     1     148.186 152.517 166.907  0.00  0.00    +0.000 HD
ENDROOT
TORSDOF 0
ENDMDL
MODEL 4
REMARK VINA RESULT:    -4.764      5.660      7.137
REMARK INTER + INTRA:          -4.764
REMARK INTER:                  -4.764
REMARK INTRA:                   0.000
REMARK UNBOUND:                 0.000
REMARK  Name = /home/vital/Documents/PhD_2021/Malaria_codes/scripts/../data/pdbqt_ligands/ligand_185_temp.pdb
REMARK                            x       y       z     vdW  Elec       q    Type
REMARK                         _______ _______ _______ _____ _____    ______ ____
ROOT
ATOM      1 CL1  UNL     1     150.122 152.759 164.933  0.00  0.00    -0.082 Cl
ATOM      2  C1  UNL     1     150.579 154.145 165.856  0.00  0.00    +0.059 A 
ATOM      3  C2  UNL     1     149.902 155.340 165.620  0.00  0.00    -0.040 A 
ATOM      4  C3  UNL     1     150.233 156.494 166.341  0.00  0.00    -0.039 A 
ATOM      5  C4  UNL     1     151.240 156.482 167.311  0.00  0.00    +0.035 A 
ATOM      6  N1  UNL     1     151.623 157.605 168.051  0.00  0.00    -0.284 N 
ATOM      7  C5  UNL     1     151.179 158.923 168.110  0.00  0.00    +0.220 A 
ATOM      8  N2  UNL     1     151.813 159.687 169.010  0.00  0.00    -0.219 NA
ATOM      9  C6  UNL     1     151.428 160.980 169.136  0.00  0.00    +0.054 A 
ATOM     10  C7  UNL     1     152.211 161.772 170.157  0.00  0.00    -0.007 C 
ATOM     11  C8  UNL     1     153.377 162.537 169.531  0.00  0.00    -0.020 C 
ATOM     12  C9  UNL     1     154.425 161.618 168.988  0.00  0.00    +0.085 C 
ATOM     13  C10 UNL     1     154.567 161.280 167.621  0.00  0.00    +0.025 C 
ATOM     14  N3  UNL     1     155.368 162.187 167.921  0.00  0.00    -0.285 NA
ATOM     15  C11 UNL     1     150.420 161.544 168.345  0.00  0.00    +0.022 A 
ATOM     16  C12 UNL     1     149.974 162.890 168.399  0.00  0.00    -0.051 A 
ATOM     17  C13 UNL     1     148.961 163.340 167.557  0.00  0.00    -0.061 A 
ATOM     18  C14 UNL     1     148.383 162.457 166.656  0.00  0.00    -0.060 A 
ATOM     19  C15 UNL     1     148.825 161.133 166.603  0.00  0.00    -0.036 A 
ATOM     20  C16 UNL     1     149.835 160.661 167.433  0.00  0.00    +0.076 A 
ATOM     21  N4  UNL     1     150.207 159.381 167.318  0.00  0.00    -0.214 NA
ATOM     22  C17 UNL     1     151.916 155.271 167.531  0.00  0.00    -0.021 A 
ATOM     23  C18 UNL     1     151.592 154.110 166.815  0.00  0.00    +0.061 A 
ATOM     24 CL2  UNL     1     152.485 152.674 167.168  0.00  0.00    -0.082 Cl
ATOM     25  H   UNL     1     152.370 157.423 168.666  0.00  0.00    +0.000 HD
ENDROOT
TORSDOF 0
ENDMDL
MODEL 5
REMARK VINA RESULT:    -4.403      4.672      7.682
REMARK INTER + INTRA:          -4.403
REMARK INTER:                  -4.403
REMARK INTRA:                   0.000
REMARK UNBOUND:                 0.000
REMARK  Name = /home/vital/Documents/PhD_2021/Malaria_codes/scripts/../data/pdbqt_ligands/ligand_185_temp.pdb
REMARK                            x       y       z     vdW  Elec       q    Type
REMARK                         _______ _______ _______ _____ _____    ______ ____
ROOT
ATOM      1 CL1  UNL     1     153.314 163.379 168.059  0.00  0.00    -0.082 Cl
ATOM      2  C1  UNL     1     152.538 161.973 167.426  0.00  0.00    +0.059 A 
ATOM      3  C2  UNL     1     152.979 160.728 167.870  0.00  0.00    -0.040 A 
ATOM      4  C3  UNL     1     152.383 159.555 167.388  0.00  0.00    -0.039 A 
ATOM      5  C4  UNL     1     151.338 159.597 166.460  0.00  0.00    +0.035 A 
ATOM      6  N1  UNL     1     150.715 158.461 165.934  0.00  0.00    -0.284 N 
ATOM      7  C5  UNL     1     150.860 157.093 166.146  0.00  0.00    +0.220 A 
ATOM      8  N2  UNL     1     150.014 156.326 165.445  0.00  0.00    -0.219 NA
ATOM      9  C6  UNL     1     150.084 154.983 165.607  0.00  0.00    +0.054 A 
ATOM     10  C7  UNL     1     149.109 154.196 164.763  0.00  0.00    -0.007 C 
ATOM     11  C8  UNL     1     149.726 153.726 163.445  0.00  0.00    -0.020 C 
ATOM     12  C9  UNL     1     150.059 154.871 162.541  0.00  0.00    +0.085 C 
ATOM     13  C10 UNL     1     151.356 155.413 162.376  0.00  0.00    +0.025 C 
ATOM     14  N3  UNL     1     151.106 154.617 161.450  0.00  0.00    -0.285 NA
ATOM     15  C11 UNL     1     151.021 154.376 166.451  0.00  0.00    +0.022 A 
ATOM     16  C12 UNL     1     151.175 152.981 166.659  0.00  0.00    -0.051 A 
ATOM     17  C13 UNL     1     152.149 152.492 167.526  0.00  0.00    -0.061 A 
ATOM     18  C14 UNL     1     152.977 153.384 168.192  0.00  0.00    -0.060 A 
ATOM     19  C15 UNL     1     152.826 154.757 167.984  0.00  0.00    -0.036 A 
ATOM     20  C16 UNL     1     151.861 155.269 167.124  0.00  0.00    +0.076 A 
ATOM     21  N4  UNL     1     151.783 156.596 166.973  0.00  0.00    -0.214 NA
ATOM     22  C17 UNL     1     150.911 160.861 166.019  0.00  0.00    -0.021 A 
ATOM     23  C18 UNL     1     151.501 162.041 166.495  0.00  0.00    +0.061 A 
ATOM     24 CL2  UNL     1     150.896 163.541 165.888  0.00  0.00    -0.082 Cl
ATOM     25  H   UNL     1     150.022 158.677 165.269  0.00  0.00    +0.000 HD
ENDROOT
TORSDOF 0
ENDMDL
MODEL 6
REMARK VINA RESULT:    -4.403      1.502      1.840
REMARK INTER + INTRA:          -4.403
REMARK INTER:                  -4.403
REMARK INTRA:                   0.000
REMARK UNBOUND:                 0.000
REMARK  Name = /home/vital/Documents/PhD_2021/Malaria_codes/scripts/../data/pdbqt_ligands/ligand_185_temp.pdb
REMARK                            x       y       z     vdW  Elec       q    Type
REMARK                         _______ _______ _______ _____ _____    ______ ____
ROOT
ATOM      1 CL1  UNL     1     150.188 156.143 157.491  0.00  0.00    -0.082 Cl
ATOM      2  C1  UNL     1     150.476 157.332 158.710  0.00  0.00    +0.059 A 
ATOM      3  C2  UNL     1     150.699 156.891 160.013  0.00  0.00    -0.040 A 
ATOM      4  C3  UNL     1     150.938 157.813 161.040  0.00  0.00    -0.039 A 
ATOM      5  C4  UNL     1     150.964 159.189 160.791  0.00  0.00    +0.035 A 
ATOM      6  N1  UNL     1     151.184 160.156 161.777  0.00  0.00    -0.284 N 
ATOM      7  C5  UNL     1     151.456 160.102 163.142  0.00  0.00    +0.220 A 
ATOM      8  N2  UNL     1     151.641 161.296 163.722  0.00  0.00    -0.219 NA
ATOM      9  C6  UNL     1     151.924 161.326 165.046  0.00  0.00    +0.054 A 
ATOM     10  C7  UNL     1     152.096 162.712 165.620  0.00  0.00    -0.007 C 
ATOM     11  C8  UNL     1     150.803 163.253 166.233  0.00  0.00    -0.020 C 
ATOM     12  C9  UNL     1     149.744 163.478 165.201  0.00  0.00    +0.085 C 
ATOM     13  C10 UNL     1     148.666 162.596 164.951  0.00  0.00    +0.025 C 
ATOM     14  N3  UNL     1     148.292 163.527 165.690  0.00  0.00    -0.285 NA
ATOM     15  C11 UNL     1     152.001 160.165 165.825  0.00  0.00    +0.022 A 
ATOM     16  C12 UNL     1     152.270 160.112 167.217  0.00  0.00    -0.051 A 
ATOM     17  C13 UNL     1     152.319 158.893 167.888  0.00  0.00    -0.061 A 
ATOM     18  C14 UNL     1     152.100 157.718 167.182  0.00  0.00    -0.060 A 
ATOM     19  C15 UNL     1     151.834 157.773 165.812  0.00  0.00    -0.036 A 
ATOM     20  C16 UNL     1     151.779 158.978 165.120  0.00  0.00    +0.076 A 
ATOM     21  N4  UNL     1     151.513 158.948 163.810  0.00  0.00    -0.214 NA
ATOM     22  C17 UNL     1     150.731 159.615 159.473  0.00  0.00    -0.021 A 
ATOM     23  C18 UNL     1     150.491 158.700 158.439  0.00  0.00    +0.061 A 
ATOM     24 CL2  UNL     1     150.220 159.334 156.854  0.00  0.00    -0.082 Cl
ATOM     25  H   UNL     1     151.135 161.076 161.430  0.00  0.00    +0.000 HD
ENDROOT
TORSDOF 0
ENDMDL
MODEL 7
REMARK VINA RESULT:    -4.214      3.907      7.760
REMARK INTER + INTRA:          -4.214
REMARK INTER:                  -4.214
REMARK INTRA:                   0.000
REMARK UNBOUND:                 0.000
REMARK  Name = /home/vital/Documents/PhD_2021/Malaria_codes/scripts/../data/pdbqt_ligands/ligand_185_temp.pdb
REMARK                            x       y       z     vdW  Elec       q    Type
REMARK                         _______ _______ _______ _____ _____    ______ ____
ROOT
ATOM      1 CL1  UNL     1     151.404 163.540 165.667  0.00  0.00    -0.082 Cl
ATOM      2  C1  UNL     1     151.441 162.021 164.846  0.00  0.00    +0.059 A 
ATOM      3  C2  UNL     1     151.135 162.005 163.487  0.00  0.00    -0.040 A 
ATOM      4  C3  UNL     1     151.151 160.800 162.773  0.00  0.00    -0.039 A 
ATOM      5  C4  UNL     1     151.475 159.590 163.394  0.00  0.00    +0.035 A 
ATOM      6  N1  UNL     1     151.494 158.356 162.737  0.00  0.00    -0.284 N 
ATOM      7  C5  UNL     1     151.273 157.956 161.422  0.00  0.00    +0.220 A 
ATOM      8  N2  UNL     1     151.434 156.645 161.201  0.00  0.00    -0.219 NA
ATOM      9  C6  UNL     1     151.250 156.180 159.943  0.00  0.00    +0.054 A 
ATOM     10  C7  UNL     1     151.430 154.688 159.790  0.00  0.00    -0.007 C 
ATOM     11  C8  UNL     1     150.107 153.928 159.897  0.00  0.00    -0.020 C 
ATOM     12  C9  UNL     1     149.513 154.026 161.266  0.00  0.00    +0.085 C 
ATOM     13  C10 UNL     1     148.460 154.903 161.624  0.00  0.00    +0.025 C 
ATOM     14  N3  UNL     1     148.007 153.765 161.393  0.00  0.00    -0.285 NA
ATOM     15  C11 UNL     1     150.874 157.013 158.882  0.00  0.00    +0.022 A 
ATOM     16  C12 UNL     1     150.640 156.604 157.543  0.00  0.00    -0.051 A 
ATOM     17  C13 UNL     1     150.266 157.527 156.571  0.00  0.00    -0.061 A 
ATOM     18  C14 UNL     1     150.121 158.862 156.919  0.00  0.00    -0.060 A 
ATOM     19  C15 UNL     1     150.349 159.263 158.238  0.00  0.00    -0.036 A 
ATOM     20  C16 UNL     1     150.723 158.360 159.227  0.00  0.00    +0.076 A 
ATOM     21  N4  UNL     1     150.917 158.820 160.468  0.00  0.00    -0.214 NA
ATOM     22  C17 UNL     1     151.775 159.624 164.766  0.00  0.00    -0.021 A 
ATOM     23  C18 UNL     1     151.762 160.825 165.490  0.00  0.00    +0.061 A 
ATOM     24 CL2  UNL     1     152.150 160.753 167.172  0.00  0.00    -0.082 Cl
ATOM     25  H   UNL     1     151.711 157.606 163.336  0.00  0.00    +0.000 HD
ENDROOT
TORSDOF 0
ENDMDL
MODEL 8
REMARK VINA RESULT:    -4.188      4.014      7.126
REMARK INTER + INTRA:          -4.188
REMARK INTER:                  -4.188
REMARK INTRA:                   0.000
REMARK UNBOUND:                 0.000
REMARK  Name = /home/vital/Documents/PhD_2021/Malaria_codes/scripts/../data/pdbqt_ligands/ligand_185_temp.pdb
REMARK                            x       y       z     vdW  Elec       q    Type
REMARK                         _______ _______ _______ _____ _____    ______ ____
ROOT
ATOM      1 CL1  UNL     1     152.810 161.183 168.364  0.00  0.00    -0.082 Cl
ATOM      2  C1  UNL     1     152.231 160.911 166.761  0.00  0.00    +0.059 A 
ATOM      3  C2  UNL     1     152.346 159.625 166.234  0.00  0.00    -0.040 A 
ATOM      4  C3  UNL     1     151.893 159.350 164.938  0.00  0.00    -0.039 A 
ATOM      5  C4  UNL     1     151.314 160.344 164.142  0.00  0.00    +0.035 A 
ATOM      6  N1  UNL     1     150.856 160.131 162.839  0.00  0.00    -0.284 N 
ATOM      7  C5  UNL     1     150.784 159.016 162.008  0.00  0.00    +0.220 A 
ATOM      8  N2  UNL     1     150.225 159.245 160.812  0.00  0.00    -0.219 NA
ATOM      9  C6  UNL     1     150.106 158.205 159.952  0.00  0.00    +0.054 A 
ATOM     10  C7  UNL     1     149.484 158.559 158.621  0.00  0.00    -0.007 C 
ATOM     11  C8  UNL     1     150.533 158.877 157.555  0.00  0.00    -0.020 C 
ATOM     12  C9  UNL     1     151.299 160.122 157.875  0.00  0.00    +0.085 C 
ATOM     13  C10 UNL     1     152.596 160.143 158.441  0.00  0.00    +0.025 C 
ATOM     14  N3  UNL     1     152.668 160.290 157.206  0.00  0.00    -0.285 NA
ATOM     15  C11 UNL     1     150.570 156.920 160.258  0.00  0.00    +0.022 A 
ATOM     16  C12 UNL     1     150.504 155.786 159.407  0.00  0.00    -0.051 A 
ATOM     17  C13 UNL     1     151.003 154.554 159.822  0.00  0.00    -0.061 A 
ATOM     18  C14 UNL     1     151.571 154.439 161.082  0.00  0.00    -0.060 A 
ATOM     19  C15 UNL     1     151.636 155.558 161.917  0.00  0.00    -0.036 A 
ATOM     20  C16 UNL     1     151.146 156.798 161.526  0.00  0.00    +0.076 A 
ATOM     21  N4  UNL     1     151.251 157.822 162.380  0.00  0.00    -0.214 NA
ATOM     22  C17 UNL     1     151.212 161.634 164.687  0.00  0.00    -0.021 A 
ATOM     23  C18 UNL     1     151.663 161.921 165.983  0.00  0.00    +0.061 A 
ATOM     24 CL2  UNL     1     151.486 163.542 166.555  0.00  0.00    -0.082 Cl
ATOM     25  H   UNL     1     150.509 160.949 162.415  0.00  0.00    +0.000 HD
ENDROOT
TORSDOF 0
ENDMDL
MODEL 9
REMARK VINA RESULT:    -4.051      2.118      2.759
REMARK INTER + INTRA:          -4.051
REMARK INTER:                  -4.051
REMARK INTRA:                   0.000
REMARK UNBOUND:                 0.000
REMARK  Name = /home/vital/Documents/PhD_2021/Malaria_codes/scripts/../data/pdbqt_ligands/ligand_185_temp.pdb
REMARK                            x       y       z     vdW  Elec       q    Type
REMARK                         _______ _______ _______ _____ _____    ______ ____
ROOT
ATOM      1 CL1  UNL     1     150.014 158.708 157.169  0.00  0.00    -0.082 Cl
ATOM      2  C1  UNL     1     150.463 158.843 158.830  0.00  0.00    +0.059 A 
ATOM      3  C2  UNL     1     150.152 157.782 159.679  0.00  0.00    -0.040 A 
ATOM      4  C3  UNL     1     150.493 157.840 161.036  0.00  0.00    -0.039 A 
ATOM      5  C4  UNL     1     151.152 158.950 161.575  0.00  0.00    +0.035 A 
ATOM      6  N1  UNL     1     151.506 159.070 162.922  0.00  0.00    -0.284 N 
ATOM      7  C5  UNL     1     151.386 158.237 164.032  0.00  0.00    +0.220 A 
ATOM      8  N2  UNL     1     151.903 158.735 165.163  0.00  0.00    -0.219 NA
ATOM      9  C6  UNL     1     151.837 157.978 166.284  0.00  0.00    +0.054 A 
ATOM     10  C7  UNL     1     152.426 158.626 167.515  0.00  0.00    -0.007 C 
ATOM     11  C8  UNL     1     151.370 159.349 168.353  0.00  0.00    -0.020 C 
ATOM     12  C9  UNL     1     150.793 160.527 167.634  0.00  0.00    +0.085 C 
ATOM     13  C10 UNL     1     149.543 160.528 166.970  0.00  0.00    +0.025 C 
ATOM     14  N3  UNL     1     149.422 161.028 168.105  0.00  0.00    -0.285 NA
ATOM     15  C11 UNL     1     151.227 156.718 166.305  0.00  0.00    +0.022 A 
ATOM     16  C12 UNL     1     151.097 155.874 167.438  0.00  0.00    -0.051 A 
ATOM     17  C13 UNL     1     150.465 154.638 167.337  0.00  0.00    -0.061 A 
ATOM     18  C14 UNL     1     149.957 154.230 166.112  0.00  0.00    -0.060 A 
ATOM     19  C15 UNL     1     150.085 155.064 164.998  0.00  0.00    -0.036 A 
ATOM     20  C16 UNL     1     150.711 156.303 165.074  0.00  0.00    +0.076 A 
ATOM     21  N4  UNL     1     150.788 157.045 163.964  0.00  0.00    -0.214 NA
ATOM     22  C17 UNL     1     151.452 160.012 160.705  0.00  0.00    -0.021 A 
ATOM     23  C18 UNL     1     151.114 159.964 159.346  0.00  0.00    +0.061 A 
ATOM     24 CL2  UNL     1     151.533 161.325 158.366  0.00  0.00    -0.082 Cl
ATOM     25  H   UNL     1     151.933 159.931 163.132  0.00  0.00    +0.000 HD
ENDROOT
TORSDOF 0
ENDMDL
