MODEL 1
REMARK VINA RESULT:    -4.540      0.000      0.000
REMARK INTER + INTRA:          -4.540
REMARK INTER:                  -4.540
REMARK INTRA:                   0.000
REMARK UNBOUND:                 0.000
REMARK  Name = /home/vital/Documents/PhD_2021/Malaria_codes/scripts/../data/pdbqt_ligands/ligand_148_temp.pdb
REMARK                            x       y       z     vdW  Elec       q    Type
REMARK                         _______ _______ _______ _____ _____    ______ ____
ROOT
ATOM      1  C1  UNL     1     141.350 147.845 163.533  0.00  0.00    -0.049 C 
ATOM      2  C2  UNL     1     141.944 146.631 164.234  0.00  0.00    +0.009 C 
ATOM      3  N1  UNL     1     143.002 146.961 165.201  0.00  0.00    -0.329 N 
ATOM      4  C3  UNL     1     142.687 147.098 166.626  0.00  0.00    +0.009 C 
ATOM      5  C4  UNL     1     141.576 148.088 166.934  0.00  0.00    -0.049 C 
ATOM      6  C5  UNL     1     144.148 147.606 164.714  0.00  0.00    +0.051 A 
ATOM      7  C6  UNL     1     144.298 148.994 164.793  0.00  0.00    -0.037 A 
ATOM      8  C7  UNL     1     145.432 149.625 164.271  0.00  0.00    -0.039 A 
ATOM      9  C8  UNL     1     146.461 148.880 163.696  0.00  0.00    +0.026 A 
ATOM     10  N2  UNL     1     147.530 149.530 163.065  0.00  0.00    -0.358 N 
ATOM     11  C9  UNL     1     146.305 147.497 163.571  0.00  0.00    -0.018 A 
ATOM     12  C10 UNL     1     145.181 146.854 164.101  0.00  0.00    +0.057 A 
ATOM     13  N3  UNL     1     145.015 145.451 164.110  0.00  0.00    -0.280 N 
ATOM     14  C11 UNL     1     145.829 144.485 163.563  0.00  0.00    +0.248 C 
ATOM     15  O1  UNL     1     146.835 144.664 162.889  0.00  0.00    -0.270 OA
ATOM     16  C12 UNL     1     145.387 143.082 163.811  0.00  0.00    +0.038 A 
ATOM     17  C13 UNL     1     145.653 142.116 162.828  0.00  0.00    -0.050 A 
ATOM     18  C14 UNL     1     145.259 140.791 163.019  0.00  0.00    -0.060 A 
ATOM     19  C15 UNL     1     144.605 140.423 164.194  0.00  0.00    -0.043 A 
ATOM     20  C16 UNL     1     144.356 141.379 165.178  0.00  0.00    +0.042 A 
ATOM     21 CL1  UNL     1     143.562 140.918 166.634  0.00  0.00    -0.084 Cl
ATOM     22  C17 UNL     1     144.747 142.707 164.998  0.00  0.00    -0.031 A 
ATOM     23  H   UNL     1     147.635 150.505 163.156  0.00  0.00    +0.000 HD
ATOM     24  H   UNL     1     148.174 149.013 162.531  0.00  0.00    +0.000 HD
ATOM     25  H   UNL     1     144.208 145.121 164.568  0.00  0.00    +0.000 HD
ENDROOT
TORSDOF 0
ENDMDL
MODEL 2
REMARK VINA RESULT:    -4.482     12.602     15.706
REMARK INTER + INTRA:          -4.482
REMARK INTER:                  -4.482
REMARK INTRA:                   0.000
REMARK UNBOUND:                 0.000
REMARK  Name = /home/vital/Documents/PhD_2021/Malaria_codes/scripts/../data/pdbqt_ligands/ligand_148_temp.pdb
REMARK                            x       y       z     vdW  Elec       q    Type
REMARK                         _______ _______ _______ _____ _____    ______ ____
ROOT
ATOM      1  C1  UNL     1     151.139 161.471 169.936  0.00  0.00    -0.049 C 
ATOM      2  C2  UNL     1     151.901 160.232 169.490  0.00  0.00    +0.009 C 
ATOM      3  N1  UNL     1     152.824 160.471 168.371  0.00  0.00    -0.329 N 
ATOM      4  C3  UNL     1     154.244 160.733 168.623  0.00  0.00    +0.009 C 
ATOM      5  C4  UNL     1     154.513 161.881 169.583  0.00  0.00    -0.049 C 
ATOM      6  C5  UNL     1     152.275 160.925 167.163  0.00  0.00    +0.051 A 
ATOM      7  C6  UNL     1     152.265 162.283 166.826  0.00  0.00    -0.037 A 
ATOM      8  C7  UNL     1     151.681 162.723 165.633  0.00  0.00    -0.039 A 
ATOM      9  C8  UNL     1     151.133 161.813 164.730  0.00  0.00    +0.026 A 
ATOM     10  N2  UNL     1     150.441 162.275 163.602  0.00  0.00    -0.358 N 
ATOM     11  C9  UNL     1     151.097 160.460 165.073  0.00  0.00    -0.018 A 
ATOM     12  C10 UNL     1     151.689 160.006 166.257  0.00  0.00    +0.057 A 
ATOM     13  N3  UNL     1     151.788 158.642 166.610  0.00  0.00    -0.280 N 
ATOM     14  C11 UNL     1     151.286 157.544 165.948  0.00  0.00    +0.248 C 
ATOM     15  O1  UNL     1     150.582 157.545 164.946  0.00  0.00    -0.270 OA
ATOM     16  C12 UNL     1     151.629 156.230 166.566  0.00  0.00    +0.038 A 
ATOM     17  C13 UNL     1     150.704 155.182 166.460  0.00  0.00    -0.050 A 
ATOM     18  C14 UNL     1     150.984 153.936 167.022  0.00  0.00    -0.060 A 
ATOM     19  C15 UNL     1     152.193 153.729 167.686  0.00  0.00    -0.043 A 
ATOM     20  C16 UNL     1     153.120 154.766 167.776  0.00  0.00    +0.042 A 
ATOM     21 CL1  UNL     1     154.617 154.503 168.583  0.00  0.00    -0.084 Cl
ATOM     22  C17 UNL     1     152.851 156.016 167.217  0.00  0.00    -0.031 A 
ATOM     23  H   UNL     1     150.469 163.230 163.364  0.00  0.00    +0.000 HD
ATOM     24  H   UNL     1     149.927 161.644 163.048  0.00  0.00    +0.000 HD
ATOM     25  H   UNL     1     152.282 158.451 167.439  0.00  0.00    +0.000 HD
ENDROOT
TORSDOF 0
ENDMDL
MODEL 3
REMARK VINA RESULT:    -3.983     11.128     14.312
REMARK INTER + INTRA:          -3.983
REMARK INTER:                  -3.983
REMARK INTRA:                   0.000
REMARK UNBOUND:                 0.000
REMARK  Name = /home/vital/Documents/PhD_2021/Malaria_codes/scripts/../data/pdbqt_ligands/ligand_148_temp.pdb
REMARK                            x       y       z     vdW  Elec       q    Type
REMARK                         _______ _______ _______ _____ _____    ______ ____
ROOT
ATOM      1  C1  UNL     1     153.902 157.081 163.756  0.00  0.00    -0.049 C 
ATOM      2  C2  UNL     1     153.083 157.629 162.595  0.00  0.00    +0.009 C 
ATOM      3  N1  UNL     1     151.645 157.737 162.881  0.00  0.00    -0.329 N 
ATOM      4  C3  UNL     1     151.071 159.009 163.330  0.00  0.00    +0.009 C 
ATOM      5  C4  UNL     1     151.742 159.605 164.557  0.00  0.00    -0.049 C 
ATOM      6  C5  UNL     1     150.955 156.556 163.192  0.00  0.00    +0.051 A 
ATOM      7  C6  UNL     1     150.707 156.178 164.515  0.00  0.00    -0.037 A 
ATOM      8  C7  UNL     1     150.049 154.979 164.808  0.00  0.00    -0.039 A 
ATOM      9  C8  UNL     1     149.584 154.152 163.786  0.00  0.00    +0.026 A 
ATOM     10  N2  UNL     1     149.040 152.897 164.091  0.00  0.00    -0.358 N 
ATOM     11  C9  UNL     1     149.862 154.496 162.461  0.00  0.00    -0.018 A 
ATOM     12  C10 UNL     1     150.510 155.698 162.155  0.00  0.00    +0.057 A 
ATOM     13  N3  UNL     1     150.720 156.160 160.836  0.00  0.00    -0.280 N 
ATOM     14  C11 UNL     1     150.427 155.531 159.648  0.00  0.00    +0.248 C 
ATOM     15  O1  UNL     1     149.986 154.397 159.503  0.00  0.00    -0.270 OA
ATOM     16  C12 UNL     1     150.724 156.332 158.425  0.00  0.00    +0.038 A 
ATOM     17  C13 UNL     1     151.130 155.654 157.266  0.00  0.00    -0.050 A 
ATOM     18  C14 UNL     1     151.416 156.364 156.100  0.00  0.00    -0.060 A 
ATOM     19  C15 UNL     1     151.293 157.753 156.084  0.00  0.00    -0.043 A 
ATOM     20  C16 UNL     1     150.874 158.425 157.231  0.00  0.00    +0.042 A 
ATOM     21 CL1  UNL     1     150.707 160.138 157.203  0.00  0.00    -0.084 Cl
ATOM     22  C17 UNL     1     150.583 157.725 158.402  0.00  0.00    -0.031 A 
ATOM     23  H   UNL     1     148.846 152.659 165.027  0.00  0.00    +0.000 HD
ATOM     24  H   UNL     1     148.853 152.254 163.370  0.00  0.00    +0.000 HD
ATOM     25  H   UNL     1     151.132 157.051 160.757  0.00  0.00    +0.000 HD
ENDROOT
TORSDOF 0
ENDMDL
MODEL 4
REMARK VINA RESULT:    -3.841     13.355     16.995
REMARK INTER + INTRA:          -3.841
REMARK INTER:                  -3.841
REMARK INTRA:                   0.000
REMARK UNBOUND:                 0.000
REMARK  Name = /home/vital/Documents/PhD_2021/Malaria_codes/scripts/../data/pdbqt_ligands/ligand_148_temp.pdb
REMARK                            x       y       z     vdW  Elec       q    Type
REMARK                         _______ _______ _______ _____ _____    ______ ____
ROOT
ATOM      1  C1  UNL     1     153.893 157.327 163.686  0.00  0.00    -0.049 C 
ATOM      2  C2  UNL     1     152.588 157.860 164.259  0.00  0.00    +0.009 C 
ATOM      3  N1  UNL     1     151.504 157.963 163.271  0.00  0.00    -0.329 N 
ATOM      4  C3  UNL     1     150.514 156.890 163.140  0.00  0.00    +0.009 C 
ATOM      5  C4  UNL     1     151.107 155.511 162.902  0.00  0.00    -0.049 C 
ATOM      6  C5  UNL     1     151.706 158.810 162.171  0.00  0.00    +0.051 A 
ATOM      7  C6  UNL     1     152.144 158.319 160.937  0.00  0.00    -0.037 A 
ATOM      8  C7  UNL     1     152.376 159.181 159.861  0.00  0.00    -0.039 A 
ATOM      9  C8  UNL     1     152.134 160.549 159.980  0.00  0.00    +0.026 A 
ATOM     10  N2  UNL     1     152.489 161.417 158.938  0.00  0.00    -0.358 N 
ATOM     11  C9  UNL     1     151.738 161.060 161.218  0.00  0.00    -0.018 A 
ATOM     12  C10 UNL     1     151.492 160.205 162.298  0.00  0.00    +0.057 A 
ATOM     13  N3  UNL     1     150.981 160.642 163.541  0.00  0.00    -0.280 N 
ATOM     14  C11 UNL     1     150.712 161.927 163.957  0.00  0.00    +0.248 C 
ATOM     15  O1  UNL     1     150.937 162.962 163.342  0.00  0.00    -0.270 OA
ATOM     16  C12 UNL     1     150.116 162.031 165.320  0.00  0.00    +0.038 A 
ATOM     17  C13 UNL     1     150.425 163.157 166.098  0.00  0.00    -0.050 A 
ATOM     18  C14 UNL     1     149.889 163.296 167.379  0.00  0.00    -0.060 A 
ATOM     19  C15 UNL     1     149.036 162.316 167.885  0.00  0.00    -0.043 A 
ATOM     20  C16 UNL     1     148.716 161.206 167.105  0.00  0.00    +0.042 A 
ATOM     21 CL1  UNL     1     147.650 160.006 167.728  0.00  0.00    -0.084 Cl
ATOM     22  C17 UNL     1     149.245 161.057 165.823  0.00  0.00    -0.031 A 
ATOM     23  H   UNL     1     152.767 161.053 158.067  0.00  0.00    +0.000 HD
ATOM     24  H   UNL     1     152.459 162.391 159.078  0.00  0.00    +0.000 HD
ATOM     25  H   UNL     1     150.794 159.933 164.198  0.00  0.00    +0.000 HD
ENDROOT
TORSDOF 0
ENDMDL
MODEL 5
REMARK VINA RESULT:    -3.661     11.514     14.586
REMARK INTER + INTRA:          -3.661
REMARK INTER:                  -3.661
REMARK INTRA:                   0.000
REMARK UNBOUND:                 0.000
REMARK  Name = /home/vital/Documents/PhD_2021/Malaria_codes/scripts/../data/pdbqt_ligands/ligand_148_temp.pdb
REMARK                            x       y       z     vdW  Elec       q    Type
REMARK                         _______ _______ _______ _____ _____    ______ ____
ROOT
ATOM      1  C1  UNL     1     150.283 160.865 168.822  0.00  0.00    -0.049 C 
ATOM      2  C2  UNL     1     150.865 159.478 168.595  0.00  0.00    +0.009 C 
ATOM      3  N1  UNL     1     152.142 159.481 167.866  0.00  0.00    -0.329 N 
ATOM      4  C3  UNL     1     153.413 159.429 168.596  0.00  0.00    +0.009 C 
ATOM      5  C4  UNL     1     153.579 160.512 169.649  0.00  0.00    -0.049 C 
ATOM      6  C5  UNL     1     152.148 160.015 166.569  0.00  0.00    +0.051 A 
ATOM      7  C6  UNL     1     152.546 161.332 166.320  0.00  0.00    -0.037 A 
ATOM      8  C7  UNL     1     152.512 161.861 165.026  0.00  0.00    -0.039 A 
ATOM      9  C8  UNL     1     152.122 161.073 163.944  0.00  0.00    +0.026 A 
ATOM     10  N2  UNL     1     151.971 161.648 162.675  0.00  0.00    -0.358 N 
ATOM     11  C9  UNL     1     151.681 159.769 164.184  0.00  0.00    -0.018 A 
ATOM     12  C10 UNL     1     151.721 159.226 165.472  0.00  0.00    +0.057 A 
ATOM     13  N3  UNL     1     151.399 157.882 165.765  0.00  0.00    -0.280 N 
ATOM     14  C11 UNL     1     150.928 156.905 164.917  0.00  0.00    +0.248 C 
ATOM     15  O1  UNL     1     150.624 157.038 163.737  0.00  0.00    -0.270 OA
ATOM     16  C12 UNL     1     150.749 155.564 165.544  0.00  0.00    +0.038 A 
ATOM     17  C13 UNL     1     149.712 154.743 165.077  0.00  0.00    -0.050 A 
ATOM     18  C14 UNL     1     149.509 153.480 165.635  0.00  0.00    -0.060 A 
ATOM     19  C15 UNL     1     150.345 153.029 166.655  0.00  0.00    -0.043 A 
ATOM     20  C16 UNL     1     151.386 153.838 167.107  0.00  0.00    +0.042 A 
ATOM     21 CL1  UNL     1     152.426 153.271 168.357  0.00  0.00    -0.084 Cl
ATOM     22  C17 UNL     1     151.599 155.102 166.556  0.00  0.00    -0.031 A 
ATOM     23  H   UNL     1     152.283 162.567 162.511  0.00  0.00    +0.000 HD
ATOM     24  H   UNL     1     151.553 161.132 161.948  0.00  0.00    +0.000 HD
ATOM     25  H   UNL     1     151.528 157.607 166.702  0.00  0.00    +0.000 HD
ENDROOT
TORSDOF 0
ENDMDL
MODEL 6
REMARK VINA RESULT:    -3.621     12.985     15.390
REMARK INTER + INTRA:          -3.621
REMARK INTER:                  -3.621
REMARK INTRA:                   0.000
REMARK UNBOUND:                 0.000
REMARK  Name = /home/vital/Documents/PhD_2021/Malaria_codes/scripts/../data/pdbqt_ligands/ligand_148_temp.pdb
REMARK                            x       y       z     vdW  Elec       q    Type
REMARK                         _______ _______ _______ _____ _____    ______ ____
ROOT
ATOM      1  C1  UNL     1     149.072 159.400 159.975  0.00  0.00    -0.049 C 
ATOM      2  C2  UNL     1     150.124 159.621 161.052  0.00  0.00    +0.009 C 
ATOM      3  N1  UNL     1     151.415 158.979 160.763  0.00  0.00    -0.329 N 
ATOM      4  C3  UNL     1     152.502 159.744 160.143  0.00  0.00    +0.009 C 
ATOM      5  C4  UNL     1     152.126 160.432 158.841  0.00  0.00    -0.049 C 
ATOM      6  C5  UNL     1     151.430 157.584 160.625  0.00  0.00    +0.051 A 
ATOM      7  C6  UNL     1     151.380 156.970 159.369  0.00  0.00    -0.037 A 
ATOM      8  C7  UNL     1     151.359 155.577 159.251  0.00  0.00    -0.039 A 
ATOM      9  C8  UNL     1     151.430 154.764 160.381  0.00  0.00    +0.026 A 
ATOM     10  N2  UNL     1     151.281 153.376 160.258  0.00  0.00    -0.358 N 
ATOM     11  C9  UNL     1     151.436 155.363 161.643  0.00  0.00    -0.018 A 
ATOM     12  C10 UNL     1     151.470 156.755 161.774  0.00  0.00    +0.057 A 
ATOM     13  N3  UNL     1     151.592 157.422 163.014  0.00  0.00    -0.280 N 
ATOM     14  C11 UNL     1     151.619 156.885 164.280  0.00  0.00    +0.248 C 
ATOM     15  O1  UNL     1     151.467 155.708 164.585  0.00  0.00    -0.270 OA
ATOM     16  C12 UNL     1     151.823 157.875 165.377  0.00  0.00    +0.038 A 
ATOM     17  C13 UNL     1     151.215 157.632 166.617  0.00  0.00    -0.050 A 
ATOM     18  C14 UNL     1     151.380 158.531 167.671  0.00  0.00    -0.060 A 
ATOM     19  C15 UNL     1     152.159 159.674 167.492  0.00  0.00    -0.043 A 
ATOM     20  C16 UNL     1     152.777 159.907 166.265  0.00  0.00    +0.042 A 
ATOM     21 CL1  UNL     1     153.750 161.312 166.054  0.00  0.00    -0.084 Cl
ATOM     22  C17 UNL     1     152.620 159.014 165.205  0.00  0.00    -0.031 A 
ATOM     23  H   UNL     1     151.277 152.959 159.367  0.00  0.00    +0.000 HD
ATOM     24  H   UNL     1     151.180 152.819 161.063  0.00  0.00    +0.000 HD
ATOM     25  H   UNL     1     151.666 158.402 162.964  0.00  0.00    +0.000 HD
ENDROOT
TORSDOF 0
ENDMDL
MODEL 7
REMARK VINA RESULT:    -3.348      9.639     13.000
REMARK INTER + INTRA:          -3.348
REMARK INTER:                  -3.348
REMARK INTRA:                   0.000
REMARK UNBOUND:                 0.000
REMARK  Name = /home/vital/Documents/PhD_2021/Malaria_codes/scripts/../data/pdbqt_ligands/ligand_148_temp.pdb
REMARK                            x       y       z     vdW  Elec       q    Type
REMARK                         _______ _______ _______ _____ _____    ______ ____
ROOT
ATOM      1  C1  UNL     1     149.261 159.865 159.962  0.00  0.00    -0.049 C 
ATOM      2  C2  UNL     1     149.748 158.781 160.914  0.00  0.00    +0.009 C 
ATOM      3  N1  UNL     1     150.956 158.082 160.450  0.00  0.00    -0.329 N 
ATOM      4  C3  UNL     1     152.280 158.496 160.923  0.00  0.00    +0.009 C 
ATOM      5  C4  UNL     1     152.594 159.968 160.709  0.00  0.00    -0.049 C 
ATOM      6  C5  UNL     1     150.878 157.388 159.235  0.00  0.00    +0.051 A 
ATOM      7  C6  UNL     1     151.321 157.955 158.036  0.00  0.00    -0.037 A 
ATOM      8  C7  UNL     1     151.202 157.264 156.826  0.00  0.00    -0.039 A 
ATOM      9  C8  UNL     1     150.679 155.972 156.792  0.00  0.00    +0.026 A 
ATOM     10  N2  UNL     1     150.449 155.340 155.562  0.00  0.00    -0.358 N 
ATOM     11  C9  UNL     1     150.193 155.409 157.975  0.00  0.00    -0.018 A 
ATOM     12  C10 UNL     1     150.317 156.087 159.192  0.00  0.00    +0.057 A 
ATOM     13  N3  UNL     1     149.951 155.530 160.438  0.00  0.00    -0.280 N 
ATOM     14  C11 UNL     1     149.358 154.315 160.696  0.00  0.00    +0.248 C 
ATOM     15  O1  UNL     1     148.960 153.499 159.873  0.00  0.00    -0.270 OA
ATOM     16  C12 UNL     1     149.164 154.008 162.143  0.00  0.00    +0.038 A 
ATOM     17  C13 UNL     1     148.049 153.244 162.519  0.00  0.00    -0.050 A 
ATOM     18  C14 UNL     1     147.829 152.933 163.861  0.00  0.00    -0.060 A 
ATOM     19  C15 UNL     1     148.726 153.376 164.833  0.00  0.00    -0.043 A 
ATOM     20  C16 UNL     1     149.843 154.120 164.457  0.00  0.00    +0.042 A 
ATOM     21 CL1  UNL     1     150.956 154.652 165.658  0.00  0.00    -0.084 Cl
ATOM     22  C17 UNL     1     150.073 154.436 163.118  0.00  0.00    -0.031 A 
ATOM     23  H   UNL     1     150.794 155.741 154.731  0.00  0.00    +0.000 HD
ATOM     24  H   UNL     1     149.944 154.496 155.529  0.00  0.00    +0.000 HD
ATOM     25  H   UNL     1     150.146 156.086 161.227  0.00  0.00    +0.000 HD
ENDROOT
TORSDOF 0
ENDMDL
MODEL 8
REMARK VINA RESULT:    -3.339     11.462     14.648
REMARK INTER + INTRA:          -3.339
REMARK INTER:                  -3.339
REMARK INTRA:                   0.000
REMARK UNBOUND:                 0.000
REMARK  Name = /home/vital/Documents/PhD_2021/Malaria_codes/scripts/../data/pdbqt_ligands/ligand_148_temp.pdb
REMARK                            x       y       z     vdW  Elec       q    Type
REMARK                         _______ _______ _______ _____ _____    ______ ____
ROOT
ATOM      1  C1  UNL     1     149.512 161.699 165.824  0.00  0.00    -0.049 C 
ATOM      2  C2  UNL     1     150.282 160.423 166.136  0.00  0.00    +0.009 C 
ATOM      3  N1  UNL     1     151.594 160.344 165.477  0.00  0.00    -0.329 N 
ATOM      4  C3  UNL     1     152.809 160.747 166.192  0.00  0.00    +0.009 C 
ATOM      5  C4  UNL     1     152.764 162.152 166.770  0.00  0.00    -0.049 C 
ATOM      6  C5  UNL     1     151.619 160.363 164.075  0.00  0.00    +0.051 A 
ATOM      7  C6  UNL     1     151.859 161.541 163.361  0.00  0.00    -0.037 A 
ATOM      8  C7  UNL     1     151.844 161.549 161.962  0.00  0.00    -0.039 A 
ATOM      9  C8  UNL     1     151.632 160.373 161.245  0.00  0.00    +0.026 A 
ATOM     10  N2  UNL     1     151.493 160.416 159.851  0.00  0.00    -0.358 N 
ATOM     11  C9  UNL     1     151.347 159.198 161.945  0.00  0.00    -0.018 A 
ATOM     12  C10 UNL     1     151.371 159.175 163.343  0.00  0.00    +0.057 A 
ATOM     13  N3  UNL     1     151.205 157.999 164.110  0.00  0.00    -0.280 N 
ATOM     14  C11 UNL     1     150.922 156.723 163.677  0.00  0.00    +0.248 C 
ATOM     15  O1  UNL     1     150.683 156.370 162.529  0.00  0.00    -0.270 OA
ATOM     16  C12 UNL     1     150.875 155.693 164.755  0.00  0.00    +0.038 A 
ATOM     17  C13 UNL     1     149.986 154.618 164.611  0.00  0.00    -0.050 A 
ATOM     18  C14 UNL     1     149.911 153.631 165.594  0.00  0.00    -0.060 A 
ATOM     19  C15 UNL     1     150.728 153.709 166.721  0.00  0.00    -0.043 A 
ATOM     20  C16 UNL     1     151.624 154.769 166.856  0.00  0.00    +0.042 A 
ATOM     21 CL1  UNL     1     152.642 154.854 168.242  0.00  0.00    -0.084 Cl
ATOM     22  C17 UNL     1     151.709 155.760 165.878  0.00  0.00    -0.031 A 
ATOM     23  H   UNL     1     151.695 161.247 159.362  0.00  0.00    +0.000 HD
ATOM     24  H   UNL     1     151.195 159.616 159.361  0.00  0.00    +0.000 HD
ATOM     25  H   UNL     1     151.306 158.107 165.083  0.00  0.00    +0.000 HD
ENDROOT
TORSDOF 0
ENDMDL
MODEL 9
REMARK VINA RESULT:    -2.197      2.020      2.533
REMARK INTER + INTRA:          -2.197
REMARK INTER:                  -2.197
REMARK INTRA:                   0.000
REMARK UNBOUND:                 0.000
REMARK  Name = /home/vital/Documents/PhD_2021/Malaria_codes/scripts/../data/pdbqt_ligands/ligand_148_temp.pdb
REMARK                            x       y       z     vdW  Elec       q    Type
REMARK                         _______ _______ _______ _____ _____    ______ ____
ROOT
ATOM      1  C1  UNL     1     141.447 146.986 162.839  0.00  0.00    -0.049 C 
ATOM      2  C2  UNL     1     141.433 146.062 164.048  0.00  0.00    +0.009 C 
ATOM      3  N1  UNL     1     142.298 146.512 165.150  0.00  0.00    -0.329 N 
ATOM      4  C3  UNL     1     141.738 147.281 166.265  0.00  0.00    +0.009 C 
ATOM      5  C4  UNL     1     140.979 148.531 165.850  0.00  0.00    -0.049 C 
ATOM      6  C5  UNL     1     143.670 146.631 164.890  0.00  0.00    +0.051 A 
ATOM      7  C6  UNL     1     144.251 147.861 164.562  0.00  0.00    -0.037 A 
ATOM      8  C7  UNL     1     145.615 147.956 164.270  0.00  0.00    -0.039 A 
ATOM      9  C8  UNL     1     146.440 146.834 164.342  0.00  0.00    +0.026 A 
ATOM     10  N2  UNL     1     147.776 146.917 163.927  0.00  0.00    -0.358 N 
ATOM     11  C9  UNL     1     145.866 145.592 164.626  0.00  0.00    -0.018 A 
ATOM     12  C10 UNL     1     144.505 145.487 164.931  0.00  0.00    +0.057 A 
ATOM     13  N3  UNL     1     143.885 144.283 165.337  0.00  0.00    -0.280 N 
ATOM     14  C11 UNL     1     144.433 143.024 165.434  0.00  0.00    +0.248 C 
ATOM     15  O1  UNL     1     145.565 142.686 165.111  0.00  0.00    -0.270 OA
ATOM     16  C12 UNL     1     143.508 141.978 165.960  0.00  0.00    +0.038 A 
ATOM     17  C13 UNL     1     143.650 140.665 165.489  0.00  0.00    -0.050 A 
ATOM     18  C14 UNL     1     142.807 139.655 165.955  0.00  0.00    -0.060 A 
ATOM     19  C15 UNL     1     141.824 139.951 166.899  0.00  0.00    -0.043 A 
ATOM     20  C16 UNL     1     141.695 141.253 167.379  0.00  0.00    +0.042 A 
ATOM     21 CL1  UNL     1     140.490 141.611 168.556  0.00  0.00    -0.084 Cl
ATOM     22  C17 UNL     1     142.533 142.270 166.922  0.00  0.00    -0.031 A 
ATOM     23  H   UNL     1     148.176 147.794 163.728  0.00  0.00    +0.000 HD
ATOM     24  H   UNL     1     148.314 146.098 163.834  0.00  0.00    +0.000 HD
ATOM     25  H   UNL     1     142.935 144.355 165.582  0.00  0.00    +0.000 HD
ENDROOT
TORSDOF 0
ENDMDL
