MODEL 1
REMARK VINA RESULT:    -6.266      0.000      0.000
REMARK INTER + INTRA:          -6.266
REMARK INTER:                  -6.266
REMARK INTRA:                   0.000
REMARK UNBOUND:                 0.000
REMARK  Name = /home/vital/Documents/PhD_2021/Malaria_codes/scripts/../data/pdbqt_ligands/ligand_344_temp.pdb
REMARK                            x       y       z     vdW  Elec       q    Type
REMARK                         _______ _______ _______ _____ _____    ______ ____
ROOT
ATOM      1  C   UNL     1     156.519 154.244 151.537  0.00  0.00    -0.099 C 
ATOM      2  C   UNL     1     155.413 154.847 151.086  0.00  0.00    -0.069 C 
ATOM      3  C   UNL     1     154.502 155.563 151.947  0.00  0.00    -0.066 C 
ATOM      4  C   UNL     1     153.395 156.168 151.489  0.00  0.00    -0.075 C 
ATOM      5  C   UNL     1     152.384 156.935 152.297  0.00  0.00    +0.042 C 
ATOM      6  C   UNL     1     152.579 156.892 153.810  0.00  0.00    +0.217 C 
ATOM      7  O   UNL     1     153.233 157.734 154.417  0.00  0.00    -0.275 OA
ATOM      8  N   UNL     1     151.974 155.816 154.421  0.00  0.00    -0.314 N 
ATOM      9  C   UNL     1     152.049 155.580 155.853  0.00  0.00    +0.027 C 
ATOM     10  C   UNL     1     150.804 156.086 156.618  0.00  0.00    +0.018 C 
ATOM     11  C   UNL     1     150.762 157.611 156.709  0.00  0.00    -0.048 C 
ATOM     12  N   UNL     1     149.564 155.590 155.995  0.00  0.00    -0.326 N 
ATOM     13  H   UNL     1     151.470 155.180 153.864  0.00  0.00    +0.000 HD
ATOM     14  H   UNL     1     149.489 155.958 155.047  0.00  0.00    +0.000 HD
ATOM     15  H   UNL     1     148.761 155.899 156.544  0.00  0.00    +0.000 HD
ATOM     16  H   UNL     1     149.582 154.571 155.964  0.00  0.00    +0.000 HD
ENDROOT
TORSDOF 0
ENDMDL
MODEL 2
REMARK VINA RESULT:    -5.828      2.658      3.716
REMARK INTER + INTRA:          -5.828
REMARK INTER:                  -5.828
REMARK INTRA:                   0.000
REMARK UNBOUND:                 0.000
REMARK  Name = /home/vital/Documents/PhD_2021/Malaria_codes/scripts/../data/pdbqt_ligands/ligand_344_temp.pdb
REMARK                            x       y       z     vdW  Elec       q    Type
REMARK                         _______ _______ _______ _____ _____    ______ ____
ROOT
ATOM      1  C   UNL     1     153.971 156.588 151.895  0.00  0.00    -0.099 C 
ATOM      2  C   UNL     1     153.454 155.792 152.838  0.00  0.00    -0.069 C 
ATOM      3  C   UNL     1     152.681 156.292 153.950  0.00  0.00    -0.066 C 
ATOM      4  C   UNL     1     152.162 155.490 154.892  0.00  0.00    -0.075 C 
ATOM      5  C   UNL     1     151.346 155.906 156.086  0.00  0.00    +0.042 C 
ATOM      6  C   UNL     1     151.226 157.411 156.309  0.00  0.00    +0.217 C 
ATOM      7  O   UNL     1     150.304 158.077 155.846  0.00  0.00    -0.275 OA
ATOM      8  N   UNL     1     152.250 157.949 157.055  0.00  0.00    -0.314 N 
ATOM      9  C   UNL     1     152.333 159.365 157.372  0.00  0.00    +0.027 C 
ATOM     10  C   UNL     1     151.789 159.706 158.778  0.00  0.00    +0.018 C 
ATOM     11  C   UNL     1     150.265 159.615 158.847  0.00  0.00    -0.048 C 
ATOM     12  N   UNL     1     152.386 158.830 159.803  0.00  0.00    -0.326 N 
ATOM     13  H   UNL     1     152.956 157.350 157.388  0.00  0.00    +0.000 HD
ATOM     14  H   UNL     1     152.122 157.862 159.617  0.00  0.00    +0.000 HD
ATOM     15  H   UNL     1     152.047 159.104 160.725  0.00  0.00    +0.000 HD
ATOM     16  H   UNL     1     153.402 158.916 159.774  0.00  0.00    +0.000 HD
ENDROOT
TORSDOF 0
ENDMDL
MODEL 3
REMARK VINA RESULT:    -5.726      1.214      1.276
REMARK INTER + INTRA:          -5.726
REMARK INTER:                  -5.726
REMARK INTRA:                   0.000
REMARK UNBOUND:                 0.000
REMARK  Name = /home/vital/Documents/PhD_2021/Malaria_codes/scripts/../data/pdbqt_ligands/ligand_344_temp.pdb
REMARK                            x       y       z     vdW  Elec       q    Type
REMARK                         _______ _______ _______ _____ _____    ______ ____
ROOT
ATOM      1  C   UNL     1     156.779 154.180 150.661  0.00  0.00    -0.099 C 
ATOM      2  C   UNL     1     155.505 154.399 150.316  0.00  0.00    -0.069 C 
ATOM      3  C   UNL     1     154.633 155.283 151.052  0.00  0.00    -0.066 C 
ATOM      4  C   UNL     1     153.356 155.502 150.699  0.00  0.00    -0.075 C 
ATOM      5  C   UNL     1     152.368 156.398 151.394  0.00  0.00    +0.042 C 
ATOM      6  C   UNL     1     152.840 157.004 152.712  0.00  0.00    +0.217 C 
ATOM      7  O   UNL     1     153.395 158.097 152.777  0.00  0.00    -0.275 OA
ATOM      8  N   UNL     1     152.605 156.207 153.810  0.00  0.00    -0.314 N 
ATOM      9  C   UNL     1     152.989 156.590 155.158  0.00  0.00    +0.027 C 
ATOM     10  C   UNL     1     151.826 157.203 155.971  0.00  0.00    +0.018 C 
ATOM     11  C   UNL     1     151.470 158.612 155.498  0.00  0.00    -0.048 C 
ATOM     12  N   UNL     1     150.630 156.342 155.913  0.00  0.00    -0.326 N 
ATOM     13  H   UNL     1     152.159 155.340 153.676  0.00  0.00    +0.000 HD
ATOM     14  H   UNL     1     150.306 156.276 154.948  0.00  0.00    +0.000 HD
ATOM     15  H   UNL     1     149.893 156.745 156.492  0.00  0.00    +0.000 HD
ATOM     16  H   UNL     1     150.864 155.412 156.257  0.00  0.00    +0.000 HD
ENDROOT
TORSDOF 0
ENDMDL
MODEL 4
REMARK VINA RESULT:    -5.661      4.532      7.794
REMARK INTER + INTRA:          -5.661
REMARK INTER:                  -5.661
REMARK INTRA:                   0.000
REMARK UNBOUND:                 0.000
REMARK  Name = /home/vital/Documents/PhD_2021/Malaria_codes/scripts/../data/pdbqt_ligands/ligand_344_temp.pdb
REMARK                            x       y       z     vdW  Elec       q    Type
REMARK                         _______ _______ _______ _____ _____    ______ ____
ROOT
ATOM      1  C   UNL     1     150.549 161.070 162.907  0.00  0.00    -0.099 C 
ATOM      2  C   UNL     1     151.181 161.414 161.779  0.00  0.00    -0.069 C 
ATOM      3  C   UNL     1     151.067 160.658 160.554  0.00  0.00    -0.066 C 
ATOM      4  C   UNL     1     151.700 161.009 159.424  0.00  0.00    -0.075 C 
ATOM      5  C   UNL     1     151.650 160.295 158.101  0.00  0.00    +0.042 C 
ATOM      6  C   UNL     1     150.913 158.959 158.100  0.00  0.00    +0.217 C 
ATOM      7  O   UNL     1     149.718 158.863 157.836  0.00  0.00    -0.275 OA
ATOM      8  N   UNL     1     151.703 157.884 158.439  0.00  0.00    -0.314 N 
ATOM      9  C   UNL     1     151.193 156.525 158.511  0.00  0.00    +0.027 C 
ATOM     10  C   UNL     1     151.477 155.700 157.235  0.00  0.00    +0.018 C 
ATOM     11  C   UNL     1     150.603 156.137 156.059  0.00  0.00    -0.048 C 
ATOM     12  N   UNL     1     152.899 155.785 156.856  0.00  0.00    -0.326 N 
ATOM     13  H   UNL     1     152.653 158.042 158.642  0.00  0.00    +0.000 HD
ATOM     14  H   UNL     1     153.134 156.753 156.634  0.00  0.00    +0.000 HD
ATOM     15  H   UNL     1     153.068 155.198 156.039  0.00  0.00    +0.000 HD
ATOM     16  H   UNL     1     153.477 155.465 157.631  0.00  0.00    +0.000 HD
ENDROOT
TORSDOF 0
ENDMDL
MODEL 5
REMARK VINA RESULT:    -5.621      3.041      4.500
REMARK INTER + INTRA:          -5.621
REMARK INTER:                  -5.621
REMARK INTRA:                   0.000
REMARK UNBOUND:                 0.000
REMARK  Name = /home/vital/Documents/PhD_2021/Malaria_codes/scripts/../data/pdbqt_ligands/ligand_344_temp.pdb
REMARK                            x       y       z     vdW  Elec       q    Type
REMARK                         _______ _______ _______ _____ _____    ______ ____
ROOT
ATOM      1  C   UNL     1     153.397 157.533 152.867  0.00  0.00    -0.099 C 
ATOM      2  C   UNL     1     152.939 156.517 153.608  0.00  0.00    -0.069 C 
ATOM      3  C   UNL     1     152.164 156.711 154.812  0.00  0.00    -0.066 C 
ATOM      4  C   UNL     1     151.704 155.689 155.550  0.00  0.00    -0.075 C 
ATOM      5  C   UNL     1     150.893 155.781 156.814  0.00  0.00    +0.042 C 
ATOM      6  C   UNL     1     150.704 157.187 157.375  0.00  0.00    +0.217 C 
ATOM      7  O   UNL     1     149.742 157.892 157.084  0.00  0.00    -0.275 OA
ATOM      8  N   UNL     1     151.715 157.594 158.216  0.00  0.00    -0.314 N 
ATOM      9  C   UNL     1     151.735 158.904 158.847  0.00  0.00    +0.027 C 
ATOM     10  C   UNL     1     151.203 158.888 160.298  0.00  0.00    +0.018 C 
ATOM     11  C   UNL     1     149.688 158.704 160.357  0.00  0.00    -0.048 C 
ATOM     12  N   UNL     1     151.863 157.834 161.091  0.00  0.00    -0.326 N 
ATOM     13  H   UNL     1     152.456 156.973 158.398  0.00  0.00    +0.000 HD
ATOM     14  H   UNL     1     151.642 156.921 160.692  0.00  0.00    +0.000 HD
ATOM     15  H   UNL     1     151.529 157.874 162.054  0.00  0.00    +0.000 HD
ATOM     16  H   UNL     1     152.872 157.977 161.074  0.00  0.00    +0.000 HD
ENDROOT
TORSDOF 0
ENDMDL
MODEL 6
REMARK VINA RESULT:    -5.535      4.689      7.830
REMARK INTER + INTRA:          -5.535
REMARK INTER:                  -5.535
REMARK INTRA:                   0.000
REMARK UNBOUND:                 0.000
REMARK  Name = /home/vital/Documents/PhD_2021/Malaria_codes/scripts/../data/pdbqt_ligands/ligand_344_temp.pdb
REMARK                            x       y       z     vdW  Elec       q    Type
REMARK                         _______ _______ _______ _____ _____    ______ ____
ROOT
ATOM      1  C   UNL     1     152.761 157.040 151.904  0.00  0.00    -0.099 C 
ATOM      2  C   UNL     1     153.660 156.188 152.409  0.00  0.00    -0.069 C 
ATOM      3  C   UNL     1     154.656 155.527 151.599  0.00  0.00    -0.066 C 
ATOM      4  C   UNL     1     155.558 154.674 152.111  0.00  0.00    -0.075 C 
ATOM      5  C   UNL     1     156.632 153.936 151.360  0.00  0.00    +0.042 C 
ATOM      6  C   UNL     1     156.587 154.074 149.841  0.00  0.00    +0.217 C 
ATOM      7  O   UNL     1     157.207 154.944 149.237  0.00  0.00    -0.275 OA
ATOM      8  N   UNL     1     155.777 153.150 149.219  0.00  0.00    -0.314 N 
ATOM      9  C   UNL     1     155.584 153.115 147.779  0.00  0.00    +0.027 C 
ATOM     10  C   UNL     1     156.480 152.074 147.070  0.00  0.00    +0.018 C 
ATOM     11  C   UNL     1     157.945 152.507 147.026  0.00  0.00    -0.048 C 
ATOM     12  N   UNL     1     156.372 150.754 147.719  0.00  0.00    -0.326 N 
ATOM     13  H   UNL     1     155.309 152.485 149.773  0.00  0.00    +0.000 HD
ATOM     14  H   UNL     1     156.709 150.820 148.680  0.00  0.00    +0.000 HD
ATOM     15  H   UNL     1     156.936 150.076 147.207  0.00  0.00    +0.000 HD
ATOM     16  H   UNL     1     155.397 150.455 147.720  0.00  0.00    +0.000 HD
ENDROOT
TORSDOF 0
ENDMDL
MODEL 7
REMARK VINA RESULT:    -5.396      1.605      5.864
REMARK INTER + INTRA:          -5.396
REMARK INTER:                  -5.396
REMARK INTRA:                   0.000
REMARK UNBOUND:                 0.000
REMARK  Name = /home/vital/Documents/PhD_2021/Malaria_codes/scripts/../data/pdbqt_ligands/ligand_344_temp.pdb
REMARK                            x       y       z     vdW  Elec       q    Type
REMARK                         _______ _______ _______ _____ _____    ______ ____
ROOT
ATOM      1  C   UNL     1     150.467 159.825 158.226  0.00  0.00    -0.099 C 
ATOM      2  C   UNL     1     150.294 158.518 157.996  0.00  0.00    -0.069 C 
ATOM      3  C   UNL     1     151.026 157.796 156.984  0.00  0.00    -0.066 C 
ATOM      4  C   UNL     1     150.851 156.484 156.759  0.00  0.00    -0.075 C 
ATOM      5  C   UNL     1     151.559 155.640 155.734  0.00  0.00    +0.042 C 
ATOM      6  C   UNL     1     152.463 156.399 154.766  0.00  0.00    +0.217 C 
ATOM      7  O   UNL     1     153.658 156.577 154.979  0.00  0.00    -0.275 OA
ATOM      8  N   UNL     1     151.812 156.876 153.651  0.00  0.00    -0.314 N 
ATOM      9  C   UNL     1     152.486 157.636 152.611  0.00  0.00    +0.027 C 
ATOM     10  C   UNL     1     152.896 156.773 151.396  0.00  0.00    +0.018 C 
ATOM     11  C   UNL     1     154.075 155.853 151.712  0.00  0.00    -0.048 C 
ATOM     12  N   UNL     1     151.758 155.973 150.908  0.00  0.00    -0.326 N 
ATOM     13  H   UNL     1     150.849 156.695 153.553  0.00  0.00    +0.000 HD
ATOM     14  H   UNL     1     151.462 155.324 151.636  0.00  0.00    +0.000 HD
ATOM     15  H   UNL     1     152.042 155.449 150.080  0.00  0.00    +0.000 HD
ATOM     16  H   UNL     1     150.985 156.593 150.669  0.00  0.00    +0.000 HD
ENDROOT
TORSDOF 0
ENDMDL
MODEL 8
REMARK VINA RESULT:    -5.259      5.059      6.959
REMARK INTER + INTRA:          -5.259
REMARK INTER:                  -5.259
REMARK INTRA:                   0.000
REMARK UNBOUND:                 0.000
REMARK  Name = /home/vital/Documents/PhD_2021/Malaria_codes/scripts/../data/pdbqt_ligands/ligand_344_temp.pdb
REMARK                            x       y       z     vdW  Elec       q    Type
REMARK                         _______ _______ _______ _____ _____    ______ ____
ROOT
ATOM      1  C   UNL     1     151.217 155.627 156.499  0.00  0.00    -0.099 C 
ATOM      2  C   UNL     1     151.131 156.929 156.203  0.00  0.00    -0.069 C 
ATOM      3  C   UNL     1     151.433 157.972 157.155  0.00  0.00    -0.066 C 
ATOM      4  C   UNL     1     151.348 159.277 156.853  0.00  0.00    -0.075 C 
ATOM      5  C   UNL     1     151.637 160.437 157.766  0.00  0.00    +0.042 C 
ATOM      6  C   UNL     1     151.918 160.076 159.221  0.00  0.00    +0.217 C 
ATOM      7  O   UNL     1     153.052 159.871 159.645  0.00  0.00    -0.275 OA
ATOM      8  N   UNL     1     150.789 159.984 160.003  0.00  0.00    -0.314 N 
ATOM      9  C   UNL     1     150.834 159.639 161.414  0.00  0.00    +0.027 C 
ATOM     10  C   UNL     1     150.777 160.872 162.344  0.00  0.00    +0.018 C 
ATOM     11  C   UNL     1     152.083 161.666 162.331  0.00  0.00    -0.048 C 
ATOM     12  N   UNL     1     149.655 161.756 161.982  0.00  0.00    -0.326 N 
ATOM     13  H   UNL     1     149.913 160.159 159.589  0.00  0.00    +0.000 HD
ATOM     14  H   UNL     1     149.795 162.113 161.037  0.00  0.00    +0.000 HD
ATOM     15  H   UNL     1     149.612 162.537 162.637  0.00  0.00    +0.000 HD
ATOM     16  H   UNL     1     148.782 161.231 162.021  0.00  0.00    +0.000 HD
ENDROOT
TORSDOF 0
ENDMDL
MODEL 9
REMARK VINA RESULT:    -4.953      3.755      7.451
REMARK INTER + INTRA:          -4.953
REMARK INTER:                  -4.953
REMARK INTRA:                   0.000
REMARK UNBOUND:                 0.000
REMARK  Name = /home/vital/Documents/PhD_2021/Malaria_codes/scripts/../data/pdbqt_ligands/ligand_344_temp.pdb
REMARK                            x       y       z     vdW  Elec       q    Type
REMARK                         _______ _______ _______ _____ _____    ______ ____
ROOT
ATOM      1  C   UNL     1     148.523 153.560 161.668  0.00  0.00    -0.099 C 
ATOM      2  C   UNL     1     149.549 154.394 161.877  0.00  0.00    -0.069 C 
ATOM      3  C   UNL     1     150.028 155.316 160.875  0.00  0.00    -0.066 C 
ATOM      4  C   UNL     1     151.056 156.152 161.091  0.00  0.00    -0.075 C 
ATOM      5  C   UNL     1     151.631 157.147 160.120  0.00  0.00    +0.042 C 
ATOM      6  C   UNL     1     151.067 157.087 158.703  0.00  0.00    +0.217 C 
ATOM      7  O   UNL     1     150.112 157.767 158.342  0.00  0.00    -0.275 OA
ATOM      8  N   UNL     1     151.715 156.191 157.881  0.00  0.00    -0.314 N 
ATOM      9  C   UNL     1     151.327 155.971 156.498  0.00  0.00    +0.027 C 
ATOM     10  C   UNL     1     152.191 156.764 155.491  0.00  0.00    +0.018 C 
ATOM     11  C   UNL     1     151.874 158.259 155.510  0.00  0.00    -0.048 C 
ATOM     12  N   UNL     1     153.627 156.556 155.749  0.00  0.00    -0.326 N 
ATOM     13  H   UNL     1     152.472 155.679 158.246  0.00  0.00    +0.000 HD
ATOM     14  H   UNL     1     153.861 156.914 156.674  0.00  0.00    +0.000 HD
ATOM     15  H   UNL     1     154.174 157.052 155.044  0.00  0.00    +0.000 HD
ATOM     16  H   UNL     1     153.840 155.560 155.705  0.00  0.00    +0.000 HD
ENDROOT
TORSDOF 0
ENDMDL
