MODEL 1
REMARK VINA RESULT:    -7.470      0.000      0.000
REMARK INTER + INTRA:          -7.470
REMARK INTER:                  -7.470
REMARK INTRA:                   0.000
REMARK UNBOUND:                 0.000
REMARK  Name = /home/vital/Documents/PhD_2021/Malaria_codes/scripts/../data/pdbqt_ligands/ligand_68_temp.pdb
REMARK                            x       y       z     vdW  Elec       q    Type
REMARK                         _______ _______ _______ _____ _____    ______ ____
ROOT
ATOM      1  O1  UNL     1     151.600 154.146 160.312  0.00  0.00    -0.389 OA
ATOM      2  C1  UNL     1     150.920 155.343 160.659  0.00  0.00    +0.086 C 
ATOM      3  C2  UNL     1     151.298 156.450 159.672  0.00  0.00    +0.062 C 
ATOM      4  N1  UNL     1     151.199 156.149 158.422  0.00  0.00    -0.273 NA
ATOM      5  C3  UNL     1     151.565 157.139 157.393  0.00  0.00    +0.109 C 
ATOM      6  C4  UNL     1     151.552 156.484 156.014  0.00  0.00    -0.017 A 
ATOM      7  C5  UNL     1     150.497 155.647 155.620  0.00  0.00    -0.055 A 
ATOM      8  C6  UNL     1     150.482 155.066 154.350  0.00  0.00    -0.042 A 
ATOM      9  C7  UNL     1     151.520 155.317 153.451  0.00  0.00    +0.059 A 
ATOM     10 CL1  UNL     1     151.438 154.567 151.896  0.00  0.00    -0.082 Cl
ATOM     11  C8  UNL     1     152.575 156.155 153.826  0.00  0.00    +0.060 A 
ATOM     12 CL2  UNL     1     153.892 156.517 152.766  0.00  0.00    -0.082 Cl
ATOM     13  C9  UNL     1     152.588 156.737 155.099  0.00  0.00    -0.036 A 
ATOM     14  C10 UNL     1     150.660 158.343 157.388  0.00  0.00    +0.039 C 
ATOM     15  C11 UNL     1     149.666 158.645 158.151  0.00  0.00    -0.104 C 
ATOM     16  C12 UNL     1     150.721 159.241 158.583  0.00  0.00    +0.031 C 
ATOM     17  C13 UNL     1     151.452 158.952 159.790  0.00  0.00    -0.044 C 
ATOM     18  C14 UNL     1     151.741 157.739 160.289  0.00  0.00    -0.037 C 
ATOM     19  H   UNL     1     151.359 153.444 160.938  0.00  0.00    +0.000 HD
ENDROOT
TORSDOF 0
ENDMDL
MODEL 2
REMARK VINA RESULT:    -6.874     11.062     13.814
REMARK INTER + INTRA:          -6.874
REMARK INTER:                  -6.874
REMARK INTRA:                   0.000
REMARK UNBOUND:                 0.000
REMARK  Name = /home/vital/Documents/PhD_2021/Malaria_codes/scripts/../data/pdbqt_ligands/ligand_68_temp.pdb
REMARK                            x       y       z     vdW  Elec       q    Type
REMARK                         _______ _______ _______ _____ _____    ______ ____
ROOT
ATOM      1  O1  UNL     1     141.472 150.495 167.597  0.00  0.00    -0.389 OA
ATOM      2  C1  UNL     1     141.658 149.088 167.618  0.00  0.00    +0.086 C 
ATOM      3  C2  UNL     1     142.711 148.695 166.579  0.00  0.00    +0.062 C 
ATOM      4  N1  UNL     1     143.817 149.358 166.621  0.00  0.00    -0.273 NA
ATOM      5  C3  UNL     1     144.885 149.072 165.646  0.00  0.00    +0.109 C 
ATOM      6  C4  UNL     1     145.997 150.112 165.774  0.00  0.00    -0.017 A 
ATOM      7  C5  UNL     1     146.489 150.494 167.032  0.00  0.00    -0.055 A 
ATOM      8  C6  UNL     1     147.518 151.432 167.141  0.00  0.00    -0.042 A 
ATOM      9  C7  UNL     1     148.077 151.998 165.993  0.00  0.00    +0.059 A 
ATOM     10 CL1  UNL     1     149.349 153.150 166.201  0.00  0.00    -0.082 Cl
ATOM     11  C8  UNL     1     147.603 151.621 164.732  0.00  0.00    +0.060 A 
ATOM     12 CL2  UNL     1     148.248 152.273 163.267  0.00  0.00    -0.082 Cl
ATOM     13  C9  UNL     1     146.571 150.681 164.625  0.00  0.00    -0.036 A 
ATOM     14  C10 UNL     1     145.466 147.691 165.798  0.00  0.00    +0.039 C 
ATOM     15  C11 UNL     1     145.152 146.737 166.606  0.00  0.00    -0.104 C 
ATOM     16  C12 UNL     1     144.567 146.540 165.477  0.00  0.00    +0.031 C 
ATOM     17  C13 UNL     1     143.159 146.652 165.195  0.00  0.00    -0.044 C 
ATOM     18  C14 UNL     1     142.317 147.595 165.645  0.00  0.00    -0.037 C 
ATOM     19  H   UNL     1     140.804 150.743 168.255  0.00  0.00    +0.000 HD
ENDROOT
TORSDOF 0
ENDMDL
MODEL 3
REMARK VINA RESULT:    -6.738      6.748      9.398
REMARK INTER + INTRA:          -6.738
REMARK INTER:                  -6.738
REMARK INTRA:                   0.000
REMARK UNBOUND:                 0.000
REMARK  Name = /home/vital/Documents/PhD_2021/Malaria_codes/scripts/../data/pdbqt_ligands/ligand_68_temp.pdb
REMARK                            x       y       z     vdW  Elec       q    Type
REMARK                         _______ _______ _______ _____ _____    ______ ____
ROOT
ATOM      1  O1  UNL     1     152.403 163.336 158.733  0.00  0.00    -0.389 OA
ATOM      2  C1  UNL     1     151.598 162.227 158.364  0.00  0.00    +0.086 C 
ATOM      3  C2  UNL     1     151.713 161.134 159.429  0.00  0.00    +0.062 C 
ATOM      4  N1  UNL     1     151.532 161.514 160.648  0.00  0.00    -0.273 NA
ATOM      5  C3  UNL     1     151.648 160.541 161.749  0.00  0.00    +0.109 C 
ATOM      6  C4  UNL     1     151.590 161.267 163.091  0.00  0.00    -0.017 A 
ATOM      7  C5  UNL     1     150.631 162.262 163.336  0.00  0.00    -0.055 A 
ATOM      8  C6  UNL     1     150.571 162.908 164.572  0.00  0.00    -0.042 A 
ATOM      9  C7  UNL     1     151.467 162.567 165.588  0.00  0.00    +0.059 A 
ATOM     10 CL1  UNL     1     151.336 163.405 167.093  0.00  0.00    -0.082 Cl
ATOM     11  C8  UNL     1     152.424 161.571 165.362  0.00  0.00    +0.060 A 
ATOM     12 CL2  UNL     1     153.562 161.090 166.571  0.00  0.00    -0.082 Cl
ATOM     13  C9  UNL     1     152.482 160.925 164.122  0.00  0.00    -0.036 A 
ATOM     14  C10 UNL     1     150.585 159.475 161.705  0.00  0.00    +0.039 C 
ATOM     15  C11 UNL     1     149.640 159.272 160.853  0.00  0.00    -0.104 C 
ATOM     16  C12 UNL     1     150.638 158.514 160.561  0.00  0.00    +0.031 C 
ATOM     17  C13 UNL     1     151.520 158.633 159.429  0.00  0.00    -0.044 C 
ATOM     18  C14 UNL     1     152.028 159.765 158.916  0.00  0.00    -0.037 C 
ATOM     19  H   UNL     1     152.330 164.029 158.057  0.00  0.00    +0.000 HD
ENDROOT
TORSDOF 0
ENDMDL
MODEL 4
REMARK VINA RESULT:    -6.606     10.246     11.159
REMARK INTER + INTRA:          -6.606
REMARK INTER:                  -6.606
REMARK INTRA:                   0.000
REMARK UNBOUND:                 0.000
REMARK  Name = /home/vital/Documents/PhD_2021/Malaria_codes/scripts/../data/pdbqt_ligands/ligand_68_temp.pdb
REMARK                            x       y       z     vdW  Elec       q    Type
REMARK                         _______ _______ _______ _____ _____    ______ ____
ROOT
ATOM      1  O1  UNL     1     154.275 160.530 164.862  0.00  0.00    -0.389 OA
ATOM      2  C1  UNL     1     153.566 161.296 165.823  0.00  0.00    +0.086 C 
ATOM      3  C2  UNL     1     152.291 160.554 166.230  0.00  0.00    +0.062 C 
ATOM      4  N1  UNL     1     152.441 159.319 166.571  0.00  0.00    -0.273 NA
ATOM      5  C3  UNL     1     151.270 158.511 166.954  0.00  0.00    +0.109 C 
ATOM      6  C4  UNL     1     151.678 157.049 167.117  0.00  0.00    -0.017 A 
ATOM      7  C5  UNL     1     152.843 156.697 167.818  0.00  0.00    -0.055 A 
ATOM      8  C6  UNL     1     153.200 155.356 167.980  0.00  0.00    -0.042 A 
ATOM      9  C7  UNL     1     152.397 154.345 167.448  0.00  0.00    +0.059 A 
ATOM     10 CL1  UNL     1     152.898 152.709 167.687  0.00  0.00    -0.082 Cl
ATOM     11  C8  UNL     1     151.230 154.681 166.754  0.00  0.00    +0.060 A 
ATOM     12 CL2  UNL     1     150.183 153.486 166.073  0.00  0.00    -0.082 Cl
ATOM     13  C9  UNL     1     150.873 156.025 166.593  0.00  0.00    -0.036 A 
ATOM     14  C10 UNL     1     150.611 158.995 168.219  0.00  0.00    +0.039 C 
ATOM     15  C11 UNL     1     150.888 160.003 168.973  0.00  0.00    -0.104 C 
ATOM     16  C12 UNL     1     149.943 160.332 168.165  0.00  0.00    +0.031 C 
ATOM     17  C13 UNL     1     150.025 161.246 167.055  0.00  0.00    -0.044 C 
ATOM     18  C14 UNL     1     151.031 161.359 166.173  0.00  0.00    -0.037 C 
ATOM     19  H   UNL     1     155.083 161.000 164.604  0.00  0.00    +0.000 HD
ENDROOT
TORSDOF 0
ENDMDL
MODEL 5
REMARK VINA RESULT:    -6.504     10.678     13.124
REMARK INTER + INTRA:          -6.504
REMARK INTER:                  -6.504
REMARK INTRA:                   0.000
REMARK UNBOUND:                 0.000
REMARK  Name = /home/vital/Documents/PhD_2021/Malaria_codes/scripts/../data/pdbqt_ligands/ligand_68_temp.pdb
REMARK                            x       y       z     vdW  Elec       q    Type
REMARK                         _______ _______ _______ _____ _____    ______ ____
ROOT
ATOM      1  O1  UNL     1     146.487 144.625 163.218  0.00  0.00    -0.389 OA
ATOM      2  C1  UNL     1     145.222 144.629 163.861  0.00  0.00    +0.086 C 
ATOM      3  C2  UNL     1     145.130 145.834 164.800  0.00  0.00    +0.062 C 
ATOM      4  N1  UNL     1     145.446 146.975 164.286  0.00  0.00    -0.273 NA
ATOM      5  C3  UNL     1     145.414 148.192 165.116  0.00  0.00    +0.109 C 
ATOM      6  C4  UNL     1     146.015 149.364 164.343  0.00  0.00    -0.017 A 
ATOM      7  C5  UNL     1     145.668 149.602 163.003  0.00  0.00    -0.055 A 
ATOM      8  C6  UNL     1     146.207 150.686 162.308  0.00  0.00    -0.042 A 
ATOM      9  C7  UNL     1     147.099 151.554 162.942  0.00  0.00    +0.059 A 
ATOM     10 CL1  UNL     1     147.727 152.876 162.023  0.00  0.00    -0.082 Cl
ATOM     11  C8  UNL     1     147.449 151.334 164.278  0.00  0.00    +0.060 A 
ATOM     12 CL2  UNL     1     148.541 152.368 165.131  0.00  0.00    -0.082 Cl
ATOM     13  C9  UNL     1     146.907 150.247 164.974  0.00  0.00    -0.036 A 
ATOM     14  C10 UNL     1     144.026 148.552 165.578  0.00  0.00    +0.039 C 
ATOM     15  C11 UNL     1     142.901 147.951 165.392  0.00  0.00    -0.104 C 
ATOM     16  C12 UNL     1     143.370 147.616 166.542  0.00  0.00    +0.031 C 
ATOM     17  C13 UNL     1     143.897 146.332 166.928  0.00  0.00    -0.044 C 
ATOM     18  C14 UNL     1     144.688 145.531 166.197  0.00  0.00    -0.037 C 
ATOM     19  H   UNL     1     146.546 143.861 162.623  0.00  0.00    +0.000 HD
ENDROOT
TORSDOF 0
ENDMDL
MODEL 6
REMARK VINA RESULT:    -6.463      4.561      6.223
REMARK INTER + INTRA:          -6.463
REMARK INTER:                  -6.463
REMARK INTRA:                   0.000
REMARK UNBOUND:                 0.000
REMARK  Name = /home/vital/Documents/PhD_2021/Malaria_codes/scripts/../data/pdbqt_ligands/ligand_68_temp.pdb
REMARK                            x       y       z     vdW  Elec       q    Type
REMARK                         _______ _______ _______ _____ _____    ______ ____
ROOT
ATOM      1  O1  UNL     1     152.481 156.827 164.715  0.00  0.00    -0.389 OA
ATOM      2  C1  UNL     1     152.030 157.936 165.476  0.00  0.00    +0.086 C 
ATOM      3  C2  UNL     1     152.121 159.208 164.630  0.00  0.00    +0.062 C 
ATOM      4  N1  UNL     1     151.590 159.144 163.456  0.00  0.00    -0.273 NA
ATOM      5  C3  UNL     1     151.648 160.309 162.555  0.00  0.00    +0.109 C 
ATOM      6  C4  UNL     1     151.135 159.921 161.171  0.00  0.00    -0.017 A 
ATOM      7  C5  UNL     1     149.960 159.167 161.019  0.00  0.00    -0.055 A 
ATOM      8  C6  UNL     1     149.486 158.831 159.749  0.00  0.00    -0.042 A 
ATOM      9  C7  UNL     1     150.175 159.248 158.609  0.00  0.00    +0.059 A 
ATOM     10 CL1  UNL     1     149.532 158.799 157.069  0.00  0.00    -0.082 Cl
ATOM     11  C8  UNL     1     151.343 160.007 158.743  0.00  0.00    +0.060 A 
ATOM     12 CL2  UNL     1     152.247 160.564 157.379  0.00  0.00    -0.082 Cl
ATOM     13  C9  UNL     1     151.817 160.342 160.017  0.00  0.00    -0.036 A 
ATOM     14  C10 UNL     1     150.868 161.490 163.070  0.00  0.00    +0.039 C 
ATOM     15  C11 UNL     1     150.207 161.641 164.166  0.00  0.00    -0.104 C 
ATOM     16  C12 UNL     1     151.380 162.150 164.310  0.00  0.00    +0.031 C 
ATOM     17  C13 UNL     1     152.454 161.645 165.125  0.00  0.00    -0.044 C 
ATOM     18  C14 UNL     1     152.821 160.363 165.275  0.00  0.00    -0.037 C 
ATOM     19  H   UNL     1     152.423 156.020 165.251  0.00  0.00    +0.000 HD
ENDROOT
TORSDOF 0
ENDMDL
MODEL 7
REMARK VINA RESULT:    -6.390      9.480     10.653
REMARK INTER + INTRA:          -6.390
REMARK INTER:                  -6.390
REMARK INTRA:                   0.000
REMARK UNBOUND:                 0.000
REMARK  Name = /home/vital/Documents/PhD_2021/Malaria_codes/scripts/../data/pdbqt_ligands/ligand_68_temp.pdb
REMARK                            x       y       z     vdW  Elec       q    Type
REMARK                         _______ _______ _______ _____ _____    ______ ____
ROOT
ATOM      1  O1  UNL     1     148.501 159.542 168.879  0.00  0.00    -0.389 OA
ATOM      2  C1  UNL     1     149.130 160.325 167.875  0.00  0.00    +0.086 C 
ATOM      3  C2  UNL     1     150.457 159.676 167.477  0.00  0.00    +0.062 C 
ATOM      4  N1  UNL     1     150.406 158.419 167.188  0.00  0.00    -0.273 NA
ATOM      5  C3  UNL     1     151.636 157.697 166.817  0.00  0.00    +0.109 C 
ATOM      6  C4  UNL     1     151.349 156.200 166.719  0.00  0.00    -0.017 A 
ATOM      7  C5  UNL     1     150.209 155.723 166.053  0.00  0.00    -0.055 A 
ATOM      8  C6  UNL     1     149.963 154.352 165.951  0.00  0.00    -0.042 A 
ATOM      9  C7  UNL     1     150.855 153.435 166.508  0.00  0.00    +0.059 A 
ATOM     10 CL1  UNL     1     150.490 151.754 166.344  0.00  0.00    -0.082 Cl
ATOM     11  C8  UNL     1     152.000 153.894 167.169  0.00  0.00    +0.060 A 
ATOM     12 CL2  UNL     1     153.152 152.820 167.879  0.00  0.00    -0.082 Cl
ATOM     13  C9  UNL     1     152.245 155.269 167.270  0.00  0.00    -0.036 A 
ATOM     14  C10 UNL     1     152.235 158.182 165.523  0.00  0.00    +0.039 C 
ATOM     15  C11 UNL     1     151.863 159.131 164.734  0.00  0.00    -0.104 C 
ATOM     16  C12 UNL     1     152.789 159.571 165.513  0.00  0.00    +0.031 C 
ATOM     17  C13 UNL     1     152.646 160.519 166.586  0.00  0.00    -0.044 C 
ATOM     18  C14 UNL     1     151.646 160.584 167.480  0.00  0.00    -0.037 C 
ATOM     19  H   UNL     1     147.660 159.954 169.131  0.00  0.00    +0.000 HD
ENDROOT
TORSDOF 0
ENDMDL
MODEL 8
REMARK VINA RESULT:    -6.228      6.142      8.269
REMARK INTER + INTRA:          -6.228
REMARK INTER:                  -6.228
REMARK INTRA:                   0.000
REMARK UNBOUND:                 0.000
REMARK  Name = /home/vital/Documents/PhD_2021/Malaria_codes/scripts/../data/pdbqt_ligands/ligand_68_temp.pdb
REMARK                            x       y       z     vdW  Elec       q    Type
REMARK                         _______ _______ _______ _____ _____    ______ ____
ROOT
ATOM      1  O1  UNL     1     148.059 163.542 164.879  0.00  0.00    -0.389 OA
ATOM      2  C1  UNL     1     149.104 163.393 165.829  0.00  0.00    +0.086 C 
ATOM      3  C2  UNL     1     149.825 162.064 165.592  0.00  0.00    +0.062 C 
ATOM      4  N1  UNL     1     150.200 161.835 164.379  0.00  0.00    -0.273 NA
ATOM      5  C3  UNL     1     150.881 160.572 164.043  0.00  0.00    +0.109 C 
ATOM      6  C4  UNL     1     151.041 160.455 162.529  0.00  0.00    -0.017 A 
ATOM      7  C5  UNL     1     151.490 161.542 161.762  0.00  0.00    -0.055 A 
ATOM      8  C6  UNL     1     151.652 161.422 160.380  0.00  0.00    -0.042 A 
ATOM      9  C7  UNL     1     151.373 160.212 159.742  0.00  0.00    +0.059 A 
ATOM     10 CL1  UNL     1     151.597 160.134 158.030  0.00  0.00    -0.082 Cl
ATOM     11  C8  UNL     1     150.932 159.118 160.493  0.00  0.00    +0.060 A 
ATOM     12 CL2  UNL     1     150.573 157.587 159.776  0.00  0.00    -0.082 Cl
ATOM     13  C9  UNL     1     150.771 159.239 161.878  0.00  0.00    -0.036 A 
ATOM     14  C10 UNL     1     152.227 160.435 164.704  0.00  0.00    +0.039 C 
ATOM     15  C11 UNL     1     152.838 161.219 165.526  0.00  0.00    -0.104 C 
ATOM     16  C12 UNL     1     152.238 160.297 166.194  0.00  0.00    +0.031 C 
ATOM     17  C13 UNL     1     151.083 160.447 167.040  0.00  0.00    -0.044 C 
ATOM     18  C14 UNL     1     149.997 161.199 166.800  0.00  0.00    -0.037 C 
ATOM     19  H   UNL     1     147.602 164.384 165.030  0.00  0.00    +0.000 HD
ENDROOT
TORSDOF 0
ENDMDL
MODEL 9
REMARK VINA RESULT:    -5.983      6.277      8.803
REMARK INTER + INTRA:          -5.983
REMARK INTER:                  -5.983
REMARK INTRA:                   0.000
REMARK UNBOUND:                 0.000
REMARK  Name = /home/vital/Documents/PhD_2021/Malaria_codes/scripts/../data/pdbqt_ligands/ligand_68_temp.pdb
REMARK                            x       y       z     vdW  Elec       q    Type
REMARK                         _______ _______ _______ _____ _____    ______ ____
ROOT
ATOM      1  O1  UNL     1     150.912 155.972 161.938  0.00  0.00    -0.389 OA
ATOM      2  C1  UNL     1     151.476 156.530 160.761  0.00  0.00    +0.086 C 
ATOM      3  C2  UNL     1     151.015 157.982 160.612  0.00  0.00    +0.062 C 
ATOM      4  N1  UNL     1     151.161 158.729 161.653  0.00  0.00    -0.273 NA
ATOM      5  C3  UNL     1     150.724 160.136 161.618  0.00  0.00    +0.109 C 
ATOM      6  C4  UNL     1     150.818 160.744 163.016  0.00  0.00    -0.017 A 
ATOM      7  C5  UNL     1     151.951 160.540 163.820  0.00  0.00    -0.055 A 
ATOM      8  C6  UNL     1     152.038 161.114 165.090  0.00  0.00    -0.042 A 
ATOM      9  C7  UNL     1     150.996 161.907 165.576  0.00  0.00    +0.059 A 
ATOM     10 CL1  UNL     1     151.170 162.587 167.154  0.00  0.00    -0.082 Cl
ATOM     11  C8  UNL     1     149.864 162.126 164.783  0.00  0.00    +0.060 A 
ATOM     12 CL2  UNL     1     148.537 163.099 165.313  0.00  0.00    -0.082 Cl
ATOM     13  C9  UNL     1     149.779 161.549 163.511  0.00  0.00    -0.036 A 
ATOM     14  C10 UNL     1     151.517 160.974 160.649  0.00  0.00    +0.039 C 
ATOM     15  C11 UNL     1     152.468 160.645 159.844  0.00  0.00    -0.104 C 
ATOM     16  C12 UNL     1     151.356 160.662 159.196  0.00  0.00    +0.031 C 
ATOM     17  C13 UNL     1     150.635 159.530 158.674  0.00  0.00    -0.044 C 
ATOM     18  C14 UNL     1     150.448 158.344 159.276  0.00  0.00    -0.037 C 
ATOM     19  H   UNL     1     151.205 155.051 162.032  0.00  0.00    +0.000 HD
ENDROOT
TORSDOF 0
ENDMDL
