MODEL 1
REMARK VINA RESULT:    -4.314      0.000      0.000
REMARK INTER + INTRA:          -4.314
REMARK INTER:                  -4.314
REMARK INTRA:                   0.000
REMARK UNBOUND:                 0.000
REMARK  Name = /home/vital/Documents/PhD_2021/Malaria_codes/scripts/../data/pdbqt_ligands/ligand_288_temp.pdb
REMARK                            x       y       z     vdW  Elec       q    Type
REMARK                         _______ _______ _______ _____ _____    ______ ____
ROOT
ATOM      1  N   UNL     1     151.428 154.925 168.450  0.00  0.00    -0.327 N 
ATOM      2  C   UNL     1     151.792 155.843 167.385  0.00  0.00    +0.012 C 
ATOM      3  C   UNL     1     151.369 157.235 167.738  0.00  0.00    -0.072 C 
ATOM      4  C   UNL     1     150.451 157.933 167.047  0.00  0.00    -0.062 C 
ATOM      5  C   UNL     1     149.963 159.334 167.308  0.00  0.00    +0.074 C 
ATOM      6  C   UNL     1     150.628 160.196 168.399  0.00  0.00    +0.011 C 
ATOM      7  C   UNL     1     150.663 161.725 168.255  0.00  0.00    +0.018 C 
ATOM      8  N   UNL     1     149.719 162.551 167.976  0.00  0.00    -0.292 NA
ATOM      9  C   UNL     1     148.337 162.221 167.684  0.00  0.00    +0.044 C 
ATOM     10  C   UNL     1     147.791 163.192 166.614  0.00  0.00    -0.008 C 
ATOM     11  C   UNL     1     148.326 163.137 165.199  0.00  0.00    -0.039 C 
ATOM     12  C   UNL     1     149.262 162.364 164.721  0.00  0.00    -0.102 C 
ATOM     13  C   UNL     1     150.212 161.567 164.317  0.00  0.00    +0.105 C 
ATOM     14 CL   UNL     1     150.978 161.981 162.851  0.00  0.00    -0.073 Cl
ATOM     15  C   UNL     1     150.704 160.496 165.243  0.00  0.00    +0.082 C 
ATOM     16  N   UNL     1     149.815 160.080 166.081  0.00  0.00    -0.277 NA
ATOM     17  C   UNL     1     152.157 160.027 165.214  0.00  0.00    +0.101 C 
ATOM     18 CL   UNL     1     152.417 159.069 163.724  0.00  0.00    -0.113 Cl
ATOM     19  C   UNL     1     153.204 161.130 165.373  0.00  0.00    +0.069 C 
ATOM     20  O   UNL     1     153.356 161.438 166.765  0.00  0.00    -0.378 OA
ATOM     21  C   UNL     1     152.699 162.640 167.171  0.00  0.00    +0.053 C 
ATOM     22  C   UNL     1     152.015 162.391 168.505  0.00  0.00    +0.009 C 
ATOM     23  H   UNL     1     151.721 153.981 168.200  0.00  0.00    +0.000 HD
ATOM     24  H   UNL     1     150.418 154.943 168.585  0.00  0.00    +0.000 HD
ATOM     25  H   UNL     1     151.891 155.206 169.315  0.00  0.00    +0.000 HD
ENDROOT
TORSDOF 0
ENDMDL
MODEL 2
REMARK VINA RESULT:    -3.551     13.443     16.750
REMARK INTER + INTRA:          -3.551
REMARK INTER:                  -3.551
REMARK INTRA:                   0.000
REMARK UNBOUND:                 0.000
REMARK  Name = /home/vital/Documents/PhD_2021/Malaria_codes/scripts/../data/pdbqt_ligands/ligand_288_temp.pdb
REMARK                            x       y       z     vdW  Elec       q    Type
REMARK                         _______ _______ _______ _____ _____    ______ ____
ROOT
ATOM      1  N   UNL     1     148.058 150.584 163.573  0.00  0.00    -0.327 N 
ATOM      2  C   UNL     1     146.643 150.259 163.639  0.00  0.00    +0.012 C 
ATOM      3  C   UNL     1     146.454 148.888 164.209  0.00  0.00    -0.072 C 
ATOM      4  C   UNL     1     145.921 147.862 163.523  0.00  0.00    -0.062 C 
ATOM      5  C   UNL     1     145.678 146.454 164.002  0.00  0.00    +0.074 C 
ATOM      6  C   UNL     1     145.923 146.084 165.477  0.00  0.00    +0.011 C 
ATOM      7  C   UNL     1     145.100 144.967 166.135  0.00  0.00    +0.018 C 
ATOM      8  N   UNL     1     144.850 143.774 165.728  0.00  0.00    -0.292 NA
ATOM      9  C   UNL     1     145.278 143.179 164.477  0.00  0.00    +0.044 C 
ATOM     10  C   UNL     1     144.175 142.233 163.952  0.00  0.00    -0.008 C 
ATOM     11  C   UNL     1     142.855 142.802 163.476  0.00  0.00    -0.039 C 
ATOM     12  C   UNL     1     142.470 144.048 163.471  0.00  0.00    -0.102 C 
ATOM     13  C   UNL     1     142.151 145.312 163.504  0.00  0.00    +0.105 C 
ATOM     14 CL   UNL     1     140.490 145.679 163.375  0.00  0.00    -0.073 Cl
ATOM     15  C   UNL     1     143.204 146.317 163.863  0.00  0.00    +0.082 C 
ATOM     16  N   UNL     1     144.401 145.955 163.549  0.00  0.00    -0.277 NA
ATOM     17  C   UNL     1     142.851 147.605 164.604  0.00  0.00    +0.101 C 
ATOM     18 CL   UNL     1     141.983 148.692 163.477  0.00  0.00    -0.113 Cl
ATOM     19  C   UNL     1     142.089 147.418 165.916  0.00  0.00    +0.069 C 
ATOM     20  O   UNL     1     143.020 147.100 166.960  0.00  0.00    -0.378 OA
ATOM     21  C   UNL     1     143.048 145.717 167.314  0.00  0.00    +0.053 C 
ATOM     22  C   UNL     1     144.496 145.294 167.501  0.00  0.00    +0.009 C 
ATOM     23  H   UNL     1     148.174 151.519 163.184  0.00  0.00    +0.000 HD
ATOM     24  H   UNL     1     148.535 149.906 162.979  0.00  0.00    +0.000 HD
ATOM     25  H   UNL     1     148.458 150.554 164.511  0.00  0.00    +0.000 HD
ENDROOT
TORSDOF 0
ENDMDL
MODEL 3
REMARK VINA RESULT:    -3.435     15.208     17.242
REMARK INTER + INTRA:          -3.435
REMARK INTER:                  -3.435
REMARK INTRA:                   0.000
REMARK UNBOUND:                 0.000
REMARK  Name = /home/vital/Documents/PhD_2021/Malaria_codes/scripts/../data/pdbqt_ligands/ligand_288_temp.pdb
REMARK                            x       y       z     vdW  Elec       q    Type
REMARK                         _______ _______ _______ _____ _____    ______ ____
ROOT
ATOM      1  N   UNL     1     145.159 139.957 163.787  0.00  0.00    -0.327 N 
ATOM      2  C   UNL     1     145.453 141.228 164.424  0.00  0.00    +0.012 C 
ATOM      3  C   UNL     1     144.256 142.125 164.365  0.00  0.00    -0.072 C 
ATOM      4  C   UNL     1     144.228 143.289 163.693  0.00  0.00    -0.062 C 
ATOM      5  C   UNL     1     143.086 144.265 163.578  0.00  0.00    +0.074 C 
ATOM      6  C   UNL     1     141.798 144.052 164.396  0.00  0.00    +0.011 C 
ATOM      7  C   UNL     1     140.959 145.260 164.835  0.00  0.00    +0.018 C 
ATOM      8  N   UNL     1     140.531 146.262 164.154  0.00  0.00    -0.292 NA
ATOM      9  C   UNL     1     140.777 146.521 162.748  0.00  0.00    +0.044 C 
ATOM     10  C   UNL     1     140.920 148.043 162.522  0.00  0.00    -0.008 C 
ATOM     11  C   UNL     1     142.115 148.782 163.087  0.00  0.00    -0.039 C 
ATOM     12  C   UNL     1     143.090 148.303 163.809  0.00  0.00    -0.102 C 
ATOM     13  C   UNL     1     144.027 147.757 164.534  0.00  0.00    +0.105 C 
ATOM     14 CL   UNL     1     144.999 148.821 165.446  0.00  0.00    -0.073 Cl
ATOM     15  C   UNL     1     144.049 146.266 164.687  0.00  0.00    +0.082 C 
ATOM     16  N   UNL     1     143.545 145.630 163.684  0.00  0.00    -0.277 NA
ATOM     17  C   UNL     1     144.559 145.608 165.966  0.00  0.00    +0.101 C 
ATOM     18 CL   UNL     1     146.339 145.793 166.033  0.00  0.00    -0.113 Cl
ATOM     19  C   UNL     1     143.888 146.078 167.257  0.00  0.00    +0.069 C 
ATOM     20  O   UNL     1     142.646 145.383 167.423  0.00  0.00    -0.378 OA
ATOM     21  C   UNL     1     141.494 146.159 167.086  0.00  0.00    +0.053 C 
ATOM     22  C   UNL     1     140.532 145.282 166.303  0.00  0.00    +0.009 C 
ATOM     23  H   UNL     1     145.980 139.355 163.833  0.00  0.00    +0.000 HD
ATOM     24  H   UNL     1     144.908 140.116 162.811  0.00  0.00    +0.000 HD
ATOM     25  H   UNL     1     144.380 139.507 164.268  0.00  0.00    +0.000 HD
ENDROOT
TORSDOF 0
ENDMDL
MODEL 4
REMARK VINA RESULT:    -3.423      2.640      4.892
REMARK INTER + INTRA:          -3.423
REMARK INTER:                  -3.423
REMARK INTRA:                   0.000
REMARK UNBOUND:                 0.000
REMARK  Name = /home/vital/Documents/PhD_2021/Malaria_codes/scripts/../data/pdbqt_ligands/ligand_288_temp.pdb
REMARK                            x       y       z     vdW  Elec       q    Type
REMARK                         _______ _______ _______ _____ _____    ______ ____
ROOT
ATOM      1  N   UNL     1     150.487 161.544 160.560  0.00  0.00    -0.327 N 
ATOM      2  C   UNL     1     150.924 160.648 161.616  0.00  0.00    +0.012 C 
ATOM      3  C   UNL     1     150.452 161.148 162.946  0.00  0.00    -0.072 C 
ATOM      4  C   UNL     1     151.277 161.546 163.929  0.00  0.00    -0.062 C 
ATOM      5  C   UNL     1     150.909 162.053 165.299  0.00  0.00    +0.074 C 
ATOM      6  C   UNL     1     149.441 162.031 165.765  0.00  0.00    +0.011 C 
ATOM      7  C   UNL     1     149.111 161.877 167.257  0.00  0.00    +0.018 C 
ATOM      8  N   UNL     1     149.575 162.508 168.276  0.00  0.00    -0.292 NA
ATOM      9  C   UNL     1     150.592 163.542 168.265  0.00  0.00    +0.044 C 
ATOM     10  C   UNL     1     151.468 163.416 169.531  0.00  0.00    -0.008 C 
ATOM     11  C   UNL     1     152.382 162.221 169.702  0.00  0.00    -0.039 C 
ATOM     12  C   UNL     1     152.529 161.199 168.905  0.00  0.00    -0.102 C 
ATOM     13  C   UNL     1     152.616 160.204 168.066  0.00  0.00    +0.105 C 
ATOM     14 CL   UNL     1     153.325 158.771 168.659  0.00  0.00    -0.073 Cl
ATOM     15  C   UNL     1     151.913 160.304 166.746  0.00  0.00    +0.082 C 
ATOM     16  N   UNL     1     151.781 161.513 166.315  0.00  0.00    -0.277 NA
ATOM     17  C   UNL     1     151.350 159.067 166.052  0.00  0.00    +0.101 C 
ATOM     18 CL   UNL     1     152.716 158.096 165.422  0.00  0.00    -0.113 Cl
ATOM     19  C   UNL     1     150.390 158.223 166.892  0.00  0.00    +0.069 C 
ATOM     20  O   UNL     1     149.084 158.812 166.849  0.00  0.00    -0.378 OA
ATOM     21  C   UNL     1     148.737 159.546 168.024  0.00  0.00    +0.053 C 
ATOM     22  C   UNL     1     148.048 160.835 167.606  0.00  0.00    +0.009 C 
ATOM     23  H   UNL     1     150.814 161.193 159.660  0.00  0.00    +0.000 HD
ATOM     24  H   UNL     1     150.871 162.474 160.723  0.00  0.00    +0.000 HD
ATOM     25  H   UNL     1     149.468 161.594 160.555  0.00  0.00    +0.000 HD
ENDROOT
TORSDOF 0
ENDMDL
MODEL 5
REMARK VINA RESULT:    -3.151     15.216     18.501
REMARK INTER + INTRA:          -3.151
REMARK INTER:                  -3.151
REMARK INTRA:                   0.000
REMARK UNBOUND:                 0.000
REMARK  Name = /home/vital/Documents/PhD_2021/Malaria_codes/scripts/../data/pdbqt_ligands/ligand_288_temp.pdb
REMARK                            x       y       z     vdW  Elec       q    Type
REMARK                         _______ _______ _______ _____ _____    ______ ____
ROOT
ATOM      1  N   UNL     1     141.488 150.398 168.142  0.00  0.00    -0.327 N 
ATOM      2  C   UNL     1     142.487 149.531 167.541  0.00  0.00    +0.012 C 
ATOM      3  C   UNL     1     141.864 148.234 167.129  0.00  0.00    -0.072 C 
ATOM      4  C   UNL     1     142.195 147.045 167.660  0.00  0.00    -0.062 C 
ATOM      5  C   UNL     1     141.641 145.688 167.313  0.00  0.00    +0.074 C 
ATOM      6  C   UNL     1     140.663 145.529 166.132  0.00  0.00    +0.011 C 
ATOM      7  C   UNL     1     140.617 144.211 165.345  0.00  0.00    +0.018 C 
ATOM      8  N   UNL     1     140.532 143.000 165.765  0.00  0.00    -0.292 NA
ATOM      9  C   UNL     1     140.491 142.563 167.148  0.00  0.00    +0.044 C 
ATOM     10  C   UNL     1     141.248 141.224 167.288  0.00  0.00    -0.008 C 
ATOM     11  C   UNL     1     142.750 141.181 167.097  0.00  0.00    -0.039 C 
ATOM     12  C   UNL     1     143.549 142.162 166.781  0.00  0.00    -0.102 C 
ATOM     13  C   UNL     1     144.286 143.187 166.453  0.00  0.00    +0.105 C 
ATOM     14 CL   UNL     1     145.838 142.841 165.836  0.00  0.00    -0.073 Cl
ATOM     15  C   UNL     1     143.664 144.551 166.433  0.00  0.00    +0.082 C 
ATOM     16  N   UNL     1     142.682 144.689 167.258  0.00  0.00    -0.277 NA
ATOM     17  C   UNL     1     144.133 145.622 165.452  0.00  0.00    +0.101 C 
ATOM     18 CL   UNL     1     145.747 146.200 165.966  0.00  0.00    -0.113 Cl
ATOM     19  C   UNL     1     144.117 145.213 163.979  0.00  0.00    +0.069 C 
ATOM     20  O   UNL     1     142.786 145.357 163.464  0.00  0.00    -0.378 OA
ATOM     21  C   UNL     1     142.074 144.125 163.337  0.00  0.00    +0.053 C 
ATOM     22  C   UNL     1     140.649 144.337 163.822  0.00  0.00    +0.009 C 
ATOM     23  H   UNL     1     141.924 151.278 168.418  0.00  0.00    +0.000 HD
ATOM     24  H   UNL     1     141.092 149.942 168.963  0.00  0.00    +0.000 HD
ATOM     25  H   UNL     1     140.747 150.584 167.466  0.00  0.00    +0.000 HD
ENDROOT
TORSDOF 0
ENDMDL
MODEL 6
REMARK VINA RESULT:    -2.982      2.679      4.903
REMARK INTER + INTRA:          -2.982
REMARK INTER:                  -2.982
REMARK INTRA:                   0.000
REMARK UNBOUND:                 0.000
REMARK  Name = /home/vital/Documents/PhD_2021/Malaria_codes/scripts/../data/pdbqt_ligands/ligand_288_temp.pdb
REMARK                            x       y       z     vdW  Elec       q    Type
REMARK                         _______ _______ _______ _____ _____    ______ ____
ROOT
ATOM      1  N   UNL     1     154.684 162.560 171.303  0.00  0.00    -0.327 N 
ATOM      2  C   UNL     1     153.355 162.752 170.748  0.00  0.00    +0.012 C 
ATOM      3  C   UNL     1     153.123 161.794 169.622  0.00  0.00    -0.072 C 
ATOM      4  C   UNL     1     152.925 162.173 168.348  0.00  0.00    -0.062 C 
ATOM      5  C   UNL     1     152.674 161.297 167.148  0.00  0.00    +0.074 C 
ATOM      6  C   UNL     1     152.479 159.779 167.324  0.00  0.00    +0.011 C 
ATOM      7  C   UNL     1     151.596 158.999 166.338  0.00  0.00    +0.018 C 
ATOM      8  N   UNL     1     151.596 158.995 165.053  0.00  0.00    -0.292 NA
ATOM      9  C   UNL     1     152.446 159.788 164.184  0.00  0.00    +0.044 C 
ATOM     10  C   UNL     1     151.652 160.201 162.925  0.00  0.00    -0.008 C 
ATOM     11  C   UNL     1     150.500 161.177 163.044  0.00  0.00    -0.039 C 
ATOM     12  C   UNL     1     150.025 161.735 164.123  0.00  0.00    -0.102 C 
ATOM     13  C   UNL     1     149.597 162.246 165.244  0.00  0.00    +0.105 C 
ATOM     14 CL   UNL     1     148.034 162.928 165.220  0.00  0.00    -0.073 Cl
ATOM     15  C   UNL     1     150.390 162.016 166.495  0.00  0.00    +0.082 C 
ATOM     16  N   UNL     1     151.653 161.854 166.292  0.00  0.00    -0.277 NA
ATOM     17  C   UNL     1     149.708 161.913 167.858  0.00  0.00    +0.101 C 
ATOM     18 CL   UNL     1     149.140 163.541 168.336  0.00  0.00    -0.113 Cl
ATOM     19  C   UNL     1     148.596 160.869 167.955  0.00  0.00    +0.069 C 
ATOM     20  O   UNL     1     149.179 159.578 168.176  0.00  0.00    -0.378 OA
ATOM     21  C   UNL     1     149.220 158.751 167.011  0.00  0.00    +0.053 C 
ATOM     22  C   UNL     1     150.570 158.054 166.960  0.00  0.00    +0.009 C 
ATOM     23  H   UNL     1     154.830 163.218 172.069  0.00  0.00    +0.000 HD
ATOM     24  H   UNL     1     155.382 162.722 170.578  0.00  0.00    +0.000 HD
ATOM     25  H   UNL     1     154.772 161.606 171.653  0.00  0.00    +0.000 HD
ENDROOT
TORSDOF 0
ENDMDL
MODEL 7
REMARK VINA RESULT:    -2.834      2.678      4.290
REMARK INTER + INTRA:          -2.834
REMARK INTER:                  -2.834
REMARK INTRA:                   0.000
REMARK UNBOUND:                 0.000
REMARK  Name = /home/vital/Documents/PhD_2021/Malaria_codes/scripts/../data/pdbqt_ligands/ligand_288_temp.pdb
REMARK                            x       y       z     vdW  Elec       q    Type
REMARK                         _______ _______ _______ _____ _____    ______ ____
ROOT
ATOM      1  N   UNL     1     150.450 154.386 165.583  0.00  0.00    -0.327 N 
ATOM      2  C   UNL     1     149.829 155.636 165.984  0.00  0.00    +0.012 C 
ATOM      3  C   UNL     1     150.782 156.773 165.786  0.00  0.00    -0.072 C 
ATOM      4  C   UNL     1     151.265 157.525 166.790  0.00  0.00    -0.062 C 
ATOM      5  C   UNL     1     152.214 158.691 166.701  0.00  0.00    +0.074 C 
ATOM      6  C   UNL     1     152.640 159.241 165.326  0.00  0.00    +0.011 C 
ATOM      7  C   UNL     1     153.000 160.726 165.170  0.00  0.00    +0.018 C 
ATOM      8  N   UNL     1     153.787 161.463 165.868  0.00  0.00    -0.292 NA
ATOM      9  C   UNL     1     154.533 161.061 167.045  0.00  0.00    +0.044 C 
ATOM     10  C   UNL     1     154.599 162.241 168.041  0.00  0.00    -0.008 C 
ATOM     11  C   UNL     1     153.340 162.712 168.739  0.00  0.00    -0.039 C 
ATOM     12  C   UNL     1     152.123 162.265 168.594  0.00  0.00    -0.102 C 
ATOM     13  C   UNL     1     150.932 161.773 168.390  0.00  0.00    +0.105 C 
ATOM     14 CL   UNL     1     149.618 162.732 168.900  0.00  0.00    -0.073 Cl
ATOM     15  C   UNL     1     150.791 160.538 167.551  0.00  0.00    +0.082 C 
ATOM     16  N   UNL     1     151.821 159.762 167.586  0.00  0.00    -0.277 NA
ATOM     17  C   UNL     1     149.554 160.303 166.689  0.00  0.00    +0.101 C 
ATOM     18 CL   UNL     1     148.175 159.914 167.763  0.00  0.00    -0.113 Cl
ATOM     19  C   UNL     1     149.214 161.428 165.710  0.00  0.00    +0.069 C 
ATOM     20  O   UNL     1     150.028 161.293 164.537  0.00  0.00    -0.378 OA
ATOM     21  C   UNL     1     151.128 162.203 164.483  0.00  0.00    +0.053 C 
ATOM     22  C   UNL     1     152.354 161.453 163.991  0.00  0.00    +0.009 C 
ATOM     23  H   UNL     1     149.792 153.619 165.721  0.00  0.00    +0.000 HD
ATOM     24  H   UNL     1     151.285 154.225 166.147  0.00  0.00    +0.000 HD
ATOM     25  H   UNL     1     150.711 154.436 164.598  0.00  0.00    +0.000 HD
ENDROOT
TORSDOF 0
ENDMDL
MODEL 8
REMARK VINA RESULT:    -2.725      1.539      1.867
REMARK INTER + INTRA:          -2.725
REMARK INTER:                  -2.725
REMARK INTRA:                   0.000
REMARK UNBOUND:                 0.000
REMARK  Name = /home/vital/Documents/PhD_2021/Malaria_codes/scripts/../data/pdbqt_ligands/ligand_288_temp.pdb
REMARK                            x       y       z     vdW  Elec       q    Type
REMARK                         _______ _______ _______ _____ _____    ______ ____
ROOT
ATOM      1  N   UNL     1     151.382 154.299 167.669  0.00  0.00    -0.327 N 
ATOM      2  C   UNL     1     151.451 155.376 166.696  0.00  0.00    +0.012 C 
ATOM      3  C   UNL     1     151.717 156.678 167.385  0.00  0.00    -0.072 C 
ATOM      4  C   UNL     1     150.854 157.708 167.393  0.00  0.00    -0.062 C 
ATOM      5  C   UNL     1     151.026 159.056 168.043  0.00  0.00    +0.074 C 
ATOM      6  C   UNL     1     152.370 159.438 168.693  0.00  0.00    +0.011 C 
ATOM      7  C   UNL     1     152.812 160.908 168.737  0.00  0.00    +0.018 C 
ATOM      8  N   UNL     1     152.168 161.953 169.116  0.00  0.00    -0.292 NA
ATOM      9  C   UNL     1     150.796 162.004 169.583  0.00  0.00    +0.044 C 
ATOM     10  C   UNL     1     150.137 163.317 169.107  0.00  0.00    -0.008 C 
ATOM     11  C   UNL     1     149.868 163.537 167.633  0.00  0.00    -0.039 C 
ATOM     12  C   UNL     1     150.155 162.747 166.635  0.00  0.00    -0.102 C 
ATOM     13  C   UNL     1     150.481 161.911 165.688  0.00  0.00    +0.105 C 
ATOM     14 CL   UNL     1     150.524 162.539 164.103  0.00  0.00    -0.073 Cl
ATOM     15  C   UNL     1     150.993 160.553 166.063  0.00  0.00    +0.082 C 
ATOM     16  N   UNL     1     150.544 160.118 167.192  0.00  0.00    -0.277 NA
ATOM     17  C   UNL     1     152.015 159.823 165.195  0.00  0.00    +0.101 C 
ATOM     18 CL   UNL     1     151.200 159.270 163.700  0.00  0.00    -0.113 Cl
ATOM     19  C   UNL     1     153.294 160.605 164.891  0.00  0.00    +0.069 C 
ATOM     20  O   UNL     1     154.192 160.489 166.003  0.00  0.00    -0.378 OA
ATOM     21  C   UNL     1     154.234 161.645 166.841  0.00  0.00    +0.053 C 
ATOM     22  C   UNL     1     154.246 161.191 168.291  0.00  0.00    +0.009 C 
ATOM     23  H   UNL     1     151.201 153.418 167.188  0.00  0.00    +0.000 HD
ATOM     24  H   UNL     1     150.630 154.487 168.331  0.00  0.00    +0.000 HD
ATOM     25  H   UNL     1     152.268 154.236 168.170  0.00  0.00    +0.000 HD
ENDROOT
TORSDOF 0
ENDMDL
MODEL 9
REMARK VINA RESULT:    -2.457      2.405      4.731
REMARK INTER + INTRA:          -2.457
REMARK INTER:                  -2.457
REMARK INTRA:                   0.000
REMARK UNBOUND:                 0.000
REMARK  Name = /home/vital/Documents/PhD_2021/Malaria_codes/scripts/../data/pdbqt_ligands/ligand_288_temp.pdb
REMARK                            x       y       z     vdW  Elec       q    Type
REMARK                         _______ _______ _______ _____ _____    ______ ____
ROOT
ATOM      1  N   UNL     1     154.249 162.545 171.846  0.00  0.00    -0.327 N 
ATOM      2  C   UNL     1     153.729 162.885 170.533  0.00  0.00    +0.012 C 
ATOM      3  C   UNL     1     152.882 161.768 170.008  0.00  0.00    -0.072 C 
ATOM      4  C   UNL     1     153.184 161.055 168.910  0.00  0.00    -0.062 C 
ATOM      5  C   UNL     1     152.401 159.925 168.294  0.00  0.00    +0.074 C 
ATOM      6  C   UNL     1     151.012 159.553 168.846  0.00  0.00    +0.011 C 
ATOM      7  C   UNL     1     149.951 158.948 167.914  0.00  0.00    +0.018 C 
ATOM      8  N   UNL     1     150.040 157.973 167.084  0.00  0.00    -0.292 NA
ATOM      9  C   UNL     1     151.227 157.192 166.788  0.00  0.00    +0.044 C 
ATOM     10  C   UNL     1     151.232 156.810 165.291  0.00  0.00    -0.008 C 
ATOM     11  C   UNL     1     151.416 157.883 164.238  0.00  0.00    -0.039 C 
ATOM     12  C   UNL     1     151.548 159.169 164.413  0.00  0.00    -0.102 C 
ATOM     13  C   UNL     1     151.664 160.444 164.664  0.00  0.00    +0.105 C 
ATOM     14 CL   UNL     1     151.389 161.503 163.356  0.00  0.00    -0.073 Cl
ATOM     15  C   UNL     1     151.811 160.893 166.086  0.00  0.00    +0.082 C 
ATOM     16  N   UNL     1     152.375 160.023 166.854  0.00  0.00    -0.277 NA
ATOM     17  C   UNL     1     151.257 162.236 166.555  0.00  0.00    +0.101 C 
ATOM     18 CL   UNL     1     152.278 163.542 165.878  0.00  0.00    -0.113 Cl
ATOM     19  C   UNL     1     149.772 162.467 166.270  0.00  0.00    +0.069 C 
ATOM     20  O   UNL     1     148.992 161.819 167.283  0.00  0.00    -0.378 OA
ATOM     21  C   UNL     1     148.406 160.584 166.866  0.00  0.00    +0.053 C 
ATOM     22  C   UNL     1     148.558 159.573 167.990  0.00  0.00    +0.009 C 
ATOM     23  H   UNL     1     154.824 163.313 172.193  0.00  0.00    +0.000 HD
ATOM     24  H   UNL     1     154.815 161.699 171.779  0.00  0.00    +0.000 HD
ATOM     25  H   UNL     1     153.473 162.385 172.488  0.00  0.00    +0.000 HD
ENDROOT
TORSDOF 0
ENDMDL
