MODEL 1
REMARK VINA RESULT:    -4.952      0.000      0.000
REMARK INTER + INTRA:          -4.952
REMARK INTER:                  -4.952
REMARK INTRA:                   0.000
REMARK UNBOUND:                 0.000
REMARK  Name = /home/vital/Documents/PhD_2021/Malaria_codes/scripts/../data/pdbqt_ligands/ligand_316_temp.pdb
REMARK                            x       y       z     vdW  Elec       q    Type
REMARK                         _______ _______ _______ _____ _____    ______ ____
ROOT
ATOM      1  C1  UNL     1     152.105 156.616 151.592  0.00  0.00    -0.043 C 
ATOM      2  C2  UNL     1     153.020 155.853 152.523  0.00  0.00    -0.062 C 
ATOM      3  C3  UNL     1     152.642 155.267 153.681  0.00  0.00    -0.077 C 
ATOM      4  C4  UNL     1     151.267 155.218 154.302  0.00  0.00    +0.026 C 
ATOM      5  C5  UNL     1     151.207 155.960 155.621  0.00  0.00    +0.134 A 
ATOM      6  N1  UNL     1     151.371 155.247 156.749  0.00  0.00    -0.236 NA
ATOM      7  C6  UNL     1     151.357 155.924 157.922  0.00  0.00    +0.055 A 
ATOM      8  C7  UNL     1     151.516 155.062 159.150  0.00  0.00    +0.016 C 
ATOM      9  C8  UNL     1     150.166 154.696 159.762  0.00  0.00    +0.074 C 
ATOM     10  O1  UNL     1     150.402 153.891 160.928  0.00  0.00    -0.302 OA
ATOM     11  N2  UNL     1     149.128 153.688 161.609  0.00  0.00    -0.215 NA
ATOM     12  C9  UNL     1     151.179 157.315 157.989  0.00  0.00    +0.022 A 
ATOM     13  C10 UNL     1     151.153 158.089 159.180  0.00  0.00    -0.051 A 
ATOM     14  C11 UNL     1     150.970 159.471 159.129  0.00  0.00    -0.061 A 
ATOM     15  C12 UNL     1     150.815 160.094 157.897  0.00  0.00    -0.060 A 
ATOM     16  C13 UNL     1     150.839 159.329 156.726  0.00  0.00    -0.036 A 
ATOM     17  C14 UNL     1     151.018 157.950 156.748  0.00  0.00    +0.075 A 
ATOM     18  N3  UNL     1     151.028 157.291 155.583  0.00  0.00    -0.232 NA
ATOM     19  C15 UNL     1     154.466 155.811 152.089  0.00  0.00    +0.043 C 
ATOM     20 CL1  UNL     1     154.738 154.441 150.959  0.00  0.00    -0.121 Cl
ATOM     21  H   UNL     1     149.275 153.117 162.442  0.00  0.00    +0.000 HD
ATOM     22  H   UNL     1     148.479 153.213 160.982  0.00  0.00    +0.000 HD
ENDROOT
TORSDOF 0
ENDMDL
MODEL 2
REMARK VINA RESULT:    -4.719      5.869      8.844
REMARK INTER + INTRA:          -4.719
REMARK INTER:                  -4.719
REMARK INTRA:                   0.000
REMARK UNBOUND:                 0.000
REMARK  Name = /home/vital/Documents/PhD_2021/Malaria_codes/scripts/../data/pdbqt_ligands/ligand_316_temp.pdb
REMARK                            x       y       z     vdW  Elec       q    Type
REMARK                         _______ _______ _______ _____ _____    ______ ____
ROOT
ATOM      1  C1  UNL     1     151.020 163.524 164.735  0.00  0.00    -0.043 C 
ATOM      2  C2  UNL     1     149.839 162.582 164.680  0.00  0.00    -0.062 C 
ATOM      3  C3  UNL     1     149.897 161.277 164.334  0.00  0.00    -0.077 C 
ATOM      4  C4  UNL     1     151.107 160.463 163.946  0.00  0.00    +0.026 C 
ATOM      5  C5  UNL     1     151.040 159.986 162.510  0.00  0.00    +0.134 A 
ATOM      6  N1  UNL     1     150.558 158.752 162.281  0.00  0.00    -0.236 NA
ATOM      7  C6  UNL     1     150.463 158.348 160.992  0.00  0.00    +0.055 A 
ATOM      8  C7  UNL     1     149.943 156.944 160.807  0.00  0.00    +0.016 C 
ATOM      9  C8  UNL     1     151.081 155.936 160.659  0.00  0.00    +0.074 C 
ATOM     10  O1  UNL     1     150.507 154.632 160.474  0.00  0.00    -0.302 OA
ATOM     11  N2  UNL     1     151.583 153.699 160.160  0.00  0.00    -0.215 NA
ATOM     12  C9  UNL     1     150.845 159.164 159.916  0.00  0.00    +0.022 A 
ATOM     13  C10 UNL     1     150.774 158.808 158.542  0.00  0.00    -0.051 A 
ATOM     14  C11 UNL     1     151.182 159.701 157.551  0.00  0.00    -0.061 A 
ATOM     15  C12 UNL     1     151.660 160.953 157.916  0.00  0.00    -0.060 A 
ATOM     16  C13 UNL     1     151.732 161.301 159.269  0.00  0.00    -0.036 A 
ATOM     17  C14 UNL     1     151.333 160.429 160.277  0.00  0.00    +0.075 A 
ATOM     18  N3  UNL     1     151.433 160.838 161.548  0.00  0.00    -0.232 NA
ATOM     19  C15 UNL     1     148.510 163.221 165.012  0.00  0.00    +0.043 C 
ATOM     20 CL1  UNL     1     148.236 163.205 166.786  0.00  0.00    -0.121 Cl
ATOM     21  H   UNL     1     151.196 152.765 160.025  0.00  0.00    +0.000 HD
ATOM     22  H   UNL     1     152.253 153.681 160.929  0.00  0.00    +0.000 HD
ENDROOT
TORSDOF 0
ENDMDL
MODEL 3
REMARK VINA RESULT:    -4.674      4.053      6.860
REMARK INTER + INTRA:          -4.674
REMARK INTER:                  -4.674
REMARK INTRA:                   0.000
REMARK UNBOUND:                 0.000
REMARK  Name = /home/vital/Documents/PhD_2021/Malaria_codes/scripts/../data/pdbqt_ligands/ligand_316_temp.pdb
REMARK                            x       y       z     vdW  Elec       q    Type
REMARK                         _______ _______ _______ _____ _____    ______ ____
ROOT
ATOM      1  C1  UNL     1     150.030 154.284 162.954  0.00  0.00    -0.043 C 
ATOM      2  C2  UNL     1     149.207 154.115 161.697  0.00  0.00    -0.062 C 
ATOM      3  C3  UNL     1     149.684 154.197 160.435  0.00  0.00    -0.077 C 
ATOM      4  C4  UNL     1     151.101 154.454 159.984  0.00  0.00    +0.026 C 
ATOM      5  C5  UNL     1     151.236 155.764 159.236  0.00  0.00    +0.134 A 
ATOM      6  N1  UNL     1     151.174 155.729 157.893  0.00  0.00    -0.236 NA
ATOM      7  C6  UNL     1     151.254 156.909 157.234  0.00  0.00    +0.055 A 
ATOM      8  C7  UNL     1     151.209 156.797 155.730  0.00  0.00    +0.016 C 
ATOM      9  C8  UNL     1     152.610 156.777 155.123  0.00  0.00    +0.074 C 
ATOM     10  O1  UNL     1     152.482 156.682 153.695  0.00  0.00    -0.302 OA
ATOM     11  N2  UNL     1     153.807 156.839 153.106  0.00  0.00    -0.215 NA
ATOM     12  C9  UNL     1     151.397 158.137 157.899  0.00  0.00    +0.022 A 
ATOM     13  C10 UNL     1     151.488 159.410 157.275  0.00  0.00    -0.051 A 
ATOM     14  C11 UNL     1     151.628 160.570 158.037  0.00  0.00    -0.061 A 
ATOM     15  C12 UNL     1     151.675 160.475 159.421  0.00  0.00    -0.060 A 
ATOM     16  C13 UNL     1     151.588 159.221 160.034  0.00  0.00    -0.036 A 
ATOM     17  C14 UNL     1     151.450 158.049 159.298  0.00  0.00    +0.075 A 
ATOM     18  N3  UNL     1     151.374 156.887 159.961  0.00  0.00    -0.232 NA
ATOM     19  C15 UNL     1     147.735 153.876 161.937  0.00  0.00    +0.043 C 
ATOM     20 CL1  UNL     1     147.420 152.125 162.187  0.00  0.00    -0.121 Cl
ATOM     21  H   UNL     1     153.737 156.774 152.090  0.00  0.00    +0.000 HD
ATOM     22  H   UNL     1     154.422 156.102 153.451  0.00  0.00    +0.000 HD
ENDROOT
TORSDOF 0
ENDMDL
MODEL 4
REMARK VINA RESULT:    -4.611      4.853      6.484
REMARK INTER + INTRA:          -4.611
REMARK INTER:                  -4.611
REMARK INTRA:                   0.000
REMARK UNBOUND:                 0.000
REMARK  Name = /home/vital/Documents/PhD_2021/Malaria_codes/scripts/../data/pdbqt_ligands/ligand_316_temp.pdb
REMARK                            x       y       z     vdW  Elec       q    Type
REMARK                         _______ _______ _______ _____ _____    ______ ____
ROOT
ATOM      1  C1  UNL     1     149.563 158.800 157.684  0.00  0.00    -0.043 C 
ATOM      2  C2  UNL     1     150.848 158.119 158.099  0.00  0.00    -0.062 C 
ATOM      3  C3  UNL     1     151.088 157.579 159.314  0.00  0.00    -0.077 C 
ATOM      4  C4  UNL     1     150.167 157.511 160.508  0.00  0.00    +0.026 C 
ATOM      5  C5  UNL     1     150.688 158.316 161.681  0.00  0.00    +0.134 A 
ATOM      6  N1  UNL     1     151.399 157.668 162.620  0.00  0.00    -0.236 NA
ATOM      7  C6  UNL     1     151.896 158.402 163.643  0.00  0.00    +0.055 A 
ATOM      8  C7  UNL     1     152.658 157.611 164.677  0.00  0.00    +0.016 C 
ATOM      9  C8  UNL     1     151.772 157.226 165.860  0.00  0.00    +0.074 C 
ATOM     10  O1  UNL     1     152.570 156.491 166.801  0.00  0.00    -0.302 OA
ATOM     11  N2  UNL     1     151.775 156.275 168.005  0.00  0.00    -0.215 NA
ATOM     12  C9  UNL     1     151.692 159.787 163.748  0.00  0.00    +0.022 A 
ATOM     13  C10 UNL     1     152.180 160.619 164.790  0.00  0.00    -0.051 A 
ATOM     14  C11 UNL     1     151.916 161.989 164.793  0.00  0.00    -0.061 A 
ATOM     15  C12 UNL     1     151.170 162.543 163.761  0.00  0.00    -0.060 A 
ATOM     16  C13 UNL     1     150.687 161.721 162.736  0.00  0.00    -0.036 A 
ATOM     17  C14 UNL     1     150.934 160.353 162.710  0.00  0.00    +0.075 A 
ATOM     18  N3  UNL     1     150.437 159.636 161.694  0.00  0.00    -0.232 NA
ATOM     19  C15 UNL     1     151.925 158.109 157.039  0.00  0.00    +0.043 C 
ATOM     20 CL1  UNL     1     151.715 156.695 155.952  0.00  0.00    -0.121 Cl
ATOM     21  H   UNL     1     152.325 155.753 168.687  0.00  0.00    +0.000 HD
ATOM     22  H   UNL     1     150.936 155.746 167.768  0.00  0.00    +0.000 HD
ENDROOT
TORSDOF 0
ENDMDL
MODEL 5
REMARK VINA RESULT:    -4.444      2.059      2.874
REMARK INTER + INTRA:          -4.444
REMARK INTER:                  -4.444
REMARK INTRA:                   0.000
REMARK UNBOUND:                 0.000
REMARK  Name = /home/vital/Documents/PhD_2021/Malaria_codes/scripts/../data/pdbqt_ligands/ligand_316_temp.pdb
REMARK                            x       y       z     vdW  Elec       q    Type
REMARK                         _______ _______ _______ _____ _____    ______ ____
ROOT
ATOM      1  C1  UNL     1     151.776 158.035 154.331  0.00  0.00    -0.043 C 
ATOM      2  C2  UNL     1     152.038 156.588 154.683  0.00  0.00    -0.062 C 
ATOM      3  C3  UNL     1     151.315 155.856 155.559  0.00  0.00    -0.077 C 
ATOM      4  C4  UNL     1     150.108 156.276 156.361  0.00  0.00    +0.026 C 
ATOM      5  C5  UNL     1     150.380 156.267 157.851  0.00  0.00    +0.134 A 
ATOM      6  N1  UNL     1     150.035 155.168 158.545  0.00  0.00    -0.236 NA
ATOM      7  C6  UNL     1     150.319 155.153 159.869  0.00  0.00    +0.055 A 
ATOM      8  C7  UNL     1     149.880 153.904 160.594  0.00  0.00    +0.016 C 
ATOM      9  C8  UNL     1     148.517 154.086 161.257  0.00  0.00    +0.074 C 
ATOM     10  O1  UNL     1     148.178 152.865 161.934  0.00  0.00    -0.302 OA
ATOM     11  N2  UNL     1     146.963 153.093 162.709  0.00  0.00    -0.215 NA
ATOM     12  C9  UNL     1     150.945 156.227 160.520  0.00  0.00    +0.022 A 
ATOM     13  C10 UNL     1     151.272 156.280 161.902  0.00  0.00    -0.051 A 
ATOM     14  C11 UNL     1     151.898 157.403 162.444  0.00  0.00    -0.061 A 
ATOM     15  C12 UNL     1     152.207 158.477 161.620  0.00  0.00    -0.060 A 
ATOM     16  C13 UNL     1     151.882 158.424 160.261  0.00  0.00    -0.036 A 
ATOM     17  C14 UNL     1     151.257 157.318 159.695  0.00  0.00    +0.075 A 
ATOM     18  N3  UNL     1     150.980 157.346 158.384  0.00  0.00    -0.232 NA
ATOM     19  C15 UNL     1     153.240 155.982 153.997  0.00  0.00    +0.043 C 
ATOM     20 CL1  UNL     1     152.779 155.340 152.384  0.00  0.00    -0.121 Cl
ATOM     21  H   UNL     1     146.705 152.236 163.198  0.00  0.00    +0.000 HD
ATOM     22  H   UNL     1     146.207 153.368 162.083  0.00  0.00    +0.000 HD
ENDROOT
TORSDOF 0
ENDMDL
MODEL 6
REMARK VINA RESULT:    -4.338      7.491     10.237
REMARK INTER + INTRA:          -4.338
REMARK INTER:                  -4.338
REMARK INTRA:                   0.000
REMARK UNBOUND:                 0.000
REMARK  Name = /home/vital/Documents/PhD_2021/Malaria_codes/scripts/../data/pdbqt_ligands/ligand_316_temp.pdb
REMARK                            x       y       z     vdW  Elec       q    Type
REMARK                         _______ _______ _______ _____ _____    ______ ____
ROOT
ATOM      1  C1  UNL     1     152.809 156.089 167.521  0.00  0.00    -0.043 C 
ATOM      2  C2  UNL     1     151.651 155.979 166.555  0.00  0.00    -0.062 C 
ATOM      3  C3  UNL     1     151.628 156.487 165.303  0.00  0.00    -0.077 C 
ATOM      4  C4  UNL     1     152.713 157.247 164.580  0.00  0.00    +0.026 C 
ATOM      5  C5  UNL     1     152.307 158.674 164.275  0.00  0.00    +0.134 A 
ATOM      6  N1  UNL     1     151.788 158.933 163.062  0.00  0.00    -0.236 NA
ATOM      7  C6  UNL     1     151.390 160.203 162.813  0.00  0.00    +0.055 A 
ATOM      8  C7  UNL     1     150.845 160.432 161.425  0.00  0.00    +0.016 C 
ATOM      9  C8  UNL     1     151.917 160.967 160.478  0.00  0.00    +0.074 C 
ATOM     10  O1  UNL     1     151.319 161.171 159.188  0.00  0.00    -0.302 OA
ATOM     11  N2  UNL     1     152.292 161.842 158.334  0.00  0.00    -0.215 NA
ATOM     12  C9  UNL     1     151.504 161.230 163.762  0.00  0.00    +0.022 A 
ATOM     13  C10 UNL     1     151.109 162.582 163.570  0.00  0.00    -0.051 A 
ATOM     14  C11 UNL     1     151.267 163.523 164.588  0.00  0.00    -0.061 A 
ATOM     15  C12 UNL     1     151.815 163.130 165.802  0.00  0.00    -0.060 A 
ATOM     16  C13 UNL     1     152.206 161.799 165.988  0.00  0.00    -0.036 A 
ATOM     17  C14 UNL     1     152.060 160.841 164.990  0.00  0.00    +0.075 A 
ATOM     18  N3  UNL     1     152.459 159.589 165.248  0.00  0.00    -0.232 NA
ATOM     19  C15 UNL     1     150.437 155.268 167.107  0.00  0.00    +0.043 C 
ATOM     20 CL1  UNL     1     150.594 153.494 166.871  0.00  0.00    -0.121 Cl
ATOM     21  H   UNL     1     151.886 161.997 157.411  0.00  0.00    +0.000 HD
ATOM     22  H   UNL     1     153.125 161.261 158.245  0.00  0.00    +0.000 HD
ENDROOT
TORSDOF 0
ENDMDL
MODEL 7
REMARK VINA RESULT:    -4.310      5.944      8.475
REMARK INTER + INTRA:          -4.310
REMARK INTER:                  -4.310
REMARK INTRA:                   0.000
REMARK UNBOUND:                 0.000
REMARK  Name = /home/vital/Documents/PhD_2021/Malaria_codes/scripts/../data/pdbqt_ligands/ligand_316_temp.pdb
REMARK                            x       y       z     vdW  Elec       q    Type
REMARK                         _______ _______ _______ _____ _____    ______ ____
ROOT
ATOM      1  C1  UNL     1     151.176 158.494 159.887  0.00  0.00    -0.043 C 
ATOM      2  C2  UNL     1     150.965 158.866 161.337  0.00  0.00    -0.062 C 
ATOM      3  C3  UNL     1     151.310 158.102 162.397  0.00  0.00    -0.077 C 
ATOM      4  C4  UNL     1     151.978 156.749 162.399  0.00  0.00    +0.026 C 
ATOM      5  C5  UNL     1     151.080 155.667 162.965  0.00  0.00    +0.134 A 
ATOM      6  N1  UNL     1     151.214 155.358 164.266  0.00  0.00    -0.236 NA
ATOM      7  C6  UNL     1     150.380 154.420 164.773  0.00  0.00    +0.055 A 
ATOM      8  C7  UNL     1     150.602 154.098 166.230  0.00  0.00    +0.016 C 
ATOM      9  C8  UNL     1     151.500 152.876 166.409  0.00  0.00    +0.074 C 
ATOM     10  O1  UNL     1     151.651 152.629 167.816  0.00  0.00    -0.302 OA
ATOM     11  N2  UNL     1     152.361 151.366 167.984  0.00  0.00    -0.215 NA
ATOM     12  C9  UNL     1     149.405 153.776 163.995  0.00  0.00    +0.022 A 
ATOM     13  C10 UNL     1     148.499 152.785 164.458  0.00  0.00    -0.051 A 
ATOM     14  C11 UNL     1     147.567 152.211 163.593  0.00  0.00    -0.061 A 
ATOM     15  C12 UNL     1     147.525 152.618 162.266  0.00  0.00    -0.060 A 
ATOM     16  C13 UNL     1     148.420 153.593 161.812  0.00  0.00    -0.036 A 
ATOM     17  C14 UNL     1     149.360 154.180 162.652  0.00  0.00    +0.075 A 
ATOM     18  N3  UNL     1     150.181 155.106 162.139  0.00  0.00    -0.232 NA
ATOM     19  C15 UNL     1     150.272 160.192 161.552  0.00  0.00    +0.043 C 
ATOM     20 CL1  UNL     1     151.471 161.529 161.551  0.00  0.00    -0.121 Cl
ATOM     21  H   UNL     1     152.480 151.171 168.979  0.00  0.00    +0.000 HD
ATOM     22  H   UNL     1     153.277 151.429 167.540  0.00  0.00    +0.000 HD
ENDROOT
TORSDOF 0
ENDMDL
MODEL 8
REMARK VINA RESULT:    -4.211      5.719      8.521
REMARK INTER + INTRA:          -4.211
REMARK INTER:                  -4.211
REMARK INTRA:                   0.000
REMARK UNBOUND:                 0.000
REMARK  Name = /home/vital/Documents/PhD_2021/Malaria_codes/scripts/../data/pdbqt_ligands/ligand_316_temp.pdb
REMARK                            x       y       z     vdW  Elec       q    Type
REMARK                         _______ _______ _______ _____ _____    ______ ____
ROOT
ATOM      1  C1  UNL     1     150.839 153.878 165.274  0.00  0.00    -0.043 C 
ATOM      2  C2  UNL     1     149.653 154.100 164.364  0.00  0.00    -0.062 C 
ATOM      3  C3  UNL     1     149.702 154.683 163.146  0.00  0.00    -0.077 C 
ATOM      4  C4  UNL     1     150.907 155.223 162.413  0.00  0.00    +0.026 C 
ATOM      5  C5  UNL     1     150.830 156.722 162.211  0.00  0.00    +0.134 A 
ATOM      6  N1  UNL     1     150.341 157.173 161.044  0.00  0.00    -0.236 NA
ATOM      7  C6  UNL     1     150.238 158.515 160.888  0.00  0.00    +0.055 A 
ATOM      8  C7  UNL     1     149.710 158.955 159.545  0.00  0.00    +0.016 C 
ATOM      9  C8  UNL     1     150.841 159.294 158.577  0.00  0.00    +0.074 C 
ATOM     10  O1  UNL     1     150.260 159.715 157.333  0.00  0.00    -0.302 OA
ATOM     11  N2  UNL     1     151.330 160.204 156.470  0.00  0.00    -0.215 NA
ATOM     12  C9  UNL     1     150.620 159.423 161.887  0.00  0.00    +0.022 A 
ATOM     13  C10 UNL     1     150.541 160.838 161.794  0.00  0.00    -0.051 A 
ATOM     14  C11 UNL     1     150.950 161.648 162.854  0.00  0.00    -0.061 A 
ATOM     15  C12 UNL     1     151.436 161.059 164.014  0.00  0.00    -0.060 A 
ATOM     16  C13 UNL     1     151.515 159.665 164.104  0.00  0.00    -0.036 A 
ATOM     17  C14 UNL     1     151.116 158.835 163.061  0.00  0.00    +0.075 A 
ATOM     18  N3  UNL     1     151.224 157.510 163.226  0.00  0.00    -0.232 NA
ATOM     19  C15 UNL     1     148.329 153.649 164.936  0.00  0.00    +0.043 C 
ATOM     20 CL1  UNL     1     148.063 151.907 164.591  0.00  0.00    -0.121 Cl
ATOM     21  H   UNL     1     150.937 160.508 155.579  0.00  0.00    +0.000 HD
ATOM     22  H   UNL     1     152.002 159.455 156.306  0.00  0.00    +0.000 HD
ENDROOT
TORSDOF 0
ENDMDL
MODEL 9
REMARK VINA RESULT:    -4.195      7.307      9.508
REMARK INTER + INTRA:          -4.195
REMARK INTER:                  -4.195
REMARK INTRA:                   0.000
REMARK UNBOUND:                 0.000
REMARK  Name = /home/vital/Documents/PhD_2021/Malaria_codes/scripts/../data/pdbqt_ligands/ligand_316_temp.pdb
REMARK                            x       y       z     vdW  Elec       q    Type
REMARK                         _______ _______ _______ _____ _____    ______ ____
ROOT
ATOM      1  C1  UNL     1     149.751 159.281 160.090  0.00  0.00    -0.043 C 
ATOM      2  C2  UNL     1     151.107 159.927 160.261  0.00  0.00    -0.062 C 
ATOM      3  C3  UNL     1     151.859 159.877 161.382  0.00  0.00    -0.077 C 
ATOM      4  C4  UNL     1     151.554 159.180 162.686  0.00  0.00    +0.026 C 
ATOM      5  C5  UNL     1     151.393 160.155 163.833  0.00  0.00    +0.134 A 
ATOM      6  N1  UNL     1     152.466 160.398 164.605  0.00  0.00    -0.236 NA
ATOM      7  C6  UNL     1     152.324 161.302 165.603  0.00  0.00    +0.055 A 
ATOM      8  C7  UNL     1     153.556 161.506 166.451  0.00  0.00    +0.016 C 
ATOM      9  C8  UNL     1     153.521 160.647 167.713  0.00  0.00    +0.074 C 
ATOM     10  O1  UNL     1     154.716 160.907 168.468  0.00  0.00    -0.302 OA
ATOM     11  N2  UNL     1     154.603 160.223 169.752  0.00  0.00    -0.215 NA
ATOM     12  C9  UNL     1     151.117 161.975 165.847  0.00  0.00    +0.022 A 
ATOM     13  C10 UNL     1     150.895 162.932 166.873  0.00  0.00    -0.051 A 
ATOM     14  C11 UNL     1     149.649 163.542 167.024  0.00  0.00    -0.061 A 
ATOM     15  C12 UNL     1     148.617 163.208 166.157  0.00  0.00    -0.060 A 
ATOM     16  C13 UNL     1     148.836 162.263 165.149  0.00  0.00    -0.036 A 
ATOM     17  C14 UNL     1     150.067 161.639 164.978  0.00  0.00    +0.075 A 
ATOM     18  N3  UNL     1     150.195 160.746 163.988  0.00  0.00    -0.232 NA
ATOM     19  C15 UNL     1     151.586 160.710 159.060  0.00  0.00    +0.043 C 
ATOM     20 CL1  UNL     1     152.427 159.624 157.904  0.00  0.00    -0.121 Cl
ATOM     21  H   UNL     1     155.443 160.396 170.304  0.00  0.00    +0.000 HD
ATOM     22  H   UNL     1     154.499 159.221 169.595  0.00  0.00    +0.000 HD
ENDROOT
TORSDOF 0
ENDMDL
