MODEL 1
REMARK VINA RESULT:    -4.790      0.000      0.000
REMARK INTER + INTRA:          -4.790
REMARK INTER:                  -4.790
REMARK INTRA:                   0.000
REMARK UNBOUND:                 0.000
REMARK  Name = /home/vital/Documents/PhD_2021/Malaria_codes/scripts/../data/pdbqt_ligands/ligand_314_temp.pdb
REMARK                            x       y       z     vdW  Elec       q    Type
REMARK                         _______ _______ _______ _____ _____    ______ ____
ROOT
ATOM      1  C   UNL     1     148.429 163.432 167.513  0.00  0.00    -0.065 C 
ATOM      2  C   UNL     1     148.369 162.153 166.692  0.00  0.00    -0.056 C 
ATOM      3  C   UNL     1     148.943 160.930 167.413  0.00  0.00    -0.052 C 
ATOM      4  C   UNL     1     150.418 161.029 167.823  0.00  0.00    -0.037 C 
ATOM      5  C   UNL     1     151.415 161.124 166.661  0.00  0.00    +0.014 C 
ATOM      6  N   UNL     1     151.443 159.892 165.860  0.00  0.00    -0.306 N 
ATOM      7  C   UNL     1     152.032 158.730 166.371  0.00  0.00    +0.056 C 
ATOM      8  C   UNL     1     152.299 157.670 165.656  0.00  0.00    +0.003 C 
ATOM      9  N   UNL     1     152.534 156.746 164.964  0.00  0.00    -0.212 NA
ATOM     10  C   UNL     1     152.498 157.119 163.644  0.00  0.00    +0.040 C 
ATOM     11  C   UNL     1     151.656 156.589 162.741  0.00  0.00    -0.015 C 
ATOM     12  C   UNL     1     151.438 157.166 161.422  0.00  0.00    +0.100 C 
ATOM     13  C   UNL     1     151.256 156.445 160.292  0.00  0.00    +0.128 C 
ATOM     14 CL   UNL     1     151.373 154.714 160.289  0.00  0.00    -0.064 Cl
ATOM     15  N   UNL     1     150.964 157.040 159.055  0.00  0.00    -0.283 N 
ATOM     16  C   UNL     1     150.783 156.252 157.819  0.00  0.00    +0.037 C 
ATOM     17  C   UNL     1     150.390 157.096 156.633  0.00  0.00    -0.066 C 
ATOM     18  C   UNL     1     150.224 158.425 156.691  0.00  0.00    -0.062 C 
ATOM     19  C   UNL     1     150.435 159.119 157.935  0.00  0.00    -0.037 C 
ATOM     20  C   UNL     1     150.801 158.439 159.036  0.00  0.00    +0.075 C 
ATOM     21  C   UNL     1     151.031 159.189 160.361  0.00  0.00    +0.141 C 
ATOM     22  N   UNL     1     151.335 158.545 161.464  0.00  0.00    -0.228 N 
ATOM     23  N   UNL     1     150.923 160.573 160.435  0.00  0.00    -0.325 N 
ATOM     24  C   UNL     1     151.201 161.319 161.660  0.00  0.00    +0.034 C 
ATOM     25  C   UNL     1     150.063 161.181 162.690  0.00  0.00    +0.065 C 
ATOM     26  O   UNL     1     150.522 161.224 164.049  0.00  0.00    -0.360 OA
ATOM     27  C   UNL     1     151.120 159.986 164.426  0.00  0.00    +0.114 C 
ATOM     28  H   UNL     1     151.486 159.035 162.304  0.00  0.00    +0.000 HD
ATOM     29  H   UNL     1     150.647 161.069 159.631  0.00  0.00    +0.000 HD
ENDROOT
TORSDOF 0
ENDMDL
MODEL 2
REMARK VINA RESULT:    -4.780      2.490      7.705
REMARK INTER + INTRA:          -4.780
REMARK INTER:                  -4.780
REMARK INTRA:                   0.000
REMARK UNBOUND:                 0.000
REMARK  Name = /home/vital/Documents/PhD_2021/Malaria_codes/scripts/../data/pdbqt_ligands/ligand_314_temp.pdb
REMARK                            x       y       z     vdW  Elec       q    Type
REMARK                         _______ _______ _______ _____ _____    ______ ____
ROOT
ATOM      1  C   UNL     1     151.904 157.771 154.041  0.00  0.00    -0.065 C 
ATOM      2  C   UNL     1     152.471 157.839 155.451  0.00  0.00    -0.056 C 
ATOM      3  C   UNL     1     152.808 156.469 156.046  0.00  0.00    -0.052 C 
ATOM      4  C   UNL     1     151.635 155.490 156.174  0.00  0.00    -0.037 C 
ATOM      5  C   UNL     1     150.528 155.919 157.146  0.00  0.00    +0.014 C 
ATOM      6  N   UNL     1     151.002 155.950 158.537  0.00  0.00    -0.306 N 
ATOM      7  C   UNL     1     151.251 154.757 159.226  0.00  0.00    +0.056 C 
ATOM      8  C   UNL     1     151.455 154.686 160.515  0.00  0.00    +0.003 C 
ATOM      9  N   UNL     1     151.616 154.674 161.682  0.00  0.00    -0.212 NA
ATOM     10  C   UNL     1     151.173 155.848 162.236  0.00  0.00    +0.040 C 
ATOM     11  C   UNL     1     151.958 156.694 162.920  0.00  0.00    -0.015 C 
ATOM     12  C   UNL     1     151.553 158.049 163.273  0.00  0.00    +0.100 C 
ATOM     13  C   UNL     1     151.856 158.658 164.442  0.00  0.00    +0.128 C 
ATOM     14 CL   UNL     1     152.691 157.824 165.714  0.00  0.00    -0.064 Cl
ATOM     15  N   UNL     1     151.519 159.995 164.705  0.00  0.00    -0.283 N 
ATOM     16  C   UNL     1     151.835 160.653 165.989  0.00  0.00    +0.037 C 
ATOM     17  C   UNL     1     151.456 162.112 166.012  0.00  0.00    -0.066 C 
ATOM     18  C   UNL     1     150.890 162.748 164.977  0.00  0.00    -0.062 C 
ATOM     19  C   UNL     1     150.602 162.027 163.765  0.00  0.00    -0.037 C 
ATOM     20  C   UNL     1     150.896 160.718 163.670  0.00  0.00    +0.075 C 
ATOM     21  C   UNL     1     150.579 159.952 162.373  0.00  0.00    +0.141 C 
ATOM     22  N   UNL     1     150.905 158.689 162.231  0.00  0.00    -0.228 N 
ATOM     23  N   UNL     1     149.939 160.572 161.306  0.00  0.00    -0.325 N 
ATOM     24  C   UNL     1     149.563 159.856 160.090  0.00  0.00    +0.034 C 
ATOM     25  C   UNL     1     150.781 159.575 159.186  0.00  0.00    +0.065 C 
ATOM     26  O   UNL     1     150.664 158.354 158.443  0.00  0.00    -0.360 OA
ATOM     27  C   UNL     1     150.919 157.223 159.273  0.00  0.00    +0.114 C 
ATOM     28  H   UNL     1     150.692 158.206 161.400  0.00  0.00    +0.000 HD
ATOM     29  H   UNL     1     149.731 161.532 161.373  0.00  0.00    +0.000 HD
ENDROOT
TORSDOF 0
ENDMDL
MODEL 3
REMARK VINA RESULT:    -4.780      2.548      7.734
REMARK INTER + INTRA:          -4.780
REMARK INTER:                  -4.780
REMARK INTRA:                   0.000
REMARK UNBOUND:                 0.000
REMARK  Name = /home/vital/Documents/PhD_2021/Malaria_codes/scripts/../data/pdbqt_ligands/ligand_314_temp.pdb
REMARK                            x       y       z     vdW  Elec       q    Type
REMARK                         _______ _______ _______ _____ _____    ______ ____
ROOT
ATOM      1  C   UNL     1     152.162 157.953 154.188  0.00  0.00    -0.065 C 
ATOM      2  C   UNL     1     152.682 157.744 155.603  0.00  0.00    -0.056 C 
ATOM      3  C   UNL     1     152.590 156.294 156.085  0.00  0.00    -0.052 C 
ATOM      4  C   UNL     1     151.181 155.692 156.124  0.00  0.00    -0.037 C 
ATOM      5  C   UNL     1     150.216 156.347 157.121  0.00  0.00    +0.014 C 
ATOM      6  N   UNL     1     150.637 156.132 158.513  0.00  0.00    -0.306 N 
ATOM      7  C   UNL     1     150.509 154.869 159.103  0.00  0.00    +0.056 C 
ATOM      8  C   UNL     1     150.645 154.643 160.382  0.00  0.00    +0.003 C 
ATOM      9  N   UNL     1     150.761 154.495 161.545  0.00  0.00    -0.212 NA
ATOM     10  C   UNL     1     150.659 155.701 162.191  0.00  0.00    +0.040 C 
ATOM     11  C   UNL     1     151.634 156.227 162.949  0.00  0.00    -0.015 C 
ATOM     12  C   UNL     1     151.628 157.609 163.409  0.00  0.00    +0.100 C 
ATOM     13  C   UNL     1     152.058 158.012 164.626  0.00  0.00    +0.128 C 
ATOM     14 CL   UNL     1     152.578 156.876 165.830  0.00  0.00    -0.064 Cl
ATOM     15  N   UNL     1     152.115 159.365 164.997  0.00  0.00    -0.283 N 
ATOM     16  C   UNL     1     152.569 159.802 166.332  0.00  0.00    +0.037 C 
ATOM     17  C   UNL     1     152.628 161.302 166.473  0.00  0.00    -0.066 C 
ATOM     18  C   UNL     1     152.301 162.153 165.491  0.00  0.00    -0.062 C 
ATOM     19  C   UNL     1     151.854 161.642 164.221  0.00  0.00    -0.037 C 
ATOM     20  C   UNL     1     151.759 160.315 164.021  0.00  0.00    +0.075 C 
ATOM     21  C   UNL     1     151.273 159.777 162.662  0.00  0.00    +0.141 C 
ATOM     22  N   UNL     1     151.224 158.488 162.419  0.00  0.00    -0.228 N 
ATOM     23  N   UNL     1     150.873 160.637 161.646  0.00  0.00    -0.325 N 
ATOM     24  C   UNL     1     150.343 160.156 160.372  0.00  0.00    +0.034 C 
ATOM     25  C   UNL     1     151.454 159.604 159.457  0.00  0.00    +0.065 C 
ATOM     26  O   UNL     1     151.012 158.531 158.615  0.00  0.00    -0.360 OA
ATOM     27  C   UNL     1     150.903 157.314 159.350  0.00  0.00    +0.114 C 
ATOM     28  H   UNL     1     150.906 158.154 161.550  0.00  0.00    +0.000 HD
ATOM     29  H   UNL     1     150.949 161.607 161.790  0.00  0.00    +0.000 HD
ENDROOT
TORSDOF 0
ENDMDL
MODEL 4
REMARK VINA RESULT:    -4.366      2.265      4.324
REMARK INTER + INTRA:          -4.366
REMARK INTER:                  -4.366
REMARK INTRA:                   0.000
REMARK UNBOUND:                 0.000
REMARK  Name = /home/vital/Documents/PhD_2021/Malaria_codes/scripts/../data/pdbqt_ligands/ligand_314_temp.pdb
REMARK                            x       y       z     vdW  Elec       q    Type
REMARK                         _______ _______ _______ _____ _____    ______ ____
ROOT
ATOM      1  C   UNL     1     154.671 160.889 169.977  0.00  0.00    -0.065 C 
ATOM      2  C   UNL     1     154.664 160.762 168.460  0.00  0.00    -0.056 C 
ATOM      3  C   UNL     1     154.251 162.047 167.737  0.00  0.00    -0.052 C 
ATOM      4  C   UNL     1     152.849 162.576 168.064  0.00  0.00    -0.037 C 
ATOM      5  C   UNL     1     151.691 161.665 167.635  0.00  0.00    +0.014 C 
ATOM      6  N   UNL     1     151.598 161.547 166.173  0.00  0.00    -0.306 N 
ATOM      7  C   UNL     1     151.137 162.623 165.405  0.00  0.00    +0.056 C 
ATOM      8  C   UNL     1     150.813 162.534 164.143  0.00  0.00    +0.003 C 
ATOM      9  N   UNL     1     150.518 162.397 163.010  0.00  0.00    -0.212 NA
ATOM     10  C   UNL     1     150.347 161.067 162.720  0.00  0.00    +0.040 C 
ATOM     11  C   UNL     1     151.070 160.404 161.804  0.00  0.00    -0.015 C 
ATOM     12  C   UNL     1     151.070 158.952 161.688  0.00  0.00    +0.100 C 
ATOM     13  C   UNL     1     151.115 158.277 160.516  0.00  0.00    +0.128 C 
ATOM     14 CL   UNL     1     151.071 159.101 158.990  0.00  0.00    -0.064 Cl
ATOM     15  N   UNL     1     151.200 156.878 160.454  0.00  0.00    -0.283 N 
ATOM     16  C   UNL     1     151.233 156.142 159.173  0.00  0.00    +0.037 C 
ATOM     17  C   UNL     1     151.413 154.656 159.352  0.00  0.00    -0.066 C 
ATOM     18  C   UNL     1     151.532 154.062 160.546  0.00  0.00    -0.062 C 
ATOM     19  C   UNL     1     151.475 154.852 161.748  0.00  0.00    -0.037 C 
ATOM     20  C   UNL     1     151.301 156.184 161.675  0.00  0.00    +0.075 C 
ATOM     21  C   UNL     1     151.235 157.022 162.965  0.00  0.00    +0.141 C 
ATOM     22  N   UNL     1     151.121 158.328 162.923  0.00  0.00    -0.228 N 
ATOM     23  N   UNL     1     151.296 156.424 164.219  0.00  0.00    -0.325 N 
ATOM     24  C   UNL     1     151.168 157.183 165.459  0.00  0.00    +0.034 C 
ATOM     25  C   UNL     1     152.449 157.978 165.784  0.00  0.00    +0.065 C 
ATOM     26  O   UNL     1     152.191 159.210 166.472  0.00  0.00    -0.360 OA
ATOM     27  C   UNL     1     151.705 160.206 165.575  0.00  0.00    +0.114 C 
ATOM     28  H   UNL     1     151.074 158.854 163.753  0.00  0.00    +0.000 HD
ATOM     29  H   UNL     1     151.432 155.450 164.272  0.00  0.00    +0.000 HD
ENDROOT
TORSDOF 0
ENDMDL
MODEL 5
REMARK VINA RESULT:    -4.253      2.985      5.052
REMARK INTER + INTRA:          -4.253
REMARK INTER:                  -4.253
REMARK INTRA:                   0.000
REMARK UNBOUND:                 0.000
REMARK  Name = /home/vital/Documents/PhD_2021/Malaria_codes/scripts/../data/pdbqt_ligands/ligand_314_temp.pdb
REMARK                            x       y       z     vdW  Elec       q    Type
REMARK                         _______ _______ _______ _____ _____    ______ ____
ROOT
ATOM      1  C   UNL     1     151.894 151.847 168.213  0.00  0.00    -0.065 C 
ATOM      2  C   UNL     1     152.461 152.745 167.124  0.00  0.00    -0.056 C 
ATOM      3  C   UNL     1     152.883 154.129 167.625  0.00  0.00    -0.052 C 
ATOM      4  C   UNL     1     151.772 154.979 168.254  0.00  0.00    -0.037 C 
ATOM      5  C   UNL     1     150.645 155.393 167.299  0.00  0.00    +0.014 C 
ATOM      6  N   UNL     1     151.122 156.309 166.253  0.00  0.00    -0.306 N 
ATOM      7  C   UNL     1     151.446 157.634 166.567  0.00  0.00    +0.056 C 
ATOM      8  C   UNL     1     151.659 158.565 165.677  0.00  0.00    +0.003 C 
ATOM      9  N   UNL     1     151.825 159.372 164.835  0.00  0.00    -0.212 NA
ATOM     10  C   UNL     1     151.312 158.928 163.642  0.00  0.00    +0.040 C 
ATOM     11  C   UNL     1     152.047 158.754 162.532  0.00  0.00    -0.015 C 
ATOM     12  C   UNL     1     151.562 158.039 161.360  0.00  0.00    +0.100 C 
ATOM     13  C   UNL     1     151.830 158.392 160.082  0.00  0.00    +0.128 C 
ATOM     14 CL   UNL     1     152.720 159.833 159.704  0.00  0.00    -0.064 Cl
ATOM     15  N   UNL     1     151.413 157.625 158.983  0.00  0.00    -0.283 N 
ATOM     16  C   UNL     1     151.694 158.022 157.588  0.00  0.00    +0.037 C 
ATOM     17  C   UNL     1     151.226 157.002 156.580  0.00  0.00    -0.066 C 
ATOM     18  C   UNL     1     150.619 155.855 156.912  0.00  0.00    -0.062 C 
ATOM     19  C   UNL     1     150.370 155.552 158.298  0.00  0.00    -0.037 C 
ATOM     20  C   UNL     1     150.743 156.417 159.257  0.00  0.00    +0.075 C 
ATOM     21  C   UNL     1     150.469 156.089 160.737  0.00  0.00    +0.141 C 
ATOM     22  N   UNL     1     150.871 156.888 161.697  0.00  0.00    -0.228 N 
ATOM     23  N   UNL     1     149.788 154.934 161.106  0.00  0.00    -0.325 N 
ATOM     24  C   UNL     1     149.452 154.629 162.494  0.00  0.00    +0.034 C 
ATOM     25  C   UNL     1     150.682 154.151 163.292  0.00  0.00    +0.065 C 
ATOM     26  O   UNL     1     150.637 154.524 164.677  0.00  0.00    -0.360 OA
ATOM     27  C   UNL     1     150.963 155.902 164.846  0.00  0.00    +0.114 C 
ATOM     28  H   UNL     1     150.685 156.672 162.639  0.00  0.00    +0.000 HD
ATOM     29  H   UNL     1     149.522 154.298 160.404  0.00  0.00    +0.000 HD
ENDROOT
TORSDOF 0
ENDMDL
MODEL 6
REMARK VINA RESULT:    -3.960      3.664      8.396
REMARK INTER + INTRA:          -3.960
REMARK INTER:                  -3.960
REMARK INTRA:                   0.000
REMARK UNBOUND:                 0.000
REMARK  Name = /home/vital/Documents/PhD_2021/Malaria_codes/scripts/../data/pdbqt_ligands/ligand_314_temp.pdb
REMARK                            x       y       z     vdW  Elec       q    Type
REMARK                         _______ _______ _______ _____ _____    ______ ____
ROOT
ATOM      1  C   UNL     1     148.199 151.700 165.176  0.00  0.00    -0.065 C 
ATOM      2  C   UNL     1     148.197 153.217 165.291  0.00  0.00    -0.056 C 
ATOM      3  C   UNL     1     148.069 153.936 163.946  0.00  0.00    -0.052 C 
ATOM      4  C   UNL     1     149.181 153.651 162.928  0.00  0.00    -0.037 C 
ATOM      5  C   UNL     1     150.580 154.131 163.336  0.00  0.00    +0.014 C 
ATOM      6  N   UNL     1     150.656 155.597 163.410  0.00  0.00    -0.306 N 
ATOM      7  C   UNL     1     150.650 156.366 162.241  0.00  0.00    +0.056 C 
ATOM      8  C   UNL     1     150.936 157.640 162.202  0.00  0.00    +0.003 C 
ATOM      9  N   UNL     1     151.219 158.783 162.217  0.00  0.00    -0.212 NA
ATOM     10  C   UNL     1     151.867 159.097 163.385  0.00  0.00    +0.040 C 
ATOM     11  C   UNL     1     151.413 159.998 164.272  0.00  0.00    -0.015 C 
ATOM     12  C   UNL     1     151.955 160.133 165.617  0.00  0.00    +0.100 C 
ATOM     13  C   UNL     1     152.123 161.312 166.259  0.00  0.00    +0.128 C 
ATOM     14 CL   UNL     1     151.798 162.827 165.480  0.00  0.00    -0.064 Cl
ATOM     15  N   UNL     1     152.568 161.391 167.588  0.00  0.00    -0.283 N 
ATOM     16  C   UNL     1     152.768 162.680 168.282  0.00  0.00    +0.037 C 
ATOM     17  C   UNL     1     153.165 162.516 169.727  0.00  0.00    -0.066 C 
ATOM     18  C   UNL     1     153.324 161.326 170.322  0.00  0.00    -0.062 C 
ATOM     19  C   UNL     1     153.123 160.116 169.568  0.00  0.00    -0.037 C 
ATOM     20  C   UNL     1     152.781 160.177 168.269  0.00  0.00    +0.075 C 
ATOM     21  C   UNL     1     152.575 158.878 167.467  0.00  0.00    +0.141 C 
ATOM     22  N   UNL     1     152.187 158.907 166.214  0.00  0.00    -0.228 N 
ATOM     23  N   UNL     1     152.789 157.632 168.044  0.00  0.00    -0.325 N 
ATOM     24  C   UNL     1     152.669 156.386 167.292  0.00  0.00    +0.034 C 
ATOM     25  C   UNL     1     151.196 156.006 167.038  0.00  0.00    +0.065 C 
ATOM     26  O   UNL     1     150.997 155.310 165.799  0.00  0.00    -0.360 OA
ATOM     27  C   UNL     1     151.039 156.210 164.694  0.00  0.00    +0.114 C 
ATOM     28  H   UNL     1     152.064 158.071 165.709  0.00  0.00    +0.000 HD
ATOM     29  H   UNL     1     153.032 157.587 168.997  0.00  0.00    +0.000 HD
ENDROOT
TORSDOF 0
ENDMDL
MODEL 7
REMARK VINA RESULT:    -3.694      2.596      4.405
REMARK INTER + INTRA:          -3.694
REMARK INTER:                  -3.694
REMARK INTRA:                   0.000
REMARK UNBOUND:                 0.000
REMARK  Name = /home/vital/Documents/PhD_2021/Malaria_codes/scripts/../data/pdbqt_ligands/ligand_314_temp.pdb
REMARK                            x       y       z     vdW  Elec       q    Type
REMARK                         _______ _______ _______ _____ _____    ______ ____
ROOT
ATOM      1  C   UNL     1     152.496 154.739 168.215  0.00  0.00    -0.065 C 
ATOM      2  C   UNL     1     152.969 155.477 166.971  0.00  0.00    -0.056 C 
ATOM      3  C   UNL     1     152.993 156.999 167.129  0.00  0.00    -0.052 C 
ATOM      4  C   UNL     1     151.645 157.657 167.450  0.00  0.00    -0.037 C 
ATOM      5  C   UNL     1     150.580 157.537 166.351  0.00  0.00    +0.014 C 
ATOM      6  N   UNL     1     150.957 158.277 165.139  0.00  0.00    -0.306 N 
ATOM      7  C   UNL     1     150.922 159.676 165.125  0.00  0.00    +0.056 C 
ATOM      8  C   UNL     1     151.022 160.399 164.042  0.00  0.00    +0.003 C 
ATOM      9  N   UNL     1     151.099 161.005 163.035  0.00  0.00    -0.212 NA
ATOM     10  C   UNL     1     150.856 160.182 161.964  0.00  0.00    +0.040 C 
ATOM     11  C   UNL     1     151.744 159.950 160.984  0.00  0.00    -0.015 C 
ATOM     12  C   UNL     1     151.588 158.884 160.004  0.00  0.00    +0.100 C 
ATOM     13  C   UNL     1     151.924 158.990 158.698  0.00  0.00    +0.128 C 
ATOM     14 CL   UNL     1     152.493 160.483 158.023  0.00  0.00    -0.064 Cl
ATOM     15  N   UNL     1     151.837 157.910 157.807  0.00  0.00    -0.283 N 
ATOM     16  C   UNL     1     152.189 158.031 156.377  0.00  0.00    +0.037 C 
ATOM     17  C   UNL     1     152.100 156.722 155.635  0.00  0.00    -0.066 C 
ATOM     18  C   UNL     1     151.740 155.567 156.209  0.00  0.00    -0.062 C 
ATOM     19  C   UNL     1     151.399 155.538 157.607  0.00  0.00    -0.037 C 
ATOM     20  C   UNL     1     151.437 156.667 158.336  0.00  0.00    +0.075 C 
ATOM     21  C   UNL     1     151.065 156.630 159.830  0.00  0.00    +0.141 C 
ATOM     22  N   UNL     1     151.147 157.705 160.579  0.00  0.00    -0.228 N 
ATOM     23  N   UNL     1     150.631 155.457 160.437  0.00  0.00    -0.325 N 
ATOM     24  C   UNL     1     150.206 155.405 161.833  0.00  0.00    +0.034 C 
ATOM     25  C   UNL     1     151.404 155.455 162.803  0.00  0.00    +0.065 C 
ATOM     26  O   UNL     1     151.101 156.114 164.041  0.00  0.00    -0.360 OA
ATOM     27  C   UNL     1     151.074 157.530 163.875  0.00  0.00    +0.114 C 
ATOM     28  H   UNL     1     150.901 157.672 161.531  0.00  0.00    +0.000 HD
ATOM     29  H   UNL     1     150.610 154.629 159.905  0.00  0.00    +0.000 HD
ENDROOT
TORSDOF 0
ENDMDL
MODEL 8
REMARK VINA RESULT:    -3.510      2.509      7.619
REMARK INTER + INTRA:          -3.510
REMARK INTER:                  -3.510
REMARK INTRA:                   0.000
REMARK UNBOUND:                 0.000
REMARK  Name = /home/vital/Documents/PhD_2021/Malaria_codes/scripts/../data/pdbqt_ligands/ligand_314_temp.pdb
REMARK                            x       y       z     vdW  Elec       q    Type
REMARK                         _______ _______ _______ _____ _____    ______ ____
ROOT
ATOM      1  C   UNL     1     151.575 161.128 157.123  0.00  0.00    -0.065 C 
ATOM      2  C   UNL     1     152.227 160.540 158.366  0.00  0.00    -0.056 C 
ATOM      3  C   UNL     1     152.118 159.015 158.455  0.00  0.00    -0.052 C 
ATOM      4  C   UNL     1     150.693 158.449 158.490  0.00  0.00    -0.037 C 
ATOM      5  C   UNL     1     149.868 158.831 159.726  0.00  0.00    +0.014 C 
ATOM      6  N   UNL     1     150.419 158.244 160.956  0.00  0.00    -0.306 N 
ATOM      7  C   UNL     1     150.294 156.872 161.202  0.00  0.00    +0.056 C 
ATOM      8  C   UNL     1     150.549 156.309 162.353  0.00  0.00    +0.003 C 
ATOM      9  N   UNL     1     150.776 155.853 163.415  0.00  0.00    -0.212 NA
ATOM     10  C   UNL     1     150.798 156.844 164.364  0.00  0.00    +0.040 C 
ATOM     11  C   UNL     1     151.869 157.131 165.120  0.00  0.00    -0.015 C 
ATOM     12  C   UNL     1     151.975 158.340 165.926  0.00  0.00    +0.100 C 
ATOM     13  C   UNL     1     152.546 158.395 167.151  0.00  0.00    +0.128 C 
ATOM     14 CL   UNL     1     153.133 156.970 167.947  0.00  0.00    -0.064 Cl
ATOM     15  N   UNL     1     152.703 159.598 167.857  0.00  0.00    -0.283 N 
ATOM     16  C   UNL     1     153.312 159.654 169.202  0.00  0.00    +0.037 C 
ATOM     17  C   UNL     1     153.455 161.061 169.726  0.00  0.00    -0.066 C 
ATOM     18  C   UNL     1     153.069 162.149 169.045  0.00  0.00    -0.062 C 
ATOM     19  C   UNL     1     152.470 162.004 167.744  0.00  0.00    -0.037 C 
ATOM     20  C   UNL     1     152.294 160.781 167.212  0.00  0.00    +0.075 C 
ATOM     21  C   UNL     1     151.647 160.634 165.823  0.00  0.00    +0.141 C 
ATOM     22  N   UNL     1     151.513 159.459 165.255  0.00  0.00    -0.228 N 
ATOM     23  N   UNL     1     151.184 161.742 165.120  0.00  0.00    -0.325 N 
ATOM     24  C   UNL     1     150.505 161.629 163.833  0.00  0.00    +0.034 C 
ATOM     25  C   UNL     1     151.490 161.322 162.686  0.00  0.00    +0.065 C 
ATOM     26  O   UNL     1     150.913 160.521 161.645  0.00  0.00    -0.360 OA
ATOM     27  C   UNL     1     150.824 159.154 162.041  0.00  0.00    +0.114 C 
ATOM     28  H   UNL     1     151.092 159.375 164.370  0.00  0.00    +0.000 HD
ATOM     29  H   UNL     1     151.320 162.637 165.507  0.00  0.00    +0.000 HD
ENDROOT
TORSDOF 0
ENDMDL
MODEL 9
REMARK VINA RESULT:    -3.412      2.949      8.485
REMARK INTER + INTRA:          -3.412
REMARK INTER:                  -3.412
REMARK INTRA:                   0.000
REMARK UNBOUND:                 0.000
REMARK  Name = /home/vital/Documents/PhD_2021/Malaria_codes/scripts/../data/pdbqt_ligands/ligand_314_temp.pdb
REMARK                            x       y       z     vdW  Elec       q    Type
REMARK                         _______ _______ _______ _____ _____    ______ ____
ROOT
ATOM      1  C   UNL     1     151.556 153.848 160.675  0.00  0.00    -0.065 C 
ATOM      2  C   UNL     1     150.798 154.828 161.559  0.00  0.00    -0.056 C 
ATOM      3  C   UNL     1     149.973 155.852 160.775  0.00  0.00    -0.052 C 
ATOM      4  C   UNL     1     150.764 156.759 159.824  0.00  0.00    -0.037 C 
ATOM      5  C   UNL     1     151.761 157.707 160.502  0.00  0.00    +0.014 C 
ATOM      6  N   UNL     1     151.083 158.716 161.329  0.00  0.00    -0.306 N 
ATOM      7  C   UNL     1     150.377 159.764 160.728  0.00  0.00    +0.056 C 
ATOM      8  C   UNL     1     149.941 160.814 161.371  0.00  0.00    +0.003 C 
ATOM      9  N   UNL     1     149.583 161.749 161.993  0.00  0.00    -0.212 NA
ATOM     10  C   UNL     1     150.250 161.807 163.190  0.00  0.00    +0.040 C 
ATOM     11  C   UNL     1     149.643 161.758 164.387  0.00  0.00    -0.015 C 
ATOM     12  C   UNL     1     150.363 161.554 165.637  0.00  0.00    +0.100 C 
ATOM     13  C   UNL     1     150.056 162.163 166.805  0.00  0.00    +0.128 C 
ATOM     14 CL   UNL     1     148.804 163.360 166.905  0.00  0.00    -0.064 Cl
ATOM     15  N   UNL     1     150.721 161.872 168.006  0.00  0.00    -0.283 N 
ATOM     16  C   UNL     1     150.396 162.550 169.277  0.00  0.00    +0.037 C 
ATOM     17  C   UNL     1     151.179 162.014 170.448  0.00  0.00    -0.066 C 
ATOM     18  C   UNL     1     152.078 161.026 170.350  0.00  0.00    -0.062 C 
ATOM     19  C   UNL     1     152.346 160.428 169.068  0.00  0.00    -0.037 C 
ATOM     20  C   UNL     1     151.700 160.860 167.971  0.00  0.00    +0.075 C 
ATOM     21  C   UNL     1     151.997 160.220 166.602  0.00  0.00    +0.141 C 
ATOM     22  N   UNL     1     151.342 160.582 165.525  0.00  0.00    -0.228 N 
ATOM     23  N   UNL     1     152.967 159.234 166.462  0.00  0.00    -0.325 N 
ATOM     24  C   UNL     1     153.320 158.656 165.168  0.00  0.00    +0.034 C 
ATOM     25  C   UNL     1     152.250 157.664 164.668  0.00  0.00    +0.065 C 
ATOM     26  O   UNL     1     152.128 157.636 163.239  0.00  0.00    -0.360 OA
ATOM     27  C   UNL     1     151.410 158.773 162.764  0.00  0.00    +0.114 C 
ATOM     28  H   UNL     1     151.544 160.172 164.653  0.00  0.00    +0.000 HD
ATOM     29  H   UNL     1     153.434 158.912 167.266  0.00  0.00    +0.000 HD
ENDROOT
TORSDOF 0
ENDMDL
