MODEL 1
REMARK VINA RESULT:    -6.826      0.000      0.000
REMARK INTER + INTRA:          -6.826
REMARK INTER:                  -6.826
REMARK INTRA:                   0.000
REMARK UNBOUND:                 0.000
REMARK  Name = /home/vital/Documents/PhD_2021/Malaria_codes/scripts/../data/pdbqt_ligands/ligand_334_temp.pdb
REMARK                            x       y       z     vdW  Elec       q    Type
REMARK                         _______ _______ _______ _____ _____    ______ ____
ROOT
ATOM      1  C   UNL     1     150.460 153.967 163.687  0.00  0.00    -0.016 C 
ATOM      2  N   UNL     1     151.341 154.817 162.898  0.00  0.00    -0.319 N 
ATOM      3  C   UNL     1     150.770 156.152 162.723  0.00  0.00    -0.004 C 
ATOM      4  C   UNL     1     151.739 157.022 161.920  0.00  0.00    -0.039 C 
ATOM      5  C   UNL     1     151.244 158.460 161.719  0.00  0.00    -0.036 C 
ATOM      6  C   UNL     1     149.916 158.600 160.969  0.00  0.00    +0.009 C 
ATOM      7  N   UNL     1     149.942 157.972 159.651  0.00  0.00    -0.343 N 
ATOM      8  C   UNL     1     150.652 158.513 158.565  0.00  0.00    +0.038 A 
ATOM      9  C   UNL     1     151.061 159.848 158.545  0.00  0.00    -0.022 A 
ATOM     10  C   UNL     1     151.726 160.338 157.437  0.00  0.00    +0.030 A 
ATOM     11  N   UNL     1     151.993 159.613 156.339  0.00  0.00    -0.255 NA
ATOM     12  C   UNL     1     151.559 158.346 156.309  0.00  0.00    +0.073 A 
ATOM     13  C   UNL     1     151.804 157.611 155.155  0.00  0.00    -0.036 A 
ATOM     14  C   UNL     1     151.377 156.291 155.012  0.00  0.00    -0.060 A 
ATOM     15  C   UNL     1     150.678 155.685 156.044  0.00  0.00    -0.061 A 
ATOM     16  C   UNL     1     150.423 156.399 157.215  0.00  0.00    -0.051 A 
ATOM     17  C   UNL     1     150.864 157.738 157.384  0.00  0.00    +0.021 A 
ATOM     18  H   UNL     1     151.480 154.392 161.981  0.00  0.00    +0.000 HD
ATOM     19  H   UNL     1     152.229 154.908 163.391  0.00  0.00    +0.000 HD
ATOM     20  H   UNL     1     149.442 157.135 159.518  0.00  0.00    +0.000 HD
ENDROOT
TORSDOF 0
ENDMDL
MODEL 2
REMARK VINA RESULT:    -6.753      2.037      6.324
REMARK INTER + INTRA:          -6.753
REMARK INTER:                  -6.753
REMARK INTRA:                   0.000
REMARK UNBOUND:                 0.000
REMARK  Name = /home/vital/Documents/PhD_2021/Malaria_codes/scripts/../data/pdbqt_ligands/ligand_334_temp.pdb
REMARK                            x       y       z     vdW  Elec       q    Type
REMARK                         _______ _______ _______ _____ _____    ______ ____
ROOT
ATOM      1  C   UNL     1     152.684 157.539 151.887  0.00  0.00    -0.016 C 
ATOM      2  N   UNL     1     153.131 157.276 153.248  0.00  0.00    -0.319 N 
ATOM      3  C   UNL     1     152.103 156.574 154.016  0.00  0.00    -0.004 C 
ATOM      4  C   UNL     1     152.625 156.287 155.426  0.00  0.00    -0.039 C 
ATOM      5  C   UNL     1     151.628 155.514 156.299  0.00  0.00    -0.036 C 
ATOM      6  C   UNL     1     150.285 156.210 156.538  0.00  0.00    +0.009 C 
ATOM      7  N   UNL     1     150.432 157.534 157.134  0.00  0.00    -0.343 N 
ATOM      8  C   UNL     1     150.810 157.727 158.475  0.00  0.00    +0.038 A 
ATOM      9  C   UNL     1     150.704 156.707 159.422  0.00  0.00    -0.022 A 
ATOM     10  C   UNL     1     151.056 156.961 160.734  0.00  0.00    +0.030 A 
ATOM     11  N   UNL     1     151.481 158.154 161.182  0.00  0.00    -0.255 NA
ATOM     12  C   UNL     1     151.535 159.165 160.305  0.00  0.00    +0.073 A 
ATOM     13  C   UNL     1     151.937 160.406 160.780  0.00  0.00    -0.036 A 
ATOM     14  C   UNL     1     152.007 161.529 159.956  0.00  0.00    -0.060 A 
ATOM     15  C   UNL     1     151.659 161.416 158.619  0.00  0.00    -0.061 A 
ATOM     16  C   UNL     1     151.256 160.180 158.115  0.00  0.00    -0.051 A 
ATOM     17  C   UNL     1     151.195 159.023 158.936  0.00  0.00    +0.021 A 
ATOM     18  H   UNL     1     153.341 158.162 153.706  0.00  0.00    +0.000 HD
ATOM     19  H   UNL     1     153.962 156.685 153.206  0.00  0.00    +0.000 HD
ATOM     20  H   UNL     1     150.260 158.325 156.573  0.00  0.00    +0.000 HD
ENDROOT
TORSDOF 0
ENDMDL
MODEL 3
REMARK VINA RESULT:    -6.425      7.992      9.566
REMARK INTER + INTRA:          -6.425
REMARK INTER:                  -6.425
REMARK INTRA:                   0.000
REMARK UNBOUND:                 0.000
REMARK  Name = /home/vital/Documents/PhD_2021/Malaria_codes/scripts/../data/pdbqt_ligands/ligand_334_temp.pdb
REMARK                            x       y       z     vdW  Elec       q    Type
REMARK                         _______ _______ _______ _____ _____    ______ ____
ROOT
ATOM      1  C   UNL     1     148.052 161.976 167.093  0.00  0.00    -0.016 C 
ATOM      2  N   UNL     1     148.559 160.864 167.886  0.00  0.00    -0.319 N 
ATOM      3  C   UNL     1     149.982 160.640 167.634  0.00  0.00    -0.004 C 
ATOM      4  C   UNL     1     150.482 159.489 168.510  0.00  0.00    -0.039 C 
ATOM      5  C   UNL     1     151.980 159.204 168.345  0.00  0.00    -0.036 C 
ATOM      6  C   UNL     1     152.424 158.812 166.933  0.00  0.00    +0.009 C 
ATOM      7  N   UNL     1     151.712 157.646 166.420  0.00  0.00    -0.343 N 
ATOM      8  C   UNL     1     151.946 156.342 166.893  0.00  0.00    +0.038 A 
ATOM      9  C   UNL     1     153.109 156.012 167.592  0.00  0.00    -0.022 A 
ATOM     10  C   UNL     1     153.306 154.708 168.004  0.00  0.00    +0.030 A 
ATOM     11  N   UNL     1     152.451 153.703 167.755  0.00  0.00    -0.255 NA
ATOM     12  C   UNL     1     151.356 153.982 167.035  0.00  0.00    +0.073 A 
ATOM     13  C   UNL     1     150.493 152.932 166.746  0.00  0.00    -0.036 A 
ATOM     14  C   UNL     1     149.337 153.109 165.986  0.00  0.00    -0.060 A 
ATOM     15  C   UNL     1     149.032 154.368 165.491  0.00  0.00    -0.061 A 
ATOM     16  C   UNL     1     149.880 155.440 165.771  0.00  0.00    -0.051 A 
ATOM     17  C   UNL     1     151.052 155.281 166.556  0.00  0.00    +0.021 A 
ATOM     18  H   UNL     1     148.041 160.019 167.644  0.00  0.00    +0.000 HD
ATOM     19  H   UNL     1     148.438 161.090 168.874  0.00  0.00    +0.000 HD
ATOM     20  H   UNL     1     151.039 157.778 165.713  0.00  0.00    +0.000 HD
ENDROOT
TORSDOF 0
ENDMDL
MODEL 4
REMARK VINA RESULT:    -6.170      2.819      4.104
REMARK INTER + INTRA:          -6.170
REMARK INTER:                  -6.170
REMARK INTRA:                   0.000
REMARK UNBOUND:                 0.000
REMARK  Name = /home/vital/Documents/PhD_2021/Malaria_codes/scripts/../data/pdbqt_ligands/ligand_334_temp.pdb
REMARK                            x       y       z     vdW  Elec       q    Type
REMARK                         _______ _______ _______ _____ _____    ______ ____
ROOT
ATOM      1  C   UNL     1     150.569 160.913 166.184  0.00  0.00    -0.016 C 
ATOM      2  N   UNL     1     151.363 160.581 165.009  0.00  0.00    -0.319 N 
ATOM      3  C   UNL     1     150.680 160.980 163.778  0.00  0.00    -0.004 C 
ATOM      4  C   UNL     1     151.561 160.645 162.572  0.00  0.00    -0.039 C 
ATOM      5  C   UNL     1     150.945 161.066 161.232  0.00  0.00    -0.036 C 
ATOM      6  C   UNL     1     149.598 160.420 160.895  0.00  0.00    +0.009 C 
ATOM      7  N   UNL     1     149.655 158.962 160.896  0.00  0.00    -0.343 N 
ATOM      8  C   UNL     1     150.299 158.224 159.887  0.00  0.00    +0.038 A 
ATOM      9  C   UNL     1     150.595 158.784 158.644  0.00  0.00    -0.022 A 
ATOM     10  C   UNL     1     151.199 158.006 157.675  0.00  0.00    +0.030 A 
ATOM     11  N   UNL     1     151.508 156.708 157.837  0.00  0.00    -0.255 NA
ATOM     12  C   UNL     1     151.180 156.132 159.001  0.00  0.00    +0.073 A 
ATOM     13  C   UNL     1     151.466 154.781 159.151  0.00  0.00    -0.036 A 
ATOM     14  C   UNL     1     151.148 154.079 160.314  0.00  0.00    -0.060 A 
ATOM     15  C   UNL     1     150.519 154.740 161.358  0.00  0.00    -0.061 A 
ATOM     16  C   UNL     1     150.224 156.098 161.234  0.00  0.00    -0.051 A 
ATOM     17  C   UNL     1     150.556 156.830 160.064  0.00  0.00    +0.021 A 
ATOM     18  H   UNL     1     151.522 159.573 164.989  0.00  0.00    +0.000 HD
ATOM     19  H   UNL     1     152.249 161.084 165.064  0.00  0.00    +0.000 HD
ATOM     20  H   UNL     1     149.223 158.474 161.635  0.00  0.00    +0.000 HD
ENDROOT
TORSDOF 0
ENDMDL
MODEL 5
REMARK VINA RESULT:    -6.118      1.992      3.791
REMARK INTER + INTRA:          -6.118
REMARK INTER:                  -6.118
REMARK INTRA:                   0.000
REMARK UNBOUND:                 0.000
REMARK  Name = /home/vital/Documents/PhD_2021/Malaria_codes/scripts/../data/pdbqt_ligands/ligand_334_temp.pdb
REMARK                            x       y       z     vdW  Elec       q    Type
REMARK                         _______ _______ _______ _____ _____    ______ ____
ROOT
ATOM      1  C   UNL     1     149.892 154.158 165.582  0.00  0.00    -0.016 C 
ATOM      2  N   UNL     1     149.232 154.614 164.367  0.00  0.00    -0.319 N 
ATOM      3  C   UNL     1     149.745 153.913 163.190  0.00  0.00    -0.004 C 
ATOM      4  C   UNL     1     149.003 154.396 161.942  0.00  0.00    -0.039 C 
ATOM      5  C   UNL     1     149.445 153.686 160.657  0.00  0.00    -0.036 C 
ATOM      6  C   UNL     1     150.923 153.847 160.291  0.00  0.00    +0.009 C 
ATOM      7  N   UNL     1     151.325 155.244 160.163  0.00  0.00    -0.343 N 
ATOM      8  C   UNL     1     150.933 156.052 159.081  0.00  0.00    +0.038 A 
ATOM      9  C   UNL     1     150.467 155.503 157.885  0.00  0.00    -0.022 A 
ATOM     10  C   UNL     1     150.128 156.341 156.840  0.00  0.00    +0.030 A 
ATOM     11  N   UNL     1     150.241 157.679 156.881  0.00  0.00    -0.255 NA
ATOM     12  C   UNL     1     150.742 158.227 157.996  0.00  0.00    +0.073 A 
ATOM     13  C   UNL     1     150.893 159.607 158.021  0.00  0.00    -0.036 A 
ATOM     14  C   UNL     1     151.425 160.276 159.124  0.00  0.00    -0.060 A 
ATOM     15  C   UNL     1     151.825 159.549 160.234  0.00  0.00    -0.061 A 
ATOM     16  C   UNL     1     151.680 158.162 160.236  0.00  0.00    -0.051 A 
ATOM     17  C   UNL     1     151.126 157.466 159.129  0.00  0.00    +0.021 A 
ATOM     18  H   UNL     1     149.395 155.615 164.255  0.00  0.00    +0.000 HD
ATOM     19  H   UNL     1     148.234 154.419 164.449  0.00  0.00    +0.000 HD
ATOM     20  H   UNL     1     151.893 155.638 160.865  0.00  0.00    +0.000 HD
ENDROOT
TORSDOF 0
ENDMDL
MODEL 6
REMARK VINA RESULT:    -5.948      3.090      3.923
REMARK INTER + INTRA:          -5.948
REMARK INTER:                  -5.948
REMARK INTRA:                   0.000
REMARK UNBOUND:                 0.000
REMARK  Name = /home/vital/Documents/PhD_2021/Malaria_codes/scripts/../data/pdbqt_ligands/ligand_334_temp.pdb
REMARK                            x       y       z     vdW  Elec       q    Type
REMARK                         _______ _______ _______ _____ _____    ______ ____
ROOT
ATOM      1  C   UNL     1     151.753 158.411 167.814  0.00  0.00    -0.016 C 
ATOM      2  N   UNL     1     152.455 158.672 166.566  0.00  0.00    -0.319 N 
ATOM      3  C   UNL     1     151.921 159.858 165.896  0.00  0.00    -0.004 C 
ATOM      4  C   UNL     1     152.708 160.117 164.609  0.00  0.00    -0.039 C 
ATOM      5  C   UNL     1     152.246 161.370 163.854  0.00  0.00    -0.036 C 
ATOM      6  C   UNL     1     150.784 161.362 163.398  0.00  0.00    +0.009 C 
ATOM      7  N   UNL     1     150.462 160.216 162.554  0.00  0.00    -0.343 N 
ATOM      8  C   UNL     1     150.913 160.098 161.227  0.00  0.00    +0.038 A 
ATOM      9  C   UNL     1     151.367 161.202 160.504  0.00  0.00    -0.022 A 
ATOM     10  C   UNL     1     151.766 161.037 159.191  0.00  0.00    +0.030 A 
ATOM     11  N   UNL     1     151.726 159.866 158.535  0.00  0.00    -0.255 NA
ATOM     12  C   UNL     1     151.240 158.802 159.188  0.00  0.00    +0.073 A 
ATOM     13  C   UNL     1     151.165 157.601 158.494  0.00  0.00    -0.036 A 
ATOM     14  C   UNL     1     150.654 156.440 159.073  0.00  0.00    -0.060 A 
ATOM     15  C   UNL     1     150.198 156.474 160.382  0.00  0.00    -0.061 A 
ATOM     16  C   UNL     1     150.267 157.667 161.103  0.00  0.00    -0.051 A 
ATOM     17  C   UNL     1     150.798 158.854 160.534  0.00  0.00    +0.021 A 
ATOM     18  H   UNL     1     152.349 157.866 165.949  0.00  0.00    +0.000 HD
ATOM     19  H   UNL     1     153.440 158.836 166.777  0.00  0.00    +0.000 HD
ATOM     20  H   UNL     1     149.906 159.495 162.929  0.00  0.00    +0.000 HD
ENDROOT
TORSDOF 0
ENDMDL
MODEL 7
REMARK VINA RESULT:    -5.925      7.805     10.319
REMARK INTER + INTRA:          -5.925
REMARK INTER:                  -5.925
REMARK INTRA:                   0.000
REMARK UNBOUND:                 0.000
REMARK  Name = /home/vital/Documents/PhD_2021/Malaria_codes/scripts/../data/pdbqt_ligands/ligand_334_temp.pdb
REMARK                            x       y       z     vdW  Elec       q    Type
REMARK                         _______ _______ _______ _____ _____    ______ ____
ROOT
ATOM      1  C   UNL     1     153.423 152.819 168.004  0.00  0.00    -0.016 C 
ATOM      2  N   UNL     1     152.464 153.848 168.382  0.00  0.00    -0.319 N 
ATOM      3  C   UNL     1     152.071 154.655 167.228  0.00  0.00    -0.004 C 
ATOM      4  C   UNL     1     151.040 155.700 167.661  0.00  0.00    -0.039 C 
ATOM      5  C   UNL     1     150.534 156.572 166.505  0.00  0.00    -0.036 C 
ATOM      6  C   UNL     1     151.606 157.392 165.781  0.00  0.00    +0.009 C 
ATOM      7  N   UNL     1     152.350 158.268 166.680  0.00  0.00    -0.343 N 
ATOM      8  C   UNL     1     151.793 159.430 167.243  0.00  0.00    +0.038 A 
ATOM      9  C   UNL     1     150.653 160.033 166.709  0.00  0.00    -0.022 A 
ATOM     10  C   UNL     1     150.168 161.193 167.280  0.00  0.00    +0.030 A 
ATOM     11  N   UNL     1     150.740 161.815 168.324  0.00  0.00    -0.255 NA
ATOM     12  C   UNL     1     151.869 161.289 168.818  0.00  0.00    +0.073 A 
ATOM     13  C   UNL     1     152.479 161.956 169.873  0.00  0.00    -0.036 A 
ATOM     14  C   UNL     1     153.668 161.506 170.447  0.00  0.00    -0.060 A 
ATOM     15  C   UNL     1     154.273 160.361 169.952  0.00  0.00    -0.061 A 
ATOM     16  C   UNL     1     153.679 159.670 168.896  0.00  0.00    -0.051 A 
ATOM     17  C   UNL     1     152.460 160.105 168.311  0.00  0.00    +0.021 A 
ATOM     18  H   UNL     1     152.888 154.455 169.084  0.00  0.00    +0.000 HD
ATOM     19  H   UNL     1     151.631 153.392 168.756  0.00  0.00    +0.000 HD
ATOM     20  H   UNL     1     153.281 158.036 166.901  0.00  0.00    +0.000 HD
ENDROOT
TORSDOF 0
ENDMDL
MODEL 8
REMARK VINA RESULT:    -5.600     11.783     15.255
REMARK INTER + INTRA:          -5.600
REMARK INTER:                  -5.600
REMARK INTRA:                   0.000
REMARK UNBOUND:                 0.000
REMARK  Name = /home/vital/Documents/PhD_2021/Malaria_codes/scripts/../data/pdbqt_ligands/ligand_334_temp.pdb
REMARK                            x       y       z     vdW  Elec       q    Type
REMARK                         _______ _______ _______ _____ _____    ______ ____
ROOT
ATOM      1  C   UNL     1     145.489 140.561 164.878  0.00  0.00    -0.016 C 
ATOM      2  N   UNL     1     145.380 141.666 165.821  0.00  0.00    -0.319 N 
ATOM      3  C   UNL     1     144.056 142.284 165.761  0.00  0.00    -0.004 C 
ATOM      4  C   UNL     1     143.972 143.415 166.789  0.00  0.00    -0.039 C 
ATOM      5  C   UNL     1     142.600 144.100 166.830  0.00  0.00    -0.036 C 
ATOM      6  C   UNL     1     142.152 144.757 165.521  0.00  0.00    +0.009 C 
ATOM      7  N   UNL     1     143.106 145.747 165.031  0.00  0.00    -0.343 N 
ATOM      8  C   UNL     1     143.282 147.002 165.641  0.00  0.00    +0.038 A 
ATOM      9  C   UNL     1     142.323 147.541 166.501  0.00  0.00    -0.022 A 
ATOM     10  C   UNL     1     142.528 148.794 167.047  0.00  0.00    +0.030 A 
ATOM     11  N   UNL     1     143.599 149.562 166.786  0.00  0.00    -0.255 NA
ATOM     12  C   UNL     1     144.505 149.092 165.918  0.00  0.00    +0.073 A 
ATOM     13  C   UNL     1     145.592 149.905 165.621  0.00  0.00    -0.036 A 
ATOM     14  C   UNL     1     146.581 149.521 164.715  0.00  0.00    -0.060 A 
ATOM     15  C   UNL     1     146.483 148.293 164.079  0.00  0.00    -0.061 A 
ATOM     16  C   UNL     1     145.404 147.455 164.364  0.00  0.00    -0.051 A 
ATOM     17  C   UNL     1     144.397 147.824 165.294  0.00  0.00    +0.021 A 
ATOM     18  H   UNL     1     146.085 142.368 165.593  0.00  0.00    +0.000 HD
ATOM     19  H   UNL     1     145.525 141.302 166.763  0.00  0.00    +0.000 HD
ATOM     20  H   UNL     1     143.650 145.527 164.240  0.00  0.00    +0.000 HD
ENDROOT
TORSDOF 0
ENDMDL
MODEL 9
REMARK VINA RESULT:    -5.510     13.307     16.285
REMARK INTER + INTRA:          -5.510
REMARK INTER:                  -5.510
REMARK INTRA:                   0.000
REMARK UNBOUND:                 0.000
REMARK  Name = /home/vital/Documents/PhD_2021/Malaria_codes/scripts/../data/pdbqt_ligands/ligand_334_temp.pdb
REMARK                            x       y       z     vdW  Elec       q    Type
REMARK                         _______ _______ _______ _____ _____    ______ ____
ROOT
ATOM      1  C   UNL     1     141.280 140.524 164.294  0.00  0.00    -0.016 C 
ATOM      2  N   UNL     1     141.911 141.766 163.868  0.00  0.00    -0.319 N 
ATOM      3  C   UNL     1     143.250 141.902 164.440  0.00  0.00    -0.004 C 
ATOM      4  C   UNL     1     143.890 143.200 163.942  0.00  0.00    -0.039 C 
ATOM      5  C   UNL     1     145.320 143.411 164.457  0.00  0.00    -0.036 C 
ATOM      6  C   UNL     1     145.466 143.489 165.980  0.00  0.00    +0.009 C 
ATOM      7  N   UNL     1     144.641 144.537 166.573  0.00  0.00    -0.343 N 
ATOM      8  C   UNL     1     144.937 145.905 166.440  0.00  0.00    +0.038 A 
ATOM      9  C   UNL     1     146.208 146.349 166.071  0.00  0.00    -0.022 A 
ATOM     10  C   UNL     1     146.456 147.706 165.989  0.00  0.00    +0.030 A 
ATOM     11  N   UNL     1     145.547 148.655 166.269  0.00  0.00    -0.255 NA
ATOM     12  C   UNL     1     144.337 148.255 166.682  0.00  0.00    +0.073 A 
ATOM     13  C   UNL     1     143.412 149.240 167.007  0.00  0.00    -0.036 A 
ATOM     14  C   UNL     1     142.132 148.932 167.468  0.00  0.00    -0.060 A 
ATOM     15  C   UNL     1     141.762 147.604 167.617  0.00  0.00    -0.061 A 
ATOM     16  C   UNL     1     142.671 146.597 167.293  0.00  0.00    -0.051 A 
ATOM     17  C   UNL     1     143.972 146.892 166.808  0.00  0.00    +0.021 A 
ATOM     18  H   UNL     1     141.338 142.552 164.174  0.00  0.00    +0.000 HD
ATOM     19  H   UNL     1     141.994 141.754 162.851  0.00  0.00    +0.000 HD
ATOM     20  H   UNL     1     143.844 144.275 167.088  0.00  0.00    +0.000 HD
ENDROOT
TORSDOF 0
ENDMDL
