MODEL 1
REMARK VINA RESULT:    -4.924      0.000      0.000
REMARK INTER + INTRA:          -4.924
REMARK INTER:                  -4.924
REMARK INTRA:                   0.000
REMARK UNBOUND:                 0.000
REMARK  Name = /home/vital/Documents/PhD_2021/Malaria_codes/scripts/../data/pdbqt_ligands/ligand_416_temp.pdb
REMARK                            x       y       z     vdW  Elec       q    Type
REMARK                         _______ _______ _______ _____ _____    ______ ____
ROOT
ATOM      1  C1  UNL     1     151.956 157.614 152.698  0.00  0.00    +0.079 C 
ATOM      2  O1  UNL     1     152.324 156.584 153.607  0.00  0.00    -0.495 OA
ATOM      3  C2  UNL     1     152.012 156.780 154.922  0.00  0.00    +0.120 A 
ATOM      4  C3  UNL     1     152.379 155.732 155.771  0.00  0.00    -0.019 A 
ATOM      5  C4  UNL     1     152.113 155.796 157.142  0.00  0.00    -0.049 A 
ATOM      6  C5  UNL     1     151.465 156.912 157.683  0.00  0.00    +0.001 A 
ATOM      7  C6  UNL     1     151.168 157.013 159.105  0.00  0.00    +0.083 A 
ATOM      8  N1  UNL     1     151.431 158.195 159.784  0.00  0.00    -0.224 NA
ATOM      9  C7  UNL     1     151.101 158.066 161.047  0.00  0.00    +0.165 A 
ATOM     10  N2  UNL     1     151.278 159.107 161.922  0.00  0.00    -0.261 N 
ATOM     11  C8  UNL     1     151.051 159.098 163.279  0.00  0.00    +0.250 C 
ATOM     12  O2  UNL     1     150.705 158.147 163.968  0.00  0.00    -0.270 OA
ATOM     13  C9  UNL     1     151.317 160.396 163.964  0.00  0.00    +0.039 A 
ATOM     14  C10 UNL     1     151.097 161.629 163.335  0.00  0.00    -0.050 A 
ATOM     15  C11 UNL     1     151.371 162.815 164.015  0.00  0.00    -0.059 A 
ATOM     16  C12 UNL     1     151.854 162.776 165.326  0.00  0.00    -0.039 A 
ATOM     17  C13 UNL     1     152.043 161.552 165.967  0.00  0.00    +0.048 A 
ATOM     18  N3  UNL     1     152.528 161.489 167.310  0.00  0.00    -0.221 N 
ATOM     19  S1  UNL     1     151.570 162.148 168.542  0.00  0.00    +0.040 S 
ATOM     20  C14 UNL     1     152.569 163.538 169.029  0.00  0.00    +0.074 C 
ATOM     21  O3  UNL     1     151.611 161.185 169.621  0.00  0.00    -0.155 OA
ATOM     22  O4  UNL     1     150.321 162.645 168.010  0.00  0.00    -0.155 OA
ATOM     23  C15 UNL     1     151.778 160.362 165.288  0.00  0.00    -0.027 A 
ATOM     24  S2  UNL     1     150.435 156.570 161.492  0.00  0.00    -0.057 S 
ATOM     25  C16 UNL     1     150.581 156.017 159.870  0.00  0.00    +0.016 A 
ATOM     26  C17 UNL     1     150.092 154.659 159.504  0.00  0.00    -0.031 C 
ATOM     27  C18 UNL     1     151.119 157.970 156.832  0.00  0.00    -0.049 A 
ATOM     28  C19 UNL     1     151.386 157.904 155.459  0.00  0.00    -0.019 A 
ATOM     29  H   UNL     1     151.603 159.953 161.538  0.00  0.00    +0.000 HD
ATOM     30  H   UNL     1     153.397 161.072 167.513  0.00  0.00    +0.000 HD
ENDROOT
TORSDOF 0
ENDMDL
MODEL 2
REMARK VINA RESULT:    -4.759     10.410     14.453
REMARK INTER + INTRA:          -4.759
REMARK INTER:                  -4.759
REMARK INTRA:                   0.000
REMARK UNBOUND:                 0.000
REMARK  Name = /home/vital/Documents/PhD_2021/Malaria_codes/scripts/../data/pdbqt_ligands/ligand_416_temp.pdb
REMARK                            x       y       z     vdW  Elec       q    Type
REMARK                         _______ _______ _______ _____ _____    ______ ____
ROOT
ATOM      1  C1  UNL     1     151.620 156.509 166.987  0.00  0.00    +0.079 C 
ATOM      2  O1  UNL     1     151.529 156.152 165.614  0.00  0.00    -0.495 OA
ATOM      3  C2  UNL     1     150.644 155.164 165.289  0.00  0.00    +0.120 A 
ATOM      4  C3  UNL     1     150.581 154.862 163.925  0.00  0.00    -0.019 A 
ATOM      5  C4  UNL     1     149.710 153.876 163.451  0.00  0.00    -0.049 A 
ATOM      6  C5  UNL     1     148.881 153.181 164.339  0.00  0.00    +0.001 A 
ATOM      7  C6  UNL     1     147.960 152.150 163.883  0.00  0.00    +0.083 A 
ATOM      8  N1  UNL     1     147.875 150.945 164.568  0.00  0.00    -0.224 NA
ATOM      9  C7  UNL     1     146.998 150.163 163.986  0.00  0.00    +0.165 A 
ATOM     10  N2  UNL     1     146.747 148.909 164.482  0.00  0.00    -0.261 N 
ATOM     11  C8  UNL     1     145.918 147.954 163.941  0.00  0.00    +0.250 C 
ATOM     12  O2  UNL     1     145.295 148.019 162.889  0.00  0.00    -0.270 OA
ATOM     13  C9  UNL     1     145.832 146.687 164.726  0.00  0.00    +0.039 A 
ATOM     14  C10 UNL     1     145.924 146.670 166.124  0.00  0.00    -0.050 A 
ATOM     15  C11 UNL     1     145.848 145.457 166.810  0.00  0.00    -0.059 A 
ATOM     16  C12 UNL     1     145.670 144.264 166.107  0.00  0.00    -0.039 A 
ATOM     17  C13 UNL     1     145.546 144.281 164.718  0.00  0.00    +0.048 A 
ATOM     18  N3  UNL     1     145.355 143.072 163.978  0.00  0.00    -0.221 N 
ATOM     19  S1  UNL     1     143.933 142.188 164.238  0.00  0.00    +0.040 S 
ATOM     20  C14 UNL     1     144.588 140.733 165.025  0.00  0.00    +0.074 C 
ATOM     21  O3  UNL     1     143.474 141.799 162.922  0.00  0.00    -0.155 OA
ATOM     22  O4  UNL     1     143.069 142.868 165.177  0.00  0.00    -0.155 OA
ATOM     23  C15 UNL     1     145.629 145.489 164.026  0.00  0.00    -0.027 A 
ATOM     24  S2  UNL     1     146.208 150.811 162.631  0.00  0.00    -0.057 S 
ATOM     25  C16 UNL     1     147.089 152.276 162.811  0.00  0.00    +0.016 A 
ATOM     26  C17 UNL     1     146.830 153.415 161.887  0.00  0.00    -0.031 C 
ATOM     27  C18 UNL     1     148.964 153.470 165.708  0.00  0.00    -0.049 A 
ATOM     28  C19 UNL     1     149.836 154.459 166.180  0.00  0.00    -0.019 A 
ATOM     29  H   UNL     1     147.209 148.667 165.316  0.00  0.00    +0.000 HD
ATOM     30  H   UNL     1     146.032 142.763 163.335  0.00  0.00    +0.000 HD
ENDROOT
TORSDOF 0
ENDMDL
MODEL 3
REMARK VINA RESULT:    -4.617      7.680     10.750
REMARK INTER + INTRA:          -4.617
REMARK INTER:                  -4.617
REMARK INTRA:                   0.000
REMARK UNBOUND:                 0.000
REMARK  Name = /home/vital/Documents/PhD_2021/Malaria_codes/scripts/../data/pdbqt_ligands/ligand_416_temp.pdb
REMARK                            x       y       z     vdW  Elec       q    Type
REMARK                         _______ _______ _______ _____ _____    ______ ____
ROOT
ATOM      1  C1  UNL     1     151.929 156.975 156.603  0.00  0.00    +0.079 C 
ATOM      2  O1  UNL     1     151.417 157.613 157.766  0.00  0.00    -0.495 OA
ATOM      3  C2  UNL     1     151.014 156.803 158.790  0.00  0.00    +0.120 A 
ATOM      4  C3  UNL     1     150.534 157.480 159.915  0.00  0.00    -0.019 A 
ATOM      5  C4  UNL     1     150.095 156.775 161.040  0.00  0.00    -0.049 A 
ATOM      6  C5  UNL     1     150.139 155.376 161.057  0.00  0.00    +0.001 A 
ATOM      7  C6  UNL     1     149.694 154.607 162.210  0.00  0.00    +0.083 A 
ATOM      8  N1  UNL     1     148.881 153.496 162.029  0.00  0.00    -0.224 NA
ATOM      9  C7  UNL     1     148.592 152.962 163.192  0.00  0.00    +0.165 A 
ATOM     10  N2  UNL     1     147.792 151.851 163.268  0.00  0.00    -0.261 N 
ATOM     11  C8  UNL     1     147.343 151.228 164.409  0.00  0.00    +0.250 C 
ATOM     12  O2  UNL     1     147.524 151.579 165.568  0.00  0.00    -0.270 OA
ATOM     13  C9  UNL     1     146.499 150.021 164.169  0.00  0.00    +0.039 A 
ATOM     14  C10 UNL     1     146.707 149.173 163.073  0.00  0.00    -0.050 A 
ATOM     15  C11 UNL     1     145.883 148.062 162.888  0.00  0.00    -0.059 A 
ATOM     16  C12 UNL     1     144.859 147.789 163.799  0.00  0.00    -0.039 A 
ATOM     17  C13 UNL     1     144.670 148.613 164.908  0.00  0.00    +0.048 A 
ATOM     18  N3  UNL     1     143.634 148.348 165.856  0.00  0.00    -0.221 N 
ATOM     19  S1  UNL     1     143.716 146.913 166.756  0.00  0.00    +0.040 S 
ATOM     20  C14 UNL     1     142.322 146.028 166.093  0.00  0.00    +0.074 C 
ATOM     21  O3  UNL     1     143.385 147.290 168.113  0.00  0.00    -0.155 OA
ATOM     22  O4  UNL     1     144.920 146.177 166.439  0.00  0.00    -0.155 OA
ATOM     23  C15 UNL     1     145.485 149.729 165.094  0.00  0.00    -0.027 A 
ATOM     24  S2  UNL     1     149.285 153.713 164.548  0.00  0.00    -0.057 S 
ATOM     25  C16 UNL     1     150.054 154.861 163.525  0.00  0.00    +0.016 A 
ATOM     26  C17 UNL     1     150.950 155.894 164.114  0.00  0.00    -0.031 C 
ATOM     27  C18 UNL     1     150.599 154.701 159.917  0.00  0.00    -0.049 A 
ATOM     28  C19 UNL     1     151.039 155.410 158.792  0.00  0.00    -0.019 A 
ATOM     29  H   UNL     1     147.507 151.457 162.412  0.00  0.00    +0.000 HD
ATOM     30  H   UNL     1     142.892 148.982 165.984  0.00  0.00    +0.000 HD
ENDROOT
TORSDOF 0
ENDMDL
MODEL 4
REMARK VINA RESULT:    -4.301      8.716     11.718
REMARK INTER + INTRA:          -4.301
REMARK INTER:                  -4.301
REMARK INTRA:                   0.000
REMARK UNBOUND:                 0.000
REMARK  Name = /home/vital/Documents/PhD_2021/Malaria_codes/scripts/../data/pdbqt_ligands/ligand_416_temp.pdb
REMARK                            x       y       z     vdW  Elec       q    Type
REMARK                         _______ _______ _______ _____ _____    ______ ____
ROOT
ATOM      1  C1  UNL     1     152.018 158.250 160.382  0.00  0.00    +0.079 C 
ATOM      2  O1  UNL     1     151.846 158.446 161.780  0.00  0.00    -0.495 OA
ATOM      3  C2  UNL     1     151.374 157.387 162.501  0.00  0.00    +0.120 A 
ATOM      4  C3  UNL     1     151.239 157.626 163.871  0.00  0.00    -0.019 A 
ATOM      5  C4  UNL     1     150.773 156.625 164.729  0.00  0.00    -0.049 A 
ATOM      6  C5  UNL     1     150.443 155.362 164.226  0.00  0.00    +0.001 A 
ATOM      7  C6  UNL     1     149.958 154.294 165.088  0.00  0.00    +0.083 A 
ATOM      8  N1  UNL     1     148.863 153.534 164.700  0.00  0.00    -0.224 NA
ATOM      9  C7  UNL     1     148.591 152.642 165.622  0.00  0.00    +0.165 A 
ATOM     10  N2  UNL     1     147.539 151.776 165.463  0.00  0.00    -0.261 N 
ATOM     11  C8  UNL     1     147.088 150.844 166.368  0.00  0.00    +0.250 C 
ATOM     12  O2  UNL     1     147.501 150.650 167.504  0.00  0.00    -0.270 OA
ATOM     13  C9  UNL     1     145.929 150.029 165.899  0.00  0.00    +0.039 A 
ATOM     14  C10 UNL     1     145.762 149.678 164.553  0.00  0.00    -0.050 A 
ATOM     15  C11 UNL     1     144.655 148.923 164.163  0.00  0.00    -0.059 A 
ATOM     16  C12 UNL     1     143.719 148.509 165.114  0.00  0.00    -0.039 A 
ATOM     17  C13 UNL     1     143.898 148.830 166.460  0.00  0.00    +0.048 A 
ATOM     18  N3  UNL     1     142.958 148.411 167.451  0.00  0.00    -0.221 N 
ATOM     19  S1  UNL     1     142.767 146.749 167.724  0.00  0.00    +0.040 S 
ATOM     20  C14 UNL     1     141.115 146.501 167.112  0.00  0.00    +0.074 C 
ATOM     21  O3  UNL     1     142.723 146.597 169.162  0.00  0.00    -0.155 OA
ATOM     22  O4  UNL     1     143.680 145.985 166.904  0.00  0.00    -0.155 OA
ATOM     23  C15 UNL     1     144.999 149.591 166.854  0.00  0.00    -0.027 A 
ATOM     24  S2  UNL     1     149.624 152.625 166.968  0.00  0.00    -0.057 S 
ATOM     25  C16 UNL     1     150.537 153.915 166.290  0.00  0.00    +0.016 A 
ATOM     26  C17 UNL     1     151.743 154.422 167.001  0.00  0.00    -0.031 C 
ATOM     27  C18 UNL     1     150.558 155.133 162.848  0.00  0.00    -0.049 A 
ATOM     28  C19 UNL     1     151.025 156.137 161.990  0.00  0.00    -0.019 A 
ATOM     29  H   UNL     1     147.053 151.828 164.608  0.00  0.00    +0.000 HD
ATOM     30  H   UNL     1     142.435 149.070 167.961  0.00  0.00    +0.000 HD
ENDROOT
TORSDOF 0
ENDMDL
MODEL 5
REMARK VINA RESULT:    -4.261      6.777     10.151
REMARK INTER + INTRA:          -4.261
REMARK INTER:                  -4.261
REMARK INTRA:                   0.000
REMARK UNBOUND:                 0.000
REMARK  Name = /home/vital/Documents/PhD_2021/Malaria_codes/scripts/../data/pdbqt_ligands/ligand_416_temp.pdb
REMARK                            x       y       z     vdW  Elec       q    Type
REMARK                         _______ _______ _______ _____ _____    ______ ____
ROOT
ATOM      1  C1  UNL     1     151.435 160.067 157.417  0.00  0.00    +0.079 C 
ATOM      2  O1  UNL     1     151.286 160.280 158.815  0.00  0.00    -0.495 OA
ATOM      3  C2  UNL     1     151.041 159.179 159.586  0.00  0.00    +0.120 A 
ATOM      4  C3  UNL     1     150.920 159.440 160.954  0.00  0.00    -0.019 A 
ATOM      5  C4  UNL     1     150.676 158.403 161.860  0.00  0.00    -0.049 A 
ATOM      6  C5  UNL     1     150.560 157.084 161.408  0.00  0.00    +0.001 A 
ATOM      7  C6  UNL     1     150.309 155.978 162.321  0.00  0.00    +0.083 A 
ATOM      8  N1  UNL     1     149.354 155.022 162.005  0.00  0.00    -0.224 NA
ATOM      9  C7  UNL     1     149.283 154.129 162.963  0.00  0.00    +0.165 A 
ATOM     10  N2  UNL     1     148.399 153.085 162.877  0.00  0.00    -0.261 N 
ATOM     11  C8  UNL     1     148.159 152.120 163.827  0.00  0.00    +0.250 C 
ATOM     12  O2  UNL     1     148.646 152.043 164.948  0.00  0.00    -0.270 OA
ATOM     13  C9  UNL     1     147.148 151.095 163.434  0.00  0.00    +0.039 A 
ATOM     14  C10 UNL     1     146.995 150.671 162.107  0.00  0.00    -0.050 A 
ATOM     15  C11 UNL     1     146.027 149.717 161.790  0.00  0.00    -0.059 A 
ATOM     16  C12 UNL     1     145.219 149.178 162.794  0.00  0.00    -0.039 A 
ATOM     17  C13 UNL     1     145.391 149.573 164.120  0.00  0.00    +0.048 A 
ATOM     18  N3  UNL     1     144.581 149.028 165.164  0.00  0.00    -0.221 N 
ATOM     19  S1  UNL     1     144.703 147.370 165.493  0.00  0.00    +0.040 S 
ATOM     20  C14 UNL     1     143.100 146.810 164.963  0.00  0.00    +0.074 C 
ATOM     21  O3  UNL     1     144.744 147.264 166.935  0.00  0.00    -0.155 OA
ATOM     22  O4  UNL     1     145.706 146.753 164.654  0.00  0.00    -0.155 OA
ATOM     23  C15 UNL     1     146.351 150.532 164.442  0.00  0.00    -0.027 A 
ATOM     24  S2  UNL     1     150.355 154.345 164.261  0.00  0.00    -0.057 S 
ATOM     25  C16 UNL     1     150.994 155.752 163.506  0.00  0.00    +0.016 A 
ATOM     26  C17 UNL     1     152.116 156.492 164.147  0.00  0.00    -0.031 C 
ATOM     27  C18 UNL     1     150.659 156.830 160.033  0.00  0.00    -0.049 A 
ATOM     28  C19 UNL     1     150.904 157.870 159.127  0.00  0.00    -0.019 A 
ATOM     29  H   UNL     1     147.879 153.018 162.043  0.00  0.00    +0.000 HD
ATOM     30  H   UNL     1     143.969 149.602 165.679  0.00  0.00    +0.000 HD
ENDROOT
TORSDOF 0
ENDMDL
MODEL 6
REMARK VINA RESULT:    -4.160      8.241     10.682
REMARK INTER + INTRA:          -4.160
REMARK INTER:                  -4.160
REMARK INTRA:                   0.000
REMARK UNBOUND:                 0.000
REMARK  Name = /home/vital/Documents/PhD_2021/Malaria_codes/scripts/../data/pdbqt_ligands/ligand_416_temp.pdb
REMARK                            x       y       z     vdW  Elec       q    Type
REMARK                         _______ _______ _______ _____ _____    ______ ____
ROOT
ATOM      1  C1  UNL     1     144.715 143.051 165.100  0.00  0.00    +0.079 C 
ATOM      2  O1  UNL     1     143.886 144.136 164.702  0.00  0.00    -0.495 OA
ATOM      3  C2  UNL     1     144.502 145.333 164.472  0.00  0.00    +0.120 A 
ATOM      4  C3  UNL     1     143.647 146.362 164.067  0.00  0.00    -0.019 A 
ATOM      5  C4  UNL     1     144.145 147.639 163.790  0.00  0.00    -0.049 A 
ATOM      6  C5  UNL     1     145.515 147.902 163.907  0.00  0.00    +0.001 A 
ATOM      7  C6  UNL     1     146.071 149.217 163.624  0.00  0.00    +0.083 A 
ATOM      8  N1  UNL     1     146.996 149.779 164.494  0.00  0.00    -0.224 NA
ATOM      9  C7  UNL     1     147.356 150.962 164.058  0.00  0.00    +0.165 A 
ATOM     10  N2  UNL     1     148.261 151.716 164.759  0.00  0.00    -0.261 N 
ATOM     11  C8  UNL     1     148.676 152.995 164.470  0.00  0.00    +0.250 C 
ATOM     12  O2  UNL     1     148.276 153.722 163.569  0.00  0.00    -0.270 OA
ATOM     13  C9  UNL     1     149.693 153.549 165.412  0.00  0.00    +0.039 A 
ATOM     14  C10 UNL     1     150.655 152.739 166.029  0.00  0.00    -0.050 A 
ATOM     15  C11 UNL     1     151.578 153.303 166.911  0.00  0.00    -0.059 A 
ATOM     16  C12 UNL     1     151.549 154.676 167.170  0.00  0.00    -0.039 A 
ATOM     17  C13 UNL     1     150.614 155.490 166.534  0.00  0.00    +0.048 A 
ATOM     18  N3  UNL     1     150.571 156.898 166.778  0.00  0.00    -0.221 N 
ATOM     19  S1  UNL     1     151.909 157.833 166.321  0.00  0.00    +0.040 S 
ATOM     20  C14 UNL     1     152.531 158.321 167.915  0.00  0.00    +0.074 C 
ATOM     21  O3  UNL     1     151.358 159.013 165.691  0.00  0.00    -0.155 OA
ATOM     22  O4  UNL     1     152.908 157.016 165.669  0.00  0.00    -0.155 OA
ATOM     23  C15 UNL     1     149.684 154.930 165.657  0.00  0.00    -0.027 A 
ATOM     24  S2  UNL     1     146.658 151.458 162.592  0.00  0.00    -0.057 S 
ATOM     25  C16 UNL     1     145.790 149.977 162.499  0.00  0.00    +0.016 A 
ATOM     26  C17 UNL     1     144.924 149.699 161.320  0.00  0.00    -0.031 C 
ATOM     27  C18 UNL     1     146.366 146.874 164.335  0.00  0.00    -0.049 A 
ATOM     28  C19 UNL     1     145.864 145.595 164.612  0.00  0.00    -0.019 A 
ATOM     29  H   UNL     1     148.658 151.297 165.557  0.00  0.00    +0.000 HD
ATOM     30  H   UNL     1     149.785 157.313 167.201  0.00  0.00    +0.000 HD
ENDROOT
TORSDOF 0
ENDMDL
MODEL 7
REMARK VINA RESULT:    -3.871      6.951     10.968
REMARK INTER + INTRA:          -3.871
REMARK INTER:                  -3.871
REMARK INTRA:                   0.000
REMARK UNBOUND:                 0.000
REMARK  Name = /home/vital/Documents/PhD_2021/Malaria_codes/scripts/../data/pdbqt_ligands/ligand_416_temp.pdb
REMARK                            x       y       z     vdW  Elec       q    Type
REMARK                         _______ _______ _______ _____ _____    ______ ____
ROOT
ATOM      1  C1  UNL     1     152.065 161.724 161.937  0.00  0.00    +0.079 C 
ATOM      2  O1  UNL     1     151.872 161.489 163.326  0.00  0.00    -0.495 OA
ATOM      3  C2  UNL     1     151.605 160.205 163.706  0.00  0.00    +0.120 A 
ATOM      4  C3  UNL     1     151.440 160.025 165.082  0.00  0.00    -0.019 A 
ATOM      5  C4  UNL     1     151.170 158.759 165.610  0.00  0.00    -0.049 A 
ATOM      6  C5  UNL     1     151.069 157.649 164.764  0.00  0.00    +0.001 A 
ATOM      7  C6  UNL     1     150.791 156.315 165.277  0.00  0.00    +0.083 A 
ATOM      8  N1  UNL     1     149.847 155.514 164.648  0.00  0.00    -0.224 NA
ATOM      9  C7  UNL     1     149.749 154.366 165.275  0.00  0.00    +0.165 A 
ATOM     10  N2  UNL     1     148.868 153.409 164.840  0.00  0.00    -0.261 N 
ATOM     11  C8  UNL     1     148.600 152.197 165.432  0.00  0.00    +0.250 C 
ATOM     12  O2  UNL     1     149.052 151.769 166.487  0.00  0.00    -0.270 OA
ATOM     13  C9  UNL     1     147.604 151.356 164.707  0.00  0.00    +0.039 A 
ATOM     14  C10 UNL     1     147.492 151.370 163.311  0.00  0.00    -0.050 A 
ATOM     15  C11 UNL     1     146.536 150.572 162.682  0.00  0.00    -0.059 A 
ATOM     16  C12 UNL     1     145.698 149.752 163.441  0.00  0.00    -0.039 A 
ATOM     17  C13 UNL     1     145.827 149.711 164.829  0.00  0.00    +0.048 A 
ATOM     18  N3  UNL     1     144.986 148.873 165.625  0.00  0.00    -0.221 N 
ATOM     19  S1  UNL     1     145.100 147.194 165.421  0.00  0.00    +0.040 S 
ATOM     20  C14 UNL     1     143.515 146.842 164.694  0.00  0.00    +0.074 C 
ATOM     21  O3  UNL     1     145.096 146.642 166.758  0.00  0.00    -0.155 OA
ATOM     22  O4  UNL     1     146.129 146.863 164.461  0.00  0.00    -0.155 OA
ATOM     23  C15 UNL     1     146.776 150.513 165.464  0.00  0.00    -0.027 A 
ATOM     24  S2  UNL     1     150.779 154.156 166.607  0.00  0.00    -0.057 S 
ATOM     25  C16 UNL     1     151.439 155.723 166.351  0.00  0.00    +0.016 A 
ATOM     26  C17 UNL     1     152.540 156.215 167.225  0.00  0.00    -0.031 C 
ATOM     27  C18 UNL     1     151.212 157.837 163.383  0.00  0.00    -0.049 A 
ATOM     28  C19 UNL     1     151.483 159.107 162.856  0.00  0.00    -0.019 A 
ATOM     29  H   UNL     1     148.375 153.611 164.012  0.00  0.00    +0.000 HD
ATOM     30  H   UNL     1     144.357 149.262 166.275  0.00  0.00    +0.000 HD
ENDROOT
TORSDOF 0
ENDMDL
MODEL 8
REMARK VINA RESULT:    -3.719     12.815     15.948
REMARK INTER + INTRA:          -3.719
REMARK INTER:                  -3.719
REMARK INTRA:                   0.000
REMARK UNBOUND:                 0.000
REMARK  Name = /home/vital/Documents/PhD_2021/Malaria_codes/scripts/../data/pdbqt_ligands/ligand_416_temp.pdb
REMARK                            x       y       z     vdW  Elec       q    Type
REMARK                         _______ _______ _______ _____ _____    ______ ____
ROOT
ATOM      1  C1  UNL     1     140.607 138.776 163.765  0.00  0.00    +0.079 C 
ATOM      2  O1  UNL     1     141.002 139.230 165.054  0.00  0.00    -0.495 OA
ATOM      3  C2  UNL     1     141.305 140.556 165.176  0.00  0.00    +0.120 A 
ATOM      4  C3  UNL     1     141.671 140.955 166.465  0.00  0.00    -0.019 A 
ATOM      5  C4  UNL     1     141.999 142.287 166.735  0.00  0.00    -0.049 A 
ATOM      6  C5  UNL     1     141.956 143.244 165.715  0.00  0.00    +0.001 A 
ATOM      7  C6  UNL     1     142.288 144.641 165.959  0.00  0.00    +0.083 A 
ATOM      8  N1  UNL     1     143.116 145.320 165.075  0.00  0.00    -0.224 NA
ATOM      9  C7  UNL     1     143.291 146.553 165.486  0.00  0.00    +0.165 A 
ATOM     10  N2  UNL     1     144.082 147.418 164.775  0.00  0.00    -0.261 N 
ATOM     11  C8  UNL     1     144.418 148.707 165.117  0.00  0.00    +0.250 C 
ATOM     12  O2  UNL     1     144.124 149.304 166.145  0.00  0.00    -0.270 OA
ATOM     13  C9  UNL     1     145.283 149.410 164.125  0.00  0.00    +0.039 A 
ATOM     14  C10 UNL     1     145.185 149.168 162.748  0.00  0.00    -0.050 A 
ATOM     15  C11 UNL     1     146.025 149.844 161.862  0.00  0.00    -0.059 A 
ATOM     16  C12 UNL     1     146.955 150.768 162.345  0.00  0.00    -0.039 A 
ATOM     17  C13 UNL     1     147.034 151.034 163.711  0.00  0.00    +0.048 A 
ATOM     18  N3  UNL     1     147.973 151.981 164.227  0.00  0.00    -0.221 N 
ATOM     19  S1  UNL     1     147.806 153.606 163.774  0.00  0.00    +0.040 S 
ATOM     20  C14 UNL     1     149.259 153.820 162.770  0.00  0.00    +0.074 C 
ATOM     21  O3  UNL     1     148.001 154.367 164.988  0.00  0.00    -0.155 OA
ATOM     22  O4  UNL     1     146.640 153.788 162.938  0.00  0.00    -0.155 OA
ATOM     23  C15 UNL     1     146.202 150.356 164.603  0.00  0.00    -0.027 A 
ATOM     24  S2  UNL     1     142.468 146.986 166.906  0.00  0.00    -0.057 S 
ATOM     25  C16 UNL     1     141.800 145.405 167.008  0.00  0.00    +0.016 A 
ATOM     26  C17 UNL     1     140.849 145.072 168.104  0.00  0.00    -0.031 C 
ATOM     27  C18 UNL     1     141.611 142.836 164.420  0.00  0.00    -0.049 A 
ATOM     28  C19 UNL     1     141.282 141.501 164.152  0.00  0.00    -0.019 A 
ATOM     29  H   UNL     1     144.449 147.079 163.926  0.00  0.00    +0.000 HD
ATOM     30  H   UNL     1     148.697 151.696 164.829  0.00  0.00    +0.000 HD
ENDROOT
TORSDOF 0
ENDMDL
MODEL 9
REMARK VINA RESULT:    -3.473      2.453     10.891
REMARK INTER + INTRA:          -3.473
REMARK INTER:                  -3.473
REMARK INTRA:                   0.000
REMARK UNBOUND:                 0.000
REMARK  Name = /home/vital/Documents/PhD_2021/Malaria_codes/scripts/../data/pdbqt_ligands/ligand_416_temp.pdb
REMARK                            x       y       z     vdW  Elec       q    Type
REMARK                         _______ _______ _______ _____ _____    ______ ____
ROOT
ATOM      1  C1  UNL     1     152.483 160.536 171.233  0.00  0.00    +0.079 C 
ATOM      2  O1  UNL     1     152.828 161.555 170.303  0.00  0.00    -0.495 OA
ATOM      3  C2  UNL     1     152.439 161.369 169.007  0.00  0.00    +0.120 A 
ATOM      4  C3  UNL     1     152.787 162.406 168.138  0.00  0.00    -0.019 A 
ATOM      5  C4  UNL     1     152.444 162.349 166.783  0.00  0.00    -0.049 A 
ATOM      6  C5  UNL     1     151.735 161.252 166.281  0.00  0.00    +0.001 A 
ATOM      7  C6  UNL     1     151.357 161.159 164.878  0.00  0.00    +0.083 A 
ATOM      8  N1  UNL     1     151.549 159.970 164.187  0.00  0.00    -0.224 NA
ATOM      9  C7  UNL     1     151.153 160.108 162.945  0.00  0.00    +0.165 A 
ATOM     10  N2  UNL     1     151.252 159.063 162.063  0.00  0.00    -0.261 N 
ATOM     11  C8  UNL     1     150.950 159.078 160.721  0.00  0.00    +0.250 C 
ATOM     12  O2  UNL     1     150.593 160.038 160.050  0.00  0.00    -0.270 OA
ATOM     13  C9  UNL     1     151.141 157.772 160.024  0.00  0.00    +0.039 A 
ATOM     14  C10 UNL     1     150.923 156.546 160.667  0.00  0.00    -0.050 A 
ATOM     15  C11 UNL     1     151.125 155.352 159.974  0.00  0.00    -0.059 A 
ATOM     16  C12 UNL     1     151.535 155.378 158.638  0.00  0.00    -0.039 A 
ATOM     17  C13 UNL     1     151.722 156.596 157.986  0.00  0.00    +0.048 A 
ATOM     18  N3  UNL     1     152.134 156.646 156.618  0.00  0.00    -0.221 N 
ATOM     19  S1  UNL     1     151.090 156.013 155.442  0.00  0.00    +0.040 S 
ATOM     20  C14 UNL     1     152.022 154.596 154.902  0.00  0.00    +0.074 C 
ATOM     21  O3  UNL     1     151.099 156.974 154.360  0.00  0.00    -0.155 OA
ATOM     22  O4  UNL     1     149.859 155.552 156.043  0.00  0.00    -0.155 OA
ATOM     23  C15 UNL     1     151.529 157.793 158.676  0.00  0.00    -0.027 A 
ATOM     24  S2  UNL     1     150.505 161.622 162.535  0.00  0.00    -0.057 S 
ATOM     25  C16 UNL     1     150.757 162.171 164.145  0.00  0.00    +0.016 A 
ATOM     26  C17 UNL     1     150.327 163.542 164.536  0.00  0.00    -0.031 C 
ATOM     27  C18 UNL     1     151.408 160.203 167.152  0.00  0.00    -0.049 A 
ATOM     28  C19 UNL     1     151.752 160.263 168.508  0.00  0.00    -0.019 A 
ATOM     29  H   UNL     1     151.574 158.208 162.430  0.00  0.00    +0.000 HD
ATOM     30  H   UNL     1     153.001 157.038 156.366  0.00  0.00    +0.000 HD
ENDROOT
TORSDOF 0
ENDMDL
