MODEL 1
REMARK VINA RESULT:    -3.757      0.000      0.000
REMARK INTER + INTRA:          -3.757
REMARK INTER:                  -3.757
REMARK INTRA:                   0.000
REMARK UNBOUND:                 0.000
REMARK  Name = /home/vital/Documents/PhD_2021/Malaria_codes/scripts/../data/pdbqt_ligands/ligand_392_temp.pdb
REMARK                            x       y       z     vdW  Elec       q    Type
REMARK                         _______ _______ _______ _____ _____    ______ ____
ROOT
ATOM      1  C   UNL     1     146.246 149.008 162.222  0.00  0.00    +0.030 C 
ATOM      2  N   UNL     1     145.193 148.157 162.766  0.00  0.00    -0.279 NA
ATOM      3  C   UNL     1     144.880 148.427 163.991  0.00  0.00    +0.084 C 
ATOM      4  N   UNL     1     143.924 147.780 164.766  0.00  0.00    -0.268 N 
ATOM      5  C   UNL     1     143.314 146.626 164.263  0.00  0.00    +0.016 C 
ATOM      6  C   UNL     1     143.812 145.449 163.836  0.00  0.00    +0.052 C 
ATOM      7 CL   UNL     1     142.638 144.426 163.028  0.00  0.00    -0.085 Cl
ATOM      8  C   UNL     1     145.251 144.942 163.872  0.00  0.00    +0.086 C 
ATOM      9 CL   UNL     1     146.261 145.685 165.179  0.00  0.00    -0.114 Cl
ATOM     10  C   UNL     1     145.555 143.372 163.869  0.00  0.00    +0.029 C 
ATOM     11  C   UNL     1     145.825 143.017 162.377  0.00  0.00    -0.048 C 
ATOM     12  N   UNL     1     144.510 142.455 164.407  0.00  0.00    -0.290 N 
ATOM     13  C   UNL     1     144.940 141.020 164.375  0.00  0.00    +0.002 C 
ATOM     14  C   UNL     1     145.378 141.134 165.835  0.00  0.00    -0.019 C 
ATOM     15  C   UNL     1     144.387 142.307 165.902  0.00  0.00    +0.049 C 
ATOM     16  C   UNL     1     144.729 143.475 166.847  0.00  0.00    +0.040 C 
ATOM     17  N   UNL     1     143.919 144.379 167.309  0.00  0.00    -0.198 NA
ATOM     18  N   UNL     1     142.647 144.412 166.827  0.00  0.00    -0.267 N 
ATOM     19  C   UNL     1     141.825 145.582 167.124  0.00  0.00    +0.050 C 
ATOM     20  C   UNL     1     142.530 146.768 167.806  0.00  0.00    +0.067 C 
ATOM     21  O   UNL     1     143.620 147.319 167.079  0.00  0.00    -0.355 OA
ATOM     22  C   UNL     1     143.442 148.323 166.077  0.00  0.00    +0.135 C 
ATOM     23  C   UNL     1     144.308 149.481 166.612  0.00  0.00    -0.019 C 
ATOM     24  C   UNL     1     142.016 148.886 165.912  0.00  0.00    -0.019 C 
ATOM     25  H   UNL     1     143.725 142.836 163.878  0.00  0.00    +0.000 HD
ATOM     26  H   UNL     1     142.290 143.668 166.292  0.00  0.00    +0.000 HD
ENDROOT
TORSDOF 0
ENDMDL
MODEL 2
REMARK VINA RESULT:    -2.801      2.101      5.669
REMARK INTER + INTRA:          -2.801
REMARK INTER:                  -2.801
REMARK INTRA:                   0.000
REMARK UNBOUND:                 0.000
REMARK  Name = /home/vital/Documents/PhD_2021/Malaria_codes/scripts/../data/pdbqt_ligands/ligand_392_temp.pdb
REMARK                            x       y       z     vdW  Elec       q    Type
REMARK                         _______ _______ _______ _____ _____    ______ ____
ROOT
ATOM      1  C   UNL     1     146.318 140.283 164.089  0.00  0.00    +0.030 C 
ATOM      2  N   UNL     1     145.710 141.269 164.976  0.00  0.00    -0.279 NA
ATOM      3  C   UNL     1     144.448 141.082 165.183  0.00  0.00    +0.084 C 
ATOM      4  N   UNL     1     143.611 141.864 165.972  0.00  0.00    -0.268 N 
ATOM      5  C   UNL     1     144.104 143.062 166.500  0.00  0.00    +0.016 C 
ATOM      6  C   UNL     1     144.636 144.156 165.922  0.00  0.00    +0.052 C 
ATOM      7 CL   UNL     1     145.367 145.279 167.056  0.00  0.00    -0.085 Cl
ATOM      8  C   UNL     1     144.772 144.494 164.441  0.00  0.00    +0.086 C 
ATOM      9 CL   UNL     1     143.542 143.686 163.385  0.00  0.00    -0.114 Cl
ATOM     10  C   UNL     1     144.882 146.017 163.965  0.00  0.00    +0.029 C 
ATOM     11  C   UNL     1     146.409 146.283 163.819  0.00  0.00    -0.048 C 
ATOM     12  N   UNL     1     144.285 147.068 164.837  0.00  0.00    -0.290 N 
ATOM     13  C   UNL     1     144.429 148.441 164.256  0.00  0.00    +0.002 C 
ATOM     14  C   UNL     1     143.018 148.330 163.679  0.00  0.00    -0.019 C 
ATOM     15  C   UNL     1     142.794 147.283 164.781  0.00  0.00    +0.049 C 
ATOM     16  C   UNL     1     141.834 146.119 164.472  0.00  0.00    +0.040 C 
ATOM     17  N   UNL     1     141.248 145.332 165.324  0.00  0.00    -0.198 NA
ATOM     18  N   UNL     1     141.594 145.429 166.636  0.00  0.00    -0.267 N 
ATOM     19  C   UNL     1     141.158 144.374 167.546  0.00  0.00    +0.050 C 
ATOM     20  C   UNL     1     140.496 143.140 166.909  0.00  0.00    +0.067 C 
ATOM     21  O   UNL     1     141.304 142.440 165.972  0.00  0.00    -0.355 OA
ATOM     22  C   UNL     1     142.233 141.428 166.368  0.00  0.00    +0.135 C 
ATOM     23  C   UNL     1     141.734 140.197 165.584  0.00  0.00    -0.019 C 
ATOM     24  C   UNL     1     142.223 141.028 167.858  0.00  0.00    -0.019 C 
ATOM     25  H   UNL     1     144.711 146.761 165.712  0.00  0.00    +0.000 HD
ATOM     26  H   UNL     1     142.125 146.190 166.963  0.00  0.00    +0.000 HD
ENDROOT
TORSDOF 0
ENDMDL
MODEL 3
REMARK VINA RESULT:    -2.498     14.192     16.960
REMARK INTER + INTRA:          -2.498
REMARK INTER:                  -2.498
REMARK INTRA:                   0.000
REMARK UNBOUND:                 0.000
REMARK  Name = /home/vital/Documents/PhD_2021/Malaria_codes/scripts/../data/pdbqt_ligands/ligand_392_temp.pdb
REMARK                            x       y       z     vdW  Elec       q    Type
REMARK                         _______ _______ _______ _____ _____    ______ ____
ROOT
ATOM      1  C   UNL     1     151.638 161.861 161.431  0.00  0.00    +0.030 C 
ATOM      2  N   UNL     1     152.257 161.174 162.559  0.00  0.00    -0.279 NA
ATOM      3  C   UNL     1     151.849 159.958 162.723  0.00  0.00    +0.084 C 
ATOM      4  N   UNL     1     152.256 159.072 163.714  0.00  0.00    -0.268 N 
ATOM      5  C   UNL     1     153.080 159.540 164.743  0.00  0.00    +0.016 C 
ATOM      6  C   UNL     1     152.932 160.531 165.644  0.00  0.00    +0.052 C 
ATOM      7 CL   UNL     1     154.392 160.901 166.546  0.00  0.00    -0.085 Cl
ATOM      8  C   UNL     1     151.721 161.420 165.908  0.00  0.00    +0.086 C 
ATOM      9 CL   UNL     1     150.140 160.667 165.445  0.00  0.00    -0.114 Cl
ATOM     10  C   UNL     1     151.521 162.110 167.337  0.00  0.00    +0.029 C 
ATOM     11  C   UNL     1     152.112 163.541 167.179  0.00  0.00    -0.048 C 
ATOM     12  N   UNL     1     152.140 161.455 168.524  0.00  0.00    -0.290 N 
ATOM     13  C   UNL     1     151.844 162.186 169.798  0.00  0.00    +0.002 C 
ATOM     14  C   UNL     1     150.683 161.229 170.062  0.00  0.00    -0.019 C 
ATOM     15  C   UNL     1     151.439 160.266 169.133  0.00  0.00    +0.049 C 
ATOM     16  C   UNL     1     150.601 159.308 168.266  0.00  0.00    +0.040 C 
ATOM     17  N   UNL     1     151.002 158.219 167.681  0.00  0.00    -0.198 NA
ATOM     18  N   UNL     1     152.330 157.926 167.702  0.00  0.00    -0.267 N 
ATOM     19  C   UNL     1     152.820 156.872 166.819  0.00  0.00    +0.050 C 
ATOM     20  C   UNL     1     151.819 156.303 165.799  0.00  0.00    +0.067 C 
ATOM     21  O   UNL     1     151.276 157.253 164.892  0.00  0.00    -0.355 OA
ATOM     22  C   UNL     1     151.934 157.609 163.673  0.00  0.00    +0.135 C 
ATOM     23  C   UNL     1     150.877 157.248 162.610  0.00  0.00    -0.019 C 
ATOM     24  C   UNL     1     153.202 156.808 163.315  0.00  0.00    -0.019 C 
ATOM     25  H   UNL     1     153.072 161.334 168.128  0.00  0.00    +0.000 HD
ATOM     26  H   UNL     1     152.945 158.413 168.297  0.00  0.00    +0.000 HD
ENDROOT
TORSDOF 0
ENDMDL
MODEL 4
REMARK VINA RESULT:    -2.185      2.332      6.271
REMARK INTER + INTRA:          -2.185
REMARK INTER:                  -2.185
REMARK INTRA:                   0.000
REMARK UNBOUND:                 0.000
REMARK  Name = /home/vital/Documents/PhD_2021/Malaria_codes/scripts/../data/pdbqt_ligands/ligand_392_temp.pdb
REMARK                            x       y       z     vdW  Elec       q    Type
REMARK                         _______ _______ _______ _____ _____    ______ ____
ROOT
ATOM      1  C   UNL     1     140.490 141.927 168.219  0.00  0.00    +0.030 C 
ATOM      2  N   UNL     1     141.073 142.489 167.005  0.00  0.00    -0.279 NA
ATOM      3  C   UNL     1     142.171 141.917 166.636  0.00  0.00    +0.084 C 
ATOM      4  N   UNL     1     142.947 142.244 165.529  0.00  0.00    -0.268 N 
ATOM      5  C   UNL     1     142.625 143.389 164.793  0.00  0.00    +0.016 C 
ATOM      6  C   UNL     1     142.509 144.686 165.137  0.00  0.00    +0.052 C 
ATOM      7 CL   UNL     1     141.799 145.697 163.890  0.00  0.00    -0.085 Cl
ATOM      8  C   UNL     1     142.815 145.360 166.471  0.00  0.00    +0.086 C 
ATOM      9 CL   UNL     1     144.049 144.489 167.471  0.00  0.00    -0.114 Cl
ATOM     10  C   UNL     1     143.170 146.918 166.528  0.00  0.00    +0.029 C 
ATOM     11  C   UNL     1     141.825 147.625 166.865  0.00  0.00    -0.048 C 
ATOM     12  N   UNL     1     143.760 147.547 165.312  0.00  0.00    -0.290 N 
ATOM     13  C   UNL     1     144.075 148.998 165.515  0.00  0.00    +0.002 C 
ATOM     14  C   UNL     1     145.521 148.624 165.841  0.00  0.00    -0.019 C 
ATOM     15  C   UNL     1     145.230 147.344 165.042  0.00  0.00    +0.049 C 
ATOM     16  C   UNL     1     145.947 146.053 165.480  0.00  0.00    +0.040 C 
ATOM     17  N   UNL     1     146.117 144.970 164.783  0.00  0.00    -0.198 NA
ATOM     18  N   UNL     1     145.495 144.874 163.578  0.00  0.00    -0.267 N 
ATOM     19  C   UNL     1     145.449 143.569 162.925  0.00  0.00    +0.050 C 
ATOM     20  C   UNL     1     145.948 142.367 163.745  0.00  0.00    +0.067 C 
ATOM     21  O   UNL     1     145.255 142.140 164.964  0.00  0.00    -0.355 OA
ATOM     22  C   UNL     1     144.054 141.366 165.029  0.00  0.00    +0.135 C 
ATOM     23  C   UNL     1     144.435 140.245 166.016  0.00  0.00    -0.019 C 
ATOM     24  C   UNL     1     143.613 140.668 163.726  0.00  0.00    -0.019 C 
ATOM     25  H   UNL     1     143.077 147.190 164.643  0.00  0.00    +0.000 HD
ATOM     26  H   UNL     1     145.087 145.664 163.156  0.00  0.00    +0.000 HD
ENDROOT
TORSDOF 0
ENDMDL
MODEL 5
REMARK VINA RESULT:    -2.174     13.681     17.408
REMARK INTER + INTRA:          -2.174
REMARK INTER:                  -2.174
REMARK INTRA:                   0.000
REMARK UNBOUND:                 0.000
REMARK  Name = /home/vital/Documents/PhD_2021/Malaria_codes/scripts/../data/pdbqt_ligands/ligand_392_temp.pdb
REMARK                            x       y       z     vdW  Elec       q    Type
REMARK                         _______ _______ _______ _____ _____    ______ ____
ROOT
ATOM      1  C   UNL     1     152.072 155.040 167.884  0.00  0.00    +0.030 C 
ATOM      2  N   UNL     1     151.489 156.294 167.418  0.00  0.00    -0.279 NA
ATOM      3  C   UNL     1     152.091 156.805 166.394  0.00  0.00    +0.084 C 
ATOM      4  N   UNL     1     151.763 157.990 165.745  0.00  0.00    -0.268 N 
ATOM      5  C   UNL     1     150.784 158.818 166.302  0.00  0.00    +0.016 C 
ATOM      6  C   UNL     1     150.675 159.410 167.507  0.00  0.00    +0.052 C 
ATOM      7 CL   UNL     1     149.101 160.123 167.815  0.00  0.00    -0.085 Cl
ATOM      8  C   UNL     1     151.682 159.457 168.653  0.00  0.00    +0.086 C 
ATOM      9 CL   UNL     1     153.406 159.277 168.125  0.00  0.00    -0.114 Cl
ATOM     10  C   UNL     1     151.633 160.641 169.725  0.00  0.00    +0.029 C 
ATOM     11  C   UNL     1     150.813 160.069 170.919  0.00  0.00    -0.048 C 
ATOM     12  N   UNL     1     151.040 161.942 169.306  0.00  0.00    -0.290 N 
ATOM     13  C   UNL     1     151.089 162.970 170.395  0.00  0.00    +0.002 C 
ATOM     14  C   UNL     1     152.375 163.531 169.788  0.00  0.00    -0.019 C 
ATOM     15  C   UNL     1     151.884 162.883 168.484  0.00  0.00    +0.049 C 
ATOM     16  C   UNL     1     152.950 162.348 167.510  0.00  0.00    +0.040 C 
ATOM     17  N   UNL     1     152.802 162.077 166.248  0.00  0.00    -0.198 NA
ATOM     18  N   UNL     1     151.550 162.134 165.719  0.00  0.00    -0.267 N 
ATOM     19  C   UNL     1     151.333 161.565 164.392  0.00  0.00    +0.050 C 
ATOM     20  C   UNL     1     152.503 160.780 163.776  0.00  0.00    +0.067 C 
ATOM     21  O   UNL     1     152.945 159.663 164.535  0.00  0.00    -0.355 OA
ATOM     22  C   UNL     1     152.342 158.371 164.416  0.00  0.00    +0.135 C 
ATOM     23  C   UNL     1     153.535 157.488 163.995  0.00  0.00    -0.019 C 
ATOM     24  C   UNL     1     151.272 158.209 163.318  0.00  0.00    -0.019 C 
ATOM     25  H   UNL     1     150.181 161.564 168.905  0.00  0.00    +0.000 HD
ATOM     26  H   UNL     1     150.809 162.548 166.218  0.00  0.00    +0.000 HD
ENDROOT
TORSDOF 0
ENDMDL
MODEL 6
REMARK VINA RESULT:    -2.040      2.001      4.013
REMARK INTER + INTRA:          -2.040
REMARK INTER:                  -2.040
REMARK INTRA:                   0.000
REMARK UNBOUND:                 0.000
REMARK  Name = /home/vital/Documents/PhD_2021/Malaria_codes/scripts/../data/pdbqt_ligands/ligand_392_temp.pdb
REMARK                            x       y       z     vdW  Elec       q    Type
REMARK                         _______ _______ _______ _____ _____    ______ ____
ROOT
ATOM      1  C   UNL     1     140.490 148.114 166.570  0.00  0.00    +0.030 C 
ATOM      2  N   UNL     1     141.879 147.668 166.520  0.00  0.00    -0.279 NA
ATOM      3  C   UNL     1     142.533 148.101 165.494  0.00  0.00    +0.084 C 
ATOM      4  N   UNL     1     143.863 147.833 165.183  0.00  0.00    -0.268 N 
ATOM      5  C   UNL     1     144.560 146.894 165.949  0.00  0.00    +0.016 C 
ATOM      6  C   UNL     1     144.329 145.596 166.225  0.00  0.00    +0.052 C 
ATOM      7 CL   UNL     1     145.363 144.936 167.480  0.00  0.00    -0.085 Cl
ATOM      8  C   UNL     1     143.247 144.672 165.674  0.00  0.00    +0.086 C 
ATOM      9 CL   UNL     1     142.633 145.150 164.038  0.00  0.00    -0.114 Cl
ATOM     10  C   UNL     1     143.468 143.089 165.656  0.00  0.00    +0.029 C 
ATOM     11  C   UNL     1     142.775 142.571 166.950  0.00  0.00    -0.048 C 
ATOM     12  N   UNL     1     144.868 142.577 165.614  0.00  0.00    -0.290 N 
ATOM     13  C   UNL     1     144.927 141.081 165.566  0.00  0.00    +0.002 C 
ATOM     14  C   UNL     1     145.065 141.149 164.045  0.00  0.00    -0.019 C 
ATOM     15  C   UNL     1     145.589 142.573 164.290  0.00  0.00    +0.049 C 
ATOM     16  C   UNL     1     145.289 143.636 163.218  0.00  0.00    +0.040 C 
ATOM     17  N   UNL     1     145.890 144.775 163.045  0.00  0.00    -0.198 NA
ATOM     18  N   UNL     1     146.804 145.169 163.972  0.00  0.00    -0.267 N 
ATOM     19  C   UNL     1     147.270 146.552 163.940  0.00  0.00    +0.050 C 
ATOM     20  C   UNL     1     146.547 147.504 162.971  0.00  0.00    +0.067 C 
ATOM     21  O   UNL     1     145.150 147.641 163.193  0.00  0.00    -0.355 OA
ATOM     22  C   UNL     1     144.612 148.584 164.124  0.00  0.00    +0.135 C 
ATOM     23  C   UNL     1     143.701 149.449 163.230  0.00  0.00    -0.019 C 
ATOM     24  C   UNL     1     145.617 149.549 164.786  0.00  0.00    -0.019 C 
ATOM     25  H   UNL     1     145.232 143.147 166.378  0.00  0.00    +0.000 HD
ATOM     26  H   UNL     1     147.142 144.538 164.647  0.00  0.00    +0.000 HD
ENDROOT
TORSDOF 0
ENDMDL
MODEL 7
REMARK VINA RESULT:    -1.931      2.293      3.273
REMARK INTER + INTRA:          -1.931
REMARK INTER:                  -1.931
REMARK INTRA:                   0.000
REMARK UNBOUND:                 0.000
REMARK  Name = /home/vital/Documents/PhD_2021/Malaria_codes/scripts/../data/pdbqt_ligands/ligand_392_temp.pdb
REMARK                            x       y       z     vdW  Elec       q    Type
REMARK                         _______ _______ _______ _____ _____    ______ ____
ROOT
ATOM      1  C   UNL     1     140.491 148.093 162.369  0.00  0.00    +0.030 C 
ATOM      2  N   UNL     1     141.151 147.546 163.549  0.00  0.00    -0.279 NA
ATOM      3  C   UNL     1     142.417 147.800 163.608  0.00  0.00    +0.084 C 
ATOM      4  N   UNL     1     143.298 147.401 164.608  0.00  0.00    -0.268 N 
ATOM      5  C   UNL     1     142.847 146.516 165.592  0.00  0.00    +0.016 C 
ATOM      6  C   UNL     1     142.311 145.282 165.527  0.00  0.00    +0.052 C 
ATOM      7 CL   UNL     1     141.645 144.710 167.047  0.00  0.00    -0.085 Cl
ATOM      8  C   UNL     1     142.121 144.377 164.314  0.00  0.00    +0.086 C 
ATOM      9 CL   UNL     1     143.294 144.692 162.970  0.00  0.00    -0.114 Cl
ATOM     10  C   UNL     1     142.018 142.792 164.495  0.00  0.00    +0.029 C 
ATOM     11  C   UNL     1     140.491 142.490 164.536  0.00  0.00    -0.048 C 
ATOM     12  N   UNL     1     142.668 142.180 165.689  0.00  0.00    -0.290 N 
ATOM     13  C   UNL     1     142.523 140.689 165.715  0.00  0.00    +0.002 C 
ATOM     14  C   UNL     1     143.907 140.557 165.081  0.00  0.00    -0.019 C 
ATOM     15  C   UNL     1     144.159 141.959 165.659  0.00  0.00    +0.049 C 
ATOM     16  C   UNL     1     145.085 142.900 164.867  0.00  0.00    +0.040 C 
ATOM     17  N   UNL     1     145.692 143.963 165.304  0.00  0.00    -0.198 NA
ATOM     18  N   UNL     1     145.401 144.402 166.558  0.00  0.00    -0.267 N 
ATOM     19  C   UNL     1     145.855 145.733 166.948  0.00  0.00    +0.050 C 
ATOM     20  C   UNL     1     146.470 146.607 165.840  0.00  0.00    +0.067 C 
ATOM     21  O   UNL     1     145.613 146.871 164.737  0.00  0.00    -0.355 OA
ATOM     22  C   UNL     1     144.684 147.958 164.734  0.00  0.00    +0.135 C 
ATOM     23  C   UNL     1     145.129 148.769 163.500  0.00  0.00    -0.019 C 
ATOM     24  C   UNL     1     144.747 148.923 165.935  0.00  0.00    -0.019 C 
ATOM     25  H   UNL     1     142.272 142.812 166.385  0.00  0.00    +0.000 HD
ATOM     26  H   UNL     1     144.896 143.836 167.186  0.00  0.00    +0.000 HD
ENDROOT
TORSDOF 0
ENDMDL
MODEL 8
REMARK VINA RESULT:    -1.749      1.913      2.288
REMARK INTER + INTRA:          -1.749
REMARK INTER:                  -1.749
REMARK INTRA:                   0.000
REMARK UNBOUND:                 0.000
REMARK  Name = /home/vital/Documents/PhD_2021/Malaria_codes/scripts/../data/pdbqt_ligands/ligand_392_temp.pdb
REMARK                            x       y       z     vdW  Elec       q    Type
REMARK                         _______ _______ _______ _____ _____    ______ ____
ROOT
ATOM      1  C   UNL     1     147.844 146.933 164.251  0.00  0.00    +0.030 C 
ATOM      2  N   UNL     1     146.500 146.420 164.005  0.00  0.00    -0.279 NA
ATOM      3  C   UNL     1     145.560 147.138 164.527  0.00  0.00    +0.084 C 
ATOM      4  N   UNL     1     144.193 146.890 164.462  0.00  0.00    -0.268 N 
ATOM      5  C   UNL     1     143.751 145.683 163.912  0.00  0.00    +0.016 C 
ATOM      6  C   UNL     1     144.002 144.397 164.223  0.00  0.00    +0.052 C 
ATOM      7 CL   UNL     1     143.419 143.245 163.034  0.00  0.00    -0.085 Cl
ATOM      8  C   UNL     1     144.796 143.827 165.395  0.00  0.00    +0.086 C 
ATOM      9 CL   UNL     1     144.849 144.911 166.845  0.00  0.00    -0.114 Cl
ATOM     10  C   UNL     1     144.511 142.344 165.920  0.00  0.00    +0.029 C 
ATOM     11  C   UNL     1     145.573 141.454 165.208  0.00  0.00    -0.048 C 
ATOM     12  N   UNL     1     143.156 141.766 165.687  0.00  0.00    -0.290 N 
ATOM     13  C   UNL     1     143.018 140.388 166.258  0.00  0.00    +0.002 C 
ATOM     14  C   UNL     1     142.383 140.987 167.513  0.00  0.00    -0.019 C 
ATOM     15  C   UNL     1     142.035 142.178 166.607  0.00  0.00    +0.049 C 
ATOM     16  C   UNL     1     142.007 143.578 167.249  0.00  0.00    +0.040 C 
ATOM     17  N   UNL     1     141.434 144.647 166.785  0.00  0.00    -0.198 NA
ATOM     18  N   UNL     1     140.901 144.603 165.535  0.00  0.00    -0.267 N 
ATOM     19  C   UNL     1     140.513 145.861 164.904  0.00  0.00    +0.050 C 
ATOM     20  C   UNL     1     140.913 147.155 165.634  0.00  0.00    +0.067 C 
ATOM     21  O   UNL     1     142.308 147.320 165.847  0.00  0.00    -0.355 OA
ATOM     22  C   UNL     1     143.167 147.905 164.865  0.00  0.00    +0.135 C 
ATOM     23  C   UNL     1     143.765 149.108 165.624  0.00  0.00    -0.019 C 
ATOM     24  C   UNL     1     142.485 148.480 163.607  0.00  0.00    -0.019 C 
ATOM     25  H   UNL     1     143.094 141.990 164.694  0.00  0.00    +0.000 HD
ATOM     26  H   UNL     1     140.779 143.745 165.068  0.00  0.00    +0.000 HD
ENDROOT
TORSDOF 0
ENDMDL
