MODEL 1
REMARK VINA RESULT:    -7.066      0.000      0.000
REMARK INTER + INTRA:          -7.066
REMARK INTER:                  -7.066
REMARK INTRA:                   0.000
REMARK UNBOUND:                 0.000
REMARK  Name = /home/vital/Documents/PhD_2021/Malaria_codes/scripts/../data/pdbqt_ligands/ligand_433_temp.pdb
REMARK                            x       y       z     vdW  Elec       q    Type
REMARK                         _______ _______ _______ _____ _____    ______ ____
ROOT
ATOM      1  C1  UNL     1     151.576 162.437 157.068  0.00  0.00    -0.119 C 
ATOM      2  C2  UNL     1     151.892 161.503 157.753  0.00  0.00    -0.104 C 
ATOM      3  C3  UNL     1     152.283 160.359 158.597  0.00  0.00    +0.024 C 
ATOM      4  C4  UNL     1     151.616 159.053 158.146  0.00  0.00    +0.020 C 
ATOM      5  N1  UNL     1     152.161 158.606 156.860  0.00  0.00    -0.342 N 
ATOM      6  C5  UNL     1     151.662 157.442 156.238  0.00  0.00    +0.038 A 
ATOM      7  C6  UNL     1     150.864 156.524 156.921  0.00  0.00    -0.022 A 
ATOM      8  C7  UNL     1     150.429 155.389 156.262  0.00  0.00    +0.030 A 
ATOM      9  N2  UNL     1     150.747 155.087 154.991  0.00  0.00    -0.255 NA
ATOM     10  C8  UNL     1     151.559 155.925 154.334  0.00  0.00    +0.074 A 
ATOM     11  C9  UNL     1     151.912 155.589 153.036  0.00  0.00    -0.017 A 
ATOM     12  C10 UNL     1     152.771 156.388 152.288  0.00  0.00    +0.043 A 
ATOM     13 CL1  UNL     1     153.188 155.933 150.683  0.00  0.00    -0.083 Cl
ATOM     14  C11 UNL     1     153.298 157.548 152.833  0.00  0.00    -0.043 A 
ATOM     15  C12 UNL     1     152.951 157.908 154.135  0.00  0.00    -0.049 A 
ATOM     16  C13 UNL     1     152.066 157.116 154.909  0.00  0.00    +0.021 A 
ATOM     17  H   UNL     1     152.880 159.122 156.428  0.00  0.00    +0.000 HD
ENDROOT
TORSDOF 0
ENDMDL
MODEL 2
REMARK VINA RESULT:    -6.955      2.444      4.324
REMARK INTER + INTRA:          -6.955
REMARK INTER:                  -6.955
REMARK INTRA:                   0.000
REMARK UNBOUND:                 0.000
REMARK  Name = /home/vital/Documents/PhD_2021/Malaria_codes/scripts/../data/pdbqt_ligands/ligand_433_temp.pdb
REMARK                            x       y       z     vdW  Elec       q    Type
REMARK                         _______ _______ _______ _____ _____    ______ ____
ROOT
ATOM      1  C1  UNL     1     152.477 153.550 160.870  0.00  0.00    -0.119 C 
ATOM      2  C2  UNL     1     151.491 154.219 160.719  0.00  0.00    -0.104 C 
ATOM      3  C3  UNL     1     150.278 155.036 160.537  0.00  0.00    +0.024 C 
ATOM      4  C4  UNL     1     150.579 156.375 159.852  0.00  0.00    +0.020 C 
ATOM      5  N1  UNL     1     150.950 156.171 158.448  0.00  0.00    -0.342 N 
ATOM      6  C5  UNL     1     151.307 157.268 157.636  0.00  0.00    +0.038 A 
ATOM      7  C6  UNL     1     151.052 158.585 158.020  0.00  0.00    -0.022 A 
ATOM      8  C7  UNL     1     151.402 159.615 157.166  0.00  0.00    +0.030 A 
ATOM      9  N2  UNL     1     151.959 159.434 155.956  0.00  0.00    -0.255 NA
ATOM     10  C8  UNL     1     152.160 158.177 155.542  0.00  0.00    +0.074 A 
ATOM     11  C9  UNL     1     152.700 157.997 154.277  0.00  0.00    -0.017 A 
ATOM     12  C10 UNL     1     152.919 156.725 153.757  0.00  0.00    +0.043 A 
ATOM     13 CL1  UNL     1     153.588 156.546 152.182  0.00  0.00    -0.083 Cl
ATOM     14  C11 UNL     1     152.595 155.600 154.499  0.00  0.00    -0.043 A 
ATOM     15  C12 UNL     1     152.056 155.759 155.775  0.00  0.00    -0.049 A 
ATOM     16  C13 UNL     1     151.838 157.045 156.331  0.00  0.00    +0.021 A 
ATOM     17  H   UNL     1     150.950 155.262 158.070  0.00  0.00    +0.000 HD
ENDROOT
TORSDOF 0
ENDMDL
MODEL 3
REMARK VINA RESULT:    -6.933      3.281      6.090
REMARK INTER + INTRA:          -6.933
REMARK INTER:                  -6.933
REMARK INTRA:                   0.000
REMARK UNBOUND:                 0.000
REMARK  Name = /home/vital/Documents/PhD_2021/Malaria_codes/scripts/../data/pdbqt_ligands/ligand_433_temp.pdb
REMARK                            x       y       z     vdW  Elec       q    Type
REMARK                         _______ _______ _______ _____ _____    ______ ____
ROOT
ATOM      1  C1  UNL     1     151.495 155.114 152.195  0.00  0.00    -0.119 C 
ATOM      2  C2  UNL     1     152.231 155.988 152.567  0.00  0.00    -0.104 C 
ATOM      3  C3  UNL     1     153.137 157.058 153.020  0.00  0.00    +0.024 C 
ATOM      4  C4  UNL     1     152.506 157.926 154.116  0.00  0.00    +0.020 C 
ATOM      5  N1  UNL     1     152.373 157.172 155.366  0.00  0.00    -0.342 N 
ATOM      6  C5  UNL     1     151.779 157.765 156.500  0.00  0.00    +0.038 A 
ATOM      7  C6  UNL     1     151.562 159.141 156.586  0.00  0.00    -0.022 A 
ATOM      8  C7  UNL     1     151.001 159.664 157.736  0.00  0.00    +0.030 A 
ATOM      9  N2  UNL     1     150.664 158.931 158.811  0.00  0.00    -0.255 NA
ATOM     10  C8  UNL     1     150.916 157.616 158.775  0.00  0.00    +0.074 A 
ATOM     11  C9  UNL     1     150.601 156.871 159.901  0.00  0.00    -0.017 A 
ATOM     12  C10 UNL     1     150.851 155.504 159.960  0.00  0.00    +0.043 A 
ATOM     13 CL1  UNL     1     150.448 154.618 161.378  0.00  0.00    -0.083 Cl
ATOM     14  C11 UNL     1     151.431 154.853 158.883  0.00  0.00    -0.043 A 
ATOM     15  C12 UNL     1     151.751 155.582 157.738  0.00  0.00    -0.049 A 
ATOM     16  C13 UNL     1     151.490 156.972 157.650  0.00  0.00    +0.021 A 
ATOM     17  H   UNL     1     152.700 156.244 155.415  0.00  0.00    +0.000 HD
ENDROOT
TORSDOF 0
ENDMDL
MODEL 4
REMARK VINA RESULT:    -6.843      3.422      6.030
REMARK INTER + INTRA:          -6.843
REMARK INTER:                  -6.843
REMARK INTRA:                   0.000
REMARK UNBOUND:                 0.000
REMARK  Name = /home/vital/Documents/PhD_2021/Malaria_codes/scripts/../data/pdbqt_ligands/ligand_433_temp.pdb
REMARK                            x       y       z     vdW  Elec       q    Type
REMARK                         _______ _______ _______ _____ _____    ______ ____
ROOT
ATOM      1  C1  UNL     1     153.508 157.423 152.788  0.00  0.00    -0.119 C 
ATOM      2  C2  UNL     1     152.708 156.600 153.143  0.00  0.00    -0.104 C 
ATOM      3  C3  UNL     1     151.725 155.590 153.573  0.00  0.00    +0.024 C 
ATOM      4  C4  UNL     1     151.836 155.276 155.071  0.00  0.00    +0.020 C 
ATOM      5  N1  UNL     1     151.387 156.415 155.877  0.00  0.00    -0.342 N 
ATOM      6  C5  UNL     1     151.440 156.359 157.286  0.00  0.00    +0.038 A 
ATOM      7  C6  UNL     1     151.635 155.158 157.971  0.00  0.00    -0.022 A 
ATOM      8  C7  UNL     1     151.650 155.166 159.353  0.00  0.00    +0.030 A 
ATOM      9  N2  UNL     1     151.462 156.267 160.102  0.00  0.00    -0.255 NA
ATOM     10  C8  UNL     1     151.215 157.420 159.468  0.00  0.00    +0.074 A 
ATOM     11  C9  UNL     1     150.985 158.544 160.248  0.00  0.00    -0.017 A 
ATOM     12  C10 UNL     1     150.697 159.778 159.673  0.00  0.00    +0.043 A 
ATOM     13 CL1  UNL     1     150.413 161.146 160.676  0.00  0.00    -0.083 Cl
ATOM     14  C11 UNL     1     150.630 159.909 158.295  0.00  0.00    -0.043 A 
ATOM     15  C12 UNL     1     150.864 158.793 157.492  0.00  0.00    -0.049 A 
ATOM     16  C13 UNL     1     151.174 157.530 158.056  0.00  0.00    +0.021 A 
ATOM     17  H   UNL     1     151.046 157.225 155.433  0.00  0.00    +0.000 HD
ENDROOT
TORSDOF 0
ENDMDL
MODEL 5
REMARK VINA RESULT:    -6.656      1.524      2.099
REMARK INTER + INTRA:          -6.656
REMARK INTER:                  -6.656
REMARK INTRA:                   0.000
REMARK UNBOUND:                 0.000
REMARK  Name = /home/vital/Documents/PhD_2021/Malaria_codes/scripts/../data/pdbqt_ligands/ligand_433_temp.pdb
REMARK                            x       y       z     vdW  Elec       q    Type
REMARK                         _______ _______ _______ _____ _____    ______ ____
ROOT
ATOM      1  C1  UNL     1     151.390 163.170 157.831  0.00  0.00    -0.119 C 
ATOM      2  C2  UNL     1     151.812 162.418 158.669  0.00  0.00    -0.104 C 
ATOM      3  C3  UNL     1     152.332 161.500 159.697  0.00  0.00    +0.024 C 
ATOM      4  C4  UNL     1     151.650 160.127 159.646  0.00  0.00    +0.020 C 
ATOM      5  N1  UNL     1     152.046 159.393 158.440  0.00  0.00    -0.342 N 
ATOM      6  C5  UNL     1     151.507 158.118 158.169  0.00  0.00    +0.038 A 
ATOM      7  C6  UNL     1     150.822 157.385 159.139  0.00  0.00    -0.022 A 
ATOM      8  C7  UNL     1     150.341 156.129 158.819  0.00  0.00    +0.030 A 
ATOM      9  N2  UNL     1     150.510 155.540 157.622  0.00  0.00    -0.255 NA
ATOM     10  C8  UNL     1     151.213 156.201 156.694  0.00  0.00    +0.074 A 
ATOM     11  C9  UNL     1     151.415 155.572 155.474  0.00  0.00    -0.017 A 
ATOM     12  C10 UNL     1     152.155 156.175 154.462  0.00  0.00    +0.043 A 
ATOM     13 CL1  UNL     1     152.386 155.359 152.965  0.00  0.00    -0.083 Cl
ATOM     14  C11 UNL     1     152.714 157.429 154.656  0.00  0.00    -0.043 A 
ATOM     15  C12 UNL     1     152.518 158.081 155.873  0.00  0.00    -0.049 A 
ATOM     16  C13 UNL     1     151.755 157.492 156.912  0.00  0.00    +0.021 A 
ATOM     17  H   UNL     1     152.693 159.793 157.815  0.00  0.00    +0.000 HD
ENDROOT
TORSDOF 0
ENDMDL
MODEL 6
REMARK VINA RESULT:    -6.080      3.489      5.622
REMARK INTER + INTRA:          -6.080
REMARK INTER:                  -6.080
REMARK INTRA:                   0.000
REMARK UNBOUND:                 0.000
REMARK  Name = /home/vital/Documents/PhD_2021/Malaria_codes/scripts/../data/pdbqt_ligands/ligand_433_temp.pdb
REMARK                            x       y       z     vdW  Elec       q    Type
REMARK                         _______ _______ _______ _____ _____    ______ ____
ROOT
ATOM      1  C1  UNL     1     153.226 157.505 164.333  0.00  0.00    -0.119 C 
ATOM      2  C2  UNL     1     152.418 158.370 164.126  0.00  0.00    -0.104 C 
ATOM      3  C3  UNL     1     151.425 159.429 163.875  0.00  0.00    +0.024 C 
ATOM      4  C4  UNL     1     151.598 160.070 162.492  0.00  0.00    +0.020 C 
ATOM      5  N1  UNL     1     151.224 159.128 161.432  0.00  0.00    -0.342 N 
ATOM      6  C5  UNL     1     151.342 159.496 160.075  0.00  0.00    +0.038 A 
ATOM      7  C6  UNL     1     151.532 160.822 159.682  0.00  0.00    -0.022 A 
ATOM      8  C7  UNL     1     151.613 161.120 158.335  0.00  0.00    +0.030 A 
ATOM      9  N2  UNL     1     151.496 160.209 157.353  0.00  0.00    -0.255 NA
ATOM     10  C8  UNL     1     151.257 158.939 157.703  0.00  0.00    +0.074 A 
ATOM     11  C9  UNL     1     151.100 158.011 156.685  0.00  0.00    -0.017 A 
ATOM     12  C10 UNL     1     150.824 156.675 156.958  0.00  0.00    +0.043 A 
ATOM     13 CL1  UNL     1     150.632 155.557 155.664  0.00  0.00    -0.083 Cl
ATOM     14  C11 UNL     1     150.695 156.241 158.267  0.00  0.00    -0.043 A 
ATOM     15  C12 UNL     1     150.855 157.156 159.307  0.00  0.00    -0.049 A 
ATOM     16  C13 UNL     1     151.152 158.519 159.053  0.00  0.00    +0.021 A 
ATOM     17  H   UNL     1     150.888 158.234 161.668  0.00  0.00    +0.000 HD
ENDROOT
TORSDOF 0
ENDMDL
MODEL 7
REMARK VINA RESULT:    -6.066      4.466      6.771
REMARK INTER + INTRA:          -6.066
REMARK INTER:                  -6.066
REMARK INTRA:                   0.000
REMARK UNBOUND:                 0.000
REMARK  Name = /home/vital/Documents/PhD_2021/Malaria_codes/scripts/../data/pdbqt_ligands/ligand_433_temp.pdb
REMARK                            x       y       z     vdW  Elec       q    Type
REMARK                         _______ _______ _______ _____ _____    ______ ____
ROOT
ATOM      1  C1  UNL     1     153.499 160.973 165.613  0.00  0.00    -0.119 C 
ATOM      2  C2  UNL     1     152.623 161.544 165.023  0.00  0.00    -0.104 C 
ATOM      3  C3  UNL     1     151.546 162.247 164.303  0.00  0.00    +0.024 C 
ATOM      4  C4  UNL     1     151.703 162.143 162.780  0.00  0.00    +0.020 C 
ATOM      5  N1  UNL     1     151.451 160.773 162.323  0.00  0.00    -0.342 N 
ATOM      6  C5  UNL     1     151.579 160.440 160.958  0.00  0.00    +0.038 A 
ATOM      7  C6  UNL     1     151.660 161.417 159.963  0.00  0.00    -0.022 A 
ATOM      8  C7  UNL     1     151.756 161.025 158.641  0.00  0.00    +0.030 A 
ATOM      9  N2  UNL     1     151.754 159.744 158.233  0.00  0.00    -0.255 NA
ATOM     10  C8  UNL     1     151.620 158.791 159.164  0.00  0.00    +0.074 A 
ATOM     11  C9  UNL     1     151.581 157.474 158.732  0.00  0.00    -0.017 A 
ATOM     12  C10 UNL     1     151.420 156.422 159.628  0.00  0.00    +0.043 A 
ATOM     13 CL1  UNL     1     151.372 154.802 159.050  0.00  0.00    -0.083 Cl
ATOM     14  C11 UNL     1     151.289 156.673 160.985  0.00  0.00    -0.043 A 
ATOM     15  C12 UNL     1     151.332 157.990 161.441  0.00  0.00    -0.049 A 
ATOM     16  C13 UNL     1     151.511 159.076 160.548  0.00  0.00    +0.021 A 
ATOM     17  H   UNL     1     151.191 160.080 162.972  0.00  0.00    +0.000 HD
ENDROOT
TORSDOF 0
ENDMDL
MODEL 8
REMARK VINA RESULT:    -5.867      7.929      9.308
REMARK INTER + INTRA:          -5.867
REMARK INTER:                  -5.867
REMARK INTRA:                   0.000
REMARK UNBOUND:                 0.000
REMARK  Name = /home/vital/Documents/PhD_2021/Malaria_codes/scripts/../data/pdbqt_ligands/ligand_433_temp.pdb
REMARK                            x       y       z     vdW  Elec       q    Type
REMARK                         _______ _______ _______ _____ _____    ______ ____
ROOT
ATOM      1  C1  UNL     1     152.494 158.060 167.717  0.00  0.00    -0.119 C 
ATOM      2  C2  UNL     1     152.471 156.859 167.755  0.00  0.00    -0.104 C 
ATOM      3  C3  UNL     1     152.446 155.387 167.804  0.00  0.00    +0.024 C 
ATOM      4  C4  UNL     1     151.248 154.801 167.045  0.00  0.00    +0.020 C 
ATOM      5  N1  UNL     1     151.401 154.996 165.600  0.00  0.00    -0.342 N 
ATOM      6  C5  UNL     1     150.393 154.567 164.711  0.00  0.00    +0.038 A 
ATOM      7  C6  UNL     1     149.372 153.705 165.111  0.00  0.00    -0.022 A 
ATOM      8  C7  UNL     1     148.430 153.300 164.185  0.00  0.00    +0.030 A 
ATOM      9  N2  UNL     1     148.439 153.666 162.891  0.00  0.00    -0.255 NA
ATOM     10  C8  UNL     1     149.442 154.448 162.470  0.00  0.00    +0.074 A 
ATOM     11  C9  UNL     1     149.467 154.791 161.126  0.00  0.00    -0.017 A 
ATOM     12  C10 UNL     1     150.486 155.578 160.599  0.00  0.00    +0.043 A 
ATOM     13 CL1  UNL     1     150.481 155.977 158.925  0.00  0.00    -0.083 Cl
ATOM     14  C11 UNL     1     151.509 156.037 161.413  0.00  0.00    -0.043 A 
ATOM     15  C12 UNL     1     151.500 155.708 162.768  0.00  0.00    -0.049 A 
ATOM     16  C13 UNL     1     150.464 154.920 163.331  0.00  0.00    +0.021 A 
ATOM     17  H   UNL     1     152.212 155.428 165.248  0.00  0.00    +0.000 HD
ENDROOT
TORSDOF 0
ENDMDL
MODEL 9
REMARK VINA RESULT:    -5.785      4.545      7.162
REMARK INTER + INTRA:          -5.785
REMARK INTER:                  -5.785
REMARK INTRA:                   0.000
REMARK UNBOUND:                 0.000
REMARK  Name = /home/vital/Documents/PhD_2021/Malaria_codes/scripts/../data/pdbqt_ligands/ligand_433_temp.pdb
REMARK                            x       y       z     vdW  Elec       q    Type
REMARK                         _______ _______ _______ _____ _____    ______ ____
ROOT
ATOM      1  C1  UNL     1     152.495 157.415 154.751  0.00  0.00    -0.119 C 
ATOM      2  C2  UNL     1     151.680 156.726 155.303  0.00  0.00    -0.104 C 
ATOM      3  C3  UNL     1     150.678 155.881 155.976  0.00  0.00    +0.024 C 
ATOM      4  C4  UNL     1     151.055 155.584 157.433  0.00  0.00    +0.020 C 
ATOM      5  N1  UNL     1     150.948 156.793 158.256  0.00  0.00    -0.342 N 
ATOM      6  C5  UNL     1     151.287 156.759 159.625  0.00  0.00    +0.038 A 
ATOM      7  C6  UNL     1     151.452 155.557 160.315  0.00  0.00    -0.022 A 
ATOM      8  C7  UNL     1     151.757 155.591 161.663  0.00  0.00    +0.030 A 
ATOM      9  N2  UNL     1     151.885 156.723 162.378  0.00  0.00    -0.255 NA
ATOM     10  C8  UNL     1     151.674 157.887 161.751  0.00  0.00    +0.074 A 
ATOM     11  C9  UNL     1     151.771 159.048 162.502  0.00  0.00    -0.017 A 
ATOM     12  C10 UNL     1     151.544 160.298 161.937  0.00  0.00    +0.043 A 
ATOM     13 CL1  UNL     1     151.670 161.714 162.906  0.00  0.00    -0.083 Cl
ATOM     14  C11 UNL     1     151.209 160.410 160.597  0.00  0.00    -0.043 A 
ATOM     15  C12 UNL     1     151.112 159.255 159.821  0.00  0.00    -0.049 A 
ATOM     16  C13 UNL     1     151.354 157.972 160.373  0.00  0.00    +0.021 A 
ATOM     17  H   UNL     1     150.638 157.635 157.850  0.00  0.00    +0.000 HD
ENDROOT
TORSDOF 0
ENDMDL
