MODEL 1
REMARK VINA RESULT:    -4.084      0.000      0.000
REMARK INTER + INTRA:          -4.084
REMARK INTER:                  -4.084
REMARK INTRA:                   0.000
REMARK UNBOUND:                 0.000
REMARK  Name = /home/vital/Documents/PhD_2021/Malaria_codes/scripts/../data/pdbqt_ligands/ligand_391_temp.pdb
REMARK                            x       y       z     vdW  Elec       q    Type
REMARK                         _______ _______ _______ _____ _____    ______ ____
ROOT
ATOM      1  O   UNL     1     151.210 162.136 171.578  0.00  0.00    -0.393 OA
ATOM      2  C   UNL     1     152.455 161.841 170.947  0.00  0.00    +0.060 C 
ATOM      3  C   UNL     1     152.310 160.764 169.864  0.00  0.00    +0.041 C 
ATOM      4  N   UNL     1     151.762 161.325 168.612  0.00  0.00    -0.291 N 
ATOM      5  C   UNL     1     150.441 161.795 168.630  0.00  0.00    +0.090 C 
ATOM      6  N   UNL     1     149.940 162.314 167.568  0.00  0.00    -0.221 NA
ATOM      7  C   UNL     1     148.801 161.887 166.960  0.00  0.00    +0.155 C 
ATOM      8  N   UNL     1     148.041 160.851 167.169  0.00  0.00    -0.228 N 
ATOM      9  C   UNL     1     148.382 159.859 168.048  0.00  0.00    +0.072 C 
ATOM     10  C   UNL     1     149.490 159.185 167.879  0.00  0.00    -0.100 C 
ATOM     11  C   UNL     1     150.676 158.672 167.682  0.00  0.00    -0.016 C 
ATOM     12  C   UNL     1     151.703 159.457 167.011  0.00  0.00    -0.035 C 
ATOM     13  C   UNL     1     152.154 160.688 167.379  0.00  0.00    +0.034 C 
ATOM     14  C   UNL     1     152.859 161.612 166.345  0.00  0.00    +0.090 C 
ATOM     15 CL   UNL     1     153.936 160.757 165.211  0.00  0.00    -0.111 Cl
ATOM     16  C   UNL     1     151.849 162.467 165.595  0.00  0.00    -0.061 C 
ATOM     17  C   UNL     1     150.836 161.999 164.835  0.00  0.00    -0.064 C 
ATOM     18  C   UNL     1     149.561 162.704 164.737  0.00  0.00    -0.058 C 
ATOM     19  C   UNL     1     148.615 162.689 165.706  0.00  0.00    -0.017 C 
ATOM     20  H   UNL     1     151.344 162.820 172.254  0.00  0.00    +0.000 HD
ATOM     21  H   UNL     1     147.190 160.780 166.679  0.00  0.00    +0.000 HD
ENDROOT
TORSDOF 0
ENDMDL
MODEL 2
REMARK VINA RESULT:    -3.871     15.312     17.244
REMARK INTER + INTRA:          -3.871
REMARK INTER:                  -3.871
REMARK INTRA:                   0.000
REMARK UNBOUND:                 0.000
REMARK  Name = /home/vital/Documents/PhD_2021/Malaria_codes/scripts/../data/pdbqt_ligands/ligand_391_temp.pdb
REMARK                            x       y       z     vdW  Elec       q    Type
REMARK                         _______ _______ _______ _____ _____    ______ ____
ROOT
ATOM      1  O   UNL     1     142.252 142.897 162.755  0.00  0.00    -0.393 OA
ATOM      2  C   UNL     1     141.254 143.854 163.106  0.00  0.00    +0.060 C 
ATOM      3  C   UNL     1     141.588 144.580 164.416  0.00  0.00    +0.041 C 
ATOM      4  N   UNL     1     142.590 145.645 164.203  0.00  0.00    -0.291 N 
ATOM      5  C   UNL     1     143.886 145.258 163.831  0.00  0.00    +0.090 C 
ATOM      6  N   UNL     1     144.774 146.157 163.611  0.00  0.00    -0.221 NA
ATOM      7  C   UNL     1     145.976 146.231 164.244  0.00  0.00    +0.155 C 
ATOM      8  N   UNL     1     146.469 145.567 165.250  0.00  0.00    -0.228 N 
ATOM      9  C   UNL     1     145.721 144.686 165.983  0.00  0.00    +0.072 C 
ATOM     10  C   UNL     1     144.645 145.096 166.602  0.00  0.00    -0.100 C 
ATOM     11  C   UNL     1     143.527 145.591 167.066  0.00  0.00    -0.016 C 
ATOM     12  C   UNL     1     142.900 146.720 166.395  0.00  0.00    -0.035 C 
ATOM     13  C   UNL     1     142.535 146.785 165.084  0.00  0.00    +0.034 C 
ATOM     14  C   UNL     1     142.347 148.161 164.385  0.00  0.00    +0.090 C 
ATOM     15 CL   UNL     1     141.589 149.408 165.409  0.00  0.00    -0.111 Cl
ATOM     16  C   UNL     1     143.658 148.663 163.800  0.00  0.00    -0.061 C 
ATOM     17  C   UNL     1     144.786 148.911 164.500  0.00  0.00    -0.064 C 
ATOM     18  C   UNL     1     146.110 148.694 163.924  0.00  0.00    -0.058 C 
ATOM     19  C   UNL     1     146.675 147.471 163.773  0.00  0.00    -0.017 C 
ATOM     20  H   UNL     1     142.005 142.461 161.924  0.00  0.00    +0.000 HD
ATOM     21  H   UNL     1     147.414 145.703 165.491  0.00  0.00    +0.000 HD
ENDROOT
TORSDOF 0
ENDMDL
MODEL 3
REMARK VINA RESULT:    -3.710      2.399      4.169
REMARK INTER + INTRA:          -3.710
REMARK INTER:                  -3.710
REMARK INTRA:                   0.000
REMARK UNBOUND:                 0.000
REMARK  Name = /home/vital/Documents/PhD_2021/Malaria_codes/scripts/../data/pdbqt_ligands/ligand_391_temp.pdb
REMARK                            x       y       z     vdW  Elec       q    Type
REMARK                         _______ _______ _______ _____ _____    ______ ____
ROOT
ATOM      1  O   UNL     1     149.613 157.586 166.415  0.00  0.00    -0.393 OA
ATOM      2  C   UNL     1     150.926 157.243 166.854  0.00  0.00    +0.060 C 
ATOM      3  C   UNL     1     151.935 158.366 166.583  0.00  0.00    +0.041 C 
ATOM      4  N   UNL     1     151.835 159.440 167.593  0.00  0.00    -0.291 N 
ATOM      5  C   UNL     1     150.659 160.204 167.620  0.00  0.00    +0.090 C 
ATOM      6  N   UNL     1     150.526 161.126 168.502  0.00  0.00    -0.221 NA
ATOM      7  C   UNL     1     150.268 162.433 168.224  0.00  0.00    +0.155 C 
ATOM      8  N   UNL     1     150.226 163.089 167.101  0.00  0.00    -0.228 N 
ATOM      9  C   UNL     1     150.600 162.527 165.910  0.00  0.00    +0.072 C 
ATOM     10  C   UNL     1     151.814 162.066 165.754  0.00  0.00    -0.100 C 
ATOM     11  C   UNL     1     153.005 161.526 165.762  0.00  0.00    -0.016 C 
ATOM     12  C   UNL     1     153.586 161.068 167.016  0.00  0.00    -0.035 C 
ATOM     13  C   UNL     1     153.037 160.180 167.888  0.00  0.00    +0.034 C 
ATOM     14  C   UNL     1     153.490 160.150 169.376  0.00  0.00    +0.090 C 
ATOM     15 CL   UNL     1     155.237 160.414 169.616  0.00  0.00    -0.111 Cl
ATOM     16  C   UNL     1     152.674 161.119 170.217  0.00  0.00    -0.061 C 
ATOM     17  C   UNL     1     152.597 162.454 170.024  0.00  0.00    -0.064 C 
ATOM     18  C   UNL     1     151.377 163.202 170.313  0.00  0.00    -0.058 C 
ATOM     19  C   UNL     1     150.282 163.195 169.516  0.00  0.00    -0.017 C 
ATOM     20  H   UNL     1     149.006 156.852 166.605  0.00  0.00    +0.000 HD
ATOM     21  H   UNL     1     149.913 164.023 167.107  0.00  0.00    +0.000 HD
ENDROOT
TORSDOF 0
ENDMDL
MODEL 4
REMARK VINA RESULT:    -3.497      2.455      4.254
REMARK INTER + INTRA:          -3.497
REMARK INTER:                  -3.497
REMARK INTRA:                   0.000
REMARK UNBOUND:                 0.000
REMARK  Name = /home/vital/Documents/PhD_2021/Malaria_codes/scripts/../data/pdbqt_ligands/ligand_391_temp.pdb
REMARK                            x       y       z     vdW  Elec       q    Type
REMARK                         _______ _______ _______ _____ _____    ______ ____
ROOT
ATOM      1  O   UNL     1     147.938 161.605 168.131  0.00  0.00    -0.393 OA
ATOM      2  C   UNL     1     148.202 162.395 166.972  0.00  0.00    +0.060 C 
ATOM      3  C   UNL     1     149.700 162.463 166.652  0.00  0.00    +0.041 C 
ATOM      4  N   UNL     1     150.165 161.237 165.970  0.00  0.00    -0.291 N 
ATOM      5  C   UNL     1     150.154 160.040 166.701  0.00  0.00    +0.090 C 
ATOM      6  N   UNL     1     150.524 158.950 166.134  0.00  0.00    -0.221 NA
ATOM      7  C   UNL     1     151.516 158.138 166.589  0.00  0.00    +0.155 C 
ATOM      8  N   UNL     1     152.382 158.280 167.550  0.00  0.00    -0.228 N 
ATOM      9  C   UNL     1     152.522 159.454 168.241  0.00  0.00    +0.072 C 
ATOM     10  C   UNL     1     152.835 160.554 167.609  0.00  0.00    -0.100 C 
ATOM     11  C   UNL     1     153.022 161.606 166.856  0.00  0.00    -0.016 C 
ATOM     12  C   UNL     1     152.548 161.606 165.479  0.00  0.00    -0.035 C 
ATOM     13  C   UNL     1     151.274 161.371 165.059  0.00  0.00    +0.034 C 
ATOM     14  C   UNL     1     150.997 160.913 163.599  0.00  0.00    +0.090 C 
ATOM     15 CL   UNL     1     152.029 161.698 162.374  0.00  0.00    -0.111 Cl
ATOM     16  C   UNL     1     151.065 159.399 163.476  0.00  0.00    -0.061 C 
ATOM     17  C   UNL     1     152.143 158.637 163.757  0.00  0.00    -0.064 C 
ATOM     18  C   UNL     1     152.010 157.290 164.304  0.00  0.00    -0.058 C 
ATOM     19  C   UNL     1     151.700 157.028 165.597  0.00  0.00    -0.017 C 
ATOM     20  H   UNL     1     146.983 161.586 168.299  0.00  0.00    +0.000 HD
ATOM     21  H   UNL     1     152.956 157.517 167.790  0.00  0.00    +0.000 HD
ENDROOT
TORSDOF 0
ENDMDL
MODEL 5
REMARK VINA RESULT:    -3.382     15.698     17.614
REMARK INTER + INTRA:          -3.382
REMARK INTER:                  -3.382
REMARK INTRA:                   0.000
REMARK UNBOUND:                 0.000
REMARK  Name = /home/vital/Documents/PhD_2021/Malaria_codes/scripts/../data/pdbqt_ligands/ligand_391_temp.pdb
REMARK                            x       y       z     vdW  Elec       q    Type
REMARK                         _______ _______ _______ _____ _____    ______ ____
ROOT
ATOM      1  O   UNL     1     146.437 143.303 161.892  0.00  0.00    -0.393 OA
ATOM      2  C   UNL     1     145.606 142.523 162.749  0.00  0.00    +0.060 C 
ATOM      3  C   UNL     1     145.550 143.094 164.172  0.00  0.00    +0.041 C 
ATOM      4  N   UNL     1     144.626 144.244 164.258  0.00  0.00    -0.291 N 
ATOM      5  C   UNL     1     144.974 145.414 163.567  0.00  0.00    +0.090 C 
ATOM      6  N   UNL     1     144.182 146.424 163.596  0.00  0.00    -0.221 NA
ATOM      7  C   UNL     1     144.532 147.671 164.012  0.00  0.00    +0.155 C 
ATOM      8  N   UNL     1     145.614 148.127 164.573  0.00  0.00    -0.228 N 
ATOM      9  C   UNL     1     146.624 147.303 164.992  0.00  0.00    +0.072 C 
ATOM     10  C   UNL     1     146.388 146.375 165.881  0.00  0.00    -0.100 C 
ATOM     11  C   UNL     1     146.004 145.407 166.672  0.00  0.00    -0.016 C 
ATOM     12  C   UNL     1     144.629 144.931 166.621  0.00  0.00    -0.035 C 
ATOM     13  C   UNL     1     143.971 144.469 165.522  0.00  0.00    +0.034 C 
ATOM     14  C   UNL     1     142.416 144.463 165.478  0.00  0.00    +0.090 C 
ATOM     15 CL   UNL     1     141.639 144.029 167.023  0.00  0.00    -0.111 Cl
ATOM     16  C   UNL     1     141.878 145.785 164.952  0.00  0.00    -0.061 C 
ATOM     17  C   UNL     1     142.090 146.996 165.510  0.00  0.00    -0.064 C 
ATOM     18  C   UNL     1     142.202 148.206 164.700  0.00  0.00    -0.058 C 
ATOM     19  C   UNL     1     143.304 148.532 163.982  0.00  0.00    -0.017 C 
ATOM     20  H   UNL     1     146.446 142.911 161.004  0.00  0.00    +0.000 HD
ATOM     21  H   UNL     1     145.710 149.099 164.701  0.00  0.00    +0.000 HD
ENDROOT
TORSDOF 0
ENDMDL
MODEL 6
REMARK VINA RESULT:    -3.374     14.539     16.458
REMARK INTER + INTRA:          -3.374
REMARK INTER:                  -3.374
REMARK INTRA:                   0.000
REMARK UNBOUND:                 0.000
REMARK  Name = /home/vital/Documents/PhD_2021/Malaria_codes/scripts/../data/pdbqt_ligands/ligand_391_temp.pdb
REMARK                            x       y       z     vdW  Elec       q    Type
REMARK                         _______ _______ _______ _____ _____    ______ ____
ROOT
ATOM      1  O   UNL     1     142.066 149.458 168.783  0.00  0.00    -0.393 OA
ATOM      2  C   UNL     1     141.171 149.409 167.672  0.00  0.00    +0.060 C 
ATOM      3  C   UNL     1     141.918 149.389 166.332  0.00  0.00    +0.041 C 
ATOM      4  N   UNL     1     142.438 148.041 166.023  0.00  0.00    -0.291 N 
ATOM      5  C   UNL     1     143.452 147.528 166.844  0.00  0.00    +0.090 C 
ATOM      6  N   UNL     1     143.908 146.349 166.622  0.00  0.00    -0.221 NA
ATOM      7  C   UNL     1     145.217 146.055 166.397  0.00  0.00    +0.155 C 
ATOM      8  N   UNL     1     146.260 146.814 166.221  0.00  0.00    -0.228 N 
ATOM      9  C   UNL     1     146.161 148.174 166.094  0.00  0.00    +0.072 C 
ATOM     10  C   UNL     1     145.447 148.693 165.130  0.00  0.00    -0.100 C 
ATOM     11  C   UNL     1     144.606 149.092 164.213  0.00  0.00    -0.016 C 
ATOM     12  C   UNL     1     143.505 148.226 163.813  0.00  0.00    -0.035 C 
ATOM     13  C   UNL     1     142.559 147.687 164.630  0.00  0.00    +0.034 C 
ATOM     14  C   UNL     1     141.766 146.423 164.192  0.00  0.00    +0.090 C 
ATOM     15 CL   UNL     1     141.330 146.392 162.463  0.00  0.00    -0.111 Cl
ATOM     16  C   UNL     1     142.497 145.150 164.590  0.00  0.00    -0.061 C 
ATOM     17  C   UNL     1     143.736 144.798 164.186  0.00  0.00    -0.064 C 
ATOM     18  C   UNL     1     144.640 144.045 165.050  0.00  0.00    -0.058 C 
ATOM     19  C   UNL     1     145.319 144.591 166.089  0.00  0.00    -0.017 C 
ATOM     20  H   UNL     1     141.557 149.469 169.608  0.00  0.00    +0.000 HD
ATOM     21  H   UNL     1     147.150 146.396 166.178  0.00  0.00    +0.000 HD
ENDROOT
TORSDOF 0
ENDMDL
MODEL 7
REMARK VINA RESULT:    -3.372      2.019      2.523
REMARK INTER + INTRA:          -3.372
REMARK INTER:                  -3.372
REMARK INTRA:                   0.000
REMARK UNBOUND:                 0.000
REMARK  Name = /home/vital/Documents/PhD_2021/Malaria_codes/scripts/../data/pdbqt_ligands/ligand_391_temp.pdb
REMARK                            x       y       z     vdW  Elec       q    Type
REMARK                         _______ _______ _______ _____ _____    ______ ____
ROOT
ATOM      1  O   UNL     1     154.632 162.353 169.709  0.00  0.00    -0.393 OA
ATOM      2  C   UNL     1     154.783 161.014 169.239  0.00  0.00    +0.060 C 
ATOM      3  C   UNL     1     153.439 160.388 168.846  0.00  0.00    +0.041 C 
ATOM      4  N   UNL     1     152.997 160.848 167.513  0.00  0.00    -0.291 N 
ATOM      5  C   UNL     1     152.657 162.201 167.369  0.00  0.00    +0.090 C 
ATOM      6  N   UNL     1     152.295 162.641 166.219  0.00  0.00    -0.221 NA
ATOM      7  C   UNL     1     151.118 163.275 165.968  0.00  0.00    +0.155 C 
ATOM      8  N   UNL     1     150.065 163.475 166.706  0.00  0.00    -0.228 N 
ATOM      9  C   UNL     1     149.918 162.903 167.942  0.00  0.00    +0.072 C 
ATOM     10  C   UNL     1     149.931 161.602 168.069  0.00  0.00    -0.100 C 
ATOM     11  C   UNL     1     150.089 160.305 168.087  0.00  0.00    -0.016 C 
ATOM     12  C   UNL     1     150.892 159.657 167.058  0.00  0.00    -0.035 C 
ATOM     13  C   UNL     1     152.185 159.941 166.740  0.00  0.00    +0.034 C 
ATOM     14  C   UNL     1     152.757 159.554 165.347  0.00  0.00    +0.090 C 
ATOM     15 CL   UNL     1     152.189 157.981 164.730  0.00  0.00    -0.111 Cl
ATOM     16  C   UNL     1     152.514 160.657 164.329  0.00  0.00    -0.061 C 
ATOM     17  C   UNL     1     151.304 161.131 163.959  0.00  0.00    -0.064 C 
ATOM     18  C   UNL     1     151.107 162.531 163.594  0.00  0.00    -0.058 C 
ATOM     19  C   UNL     1     151.039 163.542 164.494  0.00  0.00    -0.017 C 
ATOM     20  H   UNL     1     155.501 162.713 169.947  0.00  0.00    +0.000 HD
ATOM     21  H   UNL     1     149.349 164.058 166.365  0.00  0.00    +0.000 HD
ENDROOT
TORSDOF 0
ENDMDL
MODEL 8
REMARK VINA RESULT:    -3.125      2.912      4.861
REMARK INTER + INTRA:          -3.125
REMARK INTER:                  -3.125
REMARK INTRA:                   0.000
REMARK UNBOUND:                 0.000
REMARK  Name = /home/vital/Documents/PhD_2021/Malaria_codes/scripts/../data/pdbqt_ligands/ligand_391_temp.pdb
REMARK                            x       y       z     vdW  Elec       q    Type
REMARK                         _______ _______ _______ _____ _____    ______ ____
ROOT
ATOM      1  O   UNL     1     152.526 160.725 163.356  0.00  0.00    -0.393 OA
ATOM      2  C   UNL     1     151.431 161.611 163.590  0.00  0.00    +0.060 C 
ATOM      3  C   UNL     1     150.519 161.113 164.718  0.00  0.00    +0.041 C 
ATOM      4  N   UNL     1     151.092 161.407 166.048  0.00  0.00    -0.291 N 
ATOM      5  C   UNL     1     152.272 160.742 166.412  0.00  0.00    +0.090 C 
ATOM      6  N   UNL     1     152.813 160.993 167.548  0.00  0.00    -0.221 NA
ATOM      7  C   UNL     1     153.090 160.060 168.498  0.00  0.00    +0.155 C 
ATOM      8  N   UNL     1     152.793 158.796 168.585  0.00  0.00    -0.228 N 
ATOM      9  C   UNL     1     151.955 158.178 167.696  0.00  0.00    +0.072 C 
ATOM     10  C   UNL     1     150.726 158.599 167.551  0.00  0.00    -0.100 C 
ATOM     11  C   UNL     1     149.568 159.188 167.400  0.00  0.00    -0.016 C 
ATOM     12  C   UNL     1     149.435 160.610 167.683  0.00  0.00    -0.035 C 
ATOM     13  C   UNL     1     150.165 161.618 167.132  0.00  0.00    +0.034 C 
ATOM     14  C   UNL     1     150.280 162.993 167.850  0.00  0.00    +0.090 C 
ATOM     15 CL   UNL     1     148.777 163.537 168.641  0.00  0.00    -0.111 Cl
ATOM     16  C   UNL     1     151.444 163.004 168.829  0.00  0.00    -0.061 C 
ATOM     17  C   UNL     1     151.588 162.177 169.887  0.00  0.00    -0.064 C 
ATOM     18  C   UNL     1     152.902 161.726 170.335  0.00  0.00    -0.058 C 
ATOM     19  C   UNL     1     153.627 160.770 169.705  0.00  0.00    -0.017 C 
ATOM     20  H   UNL     1     153.077 161.075 162.639  0.00  0.00    +0.000 HD
ATOM     21  H   UNL     1     153.185 158.265 169.316  0.00  0.00    +0.000 HD
ENDROOT
TORSDOF 0
ENDMDL
