MODEL 1
REMARK VINA RESULT:    -7.742      0.000      0.000
REMARK INTER + INTRA:          -7.742
REMARK INTER:                  -7.742
REMARK INTRA:                   0.000
REMARK UNBOUND:                 0.000
REMARK  Name = /home/vital/Documents/PhD_2021/Malaria_codes/scripts/../data/pdbqt_ligands/ligand_17_temp.pdb
REMARK                            x       y       z     vdW  Elec       q    Type
REMARK                         _______ _______ _______ _____ _____    ______ ____
ROOT
ATOM      1  C   UNL     1     151.033 156.443 163.809  0.00  0.00    -0.041 C 
ATOM      2  C   UNL     1     151.538 157.699 163.127  0.00  0.00    +0.050 C 
ATOM      3  O   UNL     1     150.500 158.194 162.288  0.00  0.00    -0.330 OA
ATOM      4  C   UNL     1     150.814 159.436 161.626  0.00  0.00    +0.300 C 
ATOM      5  C   UNL     1     150.133 160.462 162.521  0.00  0.00    +0.010 C 
ATOM      6  C   UNL     1     150.589 161.321 163.452  0.00  0.00    +0.036 C 
ATOM      7 CL   UNL     1     152.259 161.473 163.884  0.00  0.00    -0.087 Cl
ATOM      8  C   UNL     1     149.676 162.249 164.204  0.00  0.00    +0.058 C 
ATOM      9 CL   UNL     1     149.338 161.615 165.831  0.00  0.00    -0.119 Cl
ATOM     10  N   UNL     1     152.262 159.752 161.415  0.00  0.00    -0.124 NA
ATOM     11  N   UNL     1     152.693 160.498 160.496  0.00  0.00    -0.158 NA
ATOM     12  C   UNL     1     151.978 161.565 160.019  0.00  0.00    +0.050 C 
ATOM     13  C   UNL     1     151.637 161.783 158.738  0.00  0.00    -0.042 C 
ATOM     14  C   UNL     1     151.887 160.918 157.607  0.00  0.00    -0.064 C 
ATOM     15  C   UNL     1     151.208 159.806 157.275  0.00  0.00    -0.077 C 
ATOM     16  C   UNL     1     150.032 159.181 157.990  0.00  0.00    +0.029 C 
ATOM     17  C   UNL     1     150.447 158.758 159.393  0.00  0.00    +0.177 C 
ATOM     18  N   UNL     1     151.275 157.543 159.606  0.00  0.00    -0.015 NA
ATOM     19  O   UNL     1     151.368 156.823 158.606  0.00  0.00    -0.142 OA
ATOM     20  N   UNL     1     150.103 159.554 160.351  0.00  0.00    -0.205 N 
ATOM     21  H   UNL     1     149.387 160.219 160.227  0.00  0.00    +0.000 HD
ENDROOT
TORSDOF 0
ENDMDL
MODEL 2
REMARK VINA RESULT:    -7.025      2.502      3.107
REMARK INTER + INTRA:          -7.025
REMARK INTER:                  -7.025
REMARK INTRA:                   0.000
REMARK UNBOUND:                 0.000
REMARK  Name = /home/vital/Documents/PhD_2021/Malaria_codes/scripts/../data/pdbqt_ligands/ligand_17_temp.pdb
REMARK                            x       y       z     vdW  Elec       q    Type
REMARK                         _______ _______ _______ _____ _____    ______ ____
ROOT
ATOM      1  C   UNL     1     152.539 159.249 167.549  0.00  0.00    -0.041 C 
ATOM      2  C   UNL     1     152.509 160.079 166.281  0.00  0.00    +0.050 C 
ATOM      3  O   UNL     1     151.522 159.528 165.416  0.00  0.00    -0.330 OA
ATOM      4  C   UNL     1     151.328 160.265 164.192  0.00  0.00    +0.300 C 
ATOM      5  C   UNL     1     150.106 161.112 164.512  0.00  0.00    +0.010 C 
ATOM      6  C   UNL     1     149.940 162.409 164.833  0.00  0.00    +0.036 C 
ATOM      7 CL   UNL     1     151.243 163.542 164.960  0.00  0.00    -0.087 Cl
ATOM      8  C   UNL     1     148.585 163.002 165.103  0.00  0.00    +0.058 C 
ATOM      9 CL   UNL     1     148.308 163.163 166.852  0.00  0.00    -0.119 Cl
ATOM     10  N   UNL     1     152.474 161.098 163.707  0.00  0.00    -0.124 NA
ATOM     11  N   UNL     1     152.658 161.407 162.498  0.00  0.00    -0.158 NA
ATOM     12  C   UNL     1     151.622 161.604 161.624  0.00  0.00    +0.050 C 
ATOM     13  C   UNL     1     151.445 160.977 160.449  0.00  0.00    -0.042 C 
ATOM     14  C   UNL     1     152.260 159.923 159.888  0.00  0.00    -0.064 C 
ATOM     15  C   UNL     1     152.247 158.623 160.231  0.00  0.00    -0.077 C 
ATOM     16  C   UNL     1     151.396 157.941 161.277  0.00  0.00    +0.029 C 
ATOM     17  C   UNL     1     151.711 158.514 162.653  0.00  0.00    +0.177 C 
ATOM     18  N   UNL     1     152.960 158.136 163.364  0.00  0.00    -0.015 NA
ATOM     19  O   UNL     1     153.549 157.174 162.858  0.00  0.00    -0.142 OA
ATOM     20  N   UNL     1     150.876 159.388 163.108  0.00  0.00    -0.205 N 
ATOM     21  H   UNL     1     149.967 159.463 162.740  0.00  0.00    +0.000 HD
ENDROOT
TORSDOF 0
ENDMDL
MODEL 3
REMARK VINA RESULT:    -6.952      3.361      5.473
REMARK INTER + INTRA:          -6.952
REMARK INTER:                  -6.952
REMARK INTRA:                   0.000
REMARK UNBOUND:                 0.000
REMARK  Name = /home/vital/Documents/PhD_2021/Malaria_codes/scripts/../data/pdbqt_ligands/ligand_17_temp.pdb
REMARK                            x       y       z     vdW  Elec       q    Type
REMARK                         _______ _______ _______ _____ _____    ______ ____
ROOT
ATOM      1  C   UNL     1     149.600 153.997 160.228  0.00  0.00    -0.041 C 
ATOM      2  C   UNL     1     149.509 155.511 160.263  0.00  0.00    +0.050 C 
ATOM      3  O   UNL     1     150.786 156.021 160.631  0.00  0.00    -0.330 OA
ATOM      4  C   UNL     1     150.871 157.460 160.634  0.00  0.00    +0.300 C 
ATOM      5  C   UNL     1     151.507 157.751 159.283  0.00  0.00    +0.010 C 
ATOM      6  C   UNL     1     151.020 158.195 158.109  0.00  0.00    +0.036 C 
ATOM      7 CL   UNL     1     149.354 158.591 157.849  0.00  0.00    -0.087 Cl
ATOM      8  C   UNL     1     151.892 158.402 156.903  0.00  0.00    +0.058 C 
ATOM      9 CL   UNL     1     151.723 157.046 155.765  0.00  0.00    -0.119 Cl
ATOM     10  N   UNL     1     149.595 158.220 160.826  0.00  0.00    -0.124 NA
ATOM     11  N   UNL     1     149.535 159.384 161.307  0.00  0.00    -0.158 NA
ATOM     12  C   UNL     1     150.527 160.309 161.120  0.00  0.00    +0.050 C 
ATOM     13  C   UNL     1     151.188 160.971 162.084  0.00  0.00    -0.042 C 
ATOM     14  C   UNL     1     151.047 160.805 163.513  0.00  0.00    -0.064 C 
ATOM     15  C   UNL     1     151.563 159.818 164.266  0.00  0.00    -0.077 C 
ATOM     16  C   UNL     1     152.405 158.644 163.819  0.00  0.00    +0.029 C 
ATOM     17  C   UNL     1     151.607 157.773 162.857  0.00  0.00    +0.177 C 
ATOM     18  N   UNL     1     150.540 156.870 163.358  0.00  0.00    -0.015 NA
ATOM     19  O   UNL     1     150.546 156.726 164.586  0.00  0.00    -0.142 OA
ATOM     20  N   UNL     1     151.865 157.933 161.601  0.00  0.00    -0.205 N 
ATOM     21  H   UNL     1     152.701 158.358 161.304  0.00  0.00    +0.000 HD
ENDROOT
TORSDOF 0
ENDMDL
MODEL 4
REMARK VINA RESULT:    -6.700      4.050      6.132
REMARK INTER + INTRA:          -6.700
REMARK INTER:                  -6.700
REMARK INTRA:                   0.000
REMARK UNBOUND:                 0.000
REMARK  Name = /home/vital/Documents/PhD_2021/Malaria_codes/scripts/../data/pdbqt_ligands/ligand_17_temp.pdb
REMARK                            x       y       z     vdW  Elec       q    Type
REMARK                         _______ _______ _______ _____ _____    ______ ____
ROOT
ATOM      1  C   UNL     1     150.670 163.511 165.609  0.00  0.00    -0.041 C 
ATOM      2  C   UNL     1     150.537 162.072 166.069  0.00  0.00    +0.050 C 
ATOM      3  O   UNL     1     151.624 161.332 165.523  0.00  0.00    -0.330 OA
ATOM      4  C   UNL     1     151.670 159.952 165.939  0.00  0.00    +0.300 C 
ATOM      5  C   UNL     1     152.687 159.986 167.069  0.00  0.00    +0.010 C 
ATOM      6  C   UNL     1     152.578 159.956 168.411  0.00  0.00    +0.036 C 
ATOM      7 CL   UNL     1     151.066 159.849 169.250  0.00  0.00    -0.087 Cl
ATOM      8  C   UNL     1     153.777 160.002 169.316  0.00  0.00    +0.058 C 
ATOM      9 CL   UNL     1     154.002 161.636 169.980  0.00  0.00    -0.119 Cl
ATOM     10  N   UNL     1     150.380 159.323 166.367  0.00  0.00    -0.124 NA
ATOM     11  N   UNL     1     150.145 158.086 166.306  0.00  0.00    -0.158 NA
ATOM     12  C   UNL     1     151.124 157.143 166.474  0.00  0.00    +0.050 C 
ATOM     13  C   UNL     1     151.437 156.161 165.612  0.00  0.00    -0.042 C 
ATOM     14  C   UNL     1     150.863 155.928 164.307  0.00  0.00    -0.064 C 
ATOM     15  C   UNL     1     151.143 156.592 163.171  0.00  0.00    -0.077 C 
ATOM     16  C   UNL     1     152.109 157.737 162.972  0.00  0.00    +0.029 C 
ATOM     17  C   UNL     1     151.671 158.933 163.807  0.00  0.00    +0.177 C 
ATOM     18  N   UNL     1     150.522 159.775 163.383  0.00  0.00    -0.015 NA
ATOM     19  O   UNL     1     150.150 159.560 162.224  0.00  0.00    -0.142 OA
ATOM     20  N   UNL     1     152.302 159.110 164.921  0.00  0.00    -0.205 N 
ATOM     21  H   UNL     1     153.179 158.692 165.079  0.00  0.00    +0.000 HD
ENDROOT
TORSDOF 0
ENDMDL
MODEL 5
REMARK VINA RESULT:    -6.403      3.339      6.141
REMARK INTER + INTRA:          -6.403
REMARK INTER:                  -6.403
REMARK INTRA:                   0.000
REMARK UNBOUND:                 0.000
REMARK  Name = /home/vital/Documents/PhD_2021/Malaria_codes/scripts/../data/pdbqt_ligands/ligand_17_temp.pdb
REMARK                            x       y       z     vdW  Elec       q    Type
REMARK                         _______ _______ _______ _____ _____    ______ ____
ROOT
ATOM      1  C   UNL     1     152.217 156.559 163.405  0.00  0.00    -0.041 C 
ATOM      2  C   UNL     1     151.481 157.880 163.520  0.00  0.00    +0.050 C 
ATOM      3  O   UNL     1     152.443 158.901 163.760  0.00  0.00    -0.330 OA
ATOM      4  C   UNL     1     151.892 160.232 163.819  0.00  0.00    +0.300 C 
ATOM      5  C   UNL     1     152.164 160.759 162.418  0.00  0.00    +0.010 C 
ATOM      6  C   UNL     1     151.389 160.933 161.331  0.00  0.00    +0.036 C 
ATOM      7 CL   UNL     1     149.700 160.556 161.285  0.00  0.00    -0.087 Cl
ATOM      8  C   UNL     1     151.927 161.489 160.042  0.00  0.00    +0.058 C 
ATOM      9 CL   UNL     1     152.224 160.184 158.870  0.00  0.00    -0.119 Cl
ATOM     10  N   UNL     1     150.448 160.359 164.193  0.00  0.00    -0.124 NA
ATOM     11  N   UNL     1     149.947 161.383 164.731  0.00  0.00    -0.158 NA
ATOM     12  C   UNL     1     150.405 162.648 164.472  0.00  0.00    +0.050 C 
ATOM     13  C   UNL     1     150.827 163.542 165.382  0.00  0.00    -0.042 C 
ATOM     14  C   UNL     1     150.952 163.345 166.808  0.00  0.00    -0.064 C 
ATOM     15  C   UNL     1     151.936 162.691 167.450  0.00  0.00    -0.077 C 
ATOM     16  C   UNL     1     153.142 162.000 166.855  0.00  0.00    +0.029 C 
ATOM     17  C   UNL     1     152.690 160.858 165.953  0.00  0.00    +0.177 C 
ATOM     18  N   UNL     1     152.195 159.583 166.533  0.00  0.00    -0.015 NA
ATOM     19  O   UNL     1     152.416 159.469 167.744  0.00  0.00    -0.142 OA
ATOM     20  N   UNL     1     152.693 161.102 164.684  0.00  0.00    -0.205 N 
ATOM     21  H   UNL     1     153.216 161.848 164.311  0.00  0.00    +0.000 HD
ENDROOT
TORSDOF 0
ENDMDL
MODEL 6
REMARK VINA RESULT:    -6.350     13.827     16.342
REMARK INTER + INTRA:          -6.350
REMARK INTER:                  -6.350
REMARK INTRA:                   0.000
REMARK UNBOUND:                 0.000
REMARK  Name = /home/vital/Documents/PhD_2021/Malaria_codes/scripts/../data/pdbqt_ligands/ligand_17_temp.pdb
REMARK                            x       y       z     vdW  Elec       q    Type
REMARK                         _______ _______ _______ _____ _____    ______ ____
ROOT
ATOM      1  C   UNL     1     140.601 145.074 167.496  0.00  0.00    -0.041 C 
ATOM      2  C   UNL     1     141.538 145.409 166.351  0.00  0.00    +0.050 C 
ATOM      3  O   UNL     1     142.809 145.736 166.903  0.00  0.00    -0.330 OA
ATOM      4  C   UNL     1     143.829 146.008 165.921  0.00  0.00    +0.300 C 
ATOM      5  C   UNL     1     144.569 144.680 165.845  0.00  0.00    +0.010 C 
ATOM      6  C   UNL     1     144.564 143.670 164.955  0.00  0.00    +0.036 C 
ATOM      7 CL   UNL     1     143.600 143.662 163.517  0.00  0.00    -0.087 Cl
ATOM      8  C   UNL     1     145.415 142.443 165.127  0.00  0.00    +0.058 C 
ATOM      9 CL   UNL     1     144.448 141.089 165.753  0.00  0.00    -0.119 Cl
ATOM     10  N   UNL     1     143.374 146.471 164.572  0.00  0.00    -0.124 NA
ATOM     11  N   UNL     1     144.077 147.171 163.794  0.00  0.00    -0.158 NA
ATOM     12  C   UNL     1     145.442 147.065 163.741  0.00  0.00    +0.050 C 
ATOM     13  C   UNL     1     146.323 148.066 163.903  0.00  0.00    -0.042 C 
ATOM     14  C   UNL     1     146.031 149.444 164.231  0.00  0.00    -0.064 C 
ATOM     15  C   UNL     1     145.719 149.936 165.443  0.00  0.00    -0.077 C 
ATOM     16  C   UNL     1     145.589 149.188 166.751  0.00  0.00    +0.029 C 
ATOM     17  C   UNL     1     144.467 148.162 166.650  0.00  0.00    +0.177 C 
ATOM     18  N   UNL     1     143.044 148.586 166.704  0.00  0.00    -0.015 NA
ATOM     19  O   UNL     1     142.888 149.756 167.071  0.00  0.00    -0.142 OA
ATOM     20  N   UNL     1     144.832 146.941 166.439  0.00  0.00    -0.205 N 
ATOM     21  H   UNL     1     145.754 146.647 166.621  0.00  0.00    +0.000 HD
ENDROOT
TORSDOF 0
ENDMDL
MODEL 7
REMARK VINA RESULT:    -6.112     14.071     16.554
REMARK INTER + INTRA:          -6.112
REMARK INTER:                  -6.112
REMARK INTRA:                   0.000
REMARK UNBOUND:                 0.000
REMARK  Name = /home/vital/Documents/PhD_2021/Malaria_codes/scripts/../data/pdbqt_ligands/ligand_17_temp.pdb
REMARK                            x       y       z     vdW  Elec       q    Type
REMARK                         _______ _______ _______ _____ _____    ______ ____
ROOT
ATOM      1  C   UNL     1     146.109 142.737 162.879  0.00  0.00    -0.041 C 
ATOM      2  C   UNL     1     145.542 143.490 164.066  0.00  0.00    +0.050 C 
ATOM      3  O   UNL     1     144.829 144.620 163.572  0.00  0.00    -0.330 OA
ATOM      4  C   UNL     1     144.168 145.396 164.591  0.00  0.00    +0.300 C 
ATOM      5  C   UNL     1     142.740 144.875 164.520  0.00  0.00    +0.010 C 
ATOM      6  C   UNL     1     142.027 144.027 165.286  0.00  0.00    +0.036 C 
ATOM      7 CL   UNL     1     142.655 143.252 166.702  0.00  0.00    -0.087 Cl
ATOM      8  C   UNL     1     140.597 143.680 164.983  0.00  0.00    +0.058 C 
ATOM      9 CL   UNL     1     140.490 142.091 164.190  0.00  0.00    -0.119 Cl
ATOM     10  N   UNL     1     144.723 145.316 165.980  0.00  0.00    -0.124 NA
ATOM     11  N   UNL     1     144.594 146.226 166.843  0.00  0.00    -0.158 NA
ATOM     12  C   UNL     1     143.488 147.033 166.900  0.00  0.00    +0.050 C 
ATOM     13  C   UNL     1     143.483 148.376 166.867  0.00  0.00    -0.042 C 
ATOM     14  C   UNL     1     144.622 149.251 166.698  0.00  0.00    -0.064 C 
ATOM     15  C   UNL     1     145.260 149.533 165.549  0.00  0.00    -0.077 C 
ATOM     16  C   UNL     1     144.959 149.013 164.161  0.00  0.00    +0.029 C 
ATOM     17  C   UNL     1     145.135 147.501 164.128  0.00  0.00    +0.177 C 
ATOM     18  N   UNL     1     146.491 146.894 164.106  0.00  0.00    -0.015 NA
ATOM     19  O   UNL     1     147.395 147.705 163.877  0.00  0.00    -0.142 OA
ATOM     20  N   UNL     1     144.050 146.802 164.198  0.00  0.00    -0.205 N 
ATOM     21  H   UNL     1     143.174 147.201 163.995  0.00  0.00    +0.000 HD
ENDROOT
TORSDOF 0
ENDMDL
MODEL 8
REMARK VINA RESULT:    -6.110      4.942      6.361
REMARK INTER + INTRA:          -6.110
REMARK INTER:                  -6.110
REMARK INTRA:                   0.000
REMARK UNBOUND:                 0.000
REMARK  Name = /home/vital/Documents/PhD_2021/Malaria_codes/scripts/../data/pdbqt_ligands/ligand_17_temp.pdb
REMARK                            x       y       z     vdW  Elec       q    Type
REMARK                         _______ _______ _______ _____ _____    ______ ____
ROOT
ATOM      1  C   UNL     1     151.551 160.547 170.873  0.00  0.00    -0.041 C 
ATOM      2  C   UNL     1     151.755 160.684 169.377  0.00  0.00    +0.050 C 
ATOM      3  O   UNL     1     150.888 159.761 168.726  0.00  0.00    -0.330 OA
ATOM      4  C   UNL     1     150.920 159.831 167.286  0.00  0.00    +0.300 C 
ATOM      5  C   UNL     1     149.703 160.690 166.976  0.00  0.00    +0.010 C 
ATOM      6  C   UNL     1     149.550 161.980 166.622  0.00  0.00    +0.036 C 
ATOM      7 CL   UNL     1     150.870 163.081 166.409  0.00  0.00    -0.087 Cl
ATOM      8  C   UNL     1     148.200 162.589 166.366  0.00  0.00    +0.058 C 
ATOM      9 CL   UNL     1     147.664 163.542 167.769  0.00  0.00    -0.119 Cl
ATOM     10  N   UNL     1     152.164 160.376 166.655  0.00  0.00    -0.124 NA
ATOM     11  N   UNL     1     152.546 160.087 165.490  0.00  0.00    -0.158 NA
ATOM     12  C   UNL     1     151.667 159.818 164.473  0.00  0.00    +0.050 C 
ATOM     13  C   UNL     1     151.644 158.708 163.716  0.00  0.00    -0.042 C 
ATOM     14  C   UNL     1     152.486 157.541 163.850  0.00  0.00    -0.064 C 
ATOM     15  C   UNL     1     152.360 156.554 164.754  0.00  0.00    -0.077 C 
ATOM     16  C   UNL     1     151.326 156.415 165.849  0.00  0.00    +0.029 C 
ATOM     17  C   UNL     1     151.453 157.576 166.827  0.00  0.00    +0.177 C 
ATOM     18  N   UNL     1     152.558 157.615 167.819  0.00  0.00    -0.015 NA
ATOM     19  O   UNL     1     153.173 156.548 167.922  0.00  0.00    -0.142 OA
ATOM     20  N   UNL     1     150.599 158.535 166.683  0.00  0.00    -0.205 N 
ATOM     21  H   UNL     1     149.762 158.400 166.184  0.00  0.00    +0.000 HD
ENDROOT
TORSDOF 0
ENDMDL
MODEL 9
REMARK VINA RESULT:    -5.721     14.023     16.675
REMARK INTER + INTRA:          -5.721
REMARK INTER:                  -5.721
REMARK INTRA:                   0.000
REMARK UNBOUND:                 0.000
REMARK  Name = /home/vital/Documents/PhD_2021/Malaria_codes/scripts/../data/pdbqt_ligands/ligand_17_temp.pdb
REMARK                            x       y       z     vdW  Elec       q    Type
REMARK                         _______ _______ _______ _____ _____    ______ ____
ROOT
ATOM      1  C   UNL     1     141.272 149.521 166.011  0.00  0.00    -0.041 C 
ATOM      2  C   UNL     1     142.445 148.581 166.211  0.00  0.00    +0.050 C 
ATOM      3  O   UNL     1     142.423 147.619 165.162  0.00  0.00    -0.330 OA
ATOM      4  C   UNL     1     143.531 146.696 165.181  0.00  0.00    +0.300 C 
ATOM      5  C   UNL     1     144.479 147.306 164.159  0.00  0.00    +0.010 C 
ATOM      6  C   UNL     1     145.613 148.025 164.266  0.00  0.00    +0.036 C 
ATOM      7 CL   UNL     1     146.335 148.460 165.779  0.00  0.00    -0.087 Cl
ATOM      8  C   UNL     1     146.371 148.512 163.064  0.00  0.00    +0.058 C 
ATOM      9 CL   UNL     1     146.030 150.231 162.760  0.00  0.00    -0.119 Cl
ATOM     10  N   UNL     1     144.204 146.462 166.498  0.00  0.00    -0.124 NA
ATOM     11  N   UNL     1     144.828 145.407 166.791  0.00  0.00    -0.158 NA
ATOM     12  C   UNL     1     145.511 144.673 165.858  0.00  0.00    +0.050 C 
ATOM     13  C   UNL     1     145.341 143.367 165.594  0.00  0.00    -0.042 C 
ATOM     14  C   UNL     1     144.366 142.476 166.183  0.00  0.00    -0.064 C 
ATOM     15  C   UNL     1     143.060 142.392 165.875  0.00  0.00    -0.077 C 
ATOM     16  C   UNL     1     142.286 143.197 164.855  0.00  0.00    +0.029 C 
ATOM     17  C   UNL     1     142.314 144.672 165.234  0.00  0.00    +0.177 C 
ATOM     18  N   UNL     1     141.469 145.187 166.342  0.00  0.00    -0.015 NA
ATOM     19  O   UNL     1     140.611 144.385 166.728  0.00  0.00    -0.142 OA
ATOM     20  N   UNL     1     143.160 145.407 164.592  0.00  0.00    -0.205 N 
ATOM     21  H   UNL     1     143.544 145.110 163.735  0.00  0.00    +0.000 HD
ENDROOT
TORSDOF 0
ENDMDL
