MODEL 1
REMARK VINA RESULT:    -8.422      0.000      0.000
REMARK INTER + INTRA:          -8.422
REMARK INTER:                  -8.422
REMARK INTRA:                   0.000
REMARK UNBOUND:                 0.000
REMARK  Name = /home/vital/Documents/PhD_2021/Malaria_codes/scripts/../data/pdbqt_ligands/ligand_32_temp.pdb
REMARK                            x       y       z     vdW  Elec       q    Type
REMARK                         _______ _______ _______ _____ _____    ______ ____
ROOT
ATOM      1  O1  UNL     1     154.502 160.979 167.023  0.00  0.00    -0.275 OA
ATOM      2  C1  UNL     1     153.496 161.048 167.721  0.00  0.00    +0.228 C 
ATOM      3  C2  UNL     1     153.232 162.267 168.594  0.00  0.00    +0.077 C 
ATOM      4  S1  UNL     1     152.358 163.540 167.631  0.00  0.00    -0.094 S 
ATOM      5  C3  UNL     1     150.910 162.638 167.277  0.00  0.00    +0.123 A 
ATOM      6  N1  UNL     1     150.117 162.287 168.249  0.00  0.00    -0.245 NA
ATOM      7  C4  UNL     1     148.983 161.573 167.912  0.00  0.00    +0.047 A 
ATOM      8  C5  UNL     1     148.688 161.198 166.658  0.00  0.00    +0.048 A 
ATOM      9  N2  UNL     1     149.552 161.540 165.630  0.00  0.00    -0.235 N 
ATOM     10  N3  UNL     1     149.463 161.230 164.322  0.00  0.00    -0.166 NA
ATOM     11  C6  UNL     1     150.582 161.718 163.762  0.00  0.00    +0.094 A 
ATOM     12  C7  UNL     1     150.886 161.507 162.344  0.00  0.00    +0.002 A 
ATOM     13  C8  UNL     1     152.206 161.571 161.873  0.00  0.00    -0.053 A 
ATOM     14  C9  UNL     1     152.490 161.368 160.519  0.00  0.00    -0.061 A 
ATOM     15  C10 UNL     1     151.459 161.096 159.622  0.00  0.00    -0.062 A 
ATOM     16  C11 UNL     1     150.144 161.023 160.077  0.00  0.00    -0.061 A 
ATOM     17  C12 UNL     1     149.861 161.224 161.430  0.00  0.00    -0.053 A 
ATOM     18  C13 UNL     1     151.362 162.413 164.724  0.00  0.00    -0.006 A 
ATOM     19  C14 UNL     1     150.683 162.272 165.910  0.00  0.00    +0.099 A 
ATOM     20  N4  UNL     1     152.502 160.087 167.816  0.00  0.00    -0.282 N 
ATOM     21  C15 UNL     1     152.270 159.012 166.928  0.00  0.00    +0.072 A 
ATOM     22  C16 UNL     1     151.414 158.002 167.381  0.00  0.00    -0.002 A 
ATOM     23  C17 UNL     1     151.107 156.920 166.557  0.00  0.00    +0.125 A 
ATOM     24  F1  UNL     1     150.295 155.958 167.014  0.00  0.00    -0.205 F 
ATOM     25  C18 UNL     1     151.622 156.825 165.270  0.00  0.00    -0.024 A 
ATOM     26  C19 UNL     1     152.453 157.838 164.798  0.00  0.00    -0.022 A 
ATOM     27  C20 UNL     1     152.769 158.923 165.619  0.00  0.00    +0.145 A 
ATOM     28  F2  UNL     1     153.485 159.909 165.065  0.00  0.00    -0.204 F 
ATOM     29  H   UNL     1     151.892 160.161 168.586  0.00  0.00    +0.000 HD
ENDROOT
TORSDOF 0
ENDMDL
MODEL 2
REMARK VINA RESULT:    -8.130     13.379     15.893
REMARK INTER + INTRA:          -8.130
REMARK INTER:                  -8.130
REMARK INTRA:                   0.000
REMARK UNBOUND:                 0.000
REMARK  Name = /home/vital/Documents/PhD_2021/Malaria_codes/scripts/../data/pdbqt_ligands/ligand_32_temp.pdb
REMARK                            x       y       z     vdW  Elec       q    Type
REMARK                         _______ _______ _______ _____ _____    ______ ____
ROOT
ATOM      1  O1  UNL     1     142.093 145.496 162.860  0.00  0.00    -0.275 OA
ATOM      2  C1  UNL     1     142.577 144.834 163.772  0.00  0.00    +0.228 C 
ATOM      3  C2  UNL     1     143.192 143.467 163.506  0.00  0.00    +0.077 C 
ATOM      4  S1  UNL     1     144.940 143.655 163.038  0.00  0.00    -0.094 S 
ATOM      5  C3  UNL     1     145.519 144.378 164.513  0.00  0.00    +0.123 A 
ATOM      6  N1  UNL     1     145.495 143.691 165.620  0.00  0.00    -0.245 NA
ATOM      7  C4  UNL     1     145.966 144.314 166.760  0.00  0.00    +0.047 A 
ATOM      8  C5  UNL     1     146.402 145.583 166.786  0.00  0.00    +0.048 A 
ATOM      9  N2  UNL     1     146.391 146.324 165.616  0.00  0.00    -0.235 N 
ATOM     10  N3  UNL     1     146.744 147.612 165.436  0.00  0.00    -0.166 NA
ATOM     11  C6  UNL     1     146.475 147.880 164.148  0.00  0.00    +0.094 A 
ATOM     12  C7  UNL     1     146.656 149.223 163.589  0.00  0.00    +0.002 A 
ATOM     13  C8  UNL     1     145.953 149.628 162.445  0.00  0.00    -0.053 A 
ATOM     14  C9  UNL     1     146.130 150.910 161.917  0.00  0.00    -0.061 A 
ATOM     15  C10 UNL     1     147.009 151.802 162.528  0.00  0.00    -0.062 A 
ATOM     16  C11 UNL     1     147.709 151.416 163.668  0.00  0.00    -0.061 A 
ATOM     17  C12 UNL     1     147.531 150.135 164.197  0.00  0.00    -0.053 A 
ATOM     18  C13 UNL     1     146.007 146.717 163.481  0.00  0.00    -0.006 A 
ATOM     19  C14 UNL     1     145.955 145.743 164.448  0.00  0.00    +0.099 A 
ATOM     20  N4  UNL     1     142.639 145.206 165.106  0.00  0.00    -0.282 N 
ATOM     21  C15 UNL     1     142.464 146.505 165.636  0.00  0.00    +0.072 A 
ATOM     22  C16 UNL     1     142.267 146.594 167.019  0.00  0.00    -0.002 A 
ATOM     23  C17 UNL     1     142.116 147.838 167.627  0.00  0.00    +0.125 A 
ATOM     24  F1  UNL     1     141.918 147.901 168.951  0.00  0.00    -0.205 F 
ATOM     25  C18 UNL     1     142.174 149.014 166.889  0.00  0.00    -0.024 A 
ATOM     26  C19 UNL     1     142.397 148.941 165.517  0.00  0.00    -0.022 A 
ATOM     27  C20 UNL     1     142.545 147.697 164.898  0.00  0.00    +0.145 A 
ATOM     28  F2  UNL     1     142.861 147.704 163.597  0.00  0.00    -0.204 F 
ATOM     29  H   UNL     1     142.825 144.489 165.754  0.00  0.00    +0.000 HD
ENDROOT
TORSDOF 0
ENDMDL
MODEL 3
REMARK VINA RESULT:    -7.640     13.888     16.189
REMARK INTER + INTRA:          -7.640
REMARK INTER:                  -7.640
REMARK INTRA:                   0.000
REMARK UNBOUND:                 0.000
REMARK  Name = /home/vital/Documents/PhD_2021/Malaria_codes/scripts/../data/pdbqt_ligands/ligand_32_temp.pdb
REMARK                            x       y       z     vdW  Elec       q    Type
REMARK                         _______ _______ _______ _____ _____    ______ ____
ROOT
ATOM      1  O1  UNL     1     144.024 145.156 167.749  0.00  0.00    -0.275 OA
ATOM      2  C1  UNL     1     143.089 144.846 167.019  0.00  0.00    +0.228 C 
ATOM      3  C2  UNL     1     141.647 145.035 167.470  0.00  0.00    +0.077 C 
ATOM      4  S1  UNL     1     141.088 146.718 167.067  0.00  0.00    -0.094 S 
ATOM      5  C3  UNL     1     141.245 146.627 165.334  0.00  0.00    +0.123 A 
ATOM      6  N1  UNL     1     140.490 145.806 164.661  0.00  0.00    -0.245 NA
ATOM      7  C4  UNL     1     140.657 145.775 163.290  0.00  0.00    +0.047 A 
ATOM      8  C5  UNL     1     141.570 146.509 162.636  0.00  0.00    +0.048 A 
ATOM      9  N2  UNL     1     142.399 147.353 163.358  0.00  0.00    -0.235 N 
ATOM     10  N3  UNL     1     143.397 148.137 162.904  0.00  0.00    -0.166 NA
ATOM     11  C6  UNL     1     143.943 148.689 164.000  0.00  0.00    +0.094 A 
ATOM     12  C7  UNL     1     145.123 149.554 163.916  0.00  0.00    +0.002 A 
ATOM     13  C8  UNL     1     145.966 149.732 165.023  0.00  0.00    -0.053 A 
ATOM     14  C9  UNL     1     147.091 150.558 164.937  0.00  0.00    -0.061 A 
ATOM     15  C10 UNL     1     147.387 151.213 163.743  0.00  0.00    -0.062 A 
ATOM     16  C11 UNL     1     146.562 151.040 162.634  0.00  0.00    -0.061 A 
ATOM     17  C12 UNL     1     145.439 150.214 162.719  0.00  0.00    -0.053 A 
ATOM     18  C13 UNL     1     143.231 148.301 165.166  0.00  0.00    -0.006 A 
ATOM     19  C14 UNL     1     142.256 147.440 164.724  0.00  0.00    +0.099 A 
ATOM     20  N4  UNL     1     143.193 144.310 165.745  0.00  0.00    -0.282 N 
ATOM     21  C15 UNL     1     144.336 144.307 164.914  0.00  0.00    +0.072 A 
ATOM     22  C16 UNL     1     144.301 143.451 163.806  0.00  0.00    -0.002 A 
ATOM     23  C17 UNL     1     145.374 143.408 162.919  0.00  0.00    +0.125 A 
ATOM     24  F1  UNL     1     145.325 142.574 161.872  0.00  0.00    -0.205 F 
ATOM     25  C18 UNL     1     146.490 144.217 163.096  0.00  0.00    -0.024 A 
ATOM     26  C19 UNL     1     146.525 145.092 164.178  0.00  0.00    -0.022 A 
ATOM     27  C20 UNL     1     145.455 145.139 165.075  0.00  0.00    +0.145 A 
ATOM     28  F2  UNL     1     145.509 146.076 166.029  0.00  0.00    -0.204 F 
ATOM     29  H   UNL     1     142.383 143.886 165.379  0.00  0.00    +0.000 HD
ENDROOT
TORSDOF 0
ENDMDL
MODEL 4
REMARK VINA RESULT:    -7.476      3.222      5.636
REMARK INTER + INTRA:          -7.476
REMARK INTER:                  -7.476
REMARK INTRA:                   0.000
REMARK UNBOUND:                 0.000
REMARK  Name = /home/vital/Documents/PhD_2021/Malaria_codes/scripts/../data/pdbqt_ligands/ligand_32_temp.pdb
REMARK                            x       y       z     vdW  Elec       q    Type
REMARK                         _______ _______ _______ _____ _____    ______ ____
ROOT
ATOM      1  O1  UNL     1     151.347 160.466 170.796  0.00  0.00    -0.275 OA
ATOM      2  C1  UNL     1     151.894 161.211 169.990  0.00  0.00    +0.228 C 
ATOM      3  C2  UNL     1     153.361 161.587 170.142  0.00  0.00    +0.077 C 
ATOM      4  S1  UNL     1     154.409 160.338 169.337  0.00  0.00    -0.094 S 
ATOM      5  C3  UNL     1     153.829 160.537 167.706  0.00  0.00    +0.123 A 
ATOM      6  N1  UNL     1     154.034 161.663 167.083  0.00  0.00    -0.245 NA
ATOM      7  C4  UNL     1     153.552 161.766 165.791  0.00  0.00    +0.047 A 
ATOM      8  C5  UNL     1     152.862 160.794 165.176  0.00  0.00    +0.048 A 
ATOM      9  N2  UNL     1     152.612 159.612 165.855  0.00  0.00    -0.235 N 
ATOM     10  N3  UNL     1     151.912 158.538 165.438  0.00  0.00    -0.166 NA
ATOM     11  C6  UNL     1     151.890 157.698 166.486  0.00  0.00    +0.094 A 
ATOM     12  C7  UNL     1     151.145 156.437 166.442  0.00  0.00    +0.002 A 
ATOM     13  C8  UNL     1     150.718 155.811 167.623  0.00  0.00    -0.053 A 
ATOM     14  C9  UNL     1     150.007 154.608 167.575  0.00  0.00    -0.061 A 
ATOM     15  C10 UNL     1     149.713 154.019 166.347  0.00  0.00    -0.062 A 
ATOM     16  C11 UNL     1     150.125 154.632 165.166  0.00  0.00    -0.061 A 
ATOM     17  C12 UNL     1     150.834 155.835 165.214  0.00  0.00    -0.053 A 
ATOM     18  C13 UNL     1     152.652 158.220 167.564  0.00  0.00    -0.006 A 
ATOM     19  C14 UNL     1     153.092 159.449 167.134  0.00  0.00    +0.099 A 
ATOM     20  N4  UNL     1     151.299 161.786 168.878  0.00  0.00    -0.282 N 
ATOM     21  C15 UNL     1     150.081 161.404 168.271  0.00  0.00    +0.072 A 
ATOM     22  C16 UNL     1     149.528 162.309 167.358  0.00  0.00    -0.002 A 
ATOM     23  C17 UNL     1     148.344 161.998 166.692  0.00  0.00    +0.125 A 
ATOM     24  F1  UNL     1     147.825 162.882 165.830  0.00  0.00    -0.205 F 
ATOM     25  C18 UNL     1     147.696 160.786 166.900  0.00  0.00    -0.024 A 
ATOM     26  C19 UNL     1     148.251 159.866 167.785  0.00  0.00    -0.022 A 
ATOM     27  C20 UNL     1     149.435 160.172 168.460  0.00  0.00    +0.145 A 
ATOM     28  F2  UNL     1     149.968 159.202 169.213  0.00  0.00    -0.204 F 
ATOM     29  H   UNL     1     151.777 162.542 168.466  0.00  0.00    +0.000 HD
ENDROOT
TORSDOF 0
ENDMDL
MODEL 5
REMARK VINA RESULT:    -7.429     14.813     17.569
REMARK INTER + INTRA:          -7.429
REMARK INTER:                  -7.429
REMARK INTRA:                   0.000
REMARK UNBOUND:                 0.000
REMARK  Name = /home/vital/Documents/PhD_2021/Malaria_codes/scripts/../data/pdbqt_ligands/ligand_32_temp.pdb
REMARK                            x       y       z     vdW  Elec       q    Type
REMARK                         _______ _______ _______ _____ _____    ______ ____
ROOT
ATOM      1  O1  UNL     1     140.534 147.244 166.913  0.00  0.00    -0.275 OA
ATOM      2  C1  UNL     1     141.167 148.120 166.332  0.00  0.00    +0.228 C 
ATOM      3  C2  UNL     1     141.901 149.202 167.111  0.00  0.00    +0.077 C 
ATOM      4  S1  UNL     1     143.569 148.625 167.553  0.00  0.00    -0.094 S 
ATOM      5  C3  UNL     1     144.196 148.412 165.941  0.00  0.00    +0.123 A 
ATOM      6  N1  UNL     1     144.347 149.449 165.167  0.00  0.00    -0.245 NA
ATOM      7  C4  UNL     1     144.848 149.223 163.899  0.00  0.00    +0.047 A 
ATOM      8  C5  UNL     1     145.143 148.003 163.425  0.00  0.00    +0.048 A 
ATOM      9  N2  UNL     1     144.947 146.898 164.237  0.00  0.00    -0.235 N 
ATOM     10  N3  UNL     1     145.140 145.597 163.943  0.00  0.00    -0.166 NA
ATOM     11  C6  UNL     1     144.728 144.920 165.028  0.00  0.00    +0.094 A 
ATOM     12  C7  UNL     1     144.711 143.455 165.059  0.00  0.00    +0.002 A 
ATOM     13  C8  UNL     1     143.867 142.763 165.940  0.00  0.00    -0.053 A 
ATOM     14  C9  UNL     1     143.855 141.365 165.964  0.00  0.00    -0.061 A 
ATOM     15  C10 UNL     1     144.683 140.644 165.106  0.00  0.00    -0.062 A 
ATOM     16  C11 UNL     1     145.521 141.319 164.221  0.00  0.00    -0.061 A 
ATOM     17  C12 UNL     1     145.532 142.715 164.196  0.00  0.00    -0.053 A 
ATOM     18  C13 UNL     1     144.332 145.816 166.057  0.00  0.00    -0.006 A 
ATOM     19  C14 UNL     1     144.473 147.071 165.517  0.00  0.00    +0.099 A 
ATOM     20  N4  UNL     1     141.308 148.249 164.960  0.00  0.00    -0.282 N 
ATOM     21  C15 UNL     1     141.041 147.266 163.981  0.00  0.00    +0.072 A 
ATOM     22  C16 UNL     1     140.961 147.709 162.655  0.00  0.00    -0.002 A 
ATOM     23  C17 UNL     1     140.730 146.801 161.624  0.00  0.00    +0.125 A 
ATOM     24  F1  UNL     1     140.646 147.248 160.364  0.00  0.00    -0.205 F 
ATOM     25  C18 UNL     1     140.593 145.442 161.877  0.00  0.00    -0.024 A 
ATOM     26  C19 UNL     1     140.698 144.984 163.188  0.00  0.00    -0.022 A 
ATOM     27  C20 UNL     1     140.924 145.889 164.228  0.00  0.00    +0.145 A 
ATOM     28  F2  UNL     1     141.120 145.370 165.447  0.00  0.00    -0.204 F 
ATOM     29  H   UNL     1     141.628 149.121 164.631  0.00  0.00    +0.000 HD
ENDROOT
TORSDOF 0
ENDMDL
MODEL 6
REMARK VINA RESULT:    -7.304     17.933     20.235
REMARK INTER + INTRA:          -7.304
REMARK INTER:                  -7.304
REMARK INTRA:                   0.000
REMARK UNBOUND:                 0.000
REMARK  Name = /home/vital/Documents/PhD_2021/Malaria_codes/scripts/../data/pdbqt_ligands/ligand_32_temp.pdb
REMARK                            x       y       z     vdW  Elec       q    Type
REMARK                         _______ _______ _______ _____ _____    ______ ____
ROOT
ATOM      1  O1  UNL     1     143.666 142.833 167.486  0.00  0.00    -0.275 OA
ATOM      2  C1  UNL     1     143.209 141.771 167.075  0.00  0.00    +0.228 C 
ATOM      3  C2  UNL     1     142.138 141.025 167.858  0.00  0.00    +0.077 C 
ATOM      4  S1  UNL     1     140.490 141.639 167.391  0.00  0.00    -0.094 S 
ATOM      5  C3  UNL     1     140.525 141.195 165.707  0.00  0.00    +0.123 A 
ATOM      6  N1  UNL     1     140.569 139.937 165.373  0.00  0.00    -0.245 NA
ATOM      7  C4  UNL     1     140.595 139.643 164.023  0.00  0.00    +0.047 A 
ATOM      8  C5  UNL     1     140.616 140.577 163.060  0.00  0.00    +0.048 A 
ATOM      9  N2  UNL     1     140.607 141.915 163.418  0.00  0.00    -0.235 N 
ATOM     10  N3  UNL     1     140.664 142.998 162.617  0.00  0.00    -0.166 NA
ATOM     11  C6  UNL     1     140.711 144.053 163.446  0.00  0.00    +0.094 A 
ATOM     12  C7  UNL     1     140.859 145.421 162.941  0.00  0.00    +0.002 A 
ATOM     13  C8  UNL     1     141.382 146.437 163.754  0.00  0.00    -0.053 A 
ATOM     14  C9  UNL     1     141.521 147.739 163.265  0.00  0.00    -0.061 A 
ATOM     15  C10 UNL     1     141.142 148.040 161.958  0.00  0.00    -0.062 A 
ATOM     16  C11 UNL     1     140.628 147.039 161.137  0.00  0.00    -0.061 A 
ATOM     17  C12 UNL     1     140.490 145.737 161.625  0.00  0.00    -0.053 A 
ATOM     18  C13 UNL     1     140.611 143.633 164.800  0.00  0.00    -0.006 A 
ATOM     19  C14 UNL     1     140.556 142.261 164.749  0.00  0.00    +0.099 A 
ATOM     20  N4  UNL     1     143.572 141.127 165.903  0.00  0.00    -0.282 N 
ATOM     21  C15 UNL     1     144.276 141.682 164.810  0.00  0.00    +0.072 A 
ATOM     22  C16 UNL     1     144.795 140.777 163.877  0.00  0.00    -0.002 A 
ATOM     23  C17 UNL     1     145.477 141.240 162.754  0.00  0.00    +0.125 A 
ATOM     24  F1  UNL     1     145.975 140.357 161.879  0.00  0.00    -0.205 F 
ATOM     25  C18 UNL     1     145.643 142.600 162.521  0.00  0.00    -0.024 A 
ATOM     26  C19 UNL     1     145.109 143.511 163.428  0.00  0.00    -0.022 A 
ATOM     27  C20 UNL     1     144.427 143.055 164.558  0.00  0.00    +0.145 A 
ATOM     28  F2  UNL     1     143.849 143.984 165.329  0.00  0.00    -0.204 F 
ATOM     29  H   UNL     1     143.312 140.181 165.823  0.00  0.00    +0.000 HD
ENDROOT
TORSDOF 0
ENDMDL
MODEL 7
REMARK VINA RESULT:    -7.261     17.417     20.030
REMARK INTER + INTRA:          -7.261
REMARK INTER:                  -7.261
REMARK INTRA:                   0.000
REMARK UNBOUND:                 0.000
REMARK  Name = /home/vital/Documents/PhD_2021/Malaria_codes/scripts/../data/pdbqt_ligands/ligand_32_temp.pdb
REMARK                            x       y       z     vdW  Elec       q    Type
REMARK                         _______ _______ _______ _____ _____    ______ ____
ROOT
ATOM      1  O1  UNL     1     143.768 140.850 167.545  0.00  0.00    -0.275 OA
ATOM      2  C1  UNL     1     143.224 140.400 166.541  0.00  0.00    +0.228 C 
ATOM      3  C2  UNL     1     142.045 139.444 166.652  0.00  0.00    +0.077 C 
ATOM      4  S1  UNL     1     140.494 140.385 166.778  0.00  0.00    -0.094 S 
ATOM      5  C3  UNL     1     140.564 141.192 165.236  0.00  0.00    +0.123 A 
ATOM      6  N1  UNL     1     140.494 140.493 164.139  0.00  0.00    -0.245 NA
ATOM      7  C4  UNL     1     140.554 141.184 162.944  0.00  0.00    +0.047 A 
ATOM      8  C5  UNL     1     140.718 142.514 162.864  0.00  0.00    +0.048 A 
ATOM      9  N2  UNL     1     140.829 143.252 164.031  0.00  0.00    -0.235 N 
ATOM     10  N3  UNL     1     141.036 144.576 164.168  0.00  0.00    -0.166 NA
ATOM     11  C6  UNL     1     141.152 144.784 165.490  0.00  0.00    +0.094 A 
ATOM     12  C7  UNL     1     141.465 146.108 166.034  0.00  0.00    +0.002 A 
ATOM     13  C8  UNL     1     142.050 146.247 167.302  0.00  0.00    -0.053 A 
ATOM     14  C9  UNL     1     142.346 147.513 167.815  0.00  0.00    -0.061 A 
ATOM     15  C10 UNL     1     142.063 148.654 167.067  0.00  0.00    -0.062 A 
ATOM     16  C11 UNL     1     141.488 148.531 165.804  0.00  0.00    -0.061 A 
ATOM     17  C12 UNL     1     141.194 147.266 165.290  0.00  0.00    -0.053 A 
ATOM     18  C13 UNL     1     140.944 143.576 166.208  0.00  0.00    -0.006 A 
ATOM     19  C14 UNL     1     140.751 142.614 165.247  0.00  0.00    +0.099 A 
ATOM     20  N4  UNL     1     143.575 140.680 165.230  0.00  0.00    -0.282 N 
ATOM     21  C15 UNL     1     144.384 141.745 164.774  0.00  0.00    +0.072 A 
ATOM     22  C16 UNL     1     144.851 141.656 163.457  0.00  0.00    -0.002 A 
ATOM     23  C17 UNL     1     145.630 142.678 162.918  0.00  0.00    +0.125 A 
ATOM     24  F1  UNL     1     146.076 142.567 161.660  0.00  0.00    -0.205 F 
ATOM     25  C18 UNL     1     145.947 143.810 163.658  0.00  0.00    -0.024 A 
ATOM     26  C19 UNL     1     145.466 143.924 164.960  0.00  0.00    -0.022 A 
ATOM     27  C20 UNL     1     144.688 142.902 165.509  0.00  0.00    +0.145 A 
ATOM     28  F2  UNL     1     144.172 143.124 166.724  0.00  0.00    -0.204 F 
ATOM     29  H   UNL     1     143.222 140.070 164.542  0.00  0.00    +0.000 HD
ENDROOT
TORSDOF 0
ENDMDL
MODEL 8
REMARK VINA RESULT:    -7.013      2.862      5.432
REMARK INTER + INTRA:          -7.013
REMARK INTER:                  -7.013
REMARK INTRA:                   0.000
REMARK UNBOUND:                 0.000
REMARK  Name = /home/vital/Documents/PhD_2021/Malaria_codes/scripts/../data/pdbqt_ligands/ligand_32_temp.pdb
REMARK                            x       y       z     vdW  Elec       q    Type
REMARK                         _______ _______ _______ _____ _____    ______ ____
ROOT
ATOM      1  O1  UNL     1     153.435 162.411 165.843  0.00  0.00    -0.275 OA
ATOM      2  C1  UNL     1     152.289 162.818 166.001  0.00  0.00    +0.228 C 
ATOM      3  C2  UNL     1     151.471 163.330 164.823  0.00  0.00    +0.077 C 
ATOM      4  S1  UNL     1     150.613 161.944 164.016  0.00  0.00    -0.094 S 
ATOM      5  C3  UNL     1     149.621 161.446 165.360  0.00  0.00    +0.123 A 
ATOM      6  N1  UNL     1     148.701 162.249 165.813  0.00  0.00    -0.245 NA
ATOM      7  C4  UNL     1     147.944 161.804 166.879  0.00  0.00    +0.047 A 
ATOM      8  C5  UNL     1     148.135 160.621 167.483  0.00  0.00    +0.048 A 
ATOM      9  N2  UNL     1     149.139 159.784 167.024  0.00  0.00    -0.235 N 
ATOM     10  N3  UNL     1     149.519 158.586 167.509  0.00  0.00    -0.166 NA
ATOM     11  C6  UNL     1     150.583 158.223 166.773  0.00  0.00    +0.094 A 
ATOM     12  C7  UNL     1     151.331 156.996 167.058  0.00  0.00    +0.002 A 
ATOM     13  C8  UNL     1     152.665 156.853 166.648  0.00  0.00    -0.053 A 
ATOM     14  C9  UNL     1     153.373 155.680 166.923  0.00  0.00    -0.061 A 
ATOM     15  C10 UNL     1     152.757 154.637 167.612  0.00  0.00    -0.062 A 
ATOM     16  C11 UNL     1     151.434 154.767 168.031  0.00  0.00    -0.061 A 
ATOM     17  C12 UNL     1     150.727 155.940 167.757  0.00  0.00    -0.053 A 
ATOM     18  C13 UNL     1     150.838 159.180 165.755  0.00  0.00    -0.006 A 
ATOM     19  C14 UNL     1     149.906 160.171 165.948  0.00  0.00    +0.099 A 
ATOM     20  N4  UNL     1     151.600 162.867 167.202  0.00  0.00    -0.282 N 
ATOM     21  C15 UNL     1     151.927 162.191 168.399  0.00  0.00    +0.072 A 
ATOM     22  C16 UNL     1     151.274 162.623 169.559  0.00  0.00    -0.002 A 
ATOM     23  C17 UNL     1     151.516 161.992 170.778  0.00  0.00    +0.125 A 
ATOM     24  F1  UNL     1     150.889 162.428 171.878  0.00  0.00    -0.205 F 
ATOM     25  C18 UNL     1     152.389 160.915 170.871  0.00  0.00    -0.024 A 
ATOM     26  C19 UNL     1     153.024 160.458 169.719  0.00  0.00    -0.022 A 
ATOM     27  C20 UNL     1     152.790 161.088 168.495  0.00  0.00    +0.145 A 
ATOM     28  F2  UNL     1     153.350 160.532 167.414  0.00  0.00    -0.204 F 
ATOM     29  H   UNL     1     150.795 163.435 167.224  0.00  0.00    +0.000 HD
ENDROOT
TORSDOF 0
ENDMDL
MODEL 9
REMARK VINA RESULT:    -6.498      2.577      5.773
REMARK INTER + INTRA:          -6.498
REMARK INTER:                  -6.498
REMARK INTRA:                   0.000
REMARK UNBOUND:                 0.000
REMARK  Name = /home/vital/Documents/PhD_2021/Malaria_codes/scripts/../data/pdbqt_ligands/ligand_32_temp.pdb
REMARK                            x       y       z     vdW  Elec       q    Type
REMARK                         _______ _______ _______ _____ _____    ______ ____
ROOT
ATOM      1  O1  UNL     1     148.333 162.118 167.750  0.00  0.00    -0.275 OA
ATOM      2  C1  UNL     1     149.330 162.820 167.883  0.00  0.00    +0.228 C 
ATOM      3  C2  UNL     1     149.609 163.542 169.194  0.00  0.00    +0.077 C 
ATOM      4  S1  UNL     1     150.524 162.447 170.322  0.00  0.00    -0.094 S 
ATOM      5  C3  UNL     1     151.957 162.229 169.354  0.00  0.00    +0.123 A 
ATOM      6  N1  UNL     1     152.728 163.249 169.108  0.00  0.00    -0.245 NA
ATOM      7  C4  UNL     1     153.851 163.020 168.335  0.00  0.00    +0.047 A 
ATOM      8  C5  UNL     1     154.155 161.826 167.804  0.00  0.00    +0.048 A 
ATOM      9  N2  UNL     1     153.313 160.751 168.036  0.00  0.00    -0.235 N 
ATOM     10  N3  UNL     1     153.413 159.491 167.567  0.00  0.00    -0.166 NA
ATOM     11  C6  UNL     1     152.313 158.858 168.007  0.00  0.00    +0.094 A 
ATOM     12  C7  UNL     1     152.024 157.471 167.630  0.00  0.00    +0.002 A 
ATOM     13  C8  UNL     1     150.713 156.973 167.664  0.00  0.00    -0.053 A 
ATOM     14  C9  UNL     1     150.444 155.650 167.303  0.00  0.00    -0.061 A 
ATOM     15  C10 UNL     1     151.481 154.810 166.903  0.00  0.00    -0.062 A 
ATOM     16  C11 UNL     1     152.787 155.292 166.859  0.00  0.00    -0.061 A 
ATOM     17  C12 UNL     1     153.056 156.615 167.218  0.00  0.00    -0.053 A 
ATOM     18  C13 UNL     1     151.535 159.715 168.829  0.00  0.00    -0.006 A 
ATOM     19  C14 UNL     1     152.194 160.921 168.819  0.00  0.00    +0.099 A 
ATOM     20  N4  UNL     1     150.301 163.048 166.921  0.00  0.00    -0.282 N 
ATOM     21  C15 UNL     1     150.521 162.300 165.742  0.00  0.00    +0.072 A 
ATOM     22  C16 UNL     1     151.348 162.887 164.776  0.00  0.00    -0.002 A 
ATOM     23  C17 UNL     1     151.642 162.206 163.597  0.00  0.00    +0.125 A 
ATOM     24  F1  UNL     1     152.426 162.789 162.681  0.00  0.00    -0.205 F 
ATOM     25  C18 UNL     1     151.143 160.931 163.356  0.00  0.00    -0.024 A 
ATOM     26  C19 UNL     1     150.341 160.326 164.320  0.00  0.00    -0.022 A 
ATOM     27  C20 UNL     1     150.039 161.004 165.503  0.00  0.00    +0.145 A 
ATOM     28  F2  UNL     1     149.353 160.323 166.430  0.00  0.00    -0.204 F 
ATOM     29  H   UNL     1     150.902 163.812 167.076  0.00  0.00    +0.000 HD
ENDROOT
TORSDOF 0
ENDMDL
