MODEL 1
REMARK VINA RESULT:    -4.706      0.000      0.000
REMARK INTER + INTRA:          -4.706
REMARK INTER:                  -4.706
REMARK INTRA:                   0.000
REMARK UNBOUND:                 0.000
REMARK  Name = /home/vital/Documents/PhD_2021/Malaria_codes/scripts/../data/pdbqt_ligands/ligand_138_temp.pdb
REMARK                            x       y       z     vdW  Elec       q    Type
REMARK                         _______ _______ _______ _____ _____    ______ ____
ROOT
ATOM      1  C1  UNL     1     152.255 160.080 158.357  0.00  0.00    -0.021 C 
ATOM      2  C2  UNL     1     151.748 158.673 158.548  0.00  0.00    +0.059 A 
ATOM      3  N1  UNL     1     151.742 158.212 159.852  0.00  0.00    -0.355 N 
ATOM      4  C3  UNL     1     151.221 156.961 160.196  0.00  0.00    +0.050 A 
ATOM      5  C4  UNL     1     151.213 156.526 161.525  0.00  0.00    -0.038 A 
ATOM      6  C5  UNL     1     150.720 155.260 161.853  0.00  0.00    -0.060 A 
ATOM      7  C6  UNL     1     150.239 154.412 160.854  0.00  0.00    -0.061 A 
ATOM      8  C7  UNL     1     150.254 154.827 159.524  0.00  0.00    -0.049 A 
ATOM      9  C8  UNL     1     150.750 156.095 159.199  0.00  0.00    +0.049 A 
ATOM     10  C9  UNL     1     150.778 156.550 157.789  0.00  0.00    +0.231 A 
ATOM     11  O1  UNL     1     150.354 155.828 156.890  0.00  0.00    -0.283 OA
ATOM     12  C10 UNL     1     151.335 157.919 157.507  0.00  0.00    +0.186 A 
ATOM     13  O2  UNL     1     151.316 158.400 156.209  0.00  0.00    -0.486 OA
ATOM     14  C11 UNL     1     152.300 157.744 155.395  0.00  0.00    +0.099 C 
ATOM     15  C12 UNL     1     152.032 158.130 153.944  0.00  0.00    +0.028 C 
ATOM     16  S1  UNL     1     153.225 157.352 152.805  0.00  0.00    -0.155 S 
ATOM     17  C13 UNL     1     152.184 156.019 152.093  0.00  0.00    -0.000 C 
ATOM     18  C14 UNL     1     151.815 154.965 153.132  0.00  0.00    -0.054 C 
ATOM     19  C15 UNL     1     152.951 155.382 150.936  0.00  0.00    -0.054 C 
ATOM     20  H   UNL     1     152.118 158.784 160.560  0.00  0.00    +0.000 HD
ENDROOT
TORSDOF 0
ENDMDL
MODEL 2
REMARK VINA RESULT:    -4.489      3.478      7.195
REMARK INTER + INTRA:          -4.489
REMARK INTER:                  -4.489
REMARK INTRA:                   0.000
REMARK UNBOUND:                 0.000
REMARK  Name = /home/vital/Documents/PhD_2021/Malaria_codes/scripts/../data/pdbqt_ligands/ligand_138_temp.pdb
REMARK                            x       y       z     vdW  Elec       q    Type
REMARK                         _______ _______ _______ _____ _____    ______ ____
ROOT
ATOM      1  C1  UNL     1     151.548 154.196 159.581  0.00  0.00    -0.021 C 
ATOM      2  C2  UNL     1     151.552 155.314 158.569  0.00  0.00    +0.059 A 
ATOM      3  N1  UNL     1     152.057 154.989 157.324  0.00  0.00    -0.355 N 
ATOM      4  C3  UNL     1     152.047 155.896 156.258  0.00  0.00    +0.050 A 
ATOM      5  C4  UNL     1     152.548 155.536 155.004  0.00  0.00    -0.038 A 
ATOM      6  C5  UNL     1     152.563 156.461 153.956  0.00  0.00    -0.060 A 
ATOM      7  C6  UNL     1     152.086 157.757 154.154  0.00  0.00    -0.061 A 
ATOM      8  C7  UNL     1     151.596 158.133 155.404  0.00  0.00    -0.049 A 
ATOM      9  C8  UNL     1     151.584 157.205 156.451  0.00  0.00    +0.049 A 
ATOM     10  C9  UNL     1     151.071 157.590 157.788  0.00  0.00    +0.231 A 
ATOM     11  O1  UNL     1     150.638 158.722 157.989  0.00  0.00    -0.283 OA
ATOM     12  C10 UNL     1     151.098 156.548 158.873  0.00  0.00    +0.186 A 
ATOM     13  O2  UNL     1     150.567 156.855 160.114  0.00  0.00    -0.486 OA
ATOM     14  C11 UNL     1     151.423 157.750 160.840  0.00  0.00    +0.099 C 
ATOM     15  C12 UNL     1     150.648 158.243 162.059  0.00  0.00    +0.028 C 
ATOM     16  S1  UNL     1     151.637 159.396 163.068  0.00  0.00    -0.155 S 
ATOM     17  C13 UNL     1     150.873 160.995 162.590  0.00  0.00    -0.000 C 
ATOM     18  C14 UNL     1     151.143 161.344 161.130  0.00  0.00    -0.054 C 
ATOM     19  C15 UNL     1     151.426 162.081 163.510  0.00  0.00    -0.054 C 
ATOM     20  H   UNL     1     152.436 154.091 157.183  0.00  0.00    +0.000 HD
ENDROOT
TORSDOF 0
ENDMDL
MODEL 3
REMARK VINA RESULT:    -4.259      4.754      8.366
REMARK INTER + INTRA:          -4.259
REMARK INTER:                  -4.259
REMARK INTRA:                   0.000
REMARK UNBOUND:                 0.000
REMARK  Name = /home/vital/Documents/PhD_2021/Malaria_codes/scripts/../data/pdbqt_ligands/ligand_138_temp.pdb
REMARK                            x       y       z     vdW  Elec       q    Type
REMARK                         _______ _______ _______ _____ _____    ______ ____
ROOT
ATOM      1  C1  UNL     1     151.466 154.739 162.145  0.00  0.00    -0.021 C 
ATOM      2  C2  UNL     1     151.070 155.920 161.295  0.00  0.00    +0.059 A 
ATOM      3  N1  UNL     1     151.110 155.711 159.929  0.00  0.00    -0.355 N 
ATOM      4  C3  UNL     1     150.689 156.684 159.016  0.00  0.00    +0.050 A 
ATOM      5  C4  UNL     1     150.726 156.441 157.639  0.00  0.00    -0.038 A 
ATOM      6  C5  UNL     1     150.333 157.432 156.735  0.00  0.00    -0.060 A 
ATOM      7  C6  UNL     1     149.911 158.679 157.197  0.00  0.00    -0.061 A 
ATOM      8  C7  UNL     1     149.883 158.939 158.567  0.00  0.00    -0.049 A 
ATOM      9  C8  UNL     1     150.278 157.945 159.469  0.00  0.00    +0.049 A 
ATOM     10  C9  UNL     1     150.259 158.206 160.928  0.00  0.00    +0.231 A 
ATOM     11  O1  UNL     1     149.885 159.293 161.363  0.00  0.00    -0.283 OA
ATOM     12  C10 UNL     1     150.707 157.099 161.842  0.00  0.00    +0.186 A 
ATOM     13  O2  UNL     1     150.641 157.288 163.212  0.00  0.00    -0.486 OA
ATOM     14  C11 UNL     1     151.666 158.186 163.664  0.00  0.00    +0.099 C 
ATOM     15  C12 UNL     1     151.357 158.547 165.115  0.00  0.00    +0.028 C 
ATOM     16  S1  UNL     1     152.597 159.692 165.806  0.00  0.00    -0.155 S 
ATOM     17  C13 UNL     1     151.655 161.266 165.764  0.00  0.00    -0.000 C 
ATOM     18  C14 UNL     1     151.376 161.728 164.337  0.00  0.00    -0.054 C 
ATOM     19  C15 UNL     1     152.459 162.322 166.520  0.00  0.00    -0.054 C 
ATOM     20  H   UNL     1     151.447 154.851 159.588  0.00  0.00    +0.000 HD
ENDROOT
TORSDOF 0
ENDMDL
MODEL 4
REMARK VINA RESULT:    -4.120      5.741      8.753
REMARK INTER + INTRA:          -4.120
REMARK INTER:                  -4.120
REMARK INTRA:                   0.000
REMARK UNBOUND:                 0.000
REMARK  Name = /home/vital/Documents/PhD_2021/Malaria_codes/scripts/../data/pdbqt_ligands/ligand_138_temp.pdb
REMARK                            x       y       z     vdW  Elec       q    Type
REMARK                         _______ _______ _______ _____ _____    ______ ____
ROOT
ATOM      1  C1  UNL     1     151.959 161.602 159.813  0.00  0.00    -0.021 C 
ATOM      2  C2  UNL     1     151.527 160.317 160.472  0.00  0.00    +0.059 A 
ATOM      3  N1  UNL     1     151.375 159.234 159.626  0.00  0.00    -0.355 N 
ATOM      4  C3  UNL     1     151.063 157.957 160.103  0.00  0.00    +0.050 A 
ATOM      5  C4  UNL     1     150.930 156.875 159.227  0.00  0.00    -0.038 A 
ATOM      6  C5  UNL     1     150.586 155.610 159.711  0.00  0.00    -0.060 A 
ATOM      7  C6  UNL     1     150.360 155.416 161.075  0.00  0.00    -0.061 A 
ATOM      8  C7  UNL     1     150.474 156.489 161.957  0.00  0.00    -0.049 A 
ATOM      9  C8  UNL     1     150.819 157.754 161.469  0.00  0.00    +0.049 A 
ATOM     10  C9  UNL     1     150.940 158.907 162.393  0.00  0.00    +0.231 A 
ATOM     11  O1  UNL     1     150.754 158.764 163.599  0.00  0.00    -0.283 OA
ATOM     12  C10 UNL     1     151.301 160.243 161.801  0.00  0.00    +0.186 A 
ATOM     13  O2  UNL     1     151.486 161.325 162.644  0.00  0.00    -0.486 OA
ATOM     14  C11 UNL     1     150.234 161.802 163.162  0.00  0.00    +0.099 C 
ATOM     15  C12 UNL     1     150.544 162.801 164.273  0.00  0.00    +0.028 C 
ATOM     16  S1  UNL     1     149.023 163.481 165.015  0.00  0.00    -0.155 S 
ATOM     17  C13 UNL     1     148.974 162.541 166.591  0.00  0.00    -0.000 C 
ATOM     18  C14 UNL     1     148.726 161.054 166.363  0.00  0.00    -0.054 C 
ATOM     19  C15 UNL     1     147.874 163.138 167.467  0.00  0.00    -0.054 C 
ATOM     20  H   UNL     1     151.490 159.367 158.658  0.00  0.00    +0.000 HD
ENDROOT
TORSDOF 0
ENDMDL
MODEL 5
REMARK VINA RESULT:    -4.073      4.285      8.216
REMARK INTER + INTRA:          -4.073
REMARK INTER:                  -4.073
REMARK INTRA:                   0.000
REMARK UNBOUND:                 0.000
REMARK  Name = /home/vital/Documents/PhD_2021/Malaria_codes/scripts/../data/pdbqt_ligands/ligand_138_temp.pdb
REMARK                            x       y       z     vdW  Elec       q    Type
REMARK                         _______ _______ _______ _____ _____    ______ ____
ROOT
ATOM      1  C1  UNL     1     151.427 153.891 160.424  0.00  0.00    -0.021 C 
ATOM      2  C2  UNL     1     151.106 155.312 160.037  0.00  0.00    +0.059 A 
ATOM      3  N1  UNL     1     151.223 155.605 158.691  0.00  0.00    -0.355 N 
ATOM      4  C3  UNL     1     150.876 156.856 158.170  0.00  0.00    +0.050 A 
ATOM      5  C4  UNL     1     150.989 157.120 156.802  0.00  0.00    -0.038 A 
ATOM      6  C5  UNL     1     150.671 158.384 156.296  0.00  0.00    -0.060 A 
ATOM      7  C6  UNL     1     150.247 159.399 157.155  0.00  0.00    -0.061 A 
ATOM      8  C7  UNL     1     150.144 159.153 158.523  0.00  0.00    -0.049 A 
ATOM      9  C8  UNL     1     150.464 157.887 159.026  0.00  0.00    +0.049 A 
ATOM     10  C9  UNL     1     150.365 157.609 160.478  0.00  0.00    +0.231 A 
ATOM     11  O1  UNL     1     149.987 158.482 161.257  0.00  0.00    -0.283 OA
ATOM     12  C10 UNL     1     150.736 156.231 160.954  0.00  0.00    +0.186 A 
ATOM     13  O2  UNL     1     150.592 155.920 162.295  0.00  0.00    -0.486 OA
ATOM     14  C11 UNL     1     151.607 156.555 163.089  0.00  0.00    +0.099 C 
ATOM     15  C12 UNL     1     151.220 156.385 164.555  0.00  0.00    +0.028 C 
ATOM     16  S1  UNL     1     152.440 157.156 165.670  0.00  0.00    -0.155 S 
ATOM     17  C13 UNL     1     151.534 158.678 166.152  0.00  0.00    -0.000 C 
ATOM     18  C14 UNL     1     151.349 159.630 164.975  0.00  0.00    -0.054 C 
ATOM     19  C15 UNL     1     152.313 159.360 167.275  0.00  0.00    -0.054 C 
ATOM     20  H   UNL     1     151.562 154.911 158.080  0.00  0.00    +0.000 HD
ENDROOT
TORSDOF 0
ENDMDL
MODEL 6
REMARK VINA RESULT:    -4.056      4.488      7.840
REMARK INTER + INTRA:          -4.056
REMARK INTER:                  -4.056
REMARK INTRA:                   0.000
REMARK UNBOUND:                 0.000
REMARK  Name = /home/vital/Documents/PhD_2021/Malaria_codes/scripts/../data/pdbqt_ligands/ligand_138_temp.pdb
REMARK                            x       y       z     vdW  Elec       q    Type
REMARK                         _______ _______ _______ _____ _____    ______ ____
ROOT
ATOM      1  C1  UNL     1     151.837 162.038 159.231  0.00  0.00    -0.021 C 
ATOM      2  C2  UNL     1     151.643 160.544 159.267  0.00  0.00    +0.059 A 
ATOM      3  N1  UNL     1     151.120 159.982 158.118  0.00  0.00    -0.355 N 
ATOM      4  C3  UNL     1     150.963 158.600 157.971  0.00  0.00    +0.050 A 
ATOM      5  C4  UNL     1     150.446 158.057 156.791  0.00  0.00    -0.038 A 
ATOM      6  C5  UNL     1     150.264 156.676 156.667  0.00  0.00    -0.060 A 
ATOM      7  C6  UNL     1     150.587 155.826 157.725  0.00  0.00    -0.061 A 
ATOM      8  C7  UNL     1     151.091 156.356 158.912  0.00  0.00    -0.049 A 
ATOM      9  C8  UNL     1     151.271 157.738 159.033  0.00  0.00    +0.049 A 
ATOM     10  C9  UNL     1     151.800 158.319 160.290  0.00  0.00    +0.231 A 
ATOM     11  O1  UNL     1     152.100 157.594 161.235  0.00  0.00    -0.283 OA
ATOM     12  C10 UNL     1     151.958 159.814 160.358  0.00  0.00    +0.186 A 
ATOM     13  O2  UNL     1     152.510 160.381 161.493  0.00  0.00    -0.486 OA
ATOM     14  C11 UNL     1     151.588 160.347 162.594  0.00  0.00    +0.099 C 
ATOM     15  C12 UNL     1     152.358 160.737 163.853  0.00  0.00    +0.028 C 
ATOM     16  S1  UNL     1     151.288 160.729 165.330  0.00  0.00    -0.155 S 
ATOM     17  C13 UNL     1     151.824 159.161 166.120  0.00  0.00    -0.000 C 
ATOM     18  C14 UNL     1     151.438 157.942 165.290  0.00  0.00    -0.054 C 
ATOM     19  C15 UNL     1     151.188 159.087 167.507  0.00  0.00    -0.054 C 
ATOM     20  H   UNL     1     150.847 160.574 157.380  0.00  0.00    +0.000 HD
ENDROOT
TORSDOF 0
ENDMDL
MODEL 7
REMARK VINA RESULT:    -3.943      3.880      5.942
REMARK INTER + INTRA:          -3.943
REMARK INTER:                  -3.943
REMARK INTRA:                   0.000
REMARK UNBOUND:                 0.000
REMARK  Name = /home/vital/Documents/PhD_2021/Malaria_codes/scripts/../data/pdbqt_ligands/ligand_138_temp.pdb
REMARK                            x       y       z     vdW  Elec       q    Type
REMARK                         _______ _______ _______ _____ _____    ______ ____
ROOT
ATOM      1  C1  UNL     1     149.641 154.320 161.121  0.00  0.00    -0.021 C 
ATOM      2  C2  UNL     1     150.397 155.223 162.063  0.00  0.00    +0.059 A 
ATOM      3  N1  UNL     1     150.209 154.971 163.410  0.00  0.00    -0.355 N 
ATOM      4  C3  UNL     1     150.908 155.668 164.401  0.00  0.00    +0.050 A 
ATOM      5  C4  UNL     1     150.711 155.382 165.755  0.00  0.00    -0.038 A 
ATOM      6  C5  UNL     1     151.390 156.107 166.738  0.00  0.00    -0.060 A 
ATOM      7  C6  UNL     1     152.266 157.132 166.377  0.00  0.00    -0.061 A 
ATOM      8  C7  UNL     1     152.460 157.437 165.031  0.00  0.00    -0.049 A 
ATOM      9  C8  UNL     1     151.778 156.709 164.050  0.00  0.00    +0.049 A 
ATOM     10  C9  UNL     1     151.970 157.024 162.614  0.00  0.00    +0.231 A 
ATOM     11  O1  UNL     1     152.740 157.916 162.267  0.00  0.00    -0.283 OA
ATOM     12  C10 UNL     1     151.196 156.212 161.611  0.00  0.00    +0.186 A 
ATOM     13  O2  UNL     1     151.401 156.436 160.261  0.00  0.00    -0.486 OA
ATOM     14  C11 UNL     1     150.803 157.673 159.841  0.00  0.00    +0.099 C 
ATOM     15  C12 UNL     1     151.301 157.972 158.430  0.00  0.00    +0.028 C 
ATOM     16  S1  UNL     1     150.607 159.530 157.783  0.00  0.00    -0.155 S 
ATOM     17  C13 UNL     1     152.058 160.639 157.964  0.00  0.00    -0.000 C 
ATOM     18  C14 UNL     1     152.410 160.887 159.427  0.00  0.00    -0.054 C 
ATOM     19  C15 UNL     1     151.740 161.957 157.260  0.00  0.00    -0.054 C 
ATOM     20  H   UNL     1     149.562 154.279 163.679  0.00  0.00    +0.000 HD
ENDROOT
TORSDOF 0
ENDMDL
MODEL 8
REMARK VINA RESULT:    -3.680      5.520      9.334
REMARK INTER + INTRA:          -3.680
REMARK INTER:                  -3.680
REMARK INTRA:                   0.000
REMARK UNBOUND:                 0.000
REMARK  Name = /home/vital/Documents/PhD_2021/Malaria_codes/scripts/../data/pdbqt_ligands/ligand_138_temp.pdb
REMARK                            x       y       z     vdW  Elec       q    Type
REMARK                         _______ _______ _______ _____ _____    ______ ____
ROOT
ATOM      1  C1  UNL     1     150.327 153.578 164.511  0.00  0.00    -0.021 C 
ATOM      2  C2  UNL     1     150.563 154.635 163.462  0.00  0.00    +0.059 A 
ATOM      3  N1  UNL     1     150.802 154.164 162.184  0.00  0.00    -0.355 N 
ATOM      4  C3  UNL     1     150.954 155.025 161.092  0.00  0.00    +0.050 A 
ATOM      5  C4  UNL     1     151.178 154.522 159.807  0.00  0.00    -0.038 A 
ATOM      6  C5  UNL     1     151.361 155.391 158.728  0.00  0.00    -0.060 A 
ATOM      7  C6  UNL     1     151.331 156.773 158.924  0.00  0.00    -0.061 A 
ATOM      8  C7  UNL     1     151.122 157.287 160.203  0.00  0.00    -0.049 A 
ATOM      9  C8  UNL     1     150.940 156.414 161.281  0.00  0.00    +0.049 A 
ATOM     10  C9  UNL     1     150.722 156.944 162.647  0.00  0.00    +0.231 A 
ATOM     11  O1  UNL     1     150.683 158.156 162.849  0.00  0.00    -0.283 OA
ATOM     12  C10 UNL     1     150.547 155.951 163.763  0.00  0.00    +0.186 A 
ATOM     13  O2  UNL     1     150.276 156.413 165.040  0.00  0.00    -0.486 OA
ATOM     14  C11 UNL     1     151.441 157.002 165.639  0.00  0.00    +0.099 C 
ATOM     15  C12 UNL     1     150.996 157.717 166.911  0.00  0.00    +0.028 C 
ATOM     16  S1  UNL     1     152.397 158.511 167.767  0.00  0.00    -0.155 S 
ATOM     17  C13 UNL     1     152.113 160.266 167.309  0.00  0.00    -0.000 C 
ATOM     18  C14 UNL     1     152.315 160.507 165.817  0.00  0.00    -0.054 C 
ATOM     19  C15 UNL     1     153.072 161.131 168.124  0.00  0.00    -0.054 C 
ATOM     20  H   UNL     1     150.869 153.193 162.039  0.00  0.00    +0.000 HD
ENDROOT
TORSDOF 0
ENDMDL
MODEL 9
REMARK VINA RESULT:    -3.598      6.464      8.623
REMARK INTER + INTRA:          -3.598
REMARK INTER:                  -3.598
REMARK INTRA:                   0.000
REMARK UNBOUND:                 0.000
REMARK  Name = /home/vital/Documents/PhD_2021/Malaria_codes/scripts/../data/pdbqt_ligands/ligand_138_temp.pdb
REMARK                            x       y       z     vdW  Elec       q    Type
REMARK                         _______ _______ _______ _____ _____    ______ ____
ROOT
ATOM      1  C1  UNL     1     152.173 158.593 167.385  0.00  0.00    -0.021 C 
ATOM      2  C2  UNL     1     151.329 159.574 166.611  0.00  0.00    +0.059 A 
ATOM      3  N1  UNL     1     150.515 160.392 167.373  0.00  0.00    -0.355 N 
ATOM      4  C3  UNL     1     149.741 161.408 166.803  0.00  0.00    +0.050 A 
ATOM      5  C4  UNL     1     148.938 162.231 167.599  0.00  0.00    -0.038 A 
ATOM      6  C5  UNL     1     148.143 163.222 167.015  0.00  0.00    -0.060 A 
ATOM      7  C6  UNL     1     148.134 163.392 165.630  0.00  0.00    -0.061 A 
ATOM      8  C7  UNL     1     148.919 162.568 164.825  0.00  0.00    -0.049 A 
ATOM      9  C8  UNL     1     149.713 161.577 165.412  0.00  0.00    +0.049 A 
ATOM     10  C9  UNL     1     150.549 160.690 164.569  0.00  0.00    +0.231 A 
ATOM     11  O1  UNL     1     150.567 160.822 163.348  0.00  0.00    -0.283 OA
ATOM     12  C10 UNL     1     151.370 159.636 165.263  0.00  0.00    +0.186 A 
ATOM     13  O2  UNL     1     152.210 158.834 164.512  0.00  0.00    -0.486 OA
ATOM     14  C11 UNL     1     151.467 157.869 163.750  0.00  0.00    +0.099 C 
ATOM     15  C12 UNL     1     152.431 157.219 162.761  0.00  0.00    +0.028 C 
ATOM     16  S1  UNL     1     151.599 155.967 161.730  0.00  0.00    -0.155 S 
ATOM     17  C13 UNL     1     151.433 156.893 160.153  0.00  0.00    -0.000 C 
ATOM     18  C14 UNL     1     150.471 158.069 160.280  0.00  0.00    -0.054 C 
ATOM     19  C15 UNL     1     150.949 155.920 159.079  0.00  0.00    -0.054 C 
ATOM     20  H   UNL     1     150.480 160.254 168.347  0.00  0.00    +0.000 HD
ENDROOT
TORSDOF 0
ENDMDL
