MODEL 1
REMARK VINA RESULT:    -4.564      0.000      0.000
REMARK INTER + INTRA:          -4.564
REMARK INTER:                  -4.564
REMARK INTRA:                   0.000
REMARK UNBOUND:                 0.000
REMARK  Name = /home/vital/Documents/PhD_2021/Malaria_codes/scripts/../data/pdbqt_ligands/ligand_45_temp.pdb
REMARK                            x       y       z     vdW  Elec       q    Type
REMARK                         _______ _______ _______ _____ _____    ______ ____
ROOT
ATOM      1  C1  UNL     1     154.583 155.593 151.810  0.00  0.00    +0.082 C 
ATOM      2  O1  UNL     1     153.742 155.662 152.965  0.00  0.00    -0.464 OA
ATOM      3  C2  UNL     1     153.304 156.916 153.249  0.00  0.00    +0.343 C 
ATOM      4  O2  UNL     1     153.575 157.920 152.609  0.00  0.00    -0.245 OA
ATOM      5  C3  UNL     1     152.436 156.920 154.459  0.00  0.00    +0.104 A 
ATOM      6  C4  UNL     1     151.921 158.168 154.854  0.00  0.00    +0.001 A 
ATOM      7  C5  UNL     1     151.112 158.220 155.969  0.00  0.00    +0.167 A 
ATOM      8  C6  UNL     1     150.803 157.094 156.693  0.00  0.00    +0.170 A 
ATOM      9  C7  UNL     1     151.286 155.853 156.342  0.00  0.00    +0.026 A 
ATOM     10  C8  UNL     1     152.109 155.768 155.215  0.00  0.00    +0.135 A 
ATOM     11  O3  UNL     1     152.555 154.506 154.922  0.00  0.00    -0.506 OA
ATOM     12  O4  UNL     1     149.994 157.365 157.752  0.00  0.00    -0.452 OA
ATOM     13  C9  UNL     1     149.827 158.791 157.612  0.00  0.00    +0.233 C 
ATOM     14  O5  UNL     1     150.536 159.340 156.481  0.00  0.00    -0.453 OA
ATOM     15  H   UNL     1     153.112 154.367 154.181  0.00  0.00    +0.000 HD
ENDROOT
TORSDOF 0
ENDMDL
MODEL 2
REMARK VINA RESULT:    -3.822      4.312      7.729
REMARK INTER + INTRA:          -3.822
REMARK INTER:                  -3.822
REMARK INTRA:                   0.000
REMARK UNBOUND:                 0.000
REMARK  Name = /home/vital/Documents/PhD_2021/Malaria_codes/scripts/../data/pdbqt_ligands/ligand_45_temp.pdb
REMARK                            x       y       z     vdW  Elec       q    Type
REMARK                         _______ _______ _______ _____ _____    ______ ____
ROOT
ATOM      1  C1  UNL     1     152.370 161.099 164.411  0.00  0.00    +0.082 C 
ATOM      2  O1  UNL     1     152.359 160.967 162.986  0.00  0.00    -0.464 OA
ATOM      3  C2  UNL     1     151.308 160.248 162.512  0.00  0.00    +0.343 C 
ATOM      4  O2  UNL     1     150.433 159.743 163.196  0.00  0.00    -0.245 OA
ATOM      5  C3  UNL     1     151.355 160.147 161.026  0.00  0.00    +0.104 A 
ATOM      6  C4  UNL     1     150.314 159.422 160.417  0.00  0.00    +0.001 A 
ATOM      7  C5  UNL     1     150.316 159.303 159.044  0.00  0.00    +0.167 A 
ATOM      8  C6  UNL     1     151.299 159.868 158.268  0.00  0.00    +0.170 A 
ATOM      9  C7  UNL     1     152.335 160.585 158.823  0.00  0.00    +0.026 A 
ATOM     10  C8  UNL     1     152.361 160.725 160.214  0.00  0.00    +0.135 A 
ATOM     11  O3  UNL     1     153.418 161.448 160.701  0.00  0.00    -0.506 OA
ATOM     12  O4  UNL     1     151.114 159.632 156.942  0.00  0.00    -0.452 OA
ATOM     13  C9  UNL     1     149.900 158.853 156.970  0.00  0.00    +0.233 C 
ATOM     14  O5  UNL     1     149.389 158.640 158.303  0.00  0.00    -0.453 OA
ATOM     15  H   UNL     1     153.505 161.586 161.624  0.00  0.00    +0.000 HD
ENDROOT
TORSDOF 0
ENDMDL
MODEL 3
REMARK VINA RESULT:    -3.563      1.802      3.157
REMARK INTER + INTRA:          -3.563
REMARK INTER:                  -3.563
REMARK INTRA:                   0.000
REMARK UNBOUND:                 0.000
REMARK  Name = /home/vital/Documents/PhD_2021/Malaria_codes/scripts/../data/pdbqt_ligands/ligand_45_temp.pdb
REMARK                            x       y       z     vdW  Elec       q    Type
REMARK                         _______ _______ _______ _____ _____    ______ ____
ROOT
ATOM      1  C1  UNL     1     152.792 157.638 152.603  0.00  0.00    +0.082 C 
ATOM      2  O1  UNL     1     152.166 157.779 153.882  0.00  0.00    -0.464 OA
ATOM      3  C2  UNL     1     152.419 156.748 154.731  0.00  0.00    +0.343 C 
ATOM      4  O2  UNL     1     153.107 155.774 154.472  0.00  0.00    -0.245 OA
ATOM      5  C3  UNL     1     151.741 156.955 156.041  0.00  0.00    +0.104 A 
ATOM      6  C4  UNL     1     151.929 155.948 157.006  0.00  0.00    +0.001 A 
ATOM      7  C5  UNL     1     151.320 156.097 158.234  0.00  0.00    +0.167 A 
ATOM      8  C6  UNL     1     150.544 157.191 158.531  0.00  0.00    +0.170 A 
ATOM      9  C7  UNL     1     150.334 158.198 157.616  0.00  0.00    +0.026 A 
ATOM     10  C8  UNL     1     150.938 158.077 156.361  0.00  0.00    +0.135 A 
ATOM     11  O3  UNL     1     150.689 159.112 155.499  0.00  0.00    -0.506 OA
ATOM     12  O4  UNL     1     150.039 157.141 159.792  0.00  0.00    -0.452 OA
ATOM     13  C9  UNL     1     150.586 155.890 160.257  0.00  0.00    +0.233 C 
ATOM     14  O5  UNL     1     151.400 155.222 159.271  0.00  0.00    -0.453 OA
ATOM     15  H   UNL     1     151.059 159.104 154.638  0.00  0.00    +0.000 HD
ENDROOT
TORSDOF 0
ENDMDL
MODEL 4
REMARK VINA RESULT:    -3.487      3.858      6.245
REMARK INTER + INTRA:          -3.487
REMARK INTER:                  -3.487
REMARK INTRA:                   0.000
REMARK UNBOUND:                 0.000
REMARK  Name = /home/vital/Documents/PhD_2021/Malaria_codes/scripts/../data/pdbqt_ligands/ligand_45_temp.pdb
REMARK                            x       y       z     vdW  Elec       q    Type
REMARK                         _______ _______ _______ _____ _____    ______ ____
ROOT
ATOM      1  C1  UNL     1     151.112 158.386 155.692  0.00  0.00    +0.082 C 
ATOM      2  O1  UNL     1     151.386 159.180 156.850  0.00  0.00    -0.464 OA
ATOM      3  C2  UNL     1     150.592 158.888 157.914  0.00  0.00    +0.343 C 
ATOM      4  O2  UNL     1     149.716 158.040 157.928  0.00  0.00    -0.245 OA
ATOM      5  C3  UNL     1     150.928 159.747 159.084  0.00  0.00    +0.104 A 
ATOM      6  C4  UNL     1     150.169 159.537 160.250  0.00  0.00    +0.001 A 
ATOM      7  C5  UNL     1     150.444 160.309 161.358  0.00  0.00    +0.167 A 
ATOM      8  C6  UNL     1     151.430 161.266 161.349  0.00  0.00    +0.170 A 
ATOM      9  C7  UNL     1     152.196 161.504 160.229  0.00  0.00    +0.026 A 
ATOM     10  C8  UNL     1     151.941 160.737 159.089  0.00  0.00    +0.135 A 
ATOM     11  O3  UNL     1     152.737 161.024 158.012  0.00  0.00    -0.506 OA
ATOM     12  O4  UNL     1     151.537 161.912 162.541  0.00  0.00    -0.452 OA
ATOM     13  C9  UNL     1     150.506 161.252 163.303  0.00  0.00    +0.233 C 
ATOM     14  O5  UNL     1     149.808 160.233 162.557  0.00  0.00    -0.453 OA
ATOM     15  H   UNL     1     152.627 160.553 157.209  0.00  0.00    +0.000 HD
ENDROOT
TORSDOF 0
ENDMDL
MODEL 5
REMARK VINA RESULT:    -3.450      1.981      2.561
REMARK INTER + INTRA:          -3.450
REMARK INTER:                  -3.450
REMARK INTRA:                   0.000
REMARK UNBOUND:                 0.000
REMARK  Name = /home/vital/Documents/PhD_2021/Malaria_codes/scripts/../data/pdbqt_ligands/ligand_45_temp.pdb
REMARK                            x       y       z     vdW  Elec       q    Type
REMARK                         _______ _______ _______ _____ _____    ______ ____
ROOT
ATOM      1  C1  UNL     1     152.817 155.405 153.615  0.00  0.00    +0.082 C 
ATOM      2  O1  UNL     1     152.427 155.579 154.980  0.00  0.00    -0.464 OA
ATOM      3  C2  UNL     1     151.753 156.735 155.214  0.00  0.00    +0.343 C 
ATOM      4  O2  UNL     1     151.481 157.575 154.372  0.00  0.00    -0.245 OA
ATOM      5  C3  UNL     1     151.377 156.855 156.651  0.00  0.00    +0.104 A 
ATOM      6  C4  UNL     1     150.672 158.016 157.016  0.00  0.00    +0.001 A 
ATOM      7  C5  UNL     1     150.304 158.171 158.335  0.00  0.00    +0.167 A 
ATOM      8  C6  UNL     1     150.607 157.228 159.288  0.00  0.00    +0.170 A 
ATOM      9  C7  UNL     1     151.295 156.078 158.973  0.00  0.00    +0.026 A 
ATOM     10  C8  UNL     1     151.683 155.892 157.643  0.00  0.00    +0.135 A 
ATOM     11  O3  UNL     1     152.364 154.729 157.399  0.00  0.00    -0.506 OA
ATOM     12  O4  UNL     1     150.153 157.574 160.523  0.00  0.00    -0.452 OA
ATOM     13  C9  UNL     1     149.529 158.843 160.239  0.00  0.00    +0.233 C 
ATOM     14  O5  UNL     1     149.622 159.227 158.852  0.00  0.00    -0.453 OA
ATOM     15  H   UNL     1     152.658 154.531 156.531  0.00  0.00    +0.000 HD
ENDROOT
TORSDOF 0
ENDMDL
MODEL 6
REMARK VINA RESULT:    -3.374      1.042      4.858
REMARK INTER + INTRA:          -3.374
REMARK INTER:                  -3.374
REMARK INTRA:                   0.000
REMARK UNBOUND:                 0.000
REMARK  Name = /home/vital/Documents/PhD_2021/Malaria_codes/scripts/../data/pdbqt_ligands/ligand_45_temp.pdb
REMARK                            x       y       z     vdW  Elec       q    Type
REMARK                         _______ _______ _______ _____ _____    ______ ____
ROOT
ATOM      1  C1  UNL     1     149.852 159.096 159.440  0.00  0.00    +0.082 C 
ATOM      2  O1  UNL     1     150.431 158.184 158.502  0.00  0.00    -0.464 OA
ATOM      3  C2  UNL     1     150.805 158.765 157.333  0.00  0.00    +0.343 C 
ATOM      4  O2  UNL     1     150.681 159.949 157.062  0.00  0.00    -0.245 OA
ATOM      5  C3  UNL     1     151.399 157.765 156.402  0.00  0.00    +0.104 A 
ATOM      6  C4  UNL     1     151.825 158.251 155.153  0.00  0.00    +0.001 A 
ATOM      7  C5  UNL     1     152.381 157.361 154.259  0.00  0.00    +0.167 A 
ATOM      8  C6  UNL     1     152.524 156.027 154.558  0.00  0.00    +0.170 A 
ATOM      9  C7  UNL     1     152.120 155.510 155.768  0.00  0.00    +0.026 A 
ATOM     10  C8  UNL     1     151.552 156.388 156.697  0.00  0.00    +0.135 A 
ATOM     11  O3  UNL     1     151.172 155.810 157.878  0.00  0.00    -0.506 OA
ATOM     12  O4  UNL     1     153.093 155.326 153.541  0.00  0.00    -0.452 OA
ATOM     13  C9  UNL     1     153.293 156.371 152.566  0.00  0.00    +0.233 C 
ATOM     14  O5  UNL     1     152.842 157.665 153.017  0.00  0.00    -0.453 OA
ATOM     15  H   UNL     1     150.783 156.333 158.552  0.00  0.00    +0.000 HD
ENDROOT
TORSDOF 0
ENDMDL
MODEL 7
REMARK VINA RESULT:    -3.310      1.428      5.315
REMARK INTER + INTRA:          -3.310
REMARK INTER:                  -3.310
REMARK INTRA:                   0.000
REMARK UNBOUND:                 0.000
REMARK  Name = /home/vital/Documents/PhD_2021/Malaria_codes/scripts/../data/pdbqt_ligands/ligand_45_temp.pdb
REMARK                            x       y       z     vdW  Elec       q    Type
REMARK                         _______ _______ _______ _____ _____    ______ ____
ROOT
ATOM      1  C1  UNL     1     150.300 157.180 160.322  0.00  0.00    +0.082 C 
ATOM      2  O1  UNL     1     150.656 157.547 158.986  0.00  0.00    -0.464 OA
ATOM      3  C2  UNL     1     151.322 156.574 158.310  0.00  0.00    +0.343 C 
ATOM      4  O2  UNL     1     151.610 155.476 158.758  0.00  0.00    -0.245 OA
ATOM      5  C3  UNL     1     151.662 157.017 156.930  0.00  0.00    +0.104 A 
ATOM      6  C4  UNL     1     152.356 156.090 156.130  0.00  0.00    +0.001 A 
ATOM      7  C5  UNL     1     152.693 156.457 154.845  0.00  0.00    +0.167 A 
ATOM      8  C6  UNL     1     152.371 157.692 154.335  0.00  0.00    +0.170 A 
ATOM      9  C7  UNL     1     151.693 158.628 155.083  0.00  0.00    +0.026 A 
ATOM     10  C8  UNL     1     151.337 158.286 156.391  0.00  0.00    +0.135 A 
ATOM     11  O3  UNL     1     150.666 159.261 157.079  0.00  0.00    -0.506 OA
ATOM     12  O4  UNL     1     152.794 157.850 153.053  0.00  0.00    -0.452 OA
ATOM     13  C9  UNL     1     153.420 156.573 152.812  0.00  0.00    +0.233 C 
ATOM     14  O5  UNL     1     153.360 155.684 153.947  0.00  0.00    -0.453 OA
ATOM     15  H   UNL     1     150.392 159.108 157.963  0.00  0.00    +0.000 HD
ENDROOT
TORSDOF 0
ENDMDL
MODEL 8
REMARK VINA RESULT:    -3.019      3.868      7.376
REMARK INTER + INTRA:          -3.019
REMARK INTER:                  -3.019
REMARK INTRA:                   0.000
REMARK UNBOUND:                 0.000
REMARK  Name = /home/vital/Documents/PhD_2021/Malaria_codes/scripts/../data/pdbqt_ligands/ligand_45_temp.pdb
REMARK                            x       y       z     vdW  Elec       q    Type
REMARK                         _______ _______ _______ _____ _____    ______ ____
ROOT
ATOM      1  C1  UNL     1     150.045 161.377 163.671  0.00  0.00    +0.082 C 
ATOM      2  O1  UNL     1     150.188 160.163 162.927  0.00  0.00    -0.464 OA
ATOM      3  C2  UNL     1     150.147 160.338 161.580  0.00  0.00    +0.343 C 
ATOM      4  O2  UNL     1     150.003 161.409 161.012  0.00  0.00    -0.245 OA
ATOM      5  C3  UNL     1     150.301 159.040 160.866  0.00  0.00    +0.104 A 
ATOM      6  C4  UNL     1     150.273 159.094 159.460  0.00  0.00    +0.001 A 
ATOM      7  C5  UNL     1     150.412 157.917 158.756  0.00  0.00    +0.167 A 
ATOM      8  C6  UNL     1     150.574 156.709 159.390  0.00  0.00    +0.170 A 
ATOM      9  C7  UNL     1     150.606 156.611 160.763  0.00  0.00    +0.026 A 
ATOM     10  C8  UNL     1     150.468 157.787 161.505  0.00  0.00    +0.135 A 
ATOM     11  O3  UNL     1     150.509 157.620 162.864  0.00  0.00    -0.506 OA
ATOM     12  O4  UNL     1     150.691 155.676 158.513  0.00  0.00    -0.452 OA
ATOM     13  C9  UNL     1     150.586 156.372 157.254  0.00  0.00    +0.233 C 
ATOM     14  O5  UNL     1     150.407 157.796 157.402  0.00  0.00    -0.453 OA
ATOM     15  H   UNL     1     150.424 158.362 163.430  0.00  0.00    +0.000 HD
ENDROOT
TORSDOF 0
ENDMDL
MODEL 9
REMARK VINA RESULT:    -2.876     15.744     17.884
REMARK INTER + INTRA:          -2.876
REMARK INTER:                  -2.876
REMARK INTRA:                   0.000
REMARK UNBOUND:                 0.000
REMARK  Name = /home/vital/Documents/PhD_2021/Malaria_codes/scripts/../data/pdbqt_ligands/ligand_45_temp.pdb
REMARK                            x       y       z     vdW  Elec       q    Type
REMARK                         _______ _______ _______ _____ _____    ______ ____
ROOT
ATOM      1  C1  UNL     1     143.809 148.375 163.960  0.00  0.00    +0.082 C 
ATOM      2  O1  UNL     1     143.632 146.956 163.900  0.00  0.00    -0.464 OA
ATOM      3  C2  UNL     1     144.798 146.258 163.914  0.00  0.00    +0.343 C 
ATOM      4  O2  UNL     1     145.914 146.750 163.971  0.00  0.00    -0.245 OA
ATOM      5  C3  UNL     1     144.545 144.792 163.851  0.00  0.00    +0.104 A 
ATOM      6  C4  UNL     1     145.681 143.962 163.858  0.00  0.00    +0.001 A 
ATOM      7  C5  UNL     1     145.496 142.597 163.800  0.00  0.00    +0.167 A 
ATOM      8  C6  UNL     1     144.242 142.038 163.736  0.00  0.00    +0.170 A 
ATOM      9  C7  UNL     1     143.104 142.813 163.726  0.00  0.00    +0.026 A 
ATOM     10  C8  UNL     1     143.259 144.201 163.784  0.00  0.00    +0.135 A 
ATOM     11  O3  UNL     1     142.089 144.913 163.770  0.00  0.00    -0.506 OA
ATOM     12  O4  UNL     1     144.282 140.679 163.686  0.00  0.00    -0.452 OA
ATOM     13  C9  UNL     1     145.705 140.446 163.727  0.00  0.00    +0.233 C 
ATOM     14  O5  UNL     1     146.481 141.660 163.799  0.00  0.00    -0.453 OA
ATOM     15  H   UNL     1     142.110 145.849 163.806  0.00  0.00    +0.000 HD
ENDROOT
TORSDOF 0
ENDMDL
