MODEL 1
REMARK VINA RESULT:    -6.764      0.000      0.000
REMARK INTER + INTRA:          -6.764
REMARK INTER:                  -6.764
REMARK INTRA:                   0.000
REMARK UNBOUND:                 0.000
REMARK  Name = /home/vital/Documents/PhD_2021/Malaria_codes/scripts/../data/pdbqt_ligands/ligand_64_temp.pdb
REMARK                            x       y       z     vdW  Elec       q    Type
REMARK                         _______ _______ _______ _____ _____    ______ ____
ROOT
ATOM      1  C   UNL     1     149.318 161.162 167.101  0.00  0.00    -0.061 C 
ATOM      2  C   UNL     1     150.616 161.041 166.306  0.00  0.00    -0.028 C 
ATOM      3  C   UNL     1     151.709 161.940 166.904  0.00  0.00    -0.045 C 
ATOM      4  C   UNL     1     153.120 161.625 166.367  0.00  0.00    -0.028 C 
ATOM      5  C   UNL     1     154.025 161.101 167.489  0.00  0.00    -0.061 C 
ATOM      6  C   UNL     1     153.091 160.645 165.188  0.00  0.00    +0.018 C 
ATOM      7  N   UNL     1     152.337 159.432 165.491  0.00  0.00    -0.297 N 
ATOM      8  C   UNL     1     152.717 158.254 164.857  0.00  0.00    +0.249 C 
ATOM      9  O   UNL     1     153.634 158.154 164.049  0.00  0.00    -0.270 OA
ATOM     10  C   UNL     1     152.004 157.010 165.190  0.00  0.00    +0.068 A 
ATOM     11  C   UNL     1     152.139 156.478 166.479  0.00  0.00    -0.029 A 
ATOM     12  C   UNL     1     151.548 155.250 166.779  0.00  0.00    +0.042 A 
ATOM     13 CL   UNL     1     151.699 154.601 168.364  0.00  0.00    -0.084 Cl
ATOM     14  C   UNL     1     150.841 154.539 165.804  0.00  0.00    -0.041 A 
ATOM     15  C   UNL     1     150.718 155.057 164.513  0.00  0.00    -0.029 A 
ATOM     16  C   UNL     1     151.306 156.294 164.216  0.00  0.00    +0.138 A 
ATOM     17  N   UNL     1     151.119 156.847 162.888  0.00  0.00    +0.057 N 
ATOM     18  O   UNL     1     151.385 156.111 161.929  0.00  0.00    -0.126 OA
ATOM     19  O   UNL     1     150.625 157.980 162.815  0.00  0.00    -0.126 OA
ATOM     20  C   UNL     1     151.087 159.586 166.241  0.00  0.00    +0.018 C 
ENDROOT
TORSDOF 0
ENDMDL
MODEL 2
REMARK VINA RESULT:    -6.545      3.185      5.969
REMARK INTER + INTRA:          -6.545
REMARK INTER:                  -6.545
REMARK INTRA:                   0.000
REMARK UNBOUND:                 0.000
REMARK  Name = /home/vital/Documents/PhD_2021/Malaria_codes/scripts/../data/pdbqt_ligands/ligand_64_temp.pdb
REMARK                            x       y       z     vdW  Elec       q    Type
REMARK                         _______ _______ _______ _____ _____    ______ ____
ROOT
ATOM      1  C   UNL     1     152.574 157.174 163.581  0.00  0.00    -0.061 C 
ATOM      2  C   UNL     1     151.493 156.964 164.639  0.00  0.00    -0.028 C 
ATOM      3  C   UNL     1     151.370 155.478 165.008  0.00  0.00    -0.045 C 
ATOM      4  C   UNL     1     150.546 155.233 166.288  0.00  0.00    -0.028 C 
ATOM      5  C   UNL     1     151.423 154.636 167.395  0.00  0.00    -0.061 C 
ATOM      6  C   UNL     1     149.839 156.502 166.780  0.00  0.00    +0.018 C 
ATOM      7  N   UNL     1     150.756 157.630 166.925  0.00  0.00    -0.297 N 
ATOM      8  C   UNL     1     150.467 158.583 167.896  0.00  0.00    +0.249 C 
ATOM      9  O   UNL     1     149.489 158.559 168.636  0.00  0.00    -0.270 OA
ATOM     10  C   UNL     1     151.408 159.697 168.096  0.00  0.00    +0.068 A 
ATOM     11  C   UNL     1     152.684 159.421 168.603  0.00  0.00    -0.029 A 
ATOM     12  C   UNL     1     153.551 160.476 168.888  0.00  0.00    +0.042 A 
ATOM     13 CL   UNL     1     155.123 160.142 169.498  0.00  0.00    -0.084 Cl
ATOM     14  C   UNL     1     153.154 161.803 168.690  0.00  0.00    -0.041 A 
ATOM     15  C   UNL     1     151.876 162.084 168.200  0.00  0.00    -0.029 A 
ATOM     16  C   UNL     1     151.010 161.021 167.907  0.00  0.00    +0.138 A 
ATOM     17  N   UNL     1     149.709 161.327 167.343  0.00  0.00    +0.057 N 
ATOM     18  O   UNL     1     149.020 162.166 167.937  0.00  0.00    -0.126 OA
ATOM     19  O   UNL     1     149.424 160.789 166.264  0.00  0.00    -0.126 OA
ATOM     20  C   UNL     1     151.772 157.811 165.884  0.00  0.00    +0.018 C 
ENDROOT
TORSDOF 0
ENDMDL
MODEL 3
REMARK VINA RESULT:    -6.193      1.676      2.087
REMARK INTER + INTRA:          -6.193
REMARK INTER:                  -6.193
REMARK INTRA:                   0.000
REMARK UNBOUND:                 0.000
REMARK  Name = /home/vital/Documents/PhD_2021/Malaria_codes/scripts/../data/pdbqt_ligands/ligand_64_temp.pdb
REMARK                            x       y       z     vdW  Elec       q    Type
REMARK                         _______ _______ _______ _____ _____    ______ ____
ROOT
ATOM      1  C   UNL     1     148.455 161.924 167.506  0.00  0.00    -0.061 C 
ATOM      2  C   UNL     1     149.825 162.265 166.924  0.00  0.00    -0.028 C 
ATOM      3  C   UNL     1     150.614 163.174 167.877  0.00  0.00    -0.045 C 
ATOM      4  C   UNL     1     152.109 163.287 167.516  0.00  0.00    -0.028 C 
ATOM      5  C   UNL     1     152.983 162.678 168.619  0.00  0.00    -0.061 C 
ATOM      6  C   UNL     1     152.431 162.656 166.156  0.00  0.00    +0.018 C 
ATOM      7  N   UNL     1     151.943 161.284 166.049  0.00  0.00    -0.297 N 
ATOM      8  C   UNL     1     152.647 160.404 165.233  0.00  0.00    +0.249 C 
ATOM      9  O   UNL     1     153.644 160.696 164.581  0.00  0.00    -0.270 OA
ATOM     10  C   UNL     1     152.204 159.003 165.156  0.00  0.00    +0.068 A 
ATOM     11  C   UNL     1     152.317 158.195 166.294  0.00  0.00    -0.029 A 
ATOM     12  C   UNL     1     151.991 156.841 166.208  0.00  0.00    +0.042 A 
ATOM     13 CL   UNL     1     152.115 155.848 167.606  0.00  0.00    -0.084 Cl
ATOM     14  C   UNL     1     151.573 156.280 164.997  0.00  0.00    -0.041 A 
ATOM     15  C   UNL     1     151.475 157.079 163.854  0.00  0.00    -0.029 A 
ATOM     16  C   UNL     1     151.795 158.441 163.945  0.00  0.00    +0.138 A 
ATOM     17  N   UNL     1     151.631 159.268 162.765  0.00  0.00    +0.057 N 
ATOM     18  O   UNL     1     152.159 158.870 161.720  0.00  0.00    -0.126 OA
ATOM     19  O   UNL     1     150.903 160.264 162.875  0.00  0.00    -0.126 OA
ATOM     20  C   UNL     1     150.618 160.995 166.605  0.00  0.00    +0.018 C 
ENDROOT
TORSDOF 0
ENDMDL
MODEL 4
REMARK VINA RESULT:    -6.164      3.272      4.356
REMARK INTER + INTRA:          -6.164
REMARK INTER:                  -6.164
REMARK INTRA:                   0.000
REMARK UNBOUND:                 0.000
REMARK  Name = /home/vital/Documents/PhD_2021/Malaria_codes/scripts/../data/pdbqt_ligands/ligand_64_temp.pdb
REMARK                            x       y       z     vdW  Elec       q    Type
REMARK                         _______ _______ _______ _____ _____    ______ ____
ROOT
ATOM      1  C   UNL     1     155.360 161.703 167.986  0.00  0.00    -0.061 C 
ATOM      2  C   UNL     1     154.060 161.261 168.654  0.00  0.00    -0.028 C 
ATOM      3  C   UNL     1     153.358 162.451 169.326  0.00  0.00    -0.045 C 
ATOM      4  C   UNL     1     151.900 162.151 169.728  0.00  0.00    -0.028 C 
ATOM      5  C   UNL     1     150.925 163.025 168.929  0.00  0.00    -0.061 C 
ATOM      6  C   UNL     1     151.546 160.667 169.580  0.00  0.00    +0.018 C 
ATOM      7  N   UNL     1     151.866 160.147 168.254  0.00  0.00    -0.297 N 
ATOM      8  C   UNL     1     151.087 159.109 167.755  0.00  0.00    +0.249 C 
ATOM      9  O   UNL     1     150.153 158.582 168.351  0.00  0.00    -0.270 OA
ATOM     10  C   UNL     1     151.359 158.608 166.398  0.00  0.00    +0.068 A 
ATOM     11  C   UNL     1     151.114 159.450 165.306  0.00  0.00    -0.029 A 
ATOM     12  C   UNL     1     151.276 158.957 164.011  0.00  0.00    +0.042 A 
ATOM     13 CL   UNL     1     150.990 159.990 162.667  0.00  0.00    -0.084 Cl
ATOM     14  C   UNL     1     151.660 157.629 163.793  0.00  0.00    -0.041 A 
ATOM     15  C   UNL     1     151.888 156.781 164.879  0.00  0.00    -0.029 A 
ATOM     16  C   UNL     1     151.733 157.282 166.179  0.00  0.00    +0.138 A 
ATOM     17  N   UNL     1     152.032 156.405 167.296  0.00  0.00    +0.057 N 
ATOM     18  O   UNL     1     151.492 155.292 167.299  0.00  0.00    -0.126 OA
ATOM     19  O   UNL     1     152.872 156.805 168.114  0.00  0.00    -0.126 OA
ATOM     20  C   UNL     1     153.129 160.580 167.648  0.00  0.00    +0.018 C 
ENDROOT
TORSDOF 0
ENDMDL
MODEL 5
REMARK VINA RESULT:    -6.025     13.193     15.753
REMARK INTER + INTRA:          -6.025
REMARK INTER:                  -6.025
REMARK INTRA:                   0.000
REMARK UNBOUND:                 0.000
REMARK  Name = /home/vital/Documents/PhD_2021/Malaria_codes/scripts/../data/pdbqt_ligands/ligand_64_temp.pdb
REMARK                            x       y       z     vdW  Elec       q    Type
REMARK                         _______ _______ _______ _____ _____    ______ ____
ROOT
ATOM      1  C   UNL     1     145.483 148.851 165.051  0.00  0.00    -0.061 C 
ATOM      2  C   UNL     1     144.570 148.403 166.190  0.00  0.00    -0.028 C 
ATOM      3  C   UNL     1     143.765 149.588 166.744  0.00  0.00    -0.045 C 
ATOM      4  C   UNL     1     142.598 149.159 167.656  0.00  0.00    -0.028 C 
ATOM      5  C   UNL     1     141.250 149.539 167.030  0.00  0.00    -0.061 C 
ATOM      6  C   UNL     1     142.638 147.664 167.994  0.00  0.00    +0.018 C 
ATOM      7  N   UNL     1     142.739 146.826 166.803  0.00  0.00    -0.297 N 
ATOM      8  C   UNL     1     142.173 145.557 166.850  0.00  0.00    +0.249 C 
ATOM      9  O   UNL     1     141.604 145.076 167.824  0.00  0.00    -0.270 OA
ATOM     10  C   UNL     1     142.216 144.718 165.641  0.00  0.00    +0.068 A 
ATOM     11  C   UNL     1     141.479 145.113 164.518  0.00  0.00    -0.029 A 
ATOM     12  C   UNL     1     141.433 144.280 163.400  0.00  0.00    +0.042 A 
ATOM     13 CL   UNL     1     140.541 144.768 162.013  0.00  0.00    -0.084 Cl
ATOM     14  C   UNL     1     142.097 143.049 163.397  0.00  0.00    -0.041 A 
ATOM     15  C   UNL     1     142.819 142.642 164.522  0.00  0.00    -0.029 A 
ATOM     16  C   UNL     1     142.870 143.485 165.640  0.00  0.00    +0.138 A 
ATOM     17  N   UNL     1     143.673 143.075 166.777  0.00  0.00    +0.057 N 
ATOM     18  O   UNL     1     143.478 141.938 167.224  0.00  0.00    -0.126 OA
ATOM     19  O   UNL     1     144.551 143.862 167.157  0.00  0.00    -0.126 OA
ATOM     20  C   UNL     1     143.636 147.278 165.735  0.00  0.00    +0.018 C 
ENDROOT
TORSDOF 0
ENDMDL
MODEL 6
REMARK VINA RESULT:    -5.915     14.455     16.520
REMARK INTER + INTRA:          -5.915
REMARK INTER:                  -5.915
REMARK INTRA:                   0.000
REMARK UNBOUND:                 0.000
REMARK  Name = /home/vital/Documents/PhD_2021/Malaria_codes/scripts/../data/pdbqt_ligands/ligand_64_temp.pdb
REMARK                            x       y       z     vdW  Elec       q    Type
REMARK                         _______ _______ _______ _____ _____    ______ ____
ROOT
ATOM      1  C   UNL     1     141.492 146.870 163.036  0.00  0.00    -0.061 C 
ATOM      2  C   UNL     1     142.738 146.759 163.911  0.00  0.00    -0.028 C 
ATOM      3  C   UNL     1     142.747 147.851 164.992  0.00  0.00    -0.045 C 
ATOM      4  C   UNL     1     143.786 147.602 166.103  0.00  0.00    -0.028 C 
ATOM      5  C   UNL     1     143.095 147.361 167.451  0.00  0.00    -0.061 C 
ATOM      6  C   UNL     1     144.737 146.447 165.766  0.00  0.00    +0.018 C 
ATOM      7  N   UNL     1     144.024 145.226 165.400  0.00  0.00    -0.297 N 
ATOM      8  C   UNL     1     144.631 144.008 165.680  0.00  0.00    +0.249 C 
ATOM      9  O   UNL     1     145.733 143.875 166.203  0.00  0.00    -0.270 OA
ATOM     10  C   UNL     1     143.905 142.766 165.369  0.00  0.00    +0.068 A 
ATOM     11  C   UNL     1     142.742 142.466 166.089  0.00  0.00    -0.029 A 
ATOM     12  C   UNL     1     142.097 141.248 165.872  0.00  0.00    +0.042 A 
ATOM     13 CL   UNL     1     140.661 140.881 166.744  0.00  0.00    -0.084 Cl
ATOM     14  C   UNL     1     142.609 140.319 164.960  0.00  0.00    -0.041 A 
ATOM     15  C   UNL     1     143.778 140.607 164.252  0.00  0.00    -0.029 A 
ATOM     16  C   UNL     1     144.419 141.835 164.466  0.00  0.00    +0.138 A 
ATOM     17  N   UNL     1     145.599 142.144 163.679  0.00  0.00    +0.057 N 
ATOM     18  O   UNL     1     146.499 141.296 163.657  0.00  0.00    -0.126 OA
ATOM     19  O   UNL     1     145.576 143.194 163.022  0.00  0.00    -0.126 OA
ATOM     20  C   UNL     1     142.841 145.369 164.545  0.00  0.00    +0.018 C 
ENDROOT
TORSDOF 0
ENDMDL
MODEL 7
REMARK VINA RESULT:    -5.871     12.547     15.916
REMARK INTER + INTRA:          -5.871
REMARK INTER:                  -5.871
REMARK INTRA:                   0.000
REMARK UNBOUND:                 0.000
REMARK  Name = /home/vital/Documents/PhD_2021/Malaria_codes/scripts/../data/pdbqt_ligands/ligand_64_temp.pdb
REMARK                            x       y       z     vdW  Elec       q    Type
REMARK                         _______ _______ _______ _____ _____    ______ ____
ROOT
ATOM      1  C   UNL     1     141.518 143.490 162.884  0.00  0.00    -0.061 C 
ATOM      2  C   UNL     1     142.082 143.335 164.295  0.00  0.00    -0.028 C 
ATOM      3  C   UNL     1     142.811 141.991 164.448  0.00  0.00    -0.045 C 
ATOM      4  C   UNL     1     143.678 141.909 165.720  0.00  0.00    -0.028 C 
ATOM      5  C   UNL     1     145.164 141.789 165.358  0.00  0.00    -0.061 C 
ATOM      6  C   UNL     1     143.443 143.092 166.666  0.00  0.00    +0.018 C 
ATOM      7  N   UNL     1     143.580 144.381 165.992  0.00  0.00    -0.297 N 
ATOM      8  C   UNL     1     144.019 145.465 166.743  0.00  0.00    +0.249 C 
ATOM      9  O   UNL     1     144.290 145.428 167.939  0.00  0.00    -0.270 OA
ATOM     10  C   UNL     1     144.217 146.759 166.070  0.00  0.00    +0.068 A 
ATOM     11  C   UNL     1     145.237 146.876 165.118  0.00  0.00    -0.029 A 
ATOM     12  C   UNL     1     145.498 148.120 164.543  0.00  0.00    +0.042 A 
ATOM     13 CL   UNL     1     146.741 148.267 163.364  0.00  0.00    -0.084 Cl
ATOM     14  C   UNL     1     144.765 149.251 164.919  0.00  0.00    -0.041 A 
ATOM     15  C   UNL     1     143.757 149.142 165.880  0.00  0.00    -0.029 A 
ATOM     16  C   UNL     1     143.492 147.889 166.451  0.00  0.00    +0.138 A 
ATOM     17  N   UNL     1     142.403 147.781 167.403  0.00  0.00    +0.057 N 
ATOM     18  O   UNL     1     142.395 148.586 168.343  0.00  0.00    -0.126 OA
ATOM     19  O   UNL     1     141.520 146.950 167.154  0.00  0.00    -0.126 OA
ATOM     20  C   UNL     1     143.013 144.499 164.645  0.00  0.00    +0.018 C 
ENDROOT
TORSDOF 0
ENDMDL
MODEL 8
REMARK VINA RESULT:    -5.787      3.217      6.114
REMARK INTER + INTRA:          -5.787
REMARK INTER:                  -5.787
REMARK INTRA:                   0.000
REMARK UNBOUND:                 0.000
REMARK  Name = /home/vital/Documents/PhD_2021/Malaria_codes/scripts/../data/pdbqt_ligands/ligand_64_temp.pdb
REMARK                            x       y       z     vdW  Elec       q    Type
REMARK                         _______ _______ _______ _____ _____    ______ ____
ROOT
ATOM      1  C   UNL     1     150.482 155.975 166.876  0.00  0.00    -0.061 C 
ATOM      2  C   UNL     1     151.559 156.804 166.180  0.00  0.00    -0.028 C 
ATOM      3  C   UNL     1     151.569 156.531 164.668  0.00  0.00    -0.045 C 
ATOM      4  C   UNL     1     152.390 157.561 163.867  0.00  0.00    -0.028 C 
ATOM      5  C   UNL     1     151.484 158.369 162.929  0.00  0.00    -0.061 C 
ATOM      6  C   UNL     1     153.203 158.493 164.773  0.00  0.00    +0.018 C 
ATOM      7  N   UNL     1     152.381 159.127 165.801  0.00  0.00    -0.297 N 
ATOM      8  C   UNL     1     152.760 160.387 166.252  0.00  0.00    +0.249 C 
ATOM      9  O   UNL     1     153.744 161.007 165.862  0.00  0.00    -0.270 OA
ATOM     10  C   UNL     1     151.914 161.066 167.247  0.00  0.00    +0.068 A 
ATOM     11  C   UNL     1     150.629 161.476 166.874  0.00  0.00    -0.029 A 
ATOM     12  C   UNL     1     149.853 162.205 167.776  0.00  0.00    +0.042 A 
ATOM     13 CL   UNL     1     148.268 162.698 167.327  0.00  0.00    -0.084 Cl
ATOM     14  C   UNL     1     150.352 162.546 169.037  0.00  0.00    -0.041 A 
ATOM     15  C   UNL     1     151.640 162.153 169.408  0.00  0.00    -0.029 A 
ATOM     16  C   UNL     1     152.415 161.414 168.503  0.00  0.00    +0.138 A 
ATOM     17  N   UNL     1     153.727 160.963 168.925  0.00  0.00    +0.057 N 
ATOM     18  O   UNL     1     154.489 161.814 169.400  0.00  0.00    -0.126 OA
ATOM     19  O   UNL     1     153.952 159.747 168.858  0.00  0.00    -0.126 OA
ATOM     20  C   UNL     1     151.368 158.297 166.459  0.00  0.00    +0.018 C 
ENDROOT
TORSDOF 0
ENDMDL
MODEL 9
REMARK VINA RESULT:    -5.565     15.044     16.999
REMARK INTER + INTRA:          -5.565
REMARK INTER:                  -5.565
REMARK INTRA:                   0.000
REMARK UNBOUND:                 0.000
REMARK  Name = /home/vital/Documents/PhD_2021/Malaria_codes/scripts/../data/pdbqt_ligands/ligand_64_temp.pdb
REMARK                            x       y       z     vdW  Elec       q    Type
REMARK                         _______ _______ _______ _____ _____    ______ ____
ROOT
ATOM      1  C   UNL     1     141.859 140.706 165.696  0.00  0.00    -0.061 C 
ATOM      2  C   UNL     1     143.172 141.481 165.624  0.00  0.00    -0.028 C 
ATOM      3  C   UNL     1     144.223 140.705 164.816  0.00  0.00    -0.045 C 
ATOM      4  C   UNL     1     145.445 141.558 164.424  0.00  0.00    -0.028 C 
ATOM      5  C   UNL     1     145.528 141.724 162.901  0.00  0.00    -0.061 C 
ATOM      6  C   UNL     1     145.452 142.924 165.120  0.00  0.00    +0.018 C 
ATOM      7  N   UNL     1     144.197 143.649 164.939  0.00  0.00    -0.297 N 
ATOM      8  C   UNL     1     144.243 145.039 164.927  0.00  0.00    +0.249 C 
ATOM      9  O   UNL     1     145.259 145.710 165.072  0.00  0.00    -0.270 OA
ATOM     10  C   UNL     1     142.997 145.786 164.690  0.00  0.00    +0.068 A 
ATOM     11  C   UNL     1     142.384 145.696 163.435  0.00  0.00    -0.029 A 
ATOM     12  C   UNL     1     141.257 146.473 163.165  0.00  0.00    +0.042 A 
ATOM     13 CL   UNL     1     140.492 146.356 161.630  0.00  0.00    -0.084 Cl
ATOM     14  C   UNL     1     140.747 147.352 164.127  0.00  0.00    -0.041 A 
ATOM     15  C   UNL     1     141.365 147.458 165.375  0.00  0.00    -0.029 A 
ATOM     16  C   UNL     1     142.493 146.670 165.646  0.00  0.00    +0.138 A 
ATOM     17  N   UNL     1     143.087 146.747 166.967  0.00  0.00    +0.057 N 
ATOM     18  O   UNL     1     143.356 147.875 167.398  0.00  0.00    -0.126 OA
ATOM     19  O   UNL     1     143.200 145.685 167.594  0.00  0.00    -0.126 OA
ATOM     20  C   UNL     1     142.955 142.876 165.030  0.00  0.00    +0.018 C 
ENDROOT
TORSDOF 0
ENDMDL
