MODEL 1
REMARK VINA RESULT:    -6.458      0.000      0.000
REMARK INTER + INTRA:          -6.458
REMARK INTER:                  -6.458
REMARK INTRA:                   0.000
REMARK UNBOUND:                 0.000
REMARK  Name = /home/vital/Documents/PhD_2021/Malaria_codes/scripts/../data/pdbqt_ligands/ligand_423_temp.pdb
REMARK                            x       y       z     vdW  Elec       q    Type
REMARK                         _______ _______ _______ _____ _____    ______ ____
ROOT
ATOM      1  C1  UNL     1     151.992 155.373 158.370  0.00  0.00    -0.116 C 
ATOM      2  C2  UNL     1     151.388 155.920 157.488  0.00  0.00    -0.062 C 
ATOM      3  C3  UNL     1     150.650 156.588 156.396  0.00  0.00    +0.160 C 
ATOM      4  C4  UNL     1     149.569 157.528 156.960  0.00  0.00    -0.007 C 
ATOM      5  C5  UNL     1     150.113 158.722 157.739  0.00  0.00    -0.061 C 
ATOM      6  O1  UNL     1     151.536 157.371 155.585  0.00  0.00    -0.476 OA
ATOM      7  C6  UNL     1     152.191 156.766 154.550  0.00  0.00    +0.122 A 
ATOM      8  C7  UNL     1     152.301 155.395 154.330  0.00  0.00    -0.020 A 
ATOM      9  C8  UNL     1     153.010 154.913 153.223  0.00  0.00    -0.052 A 
ATOM     10  C9  UNL     1     153.630 155.794 152.324  0.00  0.00    -0.007 A 
ATOM     11  C10 UNL     1     154.377 155.284 151.105  0.00  0.00    +0.132 C 
ATOM     12  C11 UNL     1     153.403 154.951 149.983  0.00  0.00    +0.052 C 
ATOM     13  C12 UNL     1     154.196 154.474 148.800  0.00  0.00    +0.170 C 
ATOM     14  O2  UNL     1     153.823 154.645 147.643  0.00  0.00    -0.292 OA
ATOM     15  C13 UNL     1     155.429 153.720 149.098  0.00  0.00    +0.059 A 
ATOM     16  C14 UNL     1     156.171 153.130 148.071  0.00  0.00    -0.048 A 
ATOM     17  C15 UNL     1     157.304 152.378 148.385  0.00  0.00    -0.061 A 
ATOM     18  C16 UNL     1     157.685 152.212 149.718  0.00  0.00    -0.058 A 
ATOM     19  C17 UNL     1     156.941 152.805 150.740  0.00  0.00    -0.019 A 
ATOM     20  C18 UNL     1     155.821 153.573 150.429  0.00  0.00    +0.132 A 
ATOM     21  O3  UNL     1     155.144 154.128 151.483  0.00  0.00    -0.483 OA
ATOM     22  C19 UNL     1     153.519 157.171 152.556  0.00  0.00    -0.052 A 
ATOM     23  C20 UNL     1     152.810 157.648 153.661  0.00  0.00    -0.020 A 
ENDROOT
TORSDOF 0
ENDMDL
MODEL 2
REMARK VINA RESULT:    -6.457      1.342      8.374
REMARK INTER + INTRA:          -6.457
REMARK INTER:                  -6.457
REMARK INTRA:                   0.000
REMARK UNBOUND:                 0.000
REMARK  Name = /home/vital/Documents/PhD_2021/Malaria_codes/scripts/../data/pdbqt_ligands/ligand_423_temp.pdb
REMARK                            x       y       z     vdW  Elec       q    Type
REMARK                         _______ _______ _______ _____ _____    ______ ____
ROOT
ATOM      1  C1  UNL     1     156.560 151.623 150.224  0.00  0.00    -0.116 C 
ATOM      2  C2  UNL     1     156.270 152.713 149.810  0.00  0.00    -0.062 C 
ATOM      3  C3  UNL     1     155.910 154.056 149.310  0.00  0.00    +0.160 C 
ATOM      4  C4  UNL     1     156.260 154.196 147.818  0.00  0.00    -0.007 C 
ATOM      5  C5  UNL     1     155.448 153.296 146.891  0.00  0.00    -0.061 C 
ATOM      6  O1  UNL     1     154.504 154.296 149.459  0.00  0.00    -0.476 OA
ATOM      7  C6  UNL     1     154.042 154.795 150.644  0.00  0.00    +0.122 A 
ATOM      8  C7  UNL     1     154.749 154.867 151.842  0.00  0.00    -0.020 A 
ATOM      9  C8  UNL     1     154.144 155.402 152.986  0.00  0.00    -0.052 A 
ATOM     10  C9  UNL     1     152.820 155.864 152.954  0.00  0.00    -0.007 A 
ATOM     11  C10 UNL     1     152.163 156.471 154.180  0.00  0.00    +0.132 C 
ATOM     12  C11 UNL     1     152.582 157.926 154.343  0.00  0.00    +0.052 C 
ATOM     13  C12 UNL     1     151.889 158.481 155.554  0.00  0.00    +0.170 C 
ATOM     14  O2  UNL     1     151.574 159.663 155.651  0.00  0.00    -0.292 OA
ATOM     15  C13 UNL     1     151.660 157.539 156.668  0.00  0.00    +0.059 A 
ATOM     16  C14 UNL     1     151.133 157.984 157.883  0.00  0.00    -0.048 A 
ATOM     17  C15 UNL     1     150.976 157.083 158.937  0.00  0.00    -0.061 A 
ATOM     18  C16 UNL     1     151.351 155.747 158.776  0.00  0.00    -0.058 A 
ATOM     19  C17 UNL     1     151.875 155.307 157.559  0.00  0.00    -0.019 A 
ATOM     20  C18 UNL     1     152.015 156.200 156.498  0.00  0.00    +0.132 A 
ATOM     21  O3  UNL     1     152.530 155.696 155.334  0.00  0.00    -0.483 OA
ATOM     22  C19 UNL     1     152.114 155.783 151.746  0.00  0.00    -0.052 A 
ATOM     23  C20 UNL     1     152.722 155.248 150.607  0.00  0.00    -0.020 A 
ENDROOT
TORSDOF 0
ENDMDL
MODEL 3
REMARK VINA RESULT:    -5.586      4.225     10.607
REMARK INTER + INTRA:          -5.586
REMARK INTER:                  -5.586
REMARK INTRA:                   0.000
REMARK UNBOUND:                 0.000
REMARK  Name = /home/vital/Documents/PhD_2021/Malaria_codes/scripts/../data/pdbqt_ligands/ligand_423_temp.pdb
REMARK                            x       y       z     vdW  Elec       q    Type
REMARK                         _______ _______ _______ _____ _____    ______ ____
ROOT
ATOM      1  C1  UNL     1     151.122 154.451 152.923  0.00  0.00    -0.116 C 
ATOM      2  C2  UNL     1     151.837 155.227 153.496  0.00  0.00    -0.062 C 
ATOM      3  C3  UNL     1     152.714 156.178 154.210  0.00  0.00    +0.160 C 
ATOM      4  C4  UNL     1     153.533 157.021 153.215  0.00  0.00    -0.007 C 
ATOM      5  C5  UNL     1     152.700 157.961 152.349  0.00  0.00    -0.061 C 
ATOM      6  O1  UNL     1     151.943 157.076 155.019  0.00  0.00    -0.476 OA
ATOM      7  C6  UNL     1     151.602 156.695 156.286  0.00  0.00    +0.122 A 
ATOM      8  C7  UNL     1     151.699 155.411 156.817  0.00  0.00    -0.020 A 
ATOM      9  C8  UNL     1     151.308 155.163 158.138  0.00  0.00    -0.052 A 
ATOM     10  C9  UNL     1     150.802 156.192 158.947  0.00  0.00    -0.007 A 
ATOM     11  C10 UNL     1     150.401 155.942 160.389  0.00  0.00    +0.132 C 
ATOM     12  C11 UNL     1     151.627 155.943 161.291  0.00  0.00    +0.052 C 
ATOM     13  C12 UNL     1     151.171 155.713 162.703  0.00  0.00    +0.170 C 
ATOM     14  O2  UNL     1     151.764 156.175 163.673  0.00  0.00    -0.292 OA
ATOM     15  C13 UNL     1     149.996 154.836 162.878  0.00  0.00    +0.059 A 
ATOM     16  C14 UNL     1     149.567 154.463 164.155  0.00  0.00    -0.048 A 
ATOM     17  C15 UNL     1     148.486 153.591 164.290  0.00  0.00    -0.061 A 
ATOM     18  C16 UNL     1     147.845 153.091 163.154  0.00  0.00    -0.058 A 
ATOM     19  C17 UNL     1     148.276 153.469 161.881  0.00  0.00    -0.019 A 
ATOM     20  C18 UNL     1     149.343 154.355 161.742  0.00  0.00    +0.132 A 
ATOM     21  O3  UNL     1     149.706 154.685 160.464  0.00  0.00    -0.483 OA
ATOM     22  C19 UNL     1     150.703 157.479 158.403  0.00  0.00    -0.052 A 
ATOM     23  C20 UNL     1     151.095 157.722 157.084  0.00  0.00    -0.020 A 
ENDROOT
TORSDOF 0
ENDMDL
MODEL 4
REMARK VINA RESULT:    -5.271      5.561      9.420
REMARK INTER + INTRA:          -5.271
REMARK INTER:                  -5.271
REMARK INTRA:                   0.000
REMARK UNBOUND:                 0.000
REMARK  Name = /home/vital/Documents/PhD_2021/Malaria_codes/scripts/../data/pdbqt_ligands/ligand_423_temp.pdb
REMARK                            x       y       z     vdW  Elec       q    Type
REMARK                         _______ _______ _______ _____ _____    ______ ____
ROOT
ATOM      1  C1  UNL     1     151.237 152.037 165.021  0.00  0.00    -0.116 C 
ATOM      2  C2  UNL     1     150.769 153.132 165.179  0.00  0.00    -0.062 C 
ATOM      3  C3  UNL     1     150.193 154.480 165.364  0.00  0.00    +0.160 C 
ATOM      4  C4  UNL     1     149.870 154.739 166.847  0.00  0.00    -0.007 C 
ATOM      5  C5  UNL     1     151.092 154.800 167.759  0.00  0.00    -0.061 C 
ATOM      6  O1  UNL     1     151.111 155.492 164.929  0.00  0.00    -0.476 OA
ATOM      7  C6  UNL     1     151.116 155.855 163.612  0.00  0.00    +0.122 A 
ATOM      8  C7  UNL     1     150.501 155.174 162.564  0.00  0.00    -0.020 A 
ATOM      9  C8  UNL     1     150.593 155.663 161.255  0.00  0.00    -0.052 A 
ATOM     10  C9  UNL     1     151.311 156.834 160.971  0.00  0.00    -0.007 A 
ATOM     11  C10 UNL     1     151.394 157.389 159.561  0.00  0.00    +0.132 C 
ATOM     12  C11 UNL     1     150.134 158.174 159.221  0.00  0.00    +0.052 C 
ATOM     13  C12 UNL     1     150.280 158.716 157.828  0.00  0.00    +0.170 C 
ATOM     14  O2  UNL     1     149.759 159.767 157.471  0.00  0.00    -0.292 OA
ATOM     15  C13 UNL     1     151.035 157.878 156.875  0.00  0.00    +0.059 A 
ATOM     16  C14 UNL     1     151.123 158.234 155.526  0.00  0.00    -0.048 A 
ATOM     17  C15 UNL     1     151.798 157.398 154.636  0.00  0.00    -0.061 A 
ATOM     18  C16 UNL     1     152.373 156.209 155.093  0.00  0.00    -0.058 A 
ATOM     19  C17 UNL     1     152.283 155.860 156.441  0.00  0.00    -0.019 A 
ATOM     20  C18 UNL     1     151.628 156.702 157.337  0.00  0.00    +0.132 A 
ATOM     21  O3  UNL     1     151.584 156.297 158.644  0.00  0.00    -0.483 OA
ATOM     22  C19 UNL     1     151.932 157.510 162.030  0.00  0.00    -0.052 A 
ATOM     23  C20 UNL     1     151.837 157.019 163.334  0.00  0.00    -0.020 A 
ENDROOT
TORSDOF 0
ENDMDL
MODEL 5
REMARK VINA RESULT:    -5.254      4.766      8.346
REMARK INTER + INTRA:          -5.254
REMARK INTER:                  -5.254
REMARK INTRA:                   0.000
REMARK UNBOUND:                 0.000
REMARK  Name = /home/vital/Documents/PhD_2021/Malaria_codes/scripts/../data/pdbqt_ligands/ligand_423_temp.pdb
REMARK                            x       y       z     vdW  Elec       q    Type
REMARK                         _______ _______ _______ _____ _____    ______ ____
ROOT
ATOM      1  C1  UNL     1     147.024 151.212 162.309  0.00  0.00    -0.116 C 
ATOM      2  C2  UNL     1     147.469 152.225 162.779  0.00  0.00    -0.062 C 
ATOM      3  C3  UNL     1     148.019 153.472 163.349  0.00  0.00    +0.160 C 
ATOM      4  C4  UNL     1     147.811 153.516 164.874  0.00  0.00    -0.007 C 
ATOM      5  C5  UNL     1     148.589 152.456 165.648  0.00  0.00    -0.061 C 
ATOM      6  O1  UNL     1     149.425 153.574 163.092  0.00  0.00    -0.476 OA
ATOM      7  C6  UNL     1     149.842 154.125 161.912  0.00  0.00    +0.122 A 
ATOM      8  C7  UNL     1     149.052 154.376 160.793  0.00  0.00    -0.020 A 
ATOM      9  C8  UNL     1     149.616 154.944 159.644  0.00  0.00    -0.052 A 
ATOM     10  C9  UNL     1     150.983 155.258 159.591  0.00  0.00    -0.007 A 
ATOM     11  C10 UNL     1     151.601 155.899 158.362  0.00  0.00    +0.132 C 
ATOM     12  C11 UNL     1     151.337 157.399 158.353  0.00  0.00    +0.052 C 
ATOM     13  C12 UNL     1     151.987 157.982 157.131  0.00  0.00    +0.170 C 
ATOM     14  O2  UNL     1     152.424 159.128 157.099  0.00  0.00    -0.292 OA
ATOM     15  C13 UNL     1     152.015 157.123 155.931  0.00  0.00    +0.059 A 
ATOM     16  C14 UNL     1     152.487 157.616 154.711  0.00  0.00    -0.048 A 
ATOM     17  C15 UNL     1     152.453 156.800 153.580  0.00  0.00    -0.061 A 
ATOM     18  C16 UNL     1     151.944 155.503 153.668  0.00  0.00    -0.058 A 
ATOM     19  C17 UNL     1     151.475 155.015 154.890  0.00  0.00    -0.019 A 
ATOM     20  C18 UNL     1     151.526 155.820 156.026  0.00  0.00    +0.132 A 
ATOM     21  O3  UNL     1     151.054 155.272 157.189  0.00  0.00    -0.483 OA
ATOM     22  C19 UNL     1     151.772 154.996 160.719  0.00  0.00    -0.052 A 
ATOM     23  C20 UNL     1     151.204 154.430 161.864  0.00  0.00    -0.020 A 
ENDROOT
TORSDOF 0
ENDMDL
MODEL 6
REMARK VINA RESULT:    -5.154      6.037     12.002
REMARK INTER + INTRA:          -5.154
REMARK INTER:                  -5.154
REMARK INTRA:                   0.000
REMARK UNBOUND:                 0.000
REMARK  Name = /home/vital/Documents/PhD_2021/Malaria_codes/scripts/../data/pdbqt_ligands/ligand_423_temp.pdb
REMARK                            x       y       z     vdW  Elec       q    Type
REMARK                         _______ _______ _______ _____ _____    ______ ____
ROOT
ATOM      1  C1  UNL     1     152.485 160.257 158.427  0.00  0.00    -0.116 C 
ATOM      2  C2  UNL     1     151.818 159.422 157.880  0.00  0.00    -0.062 C 
ATOM      3  C3  UNL     1     150.994 158.391 157.215  0.00  0.00    +0.160 C 
ATOM      4  C4  UNL     1     151.031 158.563 155.686  0.00  0.00    -0.007 C 
ATOM      5  C5  UNL     1     152.398 158.318 155.054  0.00  0.00    -0.061 C 
ATOM      6  O1  UNL     1     151.476 157.076 157.522  0.00  0.00    -0.476 OA
ATOM      7  C6  UNL     1     151.033 156.461 158.659  0.00  0.00    +0.122 A 
ATOM      8  C7  UNL     1     150.349 157.063 159.712  0.00  0.00    -0.020 A 
ATOM      9  C8  UNL     1     149.956 156.306 160.823  0.00  0.00    -0.052 A 
ATOM     10  C9  UNL     1     150.253 154.937 160.905  0.00  0.00    -0.007 A 
ATOM     11  C10 UNL     1     149.809 154.101 162.091  0.00  0.00    +0.132 C 
ATOM     12  C11 UNL     1     148.349 153.695 161.940  0.00  0.00    +0.052 C 
ATOM     13  C12 UNL     1     147.971 152.854 163.126  0.00  0.00    +0.170 C 
ATOM     14  O2  UNL     1     147.126 151.967 163.064  0.00  0.00    -0.292 OA
ATOM     15  C13 UNL     1     148.625 153.194 164.406  0.00  0.00    +0.059 A 
ATOM     16  C14 UNL     1     148.253 152.553 165.590  0.00  0.00    -0.048 A 
ATOM     17  C15 UNL     1     148.848 152.931 166.794  0.00  0.00    -0.061 A 
ATOM     18  C16 UNL     1     149.805 153.949 166.812  0.00  0.00    -0.058 A 
ATOM     19  C17 UNL     1     150.174 154.585 165.625  0.00  0.00    -0.019 A 
ATOM     20  C18 UNL     1     149.596 154.196 164.418  0.00  0.00    +0.132 A 
ATOM     21  O3  UNL     1     150.012 154.861 163.294  0.00  0.00    -0.483 OA
ATOM     22  C19 UNL     1     150.947 154.341 159.844  0.00  0.00    -0.052 A 
ATOM     23  C20 UNL     1     151.335 155.100 158.737  0.00  0.00    -0.020 A 
ENDROOT
TORSDOF 0
ENDMDL
MODEL 7
REMARK VINA RESULT:    -4.839      7.917     14.411
REMARK INTER + INTRA:          -4.839
REMARK INTER:                  -4.839
REMARK INTRA:                   0.000
REMARK UNBOUND:                 0.000
REMARK  Name = /home/vital/Documents/PhD_2021/Malaria_codes/scripts/../data/pdbqt_ligands/ligand_423_temp.pdb
REMARK                            x       y       z     vdW  Elec       q    Type
REMARK                         _______ _______ _______ _____ _____    ______ ____
ROOT
ATOM      1  C1  UNL     1     152.162 160.817 157.938  0.00  0.00    -0.116 C 
ATOM      2  C2  UNL     1     151.497 159.923 158.388  0.00  0.00    -0.062 C 
ATOM      3  C3  UNL     1     150.682 158.827 158.951  0.00  0.00    +0.160 C 
ATOM      4  C4  UNL     1     150.051 157.983 157.829  0.00  0.00    -0.007 C 
ATOM      5  C5  UNL     1     151.054 157.213 156.976  0.00  0.00    -0.061 C 
ATOM      6  O1  UNL     1     151.485 157.956 159.759  0.00  0.00    -0.476 OA
ATOM      7  C6  UNL     1     151.675 158.268 161.076  0.00  0.00    +0.122 A 
ATOM      8  C7  UNL     1     151.387 159.486 161.686  0.00  0.00    -0.020 A 
ATOM      9  C8  UNL     1     151.639 159.668 163.052  0.00  0.00    -0.052 A 
ATOM     10  C9  UNL     1     152.194 158.638 163.826  0.00  0.00    -0.007 A 
ATOM     11  C10 UNL     1     152.445 158.812 165.313  0.00  0.00    +0.132 C 
ATOM     12  C11 UNL     1     151.158 158.603 166.100  0.00  0.00    +0.052 C 
ATOM     13  C12 UNL     1     151.470 158.766 167.560  0.00  0.00    +0.170 C 
ATOM     14  O2  UNL     1     150.858 158.164 168.436  0.00  0.00    -0.292 OA
ATOM     15  C13 UNL     1     152.517 159.750 167.901  0.00  0.00    +0.059 A 
ATOM     16  C14 UNL     1     152.795 160.063 169.235  0.00  0.00    -0.048 A 
ATOM     17  C15 UNL     1     153.752 161.034 169.528  0.00  0.00    -0.061 A 
ATOM     18  C16 UNL     1     154.420 161.692 168.493  0.00  0.00    -0.058 A 
ATOM     19  C17 UNL     1     154.140 161.374 167.163  0.00  0.00    -0.019 A 
ATOM     20  C18 UNL     1     153.199 160.390 166.866  0.00  0.00    +0.132 A 
ATOM     21  O3  UNL     1     152.981 160.127 165.540  0.00  0.00    -0.483 OA
ATOM     22  C19 UNL     1     152.486 157.417 163.203  0.00  0.00    -0.052 A 
ATOM     23  C20 UNL     1     152.232 157.241 161.840  0.00  0.00    -0.020 A 
ENDROOT
TORSDOF 0
ENDMDL
MODEL 8
REMARK VINA RESULT:    -4.553      7.825     14.511
REMARK INTER + INTRA:          -4.553
REMARK INTER:                  -4.553
REMARK INTRA:                   0.000
REMARK UNBOUND:                 0.000
REMARK  Name = /home/vital/Documents/PhD_2021/Malaria_codes/scripts/../data/pdbqt_ligands/ligand_423_temp.pdb
REMARK                            x       y       z     vdW  Elec       q    Type
REMARK                         _______ _______ _______ _____ _____    ______ ____
ROOT
ATOM      1  C1  UNL     1     149.163 154.024 160.727  0.00  0.00    -0.116 C 
ATOM      2  C2  UNL     1     150.049 154.748 160.362  0.00  0.00    -0.062 C 
ATOM      3  C3  UNL     1     151.140 155.642 159.922  0.00  0.00    +0.160 C 
ATOM      4  C4  UNL     1     151.445 155.439 158.427  0.00  0.00    -0.007 C 
ATOM      5  C5  UNL     1     150.313 155.851 157.489  0.00  0.00    -0.061 C 
ATOM      6  O1  UNL     1     150.783 157.017 160.117  0.00  0.00    -0.476 OA
ATOM      7  C6  UNL     1     151.023 157.594 161.332  0.00  0.00    +0.122 A 
ATOM      8  C7  UNL     1     151.348 156.931 162.513  0.00  0.00    -0.020 A 
ATOM      9  C8  UNL     1     151.565 157.654 163.692  0.00  0.00    -0.052 A 
ATOM     10  C9  UNL     1     151.447 159.052 163.713  0.00  0.00    -0.007 A 
ATOM     11  C10 UNL     1     151.707 159.850 164.978  0.00  0.00    +0.132 C 
ATOM     12  C11 UNL     1     153.202 160.052 165.184  0.00  0.00    +0.052 C 
ATOM     13  C12 UNL     1     153.398 160.863 166.433  0.00  0.00    +0.170 C 
ATOM     14  O2  UNL     1     154.346 161.626 166.582  0.00  0.00    -0.292 OA
ATOM     15  C13 UNL     1     152.418 160.644 167.516  0.00  0.00    +0.059 A 
ATOM     16  C14 UNL     1     152.583 161.258 168.761  0.00  0.00    -0.048 A 
ATOM     17  C15 UNL     1     151.672 160.992 169.784  0.00  0.00    -0.061 A 
ATOM     18  C16 UNL     1     150.609 160.114 169.564  0.00  0.00    -0.058 A 
ATOM     19  C17 UNL     1     150.449 159.505 168.318  0.00  0.00    -0.019 A 
ATOM     20  C18 UNL     1     151.345 159.783 167.287  0.00  0.00    +0.132 A 
ATOM     21  O3  UNL     1     151.121 159.154 166.091  0.00  0.00    -0.483 OA
ATOM     22  C19 UNL     1     151.113 159.712 162.522  0.00  0.00    -0.052 A 
ATOM     23  C20 UNL     1     150.899 158.985 161.348  0.00  0.00    -0.020 A 
ENDROOT
TORSDOF 0
ENDMDL
MODEL 9
REMARK VINA RESULT:    -4.191      7.288     11.597
REMARK INTER + INTRA:          -4.191
REMARK INTER:                  -4.191
REMARK INTRA:                   0.000
REMARK UNBOUND:                 0.000
REMARK  Name = /home/vital/Documents/PhD_2021/Malaria_codes/scripts/../data/pdbqt_ligands/ligand_423_temp.pdb
REMARK                            x       y       z     vdW  Elec       q    Type
REMARK                         _______ _______ _______ _____ _____    ______ ____
ROOT
ATOM      1  C1  UNL     1     148.109 160.378 167.498  0.00  0.00    -0.116 C 
ATOM      2  C2  UNL     1     148.709 161.339 167.097  0.00  0.00    -0.062 C 
ATOM      3  C3  UNL     1     149.446 162.516 166.595  0.00  0.00    +0.160 C 
ATOM      4  C4  UNL     1     149.671 163.542 167.721  0.00  0.00    -0.007 C 
ATOM      5  C5  UNL     1     150.588 163.060 168.841  0.00  0.00    -0.061 C 
ATOM      6  O1  UNL     1     150.730 162.135 166.083  0.00  0.00    -0.476 OA
ATOM      7  C6  UNL     1     150.826 161.728 164.782  0.00  0.00    +0.122 A 
ATOM      8  C7  UNL     1     149.768 161.389 163.942  0.00  0.00    -0.020 A 
ATOM      9  C8  UNL     1     150.016 160.982 162.625  0.00  0.00    -0.052 A 
ATOM     10  C9  UNL     1     151.326 160.895 162.130  0.00  0.00    -0.007 A 
ATOM     11  C10 UNL     1     151.606 160.483 160.697  0.00  0.00    +0.132 C 
ATOM     12  C11 UNL     1     151.413 161.664 159.755  0.00  0.00    +0.052 C 
ATOM     13  C12 UNL     1     151.723 161.205 158.359  0.00  0.00    +0.170 C 
ATOM     14  O2  UNL     1     152.182 161.956 157.504  0.00  0.00    -0.292 OA
ATOM     15  C13 UNL     1     151.381 159.805 158.038  0.00  0.00    +0.059 A 
ATOM     16  C14 UNL     1     151.517 159.318 156.735  0.00  0.00    -0.048 A 
ATOM     17  C15 UNL     1     151.137 158.006 156.448  0.00  0.00    -0.061 A 
ATOM     18  C16 UNL     1     150.618 157.192 157.456  0.00  0.00    -0.058 A 
ATOM     19  C17 UNL     1     150.487 157.683 158.757  0.00  0.00    -0.019 A 
ATOM     20  C18 UNL     1     150.883 158.986 159.052  0.00  0.00    +0.132 A 
ATOM     21  O3  UNL     1     150.730 159.397 160.349  0.00  0.00    -0.483 OA
ATOM     22  C19 UNL     1     152.385 161.232 162.984  0.00  0.00    -0.052 A 
ATOM     23  C20 UNL     1     152.133 161.638 164.298  0.00  0.00    -0.020 A 
ENDROOT
TORSDOF 0
ENDMDL
