MODEL 1
REMARK VINA RESULT:    -8.485      0.000      0.000
REMARK INTER + INTRA:          -8.485
REMARK INTER:                  -8.485
REMARK INTRA:                   0.000
REMARK UNBOUND:                 0.000
REMARK  Name = /home/vital/Documents/PhD_2021/Malaria_codes/scripts/../data/pdbqt_ligands/ligand_206_temp.pdb
REMARK                            x       y       z     vdW  Elec       q    Type
REMARK                         _______ _______ _______ _____ _____    ______ ____
ROOT
ATOM      1  C1  UNL     1     152.378 162.060 160.055  0.00  0.00    +0.079 C 
ATOM      2  O1  UNL     1     152.196 161.450 161.326  0.00  0.00    -0.491 OA
ATOM      3  C2  UNL     1     151.760 160.150 161.352  0.00  0.00    +0.164 A 
ATOM      4  C3  UNL     1     151.375 159.414 160.225  0.00  0.00    -0.009 A 
ATOM      5  C4  UNL     1     150.961 158.078 160.344  0.00  0.00    -0.020 A 
ATOM      6  C5  UNL     1     150.535 157.293 159.180  0.00  0.00    -0.051 C 
ATOM      7  C6  UNL     1     151.220 157.248 158.028  0.00  0.00    -0.014 C 
ATOM      8  C7  UNL     1     150.725 156.389 156.917  0.00  0.00    +0.186 C 
ATOM      9  O2  UNL     1     149.790 155.610 157.069  0.00  0.00    -0.287 OA
ATOM     10  C8  UNL     1     151.420 156.468 155.602  0.00  0.00    +0.022 A 
ATOM     11  C9  UNL     1     151.400 155.331 154.780  0.00  0.00    -0.050 A 
ATOM     12  C10 UNL     1     152.030 155.350 153.533  0.00  0.00    -0.043 A 
ATOM     13  C11 UNL     1     152.671 156.508 153.100  0.00  0.00    +0.041 A 
ATOM     14 CL1  UNL     1     153.445 156.535 151.565  0.00  0.00    -0.084 Cl
ATOM     15  C12 UNL     1     152.682 157.649 153.901  0.00  0.00    -0.043 A 
ATOM     16  C13 UNL     1     152.053 157.633 155.151  0.00  0.00    -0.050 A 
ATOM     17  C14 UNL     1     150.912 157.484 161.610  0.00  0.00    -0.032 A 
ATOM     18  C15 UNL     1     151.293 158.207 162.740  0.00  0.00    +0.087 A 
ATOM     19 CL2  UNL     1     151.239 157.417 164.275  0.00  0.00    -0.080 Cl
ATOM     20  C16 UNL     1     151.699 159.541 162.618  0.00  0.00    +0.180 A 
ATOM     21  O3  UNL     1     152.109 160.231 163.736  0.00  0.00    -0.490 OA
ATOM     22  C17 UNL     1     151.052 161.055 164.227  0.00  0.00    +0.079 C 
ENDROOT
TORSDOF 0
ENDMDL
MODEL 2
REMARK VINA RESULT:    -7.902      1.549      2.093
REMARK INTER + INTRA:          -7.902
REMARK INTER:                  -7.902
REMARK INTRA:                   0.000
REMARK UNBOUND:                 0.000
REMARK  Name = /home/vital/Documents/PhD_2021/Malaria_codes/scripts/../data/pdbqt_ligands/ligand_206_temp.pdb
REMARK                            x       y       z     vdW  Elec       q    Type
REMARK                         _______ _______ _______ _____ _____    ______ ____
ROOT
ATOM      1  C1  UNL     1     151.490 161.704 162.404  0.00  0.00    +0.079 C 
ATOM      2  O1  UNL     1     151.724 160.946 163.583  0.00  0.00    -0.491 OA
ATOM      3  C2  UNL     1     151.678 159.579 163.481  0.00  0.00    +0.164 A 
ATOM      4  C3  UNL     1     151.308 158.877 162.329  0.00  0.00    -0.009 A 
ATOM      5  C4  UNL     1     151.310 157.473 162.309  0.00  0.00    -0.020 A 
ATOM      6  C5  UNL     1     150.908 156.714 161.119  0.00  0.00    -0.051 C 
ATOM      7  C6  UNL     1     151.350 156.990 159.883  0.00  0.00    -0.014 C 
ATOM      8  C7  UNL     1     150.913 156.135 158.744  0.00  0.00    +0.186 C 
ATOM      9  O2  UNL     1     150.277 155.101 158.918  0.00  0.00    -0.287 OA
ATOM     10  C8  UNL     1     151.301 156.546 157.366  0.00  0.00    +0.022 A 
ATOM     11  C9  UNL     1     151.443 155.542 156.397  0.00  0.00    -0.050 A 
ATOM     12  C10 UNL     1     151.798 155.870 155.086  0.00  0.00    -0.043 A 
ATOM     13  C11 UNL     1     152.001 157.203 154.739  0.00  0.00    +0.041 A 
ATOM     14 CL1  UNL     1     152.435 157.610 153.125  0.00  0.00    -0.084 Cl
ATOM     15  C12 UNL     1     151.845 158.211 155.689  0.00  0.00    -0.043 A 
ATOM     16  C13 UNL     1     151.490 157.886 157.003  0.00  0.00    -0.050 A 
ATOM     17  C14 UNL     1     151.665 156.770 163.465  0.00  0.00    -0.032 A 
ATOM     18  C15 UNL     1     152.035 157.459 164.620  0.00  0.00    +0.087 A 
ATOM     19 CL2  UNL     1     152.490 156.542 166.011  0.00  0.00    -0.080 Cl
ATOM     20  C16 UNL     1     152.026 158.859 164.638  0.00  0.00    +0.180 A 
ATOM     21  O3  UNL     1     152.431 159.526 165.771  0.00  0.00    -0.490 OA
ATOM     22  C17 UNL     1     151.298 159.945 166.532  0.00  0.00    +0.079 C 
ENDROOT
TORSDOF 0
ENDMDL
MODEL 3
REMARK VINA RESULT:    -7.848      7.284     10.781
REMARK INTER + INTRA:          -7.848
REMARK INTER:                  -7.848
REMARK INTRA:                   0.000
REMARK UNBOUND:                 0.000
REMARK  Name = /home/vital/Documents/PhD_2021/Malaria_codes/scripts/../data/pdbqt_ligands/ligand_206_temp.pdb
REMARK                            x       y       z     vdW  Elec       q    Type
REMARK                         _______ _______ _______ _____ _____    ______ ____
ROOT
ATOM      1  C1  UNL     1     148.512 153.501 161.846  0.00  0.00    +0.079 C 
ATOM      2  O1  UNL     1     147.805 152.536 162.613  0.00  0.00    -0.491 OA
ATOM      3  C2  UNL     1     148.068 152.474 163.958  0.00  0.00    +0.164 A 
ATOM      4  C3  UNL     1     149.060 153.214 164.611  0.00  0.00    -0.009 A 
ATOM      5  C4  UNL     1     149.245 153.103 165.999  0.00  0.00    -0.020 A 
ATOM      6  C5  UNL     1     150.290 153.854 166.704  0.00  0.00    -0.051 C 
ATOM      7  C6  UNL     1     150.511 155.165 166.519  0.00  0.00    -0.014 C 
ATOM      8  C7  UNL     1     151.572 155.845 167.312  0.00  0.00    +0.186 C 
ATOM      9  O2  UNL     1     152.155 155.281 168.232  0.00  0.00    -0.287 OA
ATOM     10  C8  UNL     1     151.894 157.262 166.986  0.00  0.00    +0.022 A 
ATOM     11  C9  UNL     1     152.395 158.074 168.015  0.00  0.00    -0.050 A 
ATOM     12  C10 UNL     1     152.722 159.410 167.766  0.00  0.00    -0.043 A 
ATOM     13  C11 UNL     1     152.559 159.933 166.486  0.00  0.00    +0.041 A 
ATOM     14 CL1  UNL     1     152.962 161.576 166.175  0.00  0.00    -0.084 Cl
ATOM     15  C12 UNL     1     152.079 159.130 165.451  0.00  0.00    -0.043 A 
ATOM     16  C13 UNL     1     151.750 157.793 165.698  0.00  0.00    -0.050 A 
ATOM     17  C14 UNL     1     148.441 152.223 166.731  0.00  0.00    -0.032 A 
ATOM     18  C15 UNL     1     147.450 151.480 166.090  0.00  0.00    +0.087 A 
ATOM     19 CL2  UNL     1     146.468 150.428 167.046  0.00  0.00    -0.080 Cl
ATOM     20  C16 UNL     1     147.273 151.589 164.706  0.00  0.00    +0.180 A 
ATOM     21  O3  UNL     1     146.266 150.880 164.093  0.00  0.00    -0.490 OA
ATOM     22  C17 UNL     1     146.787 149.695 163.492  0.00  0.00    +0.079 C 
ENDROOT
TORSDOF 0
ENDMDL
MODEL 4
REMARK VINA RESULT:    -7.787      2.918      8.853
REMARK INTER + INTRA:          -7.787
REMARK INTER:                  -7.787
REMARK INTRA:                   0.000
REMARK UNBOUND:                 0.000
REMARK  Name = /home/vital/Documents/PhD_2021/Malaria_codes/scripts/../data/pdbqt_ligands/ligand_206_temp.pdb
REMARK                            x       y       z     vdW  Elec       q    Type
REMARK                         _______ _______ _______ _____ _____    ______ ____
ROOT
ATOM      1  C1  UNL     1     151.530 161.727 158.709  0.00  0.00    +0.079 C 
ATOM      2  O1  UNL     1     151.278 160.567 157.927  0.00  0.00    -0.491 OA
ATOM      3  C2  UNL     1     151.385 159.347 158.544  0.00  0.00    +0.164 A 
ATOM      4  C3  UNL     1     151.832 159.153 159.856  0.00  0.00    -0.009 A 
ATOM      5  C4  UNL     1     151.890 157.866 160.414  0.00  0.00    -0.020 A 
ATOM      6  C5  UNL     1     152.373 157.636 161.781  0.00  0.00    -0.051 C 
ATOM      7  C6  UNL     1     151.971 158.358 162.838  0.00  0.00    -0.014 C 
ATOM      8  C7  UNL     1     152.490 158.020 164.192  0.00  0.00    +0.186 C 
ATOM      9  O2  UNL     1     153.162 157.014 164.396  0.00  0.00    -0.287 OA
ATOM     10  C8  UNL     1     152.144 158.922 165.325  0.00  0.00    +0.022 A 
ATOM     11  C9  UNL     1     152.085 158.368 166.612  0.00  0.00    -0.050 A 
ATOM     12  C10 UNL     1     151.772 159.169 167.713  0.00  0.00    -0.043 A 
ATOM     13  C11 UNL     1     151.528 160.528 167.531  0.00  0.00    +0.041 A 
ATOM     14 CL1  UNL     1     151.145 161.517 168.885  0.00  0.00    -0.084 Cl
ATOM     15  C12 UNL     1     151.602 161.093 166.259  0.00  0.00    -0.043 A 
ATOM     16  C13 UNL     1     151.915 160.294 165.155  0.00  0.00    -0.050 A 
ATOM     17  C14 UNL     1     151.516 156.763 159.639  0.00  0.00    -0.032 A 
ATOM     18  C15 UNL     1     151.070 156.944 158.330  0.00  0.00    +0.087 A 
ATOM     19 CL2  UNL     1     150.596 155.551 157.426  0.00  0.00    -0.080 Cl
ATOM     20  C16 UNL     1     151.020 158.229 157.775  0.00  0.00    +0.180 A 
ATOM     21  O3  UNL     1     150.541 158.397 156.496  0.00  0.00    -0.490 OA
ATOM     22  C17 UNL     1     151.622 158.514 155.572  0.00  0.00    +0.079 C 
ENDROOT
TORSDOF 0
ENDMDL
MODEL 5
REMARK VINA RESULT:    -7.777      3.313      5.230
REMARK INTER + INTRA:          -7.777
REMARK INTER:                  -7.777
REMARK INTRA:                   0.000
REMARK UNBOUND:                 0.000
REMARK  Name = /home/vital/Documents/PhD_2021/Malaria_codes/scripts/../data/pdbqt_ligands/ligand_206_temp.pdb
REMARK                            x       y       z     vdW  Elec       q    Type
REMARK                         _______ _______ _______ _____ _____    ______ ____
ROOT
ATOM      1  C1  UNL     1     152.465 157.851 165.964  0.00  0.00    +0.079 C 
ATOM      2  O1  UNL     1     151.967 159.003 166.632  0.00  0.00    -0.491 OA
ATOM      3  C2  UNL     1     151.526 160.047 165.860  0.00  0.00    +0.164 A 
ATOM      4  C3  UNL     1     151.634 160.109 164.466  0.00  0.00    -0.009 A 
ATOM      5  C4  UNL     1     151.135 161.211 163.753  0.00  0.00    -0.020 A 
ATOM      6  C5  UNL     1     151.252 161.307 162.293  0.00  0.00    -0.051 C 
ATOM      7  C6  UNL     1     150.946 160.302 161.460  0.00  0.00    -0.014 C 
ATOM      8  C7  UNL     1     151.062 160.512 159.990  0.00  0.00    +0.186 C 
ATOM      9  O2  UNL     1     151.290 161.617 159.510  0.00  0.00    -0.287 OA
ATOM     10  C8  UNL     1     150.858 159.341 159.093  0.00  0.00    +0.022 A 
ATOM     11  C9  UNL     1     150.377 159.582 157.797  0.00  0.00    -0.050 A 
ATOM     12  C10 UNL     1     150.173 158.523 156.910  0.00  0.00    -0.043 A 
ATOM     13  C11 UNL     1     150.458 157.220 157.313  0.00  0.00    +0.041 A 
ATOM     14 CL1  UNL     1     150.210 155.914 156.222  0.00  0.00    -0.084 Cl
ATOM     15  C12 UNL     1     150.953 156.970 158.592  0.00  0.00    -0.043 A 
ATOM     16  C13 UNL     1     151.158 158.029 159.483  0.00  0.00    -0.050 A 
ATOM     17  C14 UNL     1     150.544 162.270 164.451  0.00  0.00    -0.032 A 
ATOM     18  C15 UNL     1     150.432 162.220 165.840  0.00  0.00    +0.087 A 
ATOM     19 CL2  UNL     1     149.670 163.542 166.649  0.00  0.00    -0.080 Cl
ATOM     20  C16 UNL     1     150.936 161.122 166.547  0.00  0.00    +0.180 A 
ATOM     21  O3  UNL     1     150.784 161.067 167.914  0.00  0.00    -0.490 OA
ATOM     22  C17 UNL     1     151.985 161.482 168.564  0.00  0.00    +0.079 C 
ENDROOT
TORSDOF 0
ENDMDL
MODEL 6
REMARK VINA RESULT:    -7.579      2.574      9.097
REMARK INTER + INTRA:          -7.579
REMARK INTER:                  -7.579
REMARK INTRA:                   0.000
REMARK UNBOUND:                 0.000
REMARK  Name = /home/vital/Documents/PhD_2021/Malaria_codes/scripts/../data/pdbqt_ligands/ligand_206_temp.pdb
REMARK                            x       y       z     vdW  Elec       q    Type
REMARK                         _______ _______ _______ _____ _____    ______ ____
ROOT
ATOM      1  C1  UNL     1     151.385 154.509 160.421  0.00  0.00    +0.079 C 
ATOM      2  O1  UNL     1     151.407 155.065 159.113  0.00  0.00    -0.491 OA
ATOM      3  C2  UNL     1     151.299 156.428 158.997  0.00  0.00    +0.164 A 
ATOM      4  C3  UNL     1     151.057 157.302 160.063  0.00  0.00    -0.009 A 
ATOM      5  C4  UNL     1     150.982 158.688 159.855  0.00  0.00    -0.020 A 
ATOM      6  C5  UNL     1     150.710 159.623 160.953  0.00  0.00    -0.051 C 
ATOM      7  C6  UNL     1     151.338 159.574 162.138  0.00  0.00    -0.014 C 
ATOM      8  C7  UNL     1     151.020 160.594 163.175  0.00  0.00    +0.186 C 
ATOM      9  O2  UNL     1     150.307 161.562 162.934  0.00  0.00    -0.287 OA
ATOM     10  C8  UNL     1     151.621 160.433 164.528  0.00  0.00    +0.022 A 
ATOM     11  C9  UNL     1     151.842 161.590 165.290  0.00  0.00    -0.050 A 
ATOM     12  C10 UNL     1     152.397 161.499 166.569  0.00  0.00    -0.043 A 
ATOM     13  C11 UNL     1     152.722 160.251 167.093  0.00  0.00    +0.041 A 
ATOM     14 CL1  UNL     1     153.403 160.135 168.668  0.00  0.00    -0.084 Cl
ATOM     15  C12 UNL     1     152.490 159.093 166.352  0.00  0.00    -0.043 A 
ATOM     16  C13 UNL     1     151.935 159.181 165.071  0.00  0.00    -0.050 A 
ATOM     17  C14 UNL     1     151.129 159.198 158.560  0.00  0.00    -0.032 A 
ATOM     18  C15 UNL     1     151.370 158.336 157.490  0.00  0.00    +0.087 A 
ATOM     19 CL2  UNL     1     151.570 159.020 155.917  0.00  0.00    -0.080 Cl
ATOM     20  C16 UNL     1     151.437 156.954 157.701  0.00  0.00    +0.180 A 
ATOM     21  O3  UNL     1     151.715 156.119 156.644  0.00  0.00    -0.490 OA
ATOM     22  C17 UNL     1     150.511 155.541 156.137  0.00  0.00    +0.079 C 
ENDROOT
TORSDOF 0
ENDMDL
MODEL 7
REMARK VINA RESULT:    -7.509      2.763      4.093
REMARK INTER + INTRA:          -7.509
REMARK INTER:                  -7.509
REMARK INTRA:                   0.000
REMARK UNBOUND:                 0.000
REMARK  Name = /home/vital/Documents/PhD_2021/Malaria_codes/scripts/../data/pdbqt_ligands/ligand_206_temp.pdb
REMARK                            x       y       z     vdW  Elec       q    Type
REMARK                         _______ _______ _______ _____ _____    ______ ____
ROOT
ATOM      1  C1  UNL     1     151.687 161.514 164.548  0.00  0.00    +0.079 C 
ATOM      2  O1  UNL     1     152.020 160.716 165.676  0.00  0.00    -0.491 OA
ATOM      3  C2  UNL     1     151.956 159.354 165.534  0.00  0.00    +0.164 A 
ATOM      4  C3  UNL     1     151.480 158.691 164.397  0.00  0.00    -0.009 A 
ATOM      5  C4  UNL     1     151.470 157.289 164.332  0.00  0.00    -0.020 A 
ATOM      6  C5  UNL     1     150.959 156.571 163.158  0.00  0.00    -0.051 C 
ATOM      7  C6  UNL     1     151.292 156.886 161.897  0.00  0.00    -0.014 C 
ATOM      8  C7  UNL     1     150.749 156.071 160.775  0.00  0.00    +0.186 C 
ATOM      9  O2  UNL     1     150.123 155.035 160.971  0.00  0.00    -0.287 OA
ATOM     10  C8  UNL     1     151.015 156.526 159.382  0.00  0.00    +0.022 A 
ATOM     11  C9  UNL     1     151.063 155.553 158.372  0.00  0.00    -0.050 A 
ATOM     12  C10 UNL     1     151.303 155.923 157.046  0.00  0.00    -0.043 A 
ATOM     13  C11 UNL     1     151.483 157.266 156.725  0.00  0.00    +0.041 A 
ATOM     14 CL1  UNL     1     151.775 157.724 155.094  0.00  0.00    -0.084 Cl
ATOM     15  C12 UNL     1     151.420 158.243 157.718  0.00  0.00    -0.043 A 
ATOM     16  C13 UNL     1     151.181 157.876 159.047  0.00  0.00    -0.050 A 
ATOM     17  C14 UNL     1     151.922 156.547 165.429  0.00  0.00    -0.032 A 
ATOM     18  C15 UNL     1     152.398 157.196 166.568  0.00  0.00    +0.087 A 
ATOM     19 CL2  UNL     1     152.968 156.232 167.882  0.00  0.00    -0.080 Cl
ATOM     20  C16 UNL     1     152.400 158.594 166.631  0.00  0.00    +0.180 A 
ATOM     21  O3  UNL     1     152.908 159.222 167.745  0.00  0.00    -0.490 OA
ATOM     22  C17 UNL     1     151.851 159.620 168.617  0.00  0.00    +0.079 C 
ENDROOT
TORSDOF 0
ENDMDL
MODEL 8
REMARK VINA RESULT:    -7.501      3.545      9.914
REMARK INTER + INTRA:          -7.501
REMARK INTER:                  -7.501
REMARK INTRA:                   0.000
REMARK UNBOUND:                 0.000
REMARK  Name = /home/vital/Documents/PhD_2021/Malaria_codes/scripts/../data/pdbqt_ligands/ligand_206_temp.pdb
REMARK                            x       y       z     vdW  Elec       q    Type
REMARK                         _______ _______ _______ _____ _____    ______ ____
ROOT
ATOM      1  C1  UNL     1     151.414 156.581 161.430  0.00  0.00    +0.079 C 
ATOM      2  O1  UNL     1     151.409 157.267 160.185  0.00  0.00    -0.491 OA
ATOM      3  C2  UNL     1     151.408 158.638 160.212  0.00  0.00    +0.164 A 
ATOM      4  C3  UNL     1     151.299 159.413 161.373  0.00  0.00    -0.009 A 
ATOM      5  C4  UNL     1     151.329 160.815 161.307  0.00  0.00    -0.020 A 
ATOM      6  C5  UNL     1     151.198 161.649 162.508  0.00  0.00    -0.051 C 
ATOM      7  C6  UNL     1     151.885 161.429 163.639  0.00  0.00    -0.014 C 
ATOM      8  C7  UNL     1     151.710 162.356 164.791  0.00  0.00    +0.186 C 
ATOM      9  O2  UNL     1     151.069 163.397 164.693  0.00  0.00    -0.287 OA
ATOM     10  C8  UNL     1     152.371 162.010 166.080  0.00  0.00    +0.022 A 
ATOM     11  C9  UNL     1     152.730 163.062 166.937  0.00  0.00    -0.050 A 
ATOM     12  C10 UNL     1     153.346 162.796 168.162  0.00  0.00    -0.043 A 
ATOM     13  C11 UNL     1     153.595 161.478 168.539  0.00  0.00    +0.041 A 
ATOM     14 CL1  UNL     1     154.350 161.148 170.048  0.00  0.00    -0.084 Cl
ATOM     15  C12 UNL     1     153.226 160.425 167.703  0.00  0.00    -0.043 A 
ATOM     16  C13 UNL     1     152.610 160.688 166.475  0.00  0.00    -0.050 A 
ATOM     17  C14 UNL     1     151.446 161.443 160.063  0.00  0.00    -0.032 A 
ATOM     18  C15 UNL     1     151.554 160.681 158.899  0.00  0.00    +0.087 A 
ATOM     19 CL2  UNL     1     151.723 161.507 157.392  0.00  0.00    -0.080 Cl
ATOM     20  C16 UNL     1     151.518 159.283 158.968  0.00  0.00    +0.180 A 
ATOM     21  O3  UNL     1     151.665 158.544 157.817  0.00  0.00    -0.490 OA
ATOM     22  C17 UNL     1     150.392 158.117 157.334  0.00  0.00    +0.079 C 
ENDROOT
TORSDOF 0
ENDMDL
