MODEL 1
REMARK VINA RESULT:    -5.575      0.000      0.000
REMARK INTER + INTRA:          -5.575
REMARK INTER:                  -5.575
REMARK INTRA:                   0.000
REMARK UNBOUND:                 0.000
REMARK  Name = /home/vital/Documents/PhD_2021/Malaria_codes/scripts/../data/pdbqt_ligands/ligand_240_temp.pdb
REMARK                            x       y       z     vdW  Elec       q    Type
REMARK                         _______ _______ _______ _____ _____    ______ ____
ROOT
ATOM      1  C   UNL     1     157.456 152.095 148.957  0.00  0.00    -0.047 C 
ATOM      2  C   UNL     1     157.425 152.761 150.296  0.00  0.00    -0.087 C 
ATOM      3  C   UNL     1     156.536 153.645 150.778  0.00  0.00    -0.066 C 
ATOM      4  C   UNL     1     155.375 154.160 150.087  0.00  0.00    -0.062 C 
ATOM      5  C   UNL     1     154.473 155.039 150.556  0.00  0.00    -0.060 C 
ATOM      6  C   UNL     1     154.460 155.682 151.852  0.00  0.00    -0.044 C 
ATOM      7  C   UNL     1     153.503 156.535 152.244  0.00  0.00    +0.029 C 
ATOM      8  N   UNL     1     153.544 157.132 153.474  0.00  0.00    -0.244 NA
ATOM      9  C   UNL     1     152.456 157.707 153.864  0.00  0.00    +0.118 C 
ATOM     10  N   UNL     1     152.414 158.353 155.064  0.00  0.00    -0.226 N 
ATOM     11  C   UNL     1     152.449 157.651 156.160  0.00  0.00    +0.094 C 
ATOM     12  C   UNL     1     152.507 156.132 156.174  0.00  0.00    -0.009 C 
ATOM     13  N   UNL     1     152.439 158.266 157.391  0.00  0.00    -0.330 N 
ATOM     14  C   UNL     1     152.086 159.667 157.563  0.00  0.00    +0.033 C 
ATOM     15  C   UNL     1     152.393 160.097 159.000  0.00  0.00    +0.060 C 
ATOM     16  O   UNL     1     151.650 159.290 159.918  0.00  0.00    -0.393 OA
ATOM     17  H   UNL     1     152.357 159.335 155.102  0.00  0.00    +0.000 HD
ATOM     18  H   UNL     1     152.680 157.737 158.186  0.00  0.00    +0.000 HD
ATOM     19  H   UNL     1     150.700 159.399 159.750  0.00  0.00    +0.000 HD
ENDROOT
TORSDOF 0
ENDMDL
MODEL 2
REMARK VINA RESULT:    -4.848      1.497      2.045
REMARK INTER + INTRA:          -4.848
REMARK INTER:                  -4.848
REMARK INTRA:                   0.000
REMARK UNBOUND:                 0.000
REMARK  Name = /home/vital/Documents/PhD_2021/Malaria_codes/scripts/../data/pdbqt_ligands/ligand_240_temp.pdb
REMARK                            x       y       z     vdW  Elec       q    Type
REMARK                         _______ _______ _______ _____ _____    ______ ____
ROOT
ATOM      1  C   UNL     1     156.576 153.743 149.754  0.00  0.00    -0.047 C 
ATOM      2  C   UNL     1     156.483 154.167 151.185  0.00  0.00    -0.087 C 
ATOM      3  C   UNL     1     155.546 154.920 151.783  0.00  0.00    -0.066 C 
ATOM      4  C   UNL     1     154.381 155.501 151.154  0.00  0.00    -0.062 C 
ATOM      5  C   UNL     1     153.430 156.251 151.738  0.00  0.00    -0.060 C 
ATOM      6  C   UNL     1     153.358 156.660 153.124  0.00  0.00    -0.044 C 
ATOM      7  C   UNL     1     152.356 157.397 153.625  0.00  0.00    +0.029 C 
ATOM      8  N   UNL     1     152.341 157.774 154.941  0.00  0.00    -0.244 NA
ATOM      9  C   UNL     1     151.220 158.231 155.388  0.00  0.00    +0.118 C 
ATOM     10  N   UNL     1     151.120 158.659 156.679  0.00  0.00    -0.226 N 
ATOM     11  C   UNL     1     151.159 157.781 157.639  0.00  0.00    +0.094 C 
ATOM     12  C   UNL     1     151.283 156.285 157.396  0.00  0.00    -0.009 C 
ATOM     13  N   UNL     1     151.093 158.174 158.957  0.00  0.00    -0.330 N 
ATOM     14  C   UNL     1     150.676 159.510 159.354  0.00  0.00    +0.033 C 
ATOM     15  C   UNL     1     150.928 159.698 160.853  0.00  0.00    +0.060 C 
ATOM     16  O   UNL     1     150.199 158.717 161.596  0.00  0.00    -0.393 OA
ATOM     17  H   UNL     1     151.020 159.617 156.882  0.00  0.00    +0.000 HD
ATOM     18  H   UNL     1     151.338 157.526 159.657  0.00  0.00    +0.000 HD
ATOM     19  H   UNL     1     149.250 158.817 161.419  0.00  0.00    +0.000 HD
ENDROOT
TORSDOF 0
ENDMDL
MODEL 3
REMARK VINA RESULT:    -4.594      4.685      9.082
REMARK INTER + INTRA:          -4.594
REMARK INTER:                  -4.594
REMARK INTRA:                   0.000
REMARK UNBOUND:                 0.000
REMARK  Name = /home/vital/Documents/PhD_2021/Malaria_codes/scripts/../data/pdbqt_ligands/ligand_240_temp.pdb
REMARK                            x       y       z     vdW  Elec       q    Type
REMARK                         _______ _______ _______ _____ _____    ______ ____
ROOT
ATOM      1  C   UNL     1     150.779 156.552 159.084  0.00  0.00    -0.047 C 
ATOM      2  C   UNL     1     151.304 155.499 158.161  0.00  0.00    -0.087 C 
ATOM      3  C   UNL     1     151.837 155.640 156.936  0.00  0.00    -0.066 C 
ATOM      4  C   UNL     1     152.032 156.882 156.222  0.00  0.00    -0.062 C 
ATOM      5  C   UNL     1     152.569 157.041 155.000  0.00  0.00    -0.060 C 
ATOM      6  C   UNL     1     153.066 156.010 154.114  0.00  0.00    -0.044 C 
ATOM      7  C   UNL     1     153.607 156.266 152.914  0.00  0.00    +0.029 C 
ATOM      8  N   UNL     1     154.047 155.254 152.104  0.00  0.00    -0.244 NA
ATOM      9  C   UNL     1     154.795 155.606 151.112  0.00  0.00    +0.118 C 
ATOM     10  N   UNL     1     155.254 154.668 150.235  0.00  0.00    -0.226 N 
ATOM     11  C   UNL     1     156.160 153.822 150.633  0.00  0.00    +0.094 C 
ATOM     12  C   UNL     1     156.759 153.840 152.030  0.00  0.00    -0.009 C 
ATOM     13  N   UNL     1     156.628 152.841 149.788  0.00  0.00    -0.330 N 
ATOM     14  C   UNL     1     156.391 152.867 148.353  0.00  0.00    +0.033 C 
ATOM     15  C   UNL     1     156.836 151.536 147.740  0.00  0.00    +0.060 C 
ATOM     16  O   UNL     1     158.225 151.319 148.002  0.00  0.00    -0.393 OA
ATOM     17  H   UNL     1     154.907 154.632 149.314  0.00  0.00    +0.000 HD
ATOM     18  H   UNL     1     157.142 152.093 150.170  0.00  0.00    +0.000 HD
ATOM     19  H   UNL     1     158.745 152.038 147.610  0.00  0.00    +0.000 HD
ENDROOT
TORSDOF 0
ENDMDL
MODEL 4
REMARK VINA RESULT:    -4.016      4.162      6.452
REMARK INTER + INTRA:          -4.016
REMARK INTER:                  -4.016
REMARK INTRA:                   0.000
REMARK UNBOUND:                 0.000
REMARK  Name = /home/vital/Documents/PhD_2021/Malaria_codes/scripts/../data/pdbqt_ligands/ligand_240_temp.pdb
REMARK                            x       y       z     vdW  Elec       q    Type
REMARK                         _______ _______ _______ _____ _____    ______ ____
ROOT
ATOM      1  C   UNL     1     151.668 154.864 152.710  0.00  0.00    -0.047 C 
ATOM      2  C   UNL     1     151.644 154.955 154.202  0.00  0.00    -0.087 C 
ATOM      3  C   UNL     1     151.727 156.044 154.983  0.00  0.00    -0.066 C 
ATOM      4  C   UNL     1     151.858 157.413 154.536  0.00  0.00    -0.062 C 
ATOM      5  C   UNL     1     151.937 158.515 155.303  0.00  0.00    -0.060 C 
ATOM      6  C   UNL     1     151.920 158.586 156.748  0.00  0.00    -0.044 C 
ATOM      7  C   UNL     1     151.984 159.737 157.431  0.00  0.00    +0.029 C 
ATOM      8  N   UNL     1     151.983 159.752 158.799  0.00  0.00    -0.244 NA
ATOM      9  C   UNL     1     151.765 160.897 159.355  0.00  0.00    +0.118 C 
ATOM     10  N   UNL     1     151.776 161.012 160.714  0.00  0.00    -0.226 N 
ATOM     11  C   UNL     1     150.805 160.482 161.399  0.00  0.00    +0.094 C 
ATOM     12  C   UNL     1     149.632 159.757 160.758  0.00  0.00    -0.009 C 
ATOM     13  N   UNL     1     150.793 160.549 162.774  0.00  0.00    -0.330 N 
ATOM     14  C   UNL     1     151.660 161.449 163.520  0.00  0.00    +0.033 C 
ATOM     15  C   UNL     1     151.571 161.121 165.012  0.00  0.00    +0.060 C 
ATOM     16  O   UNL     1     150.220 161.260 165.462  0.00  0.00    -0.393 OA
ATOM     17  H   UNL     1     152.507 161.490 161.170  0.00  0.00    +0.000 HD
ATOM     18  H   UNL     1     150.176 159.966 163.272  0.00  0.00    +0.000 HD
ATOM     19  H   UNL     1     149.924 162.173 165.319  0.00  0.00    +0.000 HD
ENDROOT
TORSDOF 0
ENDMDL
MODEL 5
REMARK VINA RESULT:    -3.987      5.103      7.210
REMARK INTER + INTRA:          -3.987
REMARK INTER:                  -3.987
REMARK INTRA:                   0.000
REMARK UNBOUND:                 0.000
REMARK  Name = /home/vital/Documents/PhD_2021/Malaria_codes/scripts/../data/pdbqt_ligands/ligand_240_temp.pdb
REMARK                            x       y       z     vdW  Elec       q    Type
REMARK                         _______ _______ _______ _____ _____    ______ ____
ROOT
ATOM      1  C   UNL     1     153.092 157.077 152.138  0.00  0.00    -0.047 C 
ATOM      2  C   UNL     1     153.188 156.262 153.388  0.00  0.00    -0.087 C 
ATOM      3  C   UNL     1     152.673 156.515 154.602  0.00  0.00    -0.066 C 
ATOM      4  C   UNL     1     151.884 157.667 154.977  0.00  0.00    -0.062 C 
ATOM      5  C   UNL     1     151.356 157.933 156.185  0.00  0.00    -0.060 C 
ATOM      6  C   UNL     1     151.464 157.138 157.388  0.00  0.00    -0.044 C 
ATOM      7  C   UNL     1     150.884 157.473 158.549  0.00  0.00    +0.029 C 
ATOM      8  N   UNL     1     151.030 156.696 159.667  0.00  0.00    -0.244 NA
ATOM      9  C   UNL     1     150.220 156.945 160.641  0.00  0.00    +0.118 C 
ATOM     10  N   UNL     1     150.312 156.240 161.806  0.00  0.00    -0.226 N 
ATOM     11  C   UNL     1     149.958 154.988 161.814  0.00  0.00    +0.094 C 
ATOM     12  C   UNL     1     149.414 154.268 160.591  0.00  0.00    -0.009 C 
ATOM     13  N   UNL     1     150.064 154.234 162.961  0.00  0.00    -0.330 N 
ATOM     14  C   UNL     1     150.273 154.829 164.272  0.00  0.00    +0.033 C 
ATOM     15  C   UNL     1     150.576 153.726 165.289  0.00  0.00    +0.060 C 
ATOM     16  O   UNL     1     149.487 152.800 165.341  0.00  0.00    -0.393 OA
ATOM     17  H   UNL     1     150.642 156.673 162.626  0.00  0.00    +0.000 HD
ATOM     18  H   UNL     1     149.997 153.254 162.891  0.00  0.00    +0.000 HD
ATOM     19  H   UNL     1     148.679 153.266 165.609  0.00  0.00    +0.000 HD
ENDROOT
TORSDOF 0
ENDMDL
MODEL 6
REMARK VINA RESULT:    -3.911      5.582      7.547
REMARK INTER + INTRA:          -3.911
REMARK INTER:                  -3.911
REMARK INTRA:                   0.000
REMARK UNBOUND:                 0.000
REMARK  Name = /home/vital/Documents/PhD_2021/Malaria_codes/scripts/../data/pdbqt_ligands/ligand_240_temp.pdb
REMARK                            x       y       z     vdW  Elec       q    Type
REMARK                         _______ _______ _______ _____ _____    ______ ____
ROOT
ATOM      1  C   UNL     1     152.663 156.205 152.301  0.00  0.00    -0.047 C 
ATOM      2  C   UNL     1     152.641 155.339 153.519  0.00  0.00    -0.087 C 
ATOM      3  C   UNL     1     152.265 155.651 154.770  0.00  0.00    -0.066 C 
ATOM      4  C   UNL     1     151.780 156.935 155.226  0.00  0.00    -0.062 C 
ATOM      5  C   UNL     1     151.394 157.263 156.471  0.00  0.00    -0.060 C 
ATOM      6  C   UNL     1     151.385 156.415 157.643  0.00  0.00    -0.044 C 
ATOM      7  C   UNL     1     150.961 156.824 158.848  0.00  0.00    +0.029 C 
ATOM      8  N   UNL     1     150.989 155.989 159.931  0.00  0.00    -0.244 NA
ATOM      9  C   UNL     1     150.311 156.373 160.962  0.00  0.00    +0.118 C 
ATOM     10  N   UNL     1     150.306 155.618 162.098  0.00  0.00    -0.226 N 
ATOM     11  C   UNL     1     149.678 154.478 162.095  0.00  0.00    +0.094 C 
ATOM     12  C   UNL     1     148.919 153.949 160.889  0.00  0.00    -0.009 C 
ATOM     13  N   UNL     1     149.674 153.673 163.211  0.00  0.00    -0.330 N 
ATOM     14  C   UNL     1     150.085 154.152 164.522  0.00  0.00    +0.033 C 
ATOM     15  C   UNL     1     150.185 152.968 165.488  0.00  0.00    +0.060 C 
ATOM     16  O   UNL     1     148.919 152.309 165.583  0.00  0.00    -0.393 OA
ATOM     17  H   UNL     1     150.770 155.931 162.908  0.00  0.00    +0.000 HD
ATOM     18  H   UNL     1     149.382 152.737 163.118  0.00  0.00    +0.000 HD
ATOM     19  H   UNL     1     148.253 152.933 165.914  0.00  0.00    +0.000 HD
ENDROOT
TORSDOF 0
ENDMDL
MODEL 7
REMARK VINA RESULT:    -3.908      5.291      8.072
REMARK INTER + INTRA:          -3.908
REMARK INTER:                  -3.908
REMARK INTRA:                   0.000
REMARK UNBOUND:                 0.000
REMARK  Name = /home/vital/Documents/PhD_2021/Malaria_codes/scripts/../data/pdbqt_ligands/ligand_240_temp.pdb
REMARK                            x       y       z     vdW  Elec       q    Type
REMARK                         _______ _______ _______ _____ _____    ______ ____
ROOT
ATOM      1  C   UNL     1     152.366 157.383 153.438  0.00  0.00    -0.047 C 
ATOM      2  C   UNL     1     152.156 158.014 154.778  0.00  0.00    -0.087 C 
ATOM      3  C   UNL     1     151.942 157.423 155.965  0.00  0.00    -0.066 C 
ATOM      4  C   UNL     1     151.869 156.001 156.215  0.00  0.00    -0.062 C 
ATOM      5  C   UNL     1     151.662 155.393 157.397  0.00  0.00    -0.060 C 
ATOM      6  C   UNL     1     151.452 156.018 158.684  0.00  0.00    -0.044 C 
ATOM      7  C   UNL     1     151.272 155.328 159.820  0.00  0.00    +0.029 C 
ATOM      8  N   UNL     1     151.060 155.965 161.012  0.00  0.00    -0.244 NA
ATOM      9  C   UNL     1     151.178 155.238 162.073  0.00  0.00    +0.118 C 
ATOM     10  N   UNL     1     150.955 155.782 163.304  0.00  0.00    -0.226 N 
ATOM     11  C   UNL     1     151.812 156.637 163.780  0.00  0.00    +0.094 C 
ATOM     12  C   UNL     1     153.077 157.047 163.043  0.00  0.00    -0.009 C 
ATOM     13  N   UNL     1     151.609 157.232 165.005  0.00  0.00    -0.330 N 
ATOM     14  C   UNL     1     150.628 156.739 165.960  0.00  0.00    +0.033 C 
ATOM     15  C   UNL     1     150.487 157.742 167.108  0.00  0.00    +0.060 C 
ATOM     16  O   UNL     1     151.750 157.923 167.754  0.00  0.00    -0.393 OA
ATOM     17  H   UNL     1     150.157 155.531 163.824  0.00  0.00    +0.000 HD
ATOM     18  H   UNL     1     152.147 158.021 165.243  0.00  0.00    +0.000 HD
ATOM     19  H   UNL     1     152.055 157.074 168.111  0.00  0.00    +0.000 HD
ENDROOT
TORSDOF 0
ENDMDL
MODEL 8
REMARK VINA RESULT:    -3.590      8.597     12.357
REMARK INTER + INTRA:          -3.590
REMARK INTER:                  -3.590
REMARK INTRA:                   0.000
REMARK UNBOUND:                 0.000
REMARK  Name = /home/vital/Documents/PhD_2021/Malaria_codes/scripts/../data/pdbqt_ligands/ligand_240_temp.pdb
REMARK                            x       y       z     vdW  Elec       q    Type
REMARK                         _______ _______ _______ _____ _____    ______ ____
ROOT
ATOM      1  C   UNL     1     150.418 157.356 157.941  0.00  0.00    -0.047 C 
ATOM      2  C   UNL     1     150.786 157.271 159.388  0.00  0.00    -0.087 C 
ATOM      3  C   UNL     1     150.661 158.203 160.347  0.00  0.00    -0.066 C 
ATOM      4  C   UNL     1     150.124 159.536 160.184  0.00  0.00    -0.062 C 
ATOM      5  C   UNL     1     149.987 160.479 161.132  0.00  0.00    -0.060 C 
ATOM      6  C   UNL     1     150.355 160.384 162.529  0.00  0.00    -0.044 C 
ATOM      7  C   UNL     1     150.162 161.375 163.411  0.00  0.00    +0.029 C 
ATOM      8  N   UNL     1     150.543 161.244 164.719  0.00  0.00    -0.244 NA
ATOM      9  C   UNL     1     150.069 162.122 165.539  0.00  0.00    +0.118 C 
ATOM     10  N   UNL     1     150.420 162.088 166.857  0.00  0.00    -0.226 N 
ATOM     11  C   UNL     1     149.964 161.126 167.605  0.00  0.00    +0.094 C 
ATOM     12  C   UNL     1     149.031 160.041 167.092  0.00  0.00    -0.009 C 
ATOM     13  N   UNL     1     150.318 161.037 168.933  0.00  0.00    -0.330 N 
ATOM     14  C   UNL     1     150.945 162.138 169.650  0.00  0.00    +0.033 C 
ATOM     15  C   UNL     1     151.416 161.648 171.022  0.00  0.00    +0.060 C 
ATOM     16  O   UNL     1     150.303 161.150 171.769  0.00  0.00    -0.393 OA
ATOM     17  H   UNL     1     151.008 162.781 167.236  0.00  0.00    +0.000 HD
ATOM     18  H   UNL     1     150.140 160.198 169.416  0.00  0.00    +0.000 HD
ATOM     19  H   UNL     1     149.652 161.859 171.891  0.00  0.00    +0.000 HD
ENDROOT
TORSDOF 0
ENDMDL
MODEL 9
REMARK VINA RESULT:    -3.553      6.903      9.952
REMARK INTER + INTRA:          -3.553
REMARK INTER:                  -3.553
REMARK INTRA:                   0.000
REMARK UNBOUND:                 0.000
REMARK  Name = /home/vital/Documents/PhD_2021/Malaria_codes/scripts/../data/pdbqt_ligands/ligand_240_temp.pdb
REMARK                            x       y       z     vdW  Elec       q    Type
REMARK                         _______ _______ _______ _____ _____    ______ ____
ROOT
ATOM      1  C   UNL     1     150.503 155.983 156.199  0.00  0.00    -0.047 C 
ATOM      2  C   UNL     1     151.392 156.111 157.395  0.00  0.00    -0.087 C 
ATOM      3  C   UNL     1     151.382 157.048 158.357  0.00  0.00    -0.066 C 
ATOM      4  C   UNL     1     150.478 158.173 158.451  0.00  0.00    -0.062 C 
ATOM      5  C   UNL     1     150.451 159.116 159.410  0.00  0.00    -0.060 C 
ATOM      6  C   UNL     1     151.323 159.231 160.558  0.00  0.00    -0.044 C 
ATOM      7  C   UNL     1     151.209 160.199 161.478  0.00  0.00    +0.029 C 
ATOM      8  N   UNL     1     152.070 160.277 162.538  0.00  0.00    -0.244 NA
ATOM      9  C   UNL     1     151.715 161.057 163.504  0.00  0.00    +0.118 C 
ATOM     10  N   UNL     1     152.526 161.220 164.588  0.00  0.00    -0.226 N 
ATOM     11  C   UNL     1     152.667 160.231 165.423  0.00  0.00    +0.094 C 
ATOM     12  C   UNL     1     151.947 158.901 165.269  0.00  0.00    -0.009 C 
ATOM     13  N   UNL     1     153.500 160.344 166.513  0.00  0.00    -0.330 N 
ATOM     14  C   UNL     1     154.020 161.624 166.972  0.00  0.00    +0.033 C 
ATOM     15  C   UNL     1     155.084 161.385 168.046  0.00  0.00    +0.060 C 
ATOM     16  O   UNL     1     154.514 160.668 169.145  0.00  0.00    -0.393 OA
ATOM     17  H   UNL     1     152.997 162.071 164.736  0.00  0.00    +0.000 HD
ATOM     18  H   UNL     1     153.754 159.527 167.001  0.00  0.00    +0.000 HD
ATOM     19  H   UNL     1     153.787 161.185 169.527  0.00  0.00    +0.000 HD
ENDROOT
TORSDOF 0
ENDMDL
