MODEL 1
REMARK VINA RESULT:    -6.443      0.000      0.000
REMARK INTER + INTRA:          -6.443
REMARK INTER:                  -6.443
REMARK INTRA:                   0.000
REMARK UNBOUND:                 0.000
REMARK  Name = /home/vital/Documents/PhD_2021/Malaria_codes/scripts/../data/pdbqt_ligands/ligand_196_temp.pdb
REMARK                            x       y       z     vdW  Elec       q    Type
REMARK                         _______ _______ _______ _____ _____    ______ ____
ROOT
ATOM      1  C   UNL     1     156.922 150.891 149.967  0.00  0.00    -0.060 C 
ATOM      2  C   UNL     1     156.897 152.206 149.165  0.00  0.00    -0.036 C 
ATOM      3  C   UNL     1     156.535 151.829 147.704  0.00  0.00    -0.060 C 
ATOM      4  C   UNL     1     158.302 152.818 149.146  0.00  0.00    -0.060 C 
ATOM      5  C   UNL     1     155.784 153.179 149.671  0.00  0.00    -0.030 C 
ATOM      6  C   UNL     1     155.894 154.040 150.979  0.00  0.00    +0.014 C 
ATOM      7  C   UNL     1     156.815 155.256 150.766  0.00  0.00    -0.047 C 
ATOM      8  C   UNL     1     156.380 153.226 152.183  0.00  0.00    -0.047 C 
ATOM      9  N   UNL     1     154.497 154.518 151.188  0.00  0.00    -0.308 N 
ATOM     10  C   UNL     1     154.232 155.319 152.400  0.00  0.00    +0.027 C 
ATOM     11  C   UNL     1     152.718 155.646 152.477  0.00  0.00    +0.093 C 
ATOM     12  O   UNL     1     151.975 154.425 152.386  0.00  0.00    -0.386 OA
ATOM     13  C   UNL     1     152.366 156.384 153.751  0.00  0.00    -0.018 A 
ATOM     14  C   UNL     1     152.070 155.692 154.937  0.00  0.00    -0.055 A 
ATOM     15  C   UNL     1     151.775 156.386 156.113  0.00  0.00    -0.043 A 
ATOM     16  C   UNL     1     151.780 157.778 156.113  0.00  0.00    +0.041 A 
ATOM     17 CL   UNL     1     151.423 158.634 157.563  0.00  0.00    -0.084 Cl
ATOM     18  C   UNL     1     152.072 158.482 154.948  0.00  0.00    -0.043 A 
ATOM     19  C   UNL     1     152.366 157.787 153.771  0.00  0.00    -0.055 A 
ATOM     20  H   UNL     1     153.894 153.697 151.226  0.00  0.00    +0.000 HD
ATOM     21  H   UNL     1     154.317 155.153 150.410  0.00  0.00    +0.000 HD
ATOM     22  H   UNL     1     152.209 153.848 153.129  0.00  0.00    +0.000 HD
ENDROOT
TORSDOF 0
ENDMDL
MODEL 2
REMARK VINA RESULT:    -6.240      4.451      9.306
REMARK INTER + INTRA:          -6.240
REMARK INTER:                  -6.240
REMARK INTRA:                   0.000
REMARK UNBOUND:                 0.000
REMARK  Name = /home/vital/Documents/PhD_2021/Malaria_codes/scripts/../data/pdbqt_ligands/ligand_196_temp.pdb
REMARK                            x       y       z     vdW  Elec       q    Type
REMARK                         _______ _______ _______ _____ _____    ______ ____
ROOT
ATOM      1  C   UNL     1     149.538 158.576 160.881  0.00  0.00    -0.060 C 
ATOM      2  C   UNL     1     150.916 159.221 160.636  0.00  0.00    -0.036 C 
ATOM      3  C   UNL     1     151.731 159.036 161.943  0.00  0.00    -0.060 C 
ATOM      4  C   UNL     1     150.742 160.727 160.414  0.00  0.00    -0.060 C 
ATOM      5  C   UNL     1     151.708 158.495 159.502  0.00  0.00    -0.030 C 
ATOM      6  C   UNL     1     151.413 158.671 157.970  0.00  0.00    +0.014 C 
ATOM      7  C   UNL     1     151.961 160.013 157.450  0.00  0.00    -0.047 C 
ATOM      8  C   UNL     1     149.921 158.557 157.639  0.00  0.00    -0.047 C 
ATOM      9  N   UNL     1     152.183 157.557 157.346  0.00  0.00    -0.308 N 
ATOM     10  C   UNL     1     152.066 157.391 155.884  0.00  0.00    +0.027 C 
ATOM     11  C   UNL     1     152.868 156.138 155.445  0.00  0.00    +0.093 C 
ATOM     12  O   UNL     1     152.432 155.014 156.217  0.00  0.00    -0.386 OA
ATOM     13  C   UNL     1     152.708 155.857 153.967  0.00  0.00    -0.018 A 
ATOM     14  C   UNL     1     151.636 155.089 153.482  0.00  0.00    -0.055 A 
ATOM     15  C   UNL     1     151.482 154.861 152.113  0.00  0.00    -0.043 A 
ATOM     16  C   UNL     1     152.398 155.404 151.215  0.00  0.00    +0.041 A 
ATOM     17 CL   UNL     1     152.207 155.130 149.528  0.00  0.00    -0.084 Cl
ATOM     18  C   UNL     1     153.467 156.170 151.676  0.00  0.00    -0.043 A 
ATOM     19  C   UNL     1     153.620 156.396 153.047  0.00  0.00    -0.055 A 
ATOM     20  H   UNL     1     151.871 156.688 157.780  0.00  0.00    +0.000 HD
ATOM     21  H   UNL     1     153.163 157.793 157.506  0.00  0.00    +0.000 HD
ATOM     22  H   UNL     1     151.490 154.855 156.054  0.00  0.00    +0.000 HD
ENDROOT
TORSDOF 0
ENDMDL
MODEL 3
REMARK VINA RESULT:    -4.638      5.843     11.141
REMARK INTER + INTRA:          -4.638
REMARK INTER:                  -4.638
REMARK INTRA:                   0.000
REMARK UNBOUND:                 0.000
REMARK  Name = /home/vital/Documents/PhD_2021/Malaria_codes/scripts/../data/pdbqt_ligands/ligand_196_temp.pdb
REMARK                            x       y       z     vdW  Elec       q    Type
REMARK                         _______ _______ _______ _____ _____    ______ ____
ROOT
ATOM      1  C   UNL     1     151.572 162.495 162.629  0.00  0.00    -0.060 C 
ATOM      2  C   UNL     1     150.946 161.159 163.073  0.00  0.00    -0.036 C 
ATOM      3  C   UNL     1     149.676 161.513 163.890  0.00  0.00    -0.060 C 
ATOM      4  C   UNL     1     151.911 160.432 164.016  0.00  0.00    -0.060 C 
ATOM      5  C   UNL     1     150.476 160.300 161.855  0.00  0.00    -0.030 C 
ATOM      6  C   UNL     1     151.443 159.480 160.930  0.00  0.00    +0.014 C 
ATOM      7  C   UNL     1     151.907 158.185 161.622  0.00  0.00    -0.047 C 
ATOM      8  C   UNL     1     152.662 160.293 160.480  0.00  0.00    -0.047 C 
ATOM      9  N   UNL     1     150.580 159.127 159.765  0.00  0.00    -0.308 N 
ATOM     10  C   UNL     1     151.216 158.394 158.652  0.00  0.00    +0.027 C 
ATOM     11  C   UNL     1     150.182 158.197 157.513  0.00  0.00    +0.093 C 
ATOM     12  O   UNL     1     149.631 159.472 157.161  0.00  0.00    -0.386 OA
ATOM     13  C   UNL     1     150.800 157.536 156.300  0.00  0.00    -0.018 A 
ATOM     14  C   UNL     1     151.446 158.291 155.308  0.00  0.00    -0.055 A 
ATOM     15  C   UNL     1     152.038 157.667 154.208  0.00  0.00    -0.043 A 
ATOM     16  C   UNL     1     151.994 156.280 154.094  0.00  0.00    +0.041 A 
ATOM     17 CL   UNL     1     152.728 155.508 152.743  0.00  0.00    -0.084 Cl
ATOM     18  C   UNL     1     151.359 155.513 155.069  0.00  0.00    -0.043 A 
ATOM     19  C   UNL     1     150.765 156.140 156.169  0.00  0.00    -0.055 A 
ATOM     20  H   UNL     1     150.206 159.997 159.386  0.00  0.00    +0.000 HD
ATOM     21  H   UNL     1     149.884 158.483 160.140  0.00  0.00    +0.000 HD
ATOM     22  H   UNL     1     150.339 160.053 156.844  0.00  0.00    +0.000 HD
ENDROOT
TORSDOF 0
ENDMDL
MODEL 4
REMARK VINA RESULT:    -4.575     10.164     14.799
REMARK INTER + INTRA:          -4.575
REMARK INTER:                  -4.575
REMARK INTRA:                   0.000
REMARK UNBOUND:                 0.000
REMARK  Name = /home/vital/Documents/PhD_2021/Malaria_codes/scripts/../data/pdbqt_ligands/ligand_196_temp.pdb
REMARK                            x       y       z     vdW  Elec       q    Type
REMARK                         _______ _______ _______ _____ _____    ______ ____
ROOT
ATOM      1  C   UNL     1     154.177 162.321 168.201  0.00  0.00    -0.060 C 
ATOM      2  C   UNL     1     152.951 161.420 168.441  0.00  0.00    -0.036 C 
ATOM      3  C   UNL     1     152.119 162.091 169.565  0.00  0.00    -0.060 C 
ATOM      4  C   UNL     1     153.414 160.056 168.965  0.00  0.00    -0.060 C 
ATOM      5  C   UNL     1     152.029 161.340 167.181  0.00  0.00    -0.030 C 
ATOM      6  C   UNL     1     152.349 160.478 165.909  0.00  0.00    +0.014 C 
ATOM      7  C   UNL     1     152.071 158.985 166.167  0.00  0.00    -0.047 C 
ATOM      8  C   UNL     1     153.789 160.661 165.418  0.00  0.00    -0.047 C 
ATOM      9  N   UNL     1     151.374 160.987 164.901  0.00  0.00    -0.308 N 
ATOM     10  C   UNL     1     151.453 160.421 163.540  0.00  0.00    +0.027 C 
ATOM     11  C   UNL     1     150.421 161.134 162.628  0.00  0.00    +0.093 C 
ATOM     12  O   UNL     1     150.631 162.548 162.707  0.00  0.00    -0.386 OA
ATOM     13  C   UNL     1     150.519 160.665 161.193  0.00  0.00    -0.018 A 
ATOM     14  C   UNL     1     151.420 161.257 160.292  0.00  0.00    -0.055 A 
ATOM     15  C   UNL     1     151.522 160.796 158.978  0.00  0.00    -0.043 A 
ATOM     16  C   UNL     1     150.727 159.734 158.555  0.00  0.00    +0.041 A 
ATOM     17 CL   UNL     1     150.856 159.160 156.938  0.00  0.00    -0.084 Cl
ATOM     18  C   UNL     1     149.830 159.132 159.433  0.00  0.00    -0.043 A 
ATOM     19  C   UNL     1     149.727 159.596 160.748  0.00  0.00    -0.055 A 
ATOM     20  H   UNL     1     151.512 161.995 164.823  0.00  0.00    +0.000 HD
ATOM     21  H   UNL     1     150.460 160.701 165.252  0.00  0.00    +0.000 HD
ATOM     22  H   UNL     1     151.524 162.760 162.394  0.00  0.00    +0.000 HD
ENDROOT
TORSDOF 0
ENDMDL
MODEL 5
REMARK VINA RESULT:    -4.482      7.794     13.078
REMARK INTER + INTRA:          -4.482
REMARK INTER:                  -4.482
REMARK INTRA:                   0.000
REMARK UNBOUND:                 0.000
REMARK  Name = /home/vital/Documents/PhD_2021/Malaria_codes/scripts/../data/pdbqt_ligands/ligand_196_temp.pdb
REMARK                            x       y       z     vdW  Elec       q    Type
REMARK                         _______ _______ _______ _____ _____    ______ ____
ROOT
ATOM      1  C   UNL     1     150.909 163.541 164.805  0.00  0.00    -0.060 C 
ATOM      2  C   UNL     1     150.979 162.162 165.487  0.00  0.00    -0.036 C 
ATOM      3  C   UNL     1     149.971 162.198 166.666  0.00  0.00    -0.060 C 
ATOM      4  C   UNL     1     152.375 161.958 166.084  0.00  0.00    -0.060 C 
ATOM      5  C   UNL     1     150.518 161.013 164.533  0.00  0.00    -0.030 C 
ATOM      6  C   UNL     1     151.398 160.426 163.373  0.00  0.00    +0.014 C 
ATOM      7  C   UNL     1     152.488 159.487 163.925  0.00  0.00    -0.047 C 
ATOM      8  C   UNL     1     152.042 161.516 162.509  0.00  0.00    -0.047 C 
ATOM      9  N   UNL     1     150.422 159.625 162.580  0.00  0.00    -0.308 N 
ATOM     10  C   UNL     1     150.921 158.978 161.350  0.00  0.00    +0.027 C 
ATOM     11  C   UNL     1     149.745 158.269 160.631  0.00  0.00    +0.093 C 
ATOM     12  O   UNL     1     148.687 159.213 160.429  0.00  0.00    -0.386 OA
ATOM     13  C   UNL     1     150.173 157.667 159.310  0.00  0.00    -0.018 A 
ATOM     14  C   UNL     1     150.172 158.426 158.128  0.00  0.00    -0.055 A 
ATOM     15  C   UNL     1     150.597 157.868 156.920  0.00  0.00    -0.043 A 
ATOM     16  C   UNL     1     151.033 156.546 156.886  0.00  0.00    +0.041 A 
ATOM     17 CL   UNL     1     151.564 155.858 155.401  0.00  0.00    -0.084 Cl
ATOM     18  C   UNL     1     151.044 155.778 158.048  0.00  0.00    -0.043 A 
ATOM     19  C   UNL     1     150.616 156.337 159.256  0.00  0.00    -0.055 A 
ATOM     20  H   UNL     1     149.661 160.248 162.311  0.00  0.00    +0.000 HD
ATOM     21  H   UNL     1     150.155 158.854 163.192  0.00  0.00    +0.000 HD
ATOM     22  H   UNL     1     149.004 159.939 159.870  0.00  0.00    +0.000 HD
ENDROOT
TORSDOF 0
ENDMDL
MODEL 6
REMARK VINA RESULT:    -4.451      8.204     11.887
REMARK INTER + INTRA:          -4.451
REMARK INTER:                  -4.451
REMARK INTRA:                   0.000
REMARK UNBOUND:                 0.000
REMARK  Name = /home/vital/Documents/PhD_2021/Malaria_codes/scripts/../data/pdbqt_ligands/ligand_196_temp.pdb
REMARK                            x       y       z     vdW  Elec       q    Type
REMARK                         _______ _______ _______ _____ _____    ______ ____
ROOT
ATOM      1  C   UNL     1     149.756 158.537 157.073  0.00  0.00    -0.060 C 
ATOM      2  C   UNL     1     151.032 157.913 157.667  0.00  0.00    -0.036 C 
ATOM      3  C   UNL     1     152.093 157.909 156.536  0.00  0.00    -0.060 C 
ATOM      4  C   UNL     1     150.759 156.452 158.043  0.00  0.00    -0.060 C 
ATOM      5  C   UNL     1     151.616 158.774 158.834  0.00  0.00    -0.030 C 
ATOM      6  C   UNL     1     151.021 158.809 160.285  0.00  0.00    +0.014 C 
ATOM      7  C   UNL     1     151.404 157.542 161.073  0.00  0.00    -0.047 C 
ATOM      8  C   UNL     1     149.499 158.987 160.296  0.00  0.00    -0.047 C 
ATOM      9  N   UNL     1     151.698 159.987 160.900  0.00  0.00    -0.308 N 
ATOM     10  C   UNL     1     151.304 160.350 162.276  0.00  0.00    +0.027 C 
ATOM     11  C   UNL     1     152.055 161.639 162.701  0.00  0.00    +0.093 C 
ATOM     12  O   UNL     1     151.823 162.656 161.718  0.00  0.00    -0.386 OA
ATOM     13  C   UNL     1     151.620 162.120 164.068  0.00  0.00    -0.018 A 
ATOM     14  C   UNL     1     150.505 162.959 164.227  0.00  0.00    -0.055 A 
ATOM     15  C   UNL     1     150.097 163.371 165.497  0.00  0.00    -0.043 A 
ATOM     16  C   UNL     1     150.797 162.942 166.621  0.00  0.00    +0.041 A 
ATOM     17 CL   UNL     1     150.292 163.444 168.187  0.00  0.00    -0.084 Cl
ATOM     18  C   UNL     1     151.904 162.107 166.485  0.00  0.00    -0.043 A 
ATOM     19  C   UNL     1     152.313 161.697 165.213  0.00  0.00    -0.055 A 
ATOM     20  H   UNL     1     151.512 160.794 160.305  0.00  0.00    +0.000 HD
ATOM     21  H   UNL     1     152.680 159.719 160.971  0.00  0.00    +0.000 HD
ATOM     22  H   UNL     1     150.873 162.847 161.669  0.00  0.00    +0.000 HD
ENDROOT
TORSDOF 0
ENDMDL
MODEL 7
REMARK VINA RESULT:    -4.436      8.274     11.714
REMARK INTER + INTRA:          -4.436
REMARK INTER:                  -4.436
REMARK INTRA:                   0.000
REMARK UNBOUND:                 0.000
REMARK  Name = /home/vital/Documents/PhD_2021/Malaria_codes/scripts/../data/pdbqt_ligands/ligand_196_temp.pdb
REMARK                            x       y       z     vdW  Elec       q    Type
REMARK                         _______ _______ _______ _____ _____    ______ ____
ROOT
ATOM      1  C   UNL     1     152.054 158.253 156.929  0.00  0.00    -0.060 C 
ATOM      2  C   UNL     1     150.787 157.705 157.612  0.00  0.00    -0.036 C 
ATOM      3  C   UNL     1     150.605 156.249 157.107  0.00  0.00    -0.060 C 
ATOM      4  C   UNL     1     149.568 158.508 157.146  0.00  0.00    -0.060 C 
ATOM      5  C   UNL     1     150.946 157.629 159.165  0.00  0.00    -0.030 C 
ATOM      6  C   UNL     1     150.860 158.870 160.121  0.00  0.00    +0.014 C 
ATOM      7  C   UNL     1     149.399 159.314 160.325  0.00  0.00    -0.047 C 
ATOM      8  C   UNL     1     151.697 160.055 159.627  0.00  0.00    -0.047 C 
ATOM      9  N   UNL     1     151.393 158.343 161.410  0.00  0.00    -0.308 N 
ATOM     10  C   UNL     1     151.515 159.297 162.531  0.00  0.00    +0.027 C 
ATOM     11  C   UNL     1     152.159 158.580 163.745  0.00  0.00    +0.093 C 
ATOM     12  O   UNL     1     153.391 157.978 163.328  0.00  0.00    -0.386 OA
ATOM     13  C   UNL     1     152.402 159.531 164.897  0.00  0.00    -0.018 A 
ATOM     14  C   UNL     1     153.579 160.293 164.979  0.00  0.00    -0.055 A 
ATOM     15  C   UNL     1     153.777 161.189 166.032  0.00  0.00    -0.043 A 
ATOM     16  C   UNL     1     152.796 161.335 167.009  0.00  0.00    +0.041 A 
ATOM     17 CL   UNL     1     153.036 162.443 168.303  0.00  0.00    -0.084 Cl
ATOM     18  C   UNL     1     151.621 160.590 166.944  0.00  0.00    -0.043 A 
ATOM     19  C   UNL     1     151.424 159.692 165.891  0.00  0.00    -0.055 A 
ATOM     20  H   UNL     1     152.322 157.965 161.227  0.00  0.00    +0.000 HD
ATOM     21  H   UNL     1     150.701 157.660 161.721  0.00  0.00    +0.000 HD
ATOM     22  H   UNL     1     153.996 158.666 163.013  0.00  0.00    +0.000 HD
ENDROOT
TORSDOF 0
ENDMDL
MODEL 8
REMARK VINA RESULT:    -3.975     15.733     18.177
REMARK INTER + INTRA:          -3.975
REMARK INTER:                  -3.975
REMARK INTRA:                   0.000
REMARK UNBOUND:                 0.000
REMARK  Name = /home/vital/Documents/PhD_2021/Malaria_codes/scripts/../data/pdbqt_ligands/ligand_196_temp.pdb
REMARK                            x       y       z     vdW  Elec       q    Type
REMARK                         _______ _______ _______ _____ _____    ______ ____
ROOT
ATOM      1  C   UNL     1     143.505 140.985 166.076  0.00  0.00    -0.060 C 
ATOM      2  C   UNL     1     143.605 141.108 164.544  0.00  0.00    -0.036 C 
ATOM      3  C   UNL     1     142.315 140.472 163.963  0.00  0.00    -0.060 C 
ATOM      4  C   UNL     1     144.792 140.280 164.041  0.00  0.00    -0.060 C 
ATOM      5  C   UNL     1     143.624 142.600 164.078  0.00  0.00    -0.030 C 
ATOM      6  C   UNL     1     144.877 143.539 164.182  0.00  0.00    +0.014 C 
ATOM      7  C   UNL     1     145.906 143.216 163.082  0.00  0.00    -0.047 C 
ATOM      8  C   UNL     1     145.551 143.475 165.557  0.00  0.00    -0.047 C 
ATOM      9  N   UNL     1     144.307 144.894 163.931  0.00  0.00    -0.308 N 
ATOM     10  C   UNL     1     145.230 146.043 164.026  0.00  0.00    +0.027 C 
ATOM     11  C   UNL     1     144.434 147.357 163.816  0.00  0.00    +0.093 C 
ATOM     12  O   UNL     1     143.336 147.387 164.736  0.00  0.00    -0.386 OA
ATOM     13  C   UNL     1     145.307 148.580 163.998  0.00  0.00    -0.018 A 
ATOM     14  C   UNL     1     145.514 149.146 165.267  0.00  0.00    -0.055 A 
ATOM     15  C   UNL     1     146.346 150.256 165.426  0.00  0.00    -0.043 A 
ATOM     16  C   UNL     1     146.983 150.806 164.317  0.00  0.00    +0.041 A 
ATOM     17 CL   UNL     1     148.014 152.171 164.512  0.00  0.00    -0.084 Cl
ATOM     18  C   UNL     1     146.792 150.258 163.051  0.00  0.00    -0.043 A 
ATOM     19  C   UNL     1     145.958 149.147 162.893  0.00  0.00    -0.055 A 
ATOM     20  H   UNL     1     143.560 145.043 164.610  0.00  0.00    +0.000 HD
ATOM     21  H   UNL     1     144.008 144.877 162.956  0.00  0.00    +0.000 HD
ATOM     22  H   UNL     1     143.674 147.367 165.644  0.00  0.00    +0.000 HD
ENDROOT
TORSDOF 0
ENDMDL
MODEL 9
REMARK VINA RESULT:    -3.443     10.891     15.327
REMARK INTER + INTRA:          -3.443
REMARK INTER:                  -3.443
REMARK INTRA:                   0.000
REMARK UNBOUND:                 0.000
REMARK  Name = /home/vital/Documents/PhD_2021/Malaria_codes/scripts/../data/pdbqt_ligands/ligand_196_temp.pdb
REMARK                            x       y       z     vdW  Elec       q    Type
REMARK                         _______ _______ _______ _____ _____    ______ ____
ROOT
ATOM      1  C   UNL     1     152.498 160.578 169.990  0.00  0.00    -0.060 C 
ATOM      2  C   UNL     1     153.006 161.385 168.780  0.00  0.00    -0.036 C 
ATOM      3  C   UNL     1     154.432 161.876 169.140  0.00  0.00    -0.060 C 
ATOM      4  C   UNL     1     152.128 162.626 168.589  0.00  0.00    -0.060 C 
ATOM      5  C   UNL     1     153.142 160.497 167.501  0.00  0.00    -0.030 C 
ATOM      6  C   UNL     1     151.931 160.033 166.617  0.00  0.00    +0.014 C 
ATOM      7  C   UNL     1     151.423 161.182 165.725  0.00  0.00    -0.047 C 
ATOM      8  C   UNL     1     150.773 159.472 167.449  0.00  0.00    -0.047 C 
ATOM      9  N   UNL     1     152.528 158.974 165.753  0.00  0.00    -0.308 N 
ATOM     10  C   UNL     1     151.620 158.266 164.828  0.00  0.00    +0.027 C 
ATOM     11  C   UNL     1     152.408 157.157 164.085  0.00  0.00    +0.093 C 
ATOM     12  O   UNL     1     153.056 156.322 165.052  0.00  0.00    -0.386 OA
ATOM     13  C   UNL     1     151.510 156.329 163.192  0.00  0.00    -0.018 A 
ATOM     14  C   UNL     1     150.811 155.217 163.689  0.00  0.00    -0.055 A 
ATOM     15  C   UNL     1     149.962 154.479 162.861  0.00  0.00    -0.043 A 
ATOM     16  C   UNL     1     149.801 154.852 161.529  0.00  0.00    +0.041 A 
ATOM     17 CL   UNL     1     148.750 153.948 160.509  0.00  0.00    -0.084 Cl
ATOM     18  C   UNL     1     150.484 155.953 161.018  0.00  0.00    -0.043 A 
ATOM     19  C   UNL     1     151.334 156.690 161.847  0.00  0.00    -0.055 A 
ATOM     20  H   UNL     1     152.945 158.275 166.368  0.00  0.00    +0.000 HD
ATOM     21  H   UNL     1     153.185 159.467 165.149  0.00  0.00    +0.000 HD
ATOM     22  H   UNL     1     152.389 155.905 165.619  0.00  0.00    +0.000 HD
ENDROOT
TORSDOF 0
ENDMDL
