MODEL 1
REMARK VINA RESULT:    -7.443      0.000      0.000
REMARK INTER + INTRA:          -7.443
REMARK INTER:                  -7.443
REMARK INTRA:                   0.000
REMARK UNBOUND:                 0.000
REMARK  Name = /home/vital/Documents/PhD_2021/Malaria_codes/scripts/../data/pdbqt_ligands/ligand_109_temp.pdb
REMARK                            x       y       z     vdW  Elec       q    Type
REMARK                         _______ _______ _______ _____ _____    ______ ____
ROOT
ATOM      1 CL1  UNL     1     149.623 160.670 161.456  0.00  0.00    -0.082 Cl
ATOM      2  C1  UNL     1     150.862 159.755 160.647  0.00  0.00    +0.057 C 
ATOM      3  C2  UNL     1     150.962 158.439 160.898  0.00  0.00    -0.039 C 
ATOM      4  C3  UNL     1     151.943 157.479 160.301  0.00  0.00    +0.068 C 
ATOM      5  O1  UNL     1     151.273 156.226 160.156  0.00  0.00    -0.375 OA
ATOM      6  C4  UNL     1     151.679 155.466 159.016  0.00  0.00    +0.053 C 
ATOM      7  C5  UNL     1     150.648 155.568 157.885  0.00  0.00    +0.014 C 
ATOM      8  C6  UNL     1     150.873 156.785 157.022  0.00  0.00    +0.055 A 
ATOM      9  N1  UNL     1     150.390 157.927 157.551  0.00  0.00    -0.236 NA
ATOM     10  C7  UNL     1     150.641 159.074 156.904  0.00  0.00    +0.134 A 
ATOM     11  N2  UNL     1     151.298 159.158 155.737  0.00  0.00    -0.232 NA
ATOM     12  C8  UNL     1     151.746 158.017 155.200  0.00  0.00    +0.075 A 
ATOM     13  C9  UNL     1     152.429 158.086 153.992  0.00  0.00    -0.036 A 
ATOM     14  C10 UNL     1     152.961 156.952 153.375  0.00  0.00    -0.060 A 
ATOM     15  C11 UNL     1     152.816 155.711 153.977  0.00  0.00    -0.061 A 
ATOM     16  C12 UNL     1     152.134 155.612 155.189  0.00  0.00    -0.051 A 
ATOM     17  C13 UNL     1     151.583 156.762 155.811  0.00  0.00    +0.022 A 
ATOM     18  C14 UNL     1     150.333 160.349 157.649  0.00  0.00    +0.027 C 
ATOM     19  C15 UNL     1     151.515 160.787 158.477  0.00  0.00    -0.057 C 
ATOM     20  C16 UNL     1     151.730 160.522 159.777  0.00  0.00    +0.056 C 
ATOM     21 CL2  UNL     1     153.193 161.109 160.513  0.00  0.00    -0.082 Cl
ENDROOT
TORSDOF 0
ENDMDL
MODEL 2
REMARK VINA RESULT:    -7.148      3.972      5.569
REMARK INTER + INTRA:          -7.148
REMARK INTER:                  -7.148
REMARK INTRA:                   0.000
REMARK UNBOUND:                 0.000
REMARK  Name = /home/vital/Documents/PhD_2021/Malaria_codes/scripts/../data/pdbqt_ligands/ligand_109_temp.pdb
REMARK                            x       y       z     vdW  Elec       q    Type
REMARK                         _______ _______ _______ _____ _____    ______ ____
ROOT
ATOM      1 CL1  UNL     1     151.288 159.858 167.599  0.00  0.00    -0.082 Cl
ATOM      2  C1  UNL     1     152.147 159.574 166.113  0.00  0.00    +0.057 C 
ATOM      3  C2  UNL     1     152.220 158.319 165.639  0.00  0.00    -0.039 C 
ATOM      4  C3  UNL     1     152.896 157.869 164.382  0.00  0.00    +0.068 C 
ATOM      5  O1  UNL     1     152.123 156.793 163.848  0.00  0.00    -0.375 OA
ATOM      6  C4  UNL     1     152.102 156.731 162.421  0.00  0.00    +0.053 C 
ATOM      7  C5  UNL     1     150.785 157.280 161.860  0.00  0.00    +0.014 C 
ATOM      8  C6  UNL     1     150.823 158.779 161.688  0.00  0.00    +0.055 A 
ATOM      9  N1  UNL     1     150.613 159.465 162.829  0.00  0.00    -0.236 NA
ATOM     10  C7  UNL     1     150.738 160.799 162.791  0.00  0.00    +0.134 A 
ATOM     11  N2  UNL     1     151.010 161.504 161.682  0.00  0.00    -0.232 NA
ATOM     12  C8  UNL     1     151.185 160.819 160.546  0.00  0.00    +0.075 A 
ATOM     13  C9  UNL     1     151.468 161.533 159.388  0.00  0.00    -0.036 A 
ATOM     14  C10 UNL     1     151.699 160.901 158.164  0.00  0.00    -0.060 A 
ATOM     15  C11 UNL     1     151.653 159.517 158.088  0.00  0.00    -0.061 A 
ATOM     16  C12 UNL     1     151.370 158.775 159.234  0.00  0.00    -0.051 A 
ATOM     17  C13 UNL     1     151.125 159.417 160.475  0.00  0.00    +0.022 A 
ATOM     18  C14 UNL     1     150.769 161.511 164.121  0.00  0.00    +0.027 C 
ATOM     19  C15 UNL     1     152.178 161.592 164.655  0.00  0.00    -0.057 C 
ATOM     20  C16 UNL     1     152.760 160.744 165.520  0.00  0.00    +0.056 C 
ATOM     21 CL2  UNL     1     154.419 161.024 165.967  0.00  0.00    -0.082 Cl
ENDROOT
TORSDOF 0
ENDMDL
MODEL 3
REMARK VINA RESULT:    -6.921      4.186      6.117
REMARK INTER + INTRA:          -6.921
REMARK INTER:                  -6.921
REMARK INTRA:                   0.000
REMARK UNBOUND:                 0.000
REMARK  Name = /home/vital/Documents/PhD_2021/Malaria_codes/scripts/../data/pdbqt_ligands/ligand_109_temp.pdb
REMARK                            x       y       z     vdW  Elec       q    Type
REMARK                         _______ _______ _______ _____ _____    ______ ____
ROOT
ATOM      1 CL1  UNL     1     153.481 161.379 166.046  0.00  0.00    -0.082 Cl
ATOM      2  C1  UNL     1     152.199 160.689 165.094  0.00  0.00    +0.057 C 
ATOM      3  C2  UNL     1     151.808 161.326 163.977  0.00  0.00    -0.039 C 
ATOM      4  C3  UNL     1     150.741 160.896 163.021  0.00  0.00    +0.068 C 
ATOM      5  O1  UNL     1     151.161 161.290 161.714  0.00  0.00    -0.375 OA
ATOM      6  C4  UNL     1     150.760 160.399 160.670  0.00  0.00    +0.053 C 
ATOM      7  C5  UNL     1     151.926 159.510 160.222  0.00  0.00    +0.014 C 
ATOM      8  C6  UNL     1     152.060 158.275 161.079  0.00  0.00    +0.055 A 
ATOM      9  N1  UNL     1     152.688 158.490 162.252  0.00  0.00    -0.236 NA
ATOM     10  C7  UNL     1     152.755 157.474 163.124  0.00  0.00    +0.134 A 
ATOM     11  N2  UNL     1     152.281 156.241 162.888  0.00  0.00    -0.232 NA
ATOM     12  C8  UNL     1     151.688 156.025 161.709  0.00  0.00    +0.075 A 
ATOM     13  C9  UNL     1     151.191 154.754 161.449  0.00  0.00    -0.036 A 
ATOM     14  C10 UNL     1     150.528 154.445 160.260  0.00  0.00    -0.060 A 
ATOM     15  C11 UNL     1     150.346 155.430 159.300  0.00  0.00    -0.061 A 
ATOM     16  C12 UNL     1     150.835 156.715 159.534  0.00  0.00    -0.051 A 
ATOM     17  C13 UNL     1     151.519 157.026 160.737  0.00  0.00    +0.022 A 
ATOM     18  C14 UNL     1     153.212 157.815 164.521  0.00  0.00    +0.027 C 
ATOM     19  C15 UNL     1     152.046 158.221 165.386  0.00  0.00    -0.057 C 
ATOM     20  C16 UNL     1     151.619 159.473 165.625  0.00  0.00    +0.056 C 
ATOM     21 CL2  UNL     1     150.220 159.694 166.636  0.00  0.00    -0.082 Cl
ENDROOT
TORSDOF 0
ENDMDL
MODEL 4
REMARK VINA RESULT:    -6.780      6.456      8.751
REMARK INTER + INTRA:          -6.780
REMARK INTER:                  -6.780
REMARK INTRA:                   0.000
REMARK UNBOUND:                 0.000
REMARK  Name = /home/vital/Documents/PhD_2021/Malaria_codes/scripts/../data/pdbqt_ligands/ligand_109_temp.pdb
REMARK                            x       y       z     vdW  Elec       q    Type
REMARK                         _______ _______ _______ _____ _____    ______ ____
ROOT
ATOM      1 CL1  UNL     1     154.069 161.536 167.213  0.00  0.00    -0.082 Cl
ATOM      2  C1  UNL     1     152.699 160.836 166.400  0.00  0.00    +0.057 C 
ATOM      3  C2  UNL     1     152.713 160.765 165.058  0.00  0.00    -0.039 C 
ATOM      4  C3  UNL     1     151.648 160.192 164.175  0.00  0.00    +0.068 C 
ATOM      5  O1  UNL     1     152.304 159.584 163.062  0.00  0.00    -0.375 OA
ATOM      6  C4  UNL     1     151.651 158.418 162.556  0.00  0.00    +0.053 C 
ATOM      7  C5  UNL     1     152.360 157.140 163.019  0.00  0.00    +0.014 C 
ATOM      8  C6  UNL     1     151.883 156.688 164.377  0.00  0.00    +0.055 A 
ATOM      9  N1  UNL     1     152.443 157.359 165.405  0.00  0.00    -0.236 NA
ATOM     10  C7  UNL     1     151.997 157.099 166.641  0.00  0.00    +0.134 A 
ATOM     11  N2  UNL     1     151.065 156.179 166.933  0.00  0.00    -0.232 NA
ATOM     12  C8  UNL     1     150.538 155.492 165.913  0.00  0.00    +0.075 A 
ATOM     13  C9  UNL     1     149.570 154.536 166.198  0.00  0.00    -0.036 A 
ATOM     14  C10 UNL     1     148.941 153.796 165.195  0.00  0.00    -0.060 A 
ATOM     15  C11 UNL     1     149.277 154.015 163.868  0.00  0.00    -0.061 A 
ATOM     16  C12 UNL     1     150.244 154.968 163.553  0.00  0.00    -0.051 A 
ATOM     17  C13 UNL     1     150.893 155.712 164.572  0.00  0.00    +0.022 A 
ATOM     18  C14 UNL     1     152.437 158.047 167.729  0.00  0.00    +0.027 C 
ATOM     19  C15 UNL     1     151.486 159.212 167.845  0.00  0.00    -0.057 C 
ATOM     20  C16 UNL     1     151.615 160.417 167.262  0.00  0.00    +0.056 C 
ATOM     21 CL2  UNL     1     150.363 161.599 167.515  0.00  0.00    -0.082 Cl
ENDROOT
TORSDOF 0
ENDMDL
MODEL 5
REMARK VINA RESULT:    -6.451     15.557     17.869
REMARK INTER + INTRA:          -6.451
REMARK INTER:                  -6.451
REMARK INTRA:                   0.000
REMARK UNBOUND:                 0.000
REMARK  Name = /home/vital/Documents/PhD_2021/Malaria_codes/scripts/../data/pdbqt_ligands/ligand_109_temp.pdb
REMARK                            x       y       z     vdW  Elec       q    Type
REMARK                         _______ _______ _______ _____ _____    ______ ____
ROOT
ATOM      1 CL1  UNL     1     142.521 140.791 167.302  0.00  0.00    -0.082 Cl
ATOM      2  C1  UNL     1     142.342 142.306 166.464  0.00  0.00    +0.057 C 
ATOM      3  C2  UNL     1     141.493 143.222 166.960  0.00  0.00    -0.039 C 
ATOM      4  C3  UNL     1     141.206 144.580 166.402  0.00  0.00    +0.068 C 
ATOM      5  O1  UNL     1     140.970 145.451 167.510  0.00  0.00    -0.375 OA
ATOM      6  C4  UNL     1     141.415 146.794 167.311  0.00  0.00    +0.053 C 
ATOM      7  C5  UNL     1     142.737 147.055 168.043  0.00  0.00    +0.014 C 
ATOM      8  C6  UNL     1     143.932 146.650 167.217  0.00  0.00    +0.055 A 
ATOM      9  N1  UNL     1     144.191 145.327 167.242  0.00  0.00    -0.236 NA
ATOM     10  C7  UNL     1     145.167 144.863 166.450  0.00  0.00    +0.134 A 
ATOM     11  N2  UNL     1     145.940 145.633 165.669  0.00  0.00    -0.232 NA
ATOM     12  C8  UNL     1     145.700 146.949 165.674  0.00  0.00    +0.075 A 
ATOM     13  C9  UNL     1     146.492 147.761 164.870  0.00  0.00    -0.036 A 
ATOM     14  C10 UNL     1     146.292 149.141 164.785  0.00  0.00    -0.060 A 
ATOM     15  C11 UNL     1     145.273 149.733 165.516  0.00  0.00    -0.061 A 
ATOM     16  C12 UNL     1     144.464 148.943 166.331  0.00  0.00    -0.051 A 
ATOM     17  C13 UNL     1     144.673 147.543 166.427  0.00  0.00    +0.022 A 
ATOM     18  C14 UNL     1     145.252 143.365 166.292  0.00  0.00    +0.027 C 
ATOM     19  C15 UNL     1     144.377 142.894 165.157  0.00  0.00    -0.057 C 
ATOM     20  C16 UNL     1     143.117 142.436 165.248  0.00  0.00    +0.056 C 
ATOM     21 CL2  UNL     1     142.291 141.980 163.786  0.00  0.00    -0.082 Cl
ENDROOT
TORSDOF 0
ENDMDL
MODEL 6
REMARK VINA RESULT:    -6.427      5.989      8.665
REMARK INTER + INTRA:          -6.427
REMARK INTER:                  -6.427
REMARK INTRA:                   0.000
REMARK UNBOUND:                 0.000
REMARK  Name = /home/vital/Documents/PhD_2021/Malaria_codes/scripts/../data/pdbqt_ligands/ligand_109_temp.pdb
REMARK                            x       y       z     vdW  Elec       q    Type
REMARK                         _______ _______ _______ _____ _____    ______ ____
ROOT
ATOM      1 CL1  UNL     1     152.699 160.920 169.765  0.00  0.00    -0.082 Cl
ATOM      2  C1  UNL     1     151.462 160.937 168.543  0.00  0.00    +0.057 C 
ATOM      3  C2  UNL     1     151.066 162.119 168.041  0.00  0.00    -0.039 C 
ATOM      4  C3  UNL     1     150.033 162.348 166.982  0.00  0.00    +0.068 C 
ATOM      5  O1  UNL     1     150.460 163.473 166.212  0.00  0.00    -0.375 OA
ATOM      6  C4  UNL     1     150.113 163.406 164.827  0.00  0.00    +0.053 C 
ATOM      7  C5  UNL     1     151.321 163.007 163.971  0.00  0.00    +0.014 C 
ATOM      8  C6  UNL     1     151.489 161.510 163.891  0.00  0.00    +0.055 A 
ATOM      9  N1  UNL     1     152.088 160.969 164.971  0.00  0.00    -0.236 NA
ATOM     10  C7  UNL     1     152.180 159.633 165.034  0.00  0.00    +0.134 A 
ATOM     11  N2  UNL     1     151.760 158.798 164.072  0.00  0.00    -0.232 NA
ATOM     12  C8  UNL     1     151.196 159.343 162.988  0.00  0.00    +0.075 A 
ATOM     13  C9  UNL     1     150.755 158.492 161.982  0.00  0.00    -0.036 A 
ATOM     14  C10 UNL     1     150.125 158.968 160.830  0.00  0.00    -0.060 A 
ATOM     15  C11 UNL     1     149.921 160.331 160.674  0.00  0.00    -0.061 A 
ATOM     16  C12 UNL     1     150.354 161.208 161.668  0.00  0.00    -0.051 A 
ATOM     17  C13 UNL     1     151.004 160.726 162.832  0.00  0.00    +0.022 A 
ATOM     18  C14 UNL     1     152.599 159.049 166.361  0.00  0.00    +0.027 C 
ATOM     19  C15 UNL     1     151.402 158.812 167.247  0.00  0.00    -0.057 C 
ATOM     20  C16 UNL     1     150.922 159.641 168.190  0.00  0.00    +0.056 C 
ATOM     21 CL2  UNL     1     149.498 159.163 169.068  0.00  0.00    -0.082 Cl
ENDROOT
TORSDOF 0
ENDMDL
MODEL 7
REMARK VINA RESULT:    -6.327      5.221      7.425
REMARK INTER + INTRA:          -6.327
REMARK INTER:                  -6.327
REMARK INTRA:                   0.000
REMARK UNBOUND:                 0.000
REMARK  Name = /home/vital/Documents/PhD_2021/Malaria_codes/scripts/../data/pdbqt_ligands/ligand_109_temp.pdb
REMARK                            x       y       z     vdW  Elec       q    Type
REMARK                         _______ _______ _______ _____ _____    ______ ____
ROOT
ATOM      1 CL1  UNL     1     152.121 161.605 168.225  0.00  0.00    -0.082 Cl
ATOM      2  C1  UNL     1     150.996 161.022 167.032  0.00  0.00    +0.057 C 
ATOM      3  C2  UNL     1     150.648 161.836 166.021  0.00  0.00    -0.039 C 
ATOM      4  C3  UNL     1     149.712 161.525 164.895  0.00  0.00    +0.068 C 
ATOM      5  O1  UNL     1     150.207 162.198 163.737  0.00  0.00    -0.375 OA
ATOM      6  C4  UNL     1     149.984 161.502 162.508  0.00  0.00    +0.053 C 
ATOM      7  C5  UNL     1     151.261 160.807 162.023  0.00  0.00    +0.014 C 
ATOM      8  C6  UNL     1     151.434 159.442 162.642  0.00  0.00    +0.055 A 
ATOM      9  N1  UNL     1     151.934 159.468 163.893  0.00  0.00    -0.236 NA
ATOM     10  C7  UNL     1     152.018 158.308 164.560  0.00  0.00    +0.134 A 
ATOM     11  N2  UNL     1     151.683 157.114 164.048  0.00  0.00    -0.232 NA
ATOM     12  C8  UNL     1     151.218 157.091 162.794  0.00  0.00    +0.075 A 
ATOM     13  C9  UNL     1     150.866 155.862 162.249  0.00  0.00    -0.036 A 
ATOM     14  C10 UNL     1     150.341 155.744 160.961  0.00  0.00    -0.060 A 
ATOM     15  C11 UNL     1     150.153 156.883 160.191  0.00  0.00    -0.061 A 
ATOM     16  C12 UNL     1     150.498 158.129 160.712  0.00  0.00    -0.051 A 
ATOM     17  C13 UNL     1     151.043 158.247 162.016  0.00  0.00    +0.022 A 
ATOM     18  C14 UNL     1     152.318 158.400 166.036  0.00  0.00    +0.027 C 
ATOM     19  C15 UNL     1     151.047 158.541 166.836  0.00  0.00    -0.057 C 
ATOM     20  C16 UNL     1     150.487 159.686 167.261  0.00  0.00    +0.056 C 
ATOM     21 CL2  UNL     1     148.990 159.600 168.145  0.00  0.00    -0.082 Cl
ENDROOT
TORSDOF 0
ENDMDL
MODEL 8
REMARK VINA RESULT:    -6.319     15.349     17.717
REMARK INTER + INTRA:          -6.319
REMARK INTER:                  -6.319
REMARK INTRA:                   0.000
REMARK UNBOUND:                 0.000
REMARK  Name = /home/vital/Documents/PhD_2021/Malaria_codes/scripts/../data/pdbqt_ligands/ligand_109_temp.pdb
REMARK                            x       y       z     vdW  Elec       q    Type
REMARK                         _______ _______ _______ _____ _____    ______ ____
ROOT
ATOM      1 CL1  UNL     1     142.654 140.275 165.861  0.00  0.00    -0.082 Cl
ATOM      2  C1  UNL     1     143.205 141.593 164.868  0.00  0.00    +0.057 C 
ATOM      3  C2  UNL     1     142.310 142.250 164.112  0.00  0.00    -0.039 C 
ATOM      4  C3  UNL     1     142.575 143.411 163.204  0.00  0.00    +0.068 C 
ATOM      5  O1  UNL     1     141.426 144.258 163.256  0.00  0.00    -0.375 OA
ATOM      6  C4  UNL     1     141.714 145.652 163.129  0.00  0.00    +0.053 C 
ATOM      7  C5  UNL     1     141.661 146.355 164.491  0.00  0.00    +0.014 C 
ATOM      8  C6  UNL     1     142.973 146.260 165.229  0.00  0.00    +0.055 A 
ATOM      9  N1  UNL     1     143.164 145.082 165.856  0.00  0.00    -0.236 NA
ATOM     10  C7  UNL     1     144.348 144.869 166.445  0.00  0.00    +0.134 A 
ATOM     11  N2  UNL     1     145.342 145.768 166.497  0.00  0.00    -0.232 NA
ATOM     12  C8  UNL     1     145.135 146.948 165.901  0.00  0.00    +0.075 A 
ATOM     13  C9  UNL     1     146.155 147.891 165.945  0.00  0.00    -0.036 A 
ATOM     14  C10 UNL     1     146.041 149.136 165.323  0.00  0.00    -0.060 A 
ATOM     15  C11 UNL     1     144.881 149.454 164.631  0.00  0.00    -0.061 A 
ATOM     16  C12 UNL     1     143.842 148.527 164.572  0.00  0.00    -0.051 A 
ATOM     17  C13 UNL     1     143.952 147.266 165.213  0.00  0.00    +0.022 A 
ATOM     18  C14 UNL     1     144.632 143.457 166.895  0.00  0.00    +0.027 C 
ATOM     19  C15 UNL     1     145.262 142.654 165.784  0.00  0.00    -0.057 C 
ATOM     20  C16 UNL     1     144.629 141.850 164.913  0.00  0.00    +0.056 C 
ATOM     21 CL2  UNL     1     145.571 141.049 163.688  0.00  0.00    -0.082 Cl
ENDROOT
TORSDOF 0
ENDMDL
MODEL 9
REMARK VINA RESULT:    -6.154     15.229     17.383
REMARK INTER + INTRA:          -6.154
REMARK INTER:                  -6.154
REMARK INTRA:                   0.000
REMARK UNBOUND:                 0.000
REMARK  Name = /home/vital/Documents/PhD_2021/Malaria_codes/scripts/../data/pdbqt_ligands/ligand_109_temp.pdb
REMARK                            x       y       z     vdW  Elec       q    Type
REMARK                         _______ _______ _______ _____ _____    ______ ____
ROOT
ATOM      1 CL1  UNL     1     141.295 149.572 166.690  0.00  0.00    -0.082 Cl
ATOM      2  C1  UNL     1     142.317 148.561 165.711  0.00  0.00    +0.057 C 
ATOM      3  C2  UNL     1     143.642 148.569 165.938  0.00  0.00    -0.039 C 
ATOM      4  C3  UNL     1     144.684 147.769 165.221  0.00  0.00    +0.068 C 
ATOM      5  O1  UNL     1     145.690 147.432 166.177  0.00  0.00    -0.375 OA
ATOM      6  C4  UNL     1     146.302 146.158 165.966  0.00  0.00    +0.053 C 
ATOM      7  C5  UNL     1     145.749 145.108 166.937  0.00  0.00    +0.014 C 
ATOM      8  C6  UNL     1     144.486 144.467 166.418  0.00  0.00    +0.055 A 
ATOM      9  N1  UNL     1     143.378 145.211 166.607  0.00  0.00    -0.236 NA
ATOM     10  C7  UNL     1     142.227 144.769 166.081  0.00  0.00    +0.134 A 
ATOM     11  N2  UNL     1     142.092 143.609 165.419  0.00  0.00    -0.232 NA
ATOM     12  C8  UNL     1     143.189 142.859 165.264  0.00  0.00    +0.075 A 
ATOM     13  C9  UNL     1     143.067 141.655 164.580  0.00  0.00    -0.036 A 
ATOM     14  C10 UNL     1     144.163 140.824 164.341  0.00  0.00    -0.060 A 
ATOM     15  C11 UNL     1     145.421 141.201 164.788  0.00  0.00    -0.061 A 
ATOM     16  C12 UNL     1     145.572 142.403 165.477  0.00  0.00    -0.051 A 
ATOM     17  C13 UNL     1     144.457 143.243 165.731  0.00  0.00    +0.022 A 
ATOM     18  C14 UNL     1     141.074 145.742 166.069  0.00  0.00    +0.027 C 
ATOM     19  C15 UNL     1     141.094 146.585 164.818  0.00  0.00    -0.057 C 
ATOM     20  C16 UNL     1     141.637 147.807 164.679  0.00  0.00    +0.056 C 
ATOM     21 CL2  UNL     1     141.566 148.573 163.119  0.00  0.00    -0.082 Cl
ENDROOT
TORSDOF 0
ENDMDL
