MODEL 1
REMARK VINA RESULT:    -8.120      0.000      0.000
REMARK INTER + INTRA:          -8.120
REMARK INTER:                  -8.120
REMARK INTRA:                   0.000
REMARK UNBOUND:                 0.000
REMARK  Name = /home/vital/Documents/PhD_2021/Malaria_codes/scripts/../data/pdbqt_ligands/ligand_299_temp.pdb
REMARK                            x       y       z     vdW  Elec       q    Type
REMARK                         _______ _______ _______ _____ _____    ______ ____
ROOT
ATOM      1 CL1  UNL     1     153.505 157.478 152.854  0.00  0.00    -0.082 Cl
ATOM      2  C1  UNL     1     152.561 157.346 154.293  0.00  0.00    +0.059 A 
ATOM      3  C2  UNL     1     152.189 158.523 154.940  0.00  0.00    -0.040 A 
ATOM      4  C3  UNL     1     151.422 158.472 156.110  0.00  0.00    -0.037 A 
ATOM      5  C4  UNL     1     151.017 157.249 156.673  0.00  0.00    +0.055 A 
ATOM      6  N1  UNL     1     150.211 157.207 157.855  0.00  0.00    -0.202 N 
ATOM      7  C5  UNL     1     150.216 158.210 158.816  0.00  0.00    +0.105 C 
ATOM      8  N2  UNL     1     151.119 159.097 159.089  0.00  0.00    -0.239 NA
ATOM      9  C6  UNL     1     151.015 159.591 160.399  0.00  0.00    +0.069 A 
ATOM     10  C7  UNL     1     150.348 160.794 160.643  0.00  0.00    -0.036 A 
ATOM     11  C8  UNL     1     150.191 161.258 161.949  0.00  0.00    -0.060 A 
ATOM     12  C9  UNL     1     150.705 160.523 163.016  0.00  0.00    -0.061 A 
ATOM     13  C10 UNL     1     151.390 159.329 162.782  0.00  0.00    -0.057 A 
ATOM     14  C11 UNL     1     151.562 158.849 161.474  0.00  0.00    -0.022 A 
ATOM     15  C12 UNL     1     152.374 157.586 161.241  0.00  0.00    -0.024 C 
ATOM     16  C13 UNL     1     151.715 156.266 161.672  0.00  0.00    -0.023 C 
ATOM     17  C14 UNL     1     150.567 155.778 160.785  0.00  0.00    +0.071 C 
ATOM     18  O1  UNL     1     151.021 155.599 159.436  0.00  0.00    -0.282 OA
ATOM     19  N3  UNL     1     149.985 155.919 158.444  0.00  0.00    -0.113 NA
ATOM     20  C15 UNL     1     151.390 156.075 155.991  0.00  0.00    -0.019 A 
ATOM     21  C16 UNL     1     152.158 156.117 154.819  0.00  0.00    +0.061 A 
ATOM     22 CL2  UNL     1     152.567 154.612 154.070  0.00  0.00    -0.082 Cl
ATOM     23  H   UNL     1     149.996 155.210 157.711  0.00  0.00    +0.000 HD
ENDROOT
TORSDOF 0
ENDMDL
MODEL 2
REMARK VINA RESULT:    -7.530      5.700      8.399
REMARK INTER + INTRA:          -7.530
REMARK INTER:                  -7.530
REMARK INTRA:                   0.000
REMARK UNBOUND:                 0.000
REMARK  Name = /home/vital/Documents/PhD_2021/Malaria_codes/scripts/../data/pdbqt_ligands/ligand_299_temp.pdb
REMARK                            x       y       z     vdW  Elec       q    Type
REMARK                         _______ _______ _______ _____ _____    ______ ____
ROOT
ATOM      1 CL1  UNL     1     147.884 163.256 167.296  0.00  0.00    -0.082 Cl
ATOM      2  C1  UNL     1     149.001 162.434 166.267  0.00  0.00    +0.059 A 
ATOM      3  C2  UNL     1     148.769 162.469 164.893  0.00  0.00    -0.040 A 
ATOM      4  C3  UNL     1     149.645 161.820 164.014  0.00  0.00    -0.037 A 
ATOM      5  C4  UNL     1     150.765 161.110 164.481  0.00  0.00    +0.055 A 
ATOM      6  N1  UNL     1     151.669 160.471 163.574  0.00  0.00    -0.202 N 
ATOM      7  C5  UNL     1     151.293 160.019 162.315  0.00  0.00    +0.105 C 
ATOM      8  N2  UNL     1     150.123 159.701 161.861  0.00  0.00    -0.239 NA
ATOM      9  C6  UNL     1     150.188 158.832 160.760  0.00  0.00    +0.069 A 
ATOM     10  C7  UNL     1     150.100 159.339 159.461  0.00  0.00    -0.036 A 
ATOM     11  C8  UNL     1     150.223 158.486 158.364  0.00  0.00    -0.060 A 
ATOM     12  C9  UNL     1     150.429 157.122 158.562  0.00  0.00    -0.061 A 
ATOM     13  C10 UNL     1     150.498 156.602 159.856  0.00  0.00    -0.057 A 
ATOM     14  C11 UNL     1     150.372 157.444 160.972  0.00  0.00    -0.022 A 
ATOM     15  C12 UNL     1     150.377 156.843 162.368  0.00  0.00    -0.024 C 
ATOM     16  C13 UNL     1     151.731 156.321 162.876  0.00  0.00    -0.023 C 
ATOM     17  C14 UNL     1     152.755 157.393 163.255  0.00  0.00    +0.071 C 
ATOM     18  O1  UNL     1     152.225 158.249 164.277  0.00  0.00    -0.282 OA
ATOM     19  N3  UNL     1     152.687 159.638 164.146  0.00  0.00    -0.113 NA
ATOM     20  C15 UNL     1     150.987 161.105 165.872  0.00  0.00    -0.019 A 
ATOM     21  C16 UNL     1     150.115 161.752 166.758  0.00  0.00    +0.061 A 
ATOM     22 CL2  UNL     1     150.480 161.673 168.447  0.00  0.00    -0.082 Cl
ATOM     23  H   UNL     1     152.930 159.996 165.070  0.00  0.00    +0.000 HD
ENDROOT
TORSDOF 0
ENDMDL
MODEL 3
REMARK VINA RESULT:    -7.364     12.369     14.858
REMARK INTER + INTRA:          -7.364
REMARK INTER:                  -7.364
REMARK INTRA:                   0.000
REMARK UNBOUND:                 0.000
REMARK  Name = /home/vital/Documents/PhD_2021/Malaria_codes/scripts/../data/pdbqt_ligands/ligand_299_temp.pdb
REMARK                            x       y       z     vdW  Elec       q    Type
REMARK                         _______ _______ _______ _____ _____    ______ ____
ROOT
ATOM      1 CL1  UNL     1     145.471 140.719 164.578  0.00  0.00    -0.082 Cl
ATOM      2  C1  UNL     1     144.909 142.351 164.566  0.00  0.00    +0.059 A 
ATOM      3  C2  UNL     1     145.366 143.192 163.552  0.00  0.00    -0.040 A 
ATOM      4  C3  UNL     1     144.940 144.524 163.496  0.00  0.00    -0.037 A 
ATOM      5  C4  UNL     1     144.059 145.058 164.453  0.00  0.00    +0.055 A 
ATOM      6  N1  UNL     1     143.608 146.413 164.373  0.00  0.00    -0.202 N 
ATOM      7  C5  UNL     1     144.342 147.425 163.766  0.00  0.00    +0.105 C 
ATOM      8  N2  UNL     1     145.614 147.508 163.535  0.00  0.00    -0.239 NA
ATOM      9  C6  UNL     1     146.051 148.833 163.384  0.00  0.00    +0.069 A 
ATOM     10  C7  UNL     1     146.203 149.379 162.107  0.00  0.00    -0.036 A 
ATOM     11  C8  UNL     1     146.581 150.713 161.953  0.00  0.00    -0.060 A 
ATOM     12  C9  UNL     1     146.814 151.504 163.077  0.00  0.00    -0.061 A 
ATOM     13  C10 UNL     1     146.685 150.963 164.357  0.00  0.00    -0.057 A 
ATOM     14  C11 UNL     1     146.310 149.621 164.531  0.00  0.00    -0.022 A 
ATOM     15  C12 UNL     1     146.248 149.037 165.933  0.00  0.00    -0.024 C 
ATOM     16  C13 UNL     1     145.080 149.510 166.814  0.00  0.00    -0.023 C 
ATOM     17  C14 UNL     1     143.703 148.954 166.443  0.00  0.00    +0.071 C 
ATOM     18  O1  UNL     1     143.714 147.521 166.495  0.00  0.00    -0.282 OA
ATOM     19  N3  UNL     1     142.844 146.913 165.478  0.00  0.00    -0.113 NA
ATOM     20  C15 UNL     1     143.597 144.183 165.456  0.00  0.00    -0.019 A 
ATOM     21  C16 UNL     1     144.018 142.848 165.520  0.00  0.00    +0.061 A 
ATOM     22 CL2  UNL     1     143.395 141.868 166.801  0.00  0.00    -0.082 Cl
ATOM     23  H   UNL     1     142.326 146.142 165.901  0.00  0.00    +0.000 HD
ENDROOT
TORSDOF 0
ENDMDL
MODEL 4
REMARK VINA RESULT:    -7.352      1.900      2.532
REMARK INTER + INTRA:          -7.352
REMARK INTER:                  -7.352
REMARK INTRA:                   0.000
REMARK UNBOUND:                 0.000
REMARK  Name = /home/vital/Documents/PhD_2021/Malaria_codes/scripts/../data/pdbqt_ligands/ligand_299_temp.pdb
REMARK                            x       y       z     vdW  Elec       q    Type
REMARK                         _______ _______ _______ _____ _____    ______ ____
ROOT
ATOM      1 CL1  UNL     1     152.224 158.339 154.843  0.00  0.00    -0.082 Cl
ATOM      2  C1  UNL     1     151.540 158.209 156.423  0.00  0.00    +0.059 A 
ATOM      3  C2  UNL     1     151.490 159.359 157.209  0.00  0.00    -0.040 A 
ATOM      4  C3  UNL     1     150.944 159.308 158.497  0.00  0.00    -0.037 A 
ATOM      5  C4  UNL     1     150.446 158.111 159.041  0.00  0.00    +0.055 A 
ATOM      6  N1  UNL     1     149.866 158.074 160.348  0.00  0.00    -0.202 N 
ATOM      7  C5  UNL     1     150.208 158.965 161.359  0.00  0.00    +0.105 C 
ATOM      8  N2  UNL     1     151.281 159.673 161.516  0.00  0.00    -0.239 NA
ATOM      9  C6  UNL     1     151.493 160.044 162.853  0.00  0.00    +0.069 A 
ATOM     10  C7  UNL     1     151.091 161.305 163.302  0.00  0.00    -0.036 A 
ATOM     11  C8  UNL     1     151.247 161.655 164.644  0.00  0.00    -0.060 A 
ATOM     12  C9  UNL     1     151.811 160.748 165.539  0.00  0.00    -0.061 A 
ATOM     13  C10 UNL     1     152.235 159.494 165.096  0.00  0.00    -0.057 A 
ATOM     14  C11 UNL     1     152.090 159.126 163.750  0.00  0.00    -0.022 A 
ATOM     15  C12 UNL     1     152.626 157.784 163.279  0.00  0.00    -0.024 C 
ATOM     16  C13 UNL     1     151.842 156.542 163.735  0.00  0.00    -0.023 C 
ATOM     17  C14 UNL     1     150.490 156.324 163.051  0.00  0.00    +0.071 C 
ATOM     18  O1  UNL     1     150.662 156.214 161.631  0.00  0.00    -0.282 OA
ATOM     19  N3  UNL     1     149.536 156.784 160.879  0.00  0.00    -0.113 NA
ATOM     20  C15 UNL     1     150.492 156.967 158.220  0.00  0.00    -0.019 A 
ATOM     21  C16 UNL     1     151.036 157.009 156.929  0.00  0.00    +0.061 A 
ATOM     22 CL2  UNL     1     151.050 155.542 156.014  0.00  0.00    -0.082 Cl
ATOM     23  H   UNL     1     149.298 156.157 160.109  0.00  0.00    +0.000 HD
ENDROOT
TORSDOF 0
ENDMDL
MODEL 5
REMARK VINA RESULT:    -7.350      7.318     10.060
REMARK INTER + INTRA:          -7.350
REMARK INTER:                  -7.350
REMARK INTRA:                   0.000
REMARK UNBOUND:                 0.000
REMARK  Name = /home/vital/Documents/PhD_2021/Malaria_codes/scripts/../data/pdbqt_ligands/ligand_299_temp.pdb
REMARK                            x       y       z     vdW  Elec       q    Type
REMARK                         _______ _______ _______ _____ _____    ______ ____
ROOT
ATOM      1 CL1  UNL     1     151.014 163.371 168.494  0.00  0.00    -0.082 Cl
ATOM      2  C1  UNL     1     151.489 161.758 168.104  0.00  0.00    +0.059 A 
ATOM      3  C2  UNL     1     151.674 161.439 166.759  0.00  0.00    -0.040 A 
ATOM      4  C3  UNL     1     152.060 160.146 166.389  0.00  0.00    -0.037 A 
ATOM      5  C4  UNL     1     152.259 159.133 167.344  0.00  0.00    +0.055 A 
ATOM      6  N1  UNL     1     152.679 157.821 166.958  0.00  0.00    -0.202 N 
ATOM      7  C5  UNL     1     152.408 157.271 165.712  0.00  0.00    +0.105 C 
ATOM      8  N2  UNL     1     151.481 157.562 164.856  0.00  0.00    -0.239 NA
ATOM      9  C6  UNL     1     151.202 156.503 163.977  0.00  0.00    +0.069 A 
ATOM     10  C7  UNL     1     151.788 156.473 162.709  0.00  0.00    -0.036 A 
ATOM     11  C8  UNL     1     151.561 155.394 161.856  0.00  0.00    -0.060 A 
ATOM     12  C9  UNL     1     150.742 154.343 162.265  0.00  0.00    -0.061 A 
ATOM     13  C10 UNL     1     150.135 154.373 163.522  0.00  0.00    -0.057 A 
ATOM     14  C11 UNL     1     150.349 155.453 164.393  0.00  0.00    -0.022 A 
ATOM     15  C12 UNL     1     149.619 155.496 165.725  0.00  0.00    -0.024 C 
ATOM     16  C13 UNL     1     150.099 154.500 166.794  0.00  0.00    -0.023 C 
ATOM     17  C14 UNL     1     151.449 154.820 167.440  0.00  0.00    +0.071 C 
ATOM     18  O1  UNL     1     151.410 156.113 168.060  0.00  0.00    -0.282 OA
ATOM     19  N3  UNL     1     152.698 156.816 167.981  0.00  0.00    -0.113 NA
ATOM     20  C15 UNL     1     152.083 159.486 168.697  0.00  0.00    -0.019 A 
ATOM     21  C16 UNL     1     151.697 160.778 169.076  0.00  0.00    +0.061 A 
ATOM     22 CL2  UNL     1     151.500 161.096 170.765  0.00  0.00    -0.082 Cl
ATOM     23  H   UNL     1     152.892 157.258 168.880  0.00  0.00    +0.000 HD
ENDROOT
TORSDOF 0
ENDMDL
MODEL 6
REMARK VINA RESULT:    -7.343      7.671      9.764
REMARK INTER + INTRA:          -7.343
REMARK INTER:                  -7.343
REMARK INTRA:                   0.000
REMARK UNBOUND:                 0.000
REMARK  Name = /home/vital/Documents/PhD_2021/Malaria_codes/scripts/../data/pdbqt_ligands/ligand_299_temp.pdb
REMARK                            x       y       z     vdW  Elec       q    Type
REMARK                         _______ _______ _______ _____ _____    ______ ____
ROOT
ATOM      1 CL1  UNL     1     150.233 152.520 166.843  0.00  0.00    -0.082 Cl
ATOM      2  C1  UNL     1     150.830 154.126 166.624  0.00  0.00    +0.059 A 
ATOM      3  C2  UNL     1     151.601 154.680 167.645  0.00  0.00    -0.040 A 
ATOM      4  C3  UNL     1     152.110 155.977 167.517  0.00  0.00    -0.037 A 
ATOM      5  C4  UNL     1     151.856 156.761 166.378  0.00  0.00    +0.055 A 
ATOM      6  N1  UNL     1     152.403 158.076 166.244  0.00  0.00    -0.202 N 
ATOM      7  C5  UNL     1     152.722 158.882 167.331  0.00  0.00    +0.105 C 
ATOM      8  N2  UNL     1     152.279 158.853 168.547  0.00  0.00    -0.239 NA
ATOM      9  C6  UNL     1     152.425 160.084 169.206  0.00  0.00    +0.069 A 
ATOM     10  C7  UNL     1     153.519 160.303 170.047  0.00  0.00    -0.036 A 
ATOM     11  C8  UNL     1     153.700 161.545 170.657  0.00  0.00    -0.060 A 
ATOM     12  C9  UNL     1     152.782 162.570 170.432  0.00  0.00    -0.061 A 
ATOM     13  C10 UNL     1     151.674 162.355 169.610  0.00  0.00    -0.057 A 
ATOM     14  C11 UNL     1     151.475 161.111 168.992  0.00  0.00    -0.022 A 
ATOM     15  C12 UNL     1     150.223 160.881 168.162  0.00  0.00    -0.024 C 
ATOM     16  C13 UNL     1     150.168 161.600 166.803  0.00  0.00    -0.023 C 
ATOM     17  C14 UNL     1     151.083 161.031 165.715  0.00  0.00    +0.071 C 
ATOM     18  O1  UNL     1     150.771 159.652 165.473  0.00  0.00    -0.282 OA
ATOM     19  N3  UNL     1     151.958 158.858 165.127  0.00  0.00    -0.113 NA
ATOM     20  C15 UNL     1     151.090 156.171 165.353  0.00  0.00    -0.019 A 
ATOM     21  C16 UNL     1     150.576 154.873 165.473  0.00  0.00    +0.061 A 
ATOM     22 CL2  UNL     1     149.640 154.254 164.157  0.00  0.00    -0.082 Cl
ATOM     23  H   UNL     1     151.726 158.232 164.355  0.00  0.00    +0.000 HD
ENDROOT
TORSDOF 0
ENDMDL
MODEL 7
REMARK VINA RESULT:    -7.310      4.695      7.363
REMARK INTER + INTRA:          -7.310
REMARK INTER:                  -7.310
REMARK INTRA:                   0.000
REMARK UNBOUND:                 0.000
REMARK  Name = /home/vital/Documents/PhD_2021/Malaria_codes/scripts/../data/pdbqt_ligands/ligand_299_temp.pdb
REMARK                            x       y       z     vdW  Elec       q    Type
REMARK                         _______ _______ _______ _____ _____    ______ ____
ROOT
ATOM      1 CL1  UNL     1     149.156 162.668 165.470  0.00  0.00    -0.082 Cl
ATOM      2  C1  UNL     1     150.052 161.475 164.600  0.00  0.00    +0.059 A 
ATOM      3  C2  UNL     1     150.064 161.555 163.208  0.00  0.00    -0.040 A 
ATOM      4  C3  UNL     1     150.776 160.614 162.455  0.00  0.00    -0.037 A 
ATOM      5  C4  UNL     1     151.483 159.564 163.065  0.00  0.00    +0.055 A 
ATOM      6  N1  UNL     1     152.230 158.622 162.289  0.00  0.00    -0.202 N 
ATOM      7  C5  UNL     1     151.917 158.302 160.973  0.00  0.00    +0.105 C 
ATOM      8  N2  UNL     1     150.796 158.410 160.334  0.00  0.00    -0.239 NA
ATOM      9  C6  UNL     1     150.716 157.547 159.230  0.00  0.00    +0.069 A 
ATOM     10  C7  UNL     1     151.017 158.018 157.949  0.00  0.00    -0.036 A 
ATOM     11  C8  UNL     1     150.997 157.150 156.858  0.00  0.00    -0.060 A 
ATOM     12  C9  UNL     1     150.670 155.808 157.042  0.00  0.00    -0.061 A 
ATOM     13  C10 UNL     1     150.348 155.330 158.314  0.00  0.00    -0.057 A 
ATOM     14  C11 UNL     1     150.359 156.191 159.423  0.00  0.00    -0.022 A 
ATOM     15  C12 UNL     1     149.934 155.663 160.784  0.00  0.00    -0.024 C 
ATOM     16  C13 UNL     1     150.917 154.706 161.477  0.00  0.00    -0.023 C 
ATOM     17  C14 UNL     1     152.184 155.352 162.043  0.00  0.00    +0.071 C 
ATOM     18  O1  UNL     1     151.842 156.367 162.998  0.00  0.00    -0.282 OA
ATOM     19  N3  UNL     1     152.782 157.496 162.983  0.00  0.00    -0.113 NA
ATOM     20  C15 UNL     1     151.471 159.516 164.473  0.00  0.00    -0.019 A 
ATOM     21  C16 UNL     1     150.761 160.454 165.234  0.00  0.00    +0.061 A 
ATOM     22 CL2  UNL     1     150.807 160.293 166.956  0.00  0.00    -0.082 Cl
ATOM     23  H   UNL     1     152.991 157.767 163.945  0.00  0.00    +0.000 HD
ENDROOT
TORSDOF 0
ENDMDL
MODEL 8
REMARK VINA RESULT:    -6.696      5.053      7.575
REMARK INTER + INTRA:          -6.696
REMARK INTER:                  -6.696
REMARK INTRA:                   0.000
REMARK UNBOUND:                 0.000
REMARK  Name = /home/vital/Documents/PhD_2021/Malaria_codes/scripts/../data/pdbqt_ligands/ligand_299_temp.pdb
REMARK                            x       y       z     vdW  Elec       q    Type
REMARK                         _______ _______ _______ _____ _____    ______ ____
ROOT
ATOM      1 CL1  UNL     1     150.477 155.977 160.777  0.00  0.00    -0.082 Cl
ATOM      2  C1  UNL     1     150.845 157.456 161.588  0.00  0.00    +0.059 A 
ATOM      3  C2  UNL     1     151.533 157.383 162.798  0.00  0.00    -0.040 A 
ATOM      4  C3  UNL     1     151.857 158.553 163.496  0.00  0.00    -0.037 A 
ATOM      5  C4  UNL     1     151.495 159.823 163.014  0.00  0.00    +0.055 A 
ATOM      6  N1  UNL     1     151.853 161.015 163.720  0.00  0.00    -0.202 N 
ATOM      7  C5  UNL     1     152.059 161.053 165.094  0.00  0.00    +0.105 C 
ATOM      8  N2  UNL     1     151.627 160.261 166.023  0.00  0.00    -0.239 NA
ATOM      9  C6  UNL     1     151.601 160.872 167.287  0.00  0.00    +0.069 A 
ATOM     10  C7  UNL     1     152.656 160.674 168.182  0.00  0.00    -0.036 A 
ATOM     11  C8  UNL     1     152.663 161.326 169.415  0.00  0.00    -0.060 A 
ATOM     12  C9  UNL     1     151.612 162.174 169.760  0.00  0.00    -0.061 A 
ATOM     13  C10 UNL     1     150.543 162.362 168.882  0.00  0.00    -0.057 A 
ATOM     14  C11 UNL     1     150.517 161.711 167.638  0.00  0.00    -0.022 A 
ATOM     15  C12 UNL     1     149.308 161.876 166.733  0.00  0.00    -0.024 C 
ATOM     16  C13 UNL     1     149.152 163.247 166.053  0.00  0.00    -0.023 C 
ATOM     17  C14 UNL     1     150.134 163.539 164.916  0.00  0.00    +0.071 C 
ATOM     18  O1  UNL     1     150.017 162.545 163.888  0.00  0.00    -0.282 OA
ATOM     19  N3  UNL     1     151.302 162.248 163.240  0.00  0.00    -0.113 NA
ATOM     20  C15 UNL     1     150.816 159.871 161.780  0.00  0.00    -0.019 A 
ATOM     21  C16 UNL     1     150.488 158.705 161.076  0.00  0.00    +0.061 A 
ATOM     22 CL2  UNL     1     149.645 158.882 159.576  0.00  0.00    -0.082 Cl
ATOM     23  H   UNL     1     151.158 162.179 162.232  0.00  0.00    +0.000 HD
ENDROOT
TORSDOF 0
ENDMDL
MODEL 9
REMARK VINA RESULT:    -6.555      7.048      9.124
REMARK INTER + INTRA:          -6.555
REMARK INTER:                  -6.555
REMARK INTRA:                   0.000
REMARK UNBOUND:                 0.000
REMARK  Name = /home/vital/Documents/PhD_2021/Malaria_codes/scripts/../data/pdbqt_ligands/ligand_299_temp.pdb
REMARK                            x       y       z     vdW  Elec       q    Type
REMARK                         _______ _______ _______ _____ _____    ______ ____
ROOT
ATOM      1 CL1  UNL     1     149.294 153.273 165.232  0.00  0.00    -0.082 Cl
ATOM      2  C1  UNL     1     150.225 154.709 165.461  0.00  0.00    +0.059 A 
ATOM      3  C2  UNL     1     150.375 155.189 166.761  0.00  0.00    -0.040 A 
ATOM      4  C3  UNL     1     151.122 156.348 167.002  0.00  0.00    -0.037 A 
ATOM      5  C4  UNL     1     151.727 157.067 165.955  0.00  0.00    +0.055 A 
ATOM      6  N1  UNL     1     152.509 158.236 166.213  0.00  0.00    -0.202 N 
ATOM      7  C5  UNL     1     152.314 159.055 167.319  0.00  0.00    +0.105 C 
ATOM      8  N2  UNL     1     151.265 159.214 168.062  0.00  0.00    -0.239 NA
ATOM      9  C6  UNL     1     151.262 160.446 168.736  0.00  0.00    +0.069 A 
ATOM     10  C7  UNL     1     151.703 160.521 170.060  0.00  0.00    -0.036 A 
ATOM     11  C8  UNL     1     151.757 161.751 170.714  0.00  0.00    -0.060 A 
ATOM     12  C9  UNL     1     151.364 162.911 170.048  0.00  0.00    -0.061 A 
ATOM     13  C10 UNL     1     150.902 162.845 168.732  0.00  0.00    -0.057 A 
ATOM     14  C11 UNL     1     150.837 161.615 168.060  0.00  0.00    -0.022 A 
ATOM     15  C12 UNL     1     150.262 161.560 166.654  0.00  0.00    -0.024 C 
ATOM     16  C13 UNL     1     151.137 162.158 165.540  0.00  0.00    -0.023 C 
ATOM     17  C14 UNL     1     152.366 161.334 165.148  0.00  0.00    +0.071 C 
ATOM     18  O1  UNL     1     151.970 160.025 164.714  0.00  0.00    -0.282 OA
ATOM     19  N3  UNL     1     152.949 158.991 165.076  0.00  0.00    -0.113 NA
ATOM     20  C15 UNL     1     151.575 156.551 164.653  0.00  0.00    -0.019 A 
ATOM     21  C16 UNL     1     150.830 155.391 164.404  0.00  0.00    +0.061 A 
ATOM     22 CL2  UNL     1     150.702 154.854 162.764  0.00  0.00    -0.082 Cl
ATOM     23  H   UNL     1     153.074 158.359 164.285  0.00  0.00    +0.000 HD
ENDROOT
TORSDOF 0
ENDMDL
