MODEL 1
REMARK VINA RESULT:    -5.291      0.000      0.000
REMARK INTER + INTRA:          -5.291
REMARK INTER:                  -5.291
REMARK INTRA:                   0.000
REMARK UNBOUND:                 0.000
REMARK  Name = /home/vital/Documents/PhD_2021/Malaria_codes/scripts/../data/pdbqt_ligands/ligand_20_temp.pdb
REMARK                            x       y       z     vdW  Elec       q    Type
REMARK                         _______ _______ _______ _____ _____    ______ ____
ROOT
ATOM      1  N   UNL     1     153.412 157.194 155.803  0.00  0.00    -0.345 N 
ATOM      2  C   UNL     1     152.454 156.390 155.228  0.00  0.00    +0.114 C 
ATOM      3  N   UNL     1     151.407 155.925 155.843  0.00  0.00    -0.191 N 
ATOM      4  C   UNL     1     151.208 156.239 157.157  0.00  0.00    +0.115 C 
ATOM      5  S   UNL     1     150.644 157.801 157.646  0.00  0.00    +0.047 S 
ATOM      6  O   UNL     1     151.723 157.958 158.909  0.00  0.00    -0.304 OA
ATOM      7  C   UNL     1     151.116 158.079 160.190  0.00  0.00    +0.081 C 
ATOM      8  C   UNL     1     150.301 156.900 160.639  0.00  0.00    -0.057 C 
ATOM      9  C   UNL     1     150.329 155.613 160.262  0.00  0.00    -0.063 C 
ATOM     10  C   UNL     1     151.228 154.928 159.368  0.00  0.00    -0.060 C 
ATOM     11  C   UNL     1     151.567 155.156 158.092  0.00  0.00    -0.030 C 
ATOM     12  C   UNL     1     152.618 156.013 153.784  0.00  0.00    +0.014 A 
ATOM     13  C   UNL     1     151.502 155.613 153.039  0.00  0.00    -0.050 A 
ATOM     14  C   UNL     1     151.641 155.261 151.694  0.00  0.00    -0.041 A 
ATOM     15  C   UNL     1     152.900 155.301 151.086  0.00  0.00    +0.059 A 
ATOM     16 CL   UNL     1     153.003 154.856 149.420  0.00  0.00    -0.082 Cl
ATOM     17  C   UNL     1     154.019 155.691 151.831  0.00  0.00    +0.060 A 
ATOM     18 CL   UNL     1     155.606 155.755 151.149  0.00  0.00    -0.082 Cl
ATOM     19  C   UNL     1     153.879 156.044 153.178  0.00  0.00    -0.032 A 
ATOM     20  H   UNL     1     153.331 157.457 156.748  0.00  0.00    +0.000 HD
ATOM     21  H   UNL     1     154.178 157.506 155.269  0.00  0.00    +0.000 HD
ATOM     22  H   UNL     1     150.764 155.354 155.366  0.00  0.00    +0.000 HD
ENDROOT
TORSDOF 0
ENDMDL
MODEL 2
REMARK VINA RESULT:    -4.874      3.800      5.228
REMARK INTER + INTRA:          -4.874
REMARK INTER:                  -4.874
REMARK INTRA:                   0.000
REMARK UNBOUND:                 0.000
REMARK  Name = /home/vital/Documents/PhD_2021/Malaria_codes/scripts/../data/pdbqt_ligands/ligand_20_temp.pdb
REMARK                            x       y       z     vdW  Elec       q    Type
REMARK                         _______ _______ _______ _____ _____    ______ ____
ROOT
ATOM      1  N   UNL     1     151.828 154.271 159.744  0.00  0.00    -0.345 N 
ATOM      2  C   UNL     1     150.908 155.258 159.468  0.00  0.00    +0.114 C 
ATOM      3  N   UNL     1     149.908 155.577 160.234  0.00  0.00    -0.191 N 
ATOM      4  C   UNL     1     149.724 154.906 161.409  0.00  0.00    +0.115 C 
ATOM      5  S   UNL     1     150.714 155.207 162.796  0.00  0.00    +0.047 S 
ATOM      6  O   UNL     1     150.923 153.596 163.181  0.00  0.00    -0.304 OA
ATOM      7  C   UNL     1     150.416 153.227 164.458  0.00  0.00    +0.081 C 
ATOM      8  C   UNL     1     148.934 153.390 164.644  0.00  0.00    -0.057 C 
ATOM      9  C   UNL     1     147.935 153.450 163.751  0.00  0.00    -0.063 C 
ATOM     10  C   UNL     1     147.956 153.276 162.321  0.00  0.00    -0.060 C 
ATOM     11  C   UNL     1     148.658 153.887 161.357  0.00  0.00    -0.030 C 
ATOM     12  C   UNL     1     151.062 156.032 158.191  0.00  0.00    +0.014 A 
ATOM     13  C   UNL     1     150.479 157.300 158.073  0.00  0.00    -0.050 A 
ATOM     14  C   UNL     1     150.615 158.031 156.889  0.00  0.00    -0.041 A 
ATOM     15  C   UNL     1     151.330 157.496 155.814  0.00  0.00    +0.059 A 
ATOM     16 CL   UNL     1     151.462 158.451 154.381  0.00  0.00    -0.082 Cl
ATOM     17  C   UNL     1     151.905 156.223 155.925  0.00  0.00    +0.060 A 
ATOM     18 CL   UNL     1     152.794 155.495 154.634  0.00  0.00    -0.082 Cl
ATOM     19  C   UNL     1     151.769 155.492 157.111  0.00  0.00    -0.032 A 
ATOM     20  H   UNL     1     151.753 153.748 160.575  0.00  0.00    +0.000 HD
ATOM     21  H   UNL     1     152.560 154.090 159.113  0.00  0.00    +0.000 HD
ATOM     22  H   UNL     1     149.289 156.295 159.970  0.00  0.00    +0.000 HD
ENDROOT
TORSDOF 0
ENDMDL
MODEL 3
REMARK VINA RESULT:    -4.296      7.101     10.287
REMARK INTER + INTRA:          -4.296
REMARK INTER:                  -4.296
REMARK INTRA:                   0.000
REMARK UNBOUND:                 0.000
REMARK  Name = /home/vital/Documents/PhD_2021/Malaria_codes/scripts/../data/pdbqt_ligands/ligand_20_temp.pdb
REMARK                            x       y       z     vdW  Elec       q    Type
REMARK                         _______ _______ _______ _____ _____    ______ ____
ROOT
ATOM      1  N   UNL     1     149.547 160.430 161.021  0.00  0.00    -0.345 N 
ATOM      2  C   UNL     1     150.557 160.050 161.877  0.00  0.00    +0.114 C 
ATOM      3  N   UNL     1     151.307 159.000 161.720  0.00  0.00    -0.191 N 
ATOM      4  C   UNL     1     151.111 158.192 160.638  0.00  0.00    +0.115 C 
ATOM      5  S   UNL     1     151.638 158.646 159.053  0.00  0.00    +0.047 S 
ATOM      6  O   UNL     1     150.236 158.164 158.287  0.00  0.00    -0.304 OA
ATOM      7  C   UNL     1     150.417 157.135 157.321  0.00  0.00    +0.081 C 
ATOM      8  C   UNL     1     150.934 155.827 157.851  0.00  0.00    -0.057 C 
ATOM      9  C   UNL     1     150.904 155.301 159.085  0.00  0.00    -0.063 C 
ATOM     10  C   UNL     1     150.271 155.787 160.285  0.00  0.00    -0.060 C 
ATOM     11  C   UNL     1     150.374 156.950 160.942  0.00  0.00    -0.030 C 
ATOM     12  C   UNL     1     150.821 160.902 163.084  0.00  0.00    +0.014 A 
ATOM     13  C   UNL     1     152.071 160.849 163.712  0.00  0.00    -0.050 A 
ATOM     14  C   UNL     1     152.330 161.637 164.836  0.00  0.00    -0.041 A 
ATOM     15  C   UNL     1     151.337 162.481 165.343  0.00  0.00    +0.059 A 
ATOM     16 CL   UNL     1     151.722 163.430 166.734  0.00  0.00    -0.082 Cl
ATOM     17  C   UNL     1     150.082 162.528 164.724  0.00  0.00    +0.060 A 
ATOM     18 CL   UNL     1     148.804 163.539 165.302  0.00  0.00    -0.082 Cl
ATOM     19  C   UNL     1     149.824 161.739 163.598  0.00  0.00    -0.032 A 
ATOM     20  H   UNL     1     149.351 159.890 160.221  0.00  0.00    +0.000 HD
ATOM     21  H   UNL     1     149.022 161.240 161.209  0.00  0.00    +0.000 HD
ATOM     22  H   UNL     1     152.011 158.790 162.375  0.00  0.00    +0.000 HD
ENDROOT
TORSDOF 0
ENDMDL
MODEL 4
REMARK VINA RESULT:    -4.214      2.716      3.767
REMARK INTER + INTRA:          -4.214
REMARK INTER:                  -4.214
REMARK INTRA:                   0.000
REMARK UNBOUND:                 0.000
REMARK  Name = /home/vital/Documents/PhD_2021/Malaria_codes/scripts/../data/pdbqt_ligands/ligand_20_temp.pdb
REMARK                            x       y       z     vdW  Elec       q    Type
REMARK                         _______ _______ _______ _____ _____    ______ ____
ROOT
ATOM      1  N   UNL     1     151.983 159.477 157.797  0.00  0.00    -0.345 N 
ATOM      2  C   UNL     1     151.524 158.184 157.917  0.00  0.00    +0.114 C 
ATOM      3  N   UNL     1     151.069 157.656 159.014  0.00  0.00    -0.191 N 
ATOM      4  C   UNL     1     151.025 158.410 160.151  0.00  0.00    +0.115 C 
ATOM      5  S   UNL     1     149.821 159.630 160.391  0.00  0.00    +0.047 S 
ATOM      6  O   UNL     1     150.883 160.769 160.991  0.00  0.00    -0.304 OA
ATOM      7  C   UNL     1     150.607 161.185 162.324  0.00  0.00    +0.081 C 
ATOM      8  C   UNL     1     150.695 160.113 163.372  0.00  0.00    -0.057 C 
ATOM      9  C   UNL     1     151.340 158.938 163.381  0.00  0.00    -0.063 C 
ATOM     10  C   UNL     1     152.245 158.370 162.414  0.00  0.00    -0.060 C 
ATOM     11  C   UNL     1     152.114 158.121 161.104  0.00  0.00    -0.030 C 
ATOM     12  C   UNL     1     151.546 157.308 156.698  0.00  0.00    +0.014 A 
ATOM     13  C   UNL     1     150.701 156.194 156.627  0.00  0.00    -0.050 A 
ATOM     14  C   UNL     1     150.712 155.371 155.498  0.00  0.00    -0.041 A 
ATOM     15  C   UNL     1     151.572 155.655 154.433  0.00  0.00    +0.059 A 
ATOM     16 CL   UNL     1     151.534 154.599 153.066  0.00  0.00    -0.082 Cl
ATOM     17  C   UNL     1     152.425 156.762 154.504  0.00  0.00    +0.060 A 
ATOM     18 CL   UNL     1     153.521 157.168 153.230  0.00  0.00    -0.082 Cl
ATOM     19  C   UNL     1     152.414 157.587 155.635  0.00  0.00    -0.032 A 
ATOM     20  H   UNL     1     151.980 160.075 158.579  0.00  0.00    +0.000 HD
ATOM     21  H   UNL     1     152.312 159.804 156.929  0.00  0.00    +0.000 HD
ATOM     22  H   UNL     1     150.759 156.722 159.024  0.00  0.00    +0.000 HD
ENDROOT
TORSDOF 0
ENDMDL
MODEL 5
REMARK VINA RESULT:    -3.927      7.296     10.723
REMARK INTER + INTRA:          -3.927
REMARK INTER:                  -3.927
REMARK INTRA:                   0.000
REMARK UNBOUND:                 0.000
REMARK  Name = /home/vital/Documents/PhD_2021/Malaria_codes/scripts/../data/pdbqt_ligands/ligand_20_temp.pdb
REMARK                            x       y       z     vdW  Elec       q    Type
REMARK                         _______ _______ _______ _____ _____    ______ ____
ROOT
ATOM      1  N   UNL     1     152.089 158.896 162.495  0.00  0.00    -0.345 N 
ATOM      2  C   UNL     1     151.536 160.157 162.481  0.00  0.00    +0.114 C 
ATOM      3  N   UNL     1     150.937 160.694 161.461  0.00  0.00    -0.191 N 
ATOM      4  C   UNL     1     150.825 159.985 160.300  0.00  0.00    +0.115 C 
ATOM      5  S   UNL     1     149.686 158.693 160.126  0.00  0.00    +0.047 S 
ATOM      6  O   UNL     1     150.753 157.656 159.370  0.00  0.00    -0.304 OA
ATOM      7  C   UNL     1     150.370 157.274 158.054  0.00  0.00    +0.081 C 
ATOM      8  C   UNL     1     150.277 158.390 157.053  0.00  0.00    -0.057 C 
ATOM      9  C   UNL     1     150.840 159.607 157.034  0.00  0.00    -0.063 C 
ATOM     10  C   UNL     1     151.800 160.199 157.930  0.00  0.00    -0.060 C 
ATOM     11  C   UNL     1     151.788 160.386 159.257  0.00  0.00    -0.030 C 
ATOM     12  C   UNL     1     151.626 160.984 163.731  0.00  0.00    +0.014 A 
ATOM     13  C   UNL     1     150.721 162.033 163.937  0.00  0.00    -0.050 A 
ATOM     14  C   UNL     1     150.794 162.809 165.096  0.00  0.00    -0.041 A 
ATOM     15  C   UNL     1     151.776 162.545 166.056  0.00  0.00    +0.059 A 
ATOM     16 CL   UNL     1     151.810 163.541 167.467  0.00  0.00    -0.082 Cl
ATOM     17  C   UNL     1     152.688 161.504 165.848  0.00  0.00    +0.060 A 
ATOM     18 CL   UNL     1     153.934 161.126 166.986  0.00  0.00    -0.082 Cl
ATOM     19  C   UNL     1     152.615 160.726 164.687  0.00  0.00    -0.032 A 
ATOM     20  H   UNL     1     152.044 158.331 161.690  0.00  0.00    +0.000 HD
ATOM     21  H   UNL     1     152.527 158.559 163.309  0.00  0.00    +0.000 HD
ATOM     22  H   UNL     1     150.566 161.604 161.524  0.00  0.00    +0.000 HD
ENDROOT
TORSDOF 0
ENDMDL
MODEL 6
REMARK VINA RESULT:    -3.850      7.922     10.465
REMARK INTER + INTRA:          -3.850
REMARK INTER:                  -3.850
REMARK INTRA:                   0.000
REMARK UNBOUND:                 0.000
REMARK  Name = /home/vital/Documents/PhD_2021/Malaria_codes/scripts/../data/pdbqt_ligands/ligand_20_temp.pdb
REMARK                            x       y       z     vdW  Elec       q    Type
REMARK                         _______ _______ _______ _____ _____    ______ ____
ROOT
ATOM      1  N   UNL     1     150.634 160.254 165.224  0.00  0.00    -0.345 N 
ATOM      2  C   UNL     1     151.677 159.503 164.729  0.00  0.00    +0.114 C 
ATOM      3  N   UNL     1     152.792 159.276 165.357  0.00  0.00    -0.191 N 
ATOM      4  C   UNL     1     152.978 159.803 166.602  0.00  0.00    +0.115 C 
ATOM      5  S   UNL     1     152.206 159.136 168.000  0.00  0.00    +0.047 S 
ATOM      6  O   UNL     1     151.762 160.611 168.642  0.00  0.00    -0.304 OA
ATOM      7  C   UNL     1     152.327 160.891 169.917  0.00  0.00    +0.081 C 
ATOM      8  C   UNL     1     153.826 160.985 169.960  0.00  0.00    -0.057 C 
ATOM      9  C   UNL     1     154.722 161.235 168.994  0.00  0.00    -0.063 C 
ATOM     10  C   UNL     1     154.521 161.595 167.613  0.00  0.00    -0.060 C 
ATOM     11  C   UNL     1     153.840 161.001 166.624  0.00  0.00    -0.030 C 
ATOM     12  C   UNL     1     151.528 158.896 163.364  0.00  0.00    +0.014 A 
ATOM     13  C   UNL     1     152.307 157.788 163.008  0.00  0.00    -0.050 A 
ATOM     14  C   UNL     1     152.177 157.213 161.741  0.00  0.00    -0.041 A 
ATOM     15  C   UNL     1     151.272 157.746 160.819  0.00  0.00    +0.059 A 
ATOM     16 CL   UNL     1     151.159 156.988 159.272  0.00  0.00    -0.082 Cl
ATOM     17  C   UNL     1     150.499 158.861 161.169  0.00  0.00    +0.060 A 
ATOM     18 CL   UNL     1     149.367 159.579 160.077  0.00  0.00    -0.082 Cl
ATOM     19  C   UNL     1     150.629 159.436 162.438  0.00  0.00    -0.032 A 
ATOM     20  H   UNL     1     150.703 160.664 166.116  0.00  0.00    +0.000 HD
ATOM     21  H   UNL     1     149.819 160.379 164.686  0.00  0.00    +0.000 HD
ATOM     22  H   UNL     1     153.496 158.730 164.939  0.00  0.00    +0.000 HD
ENDROOT
TORSDOF 0
ENDMDL
MODEL 7
REMARK VINA RESULT:    -3.844      6.195      8.352
REMARK INTER + INTRA:          -3.844
REMARK INTER:                  -3.844
REMARK INTRA:                   0.000
REMARK UNBOUND:                 0.000
REMARK  Name = /home/vital/Documents/PhD_2021/Malaria_codes/scripts/../data/pdbqt_ligands/ligand_20_temp.pdb
REMARK                            x       y       z     vdW  Elec       q    Type
REMARK                         _______ _______ _______ _____ _____    ______ ____
ROOT
ATOM      1  N   UNL     1     150.730 161.577 161.570  0.00  0.00    -0.345 N 
ATOM      2  C   UNL     1     150.861 160.249 161.911  0.00  0.00    +0.114 C 
ATOM      3  N   UNL     1     151.083 159.810 163.114  0.00  0.00    -0.191 N 
ATOM      4  C   UNL     1     151.198 160.701 164.142  0.00  0.00    +0.115 C 
ATOM      5  S   UNL     1     149.816 161.490 164.823  0.00  0.00    +0.047 S 
ATOM      6  O   UNL     1     150.526 162.999 164.889  0.00  0.00    -0.304 OA
ATOM      7  C   UNL     1     150.642 163.538 166.201  0.00  0.00    +0.081 C 
ATOM      8  C   UNL     1     151.506 162.759 167.151  0.00  0.00    -0.057 C 
ATOM      9  C   UNL     1     152.490 161.875 166.927  0.00  0.00    -0.063 C 
ATOM     10  C   UNL     1     153.104 161.465 165.689  0.00  0.00    -0.060 C 
ATOM     11  C   UNL     1     152.589 160.955 164.562  0.00  0.00    -0.030 C 
ATOM     12  C   UNL     1     150.742 159.223 160.822  0.00  0.00    +0.014 A 
ATOM     13  C   UNL     1     150.407 157.902 161.146  0.00  0.00    -0.050 A 
ATOM     14  C   UNL     1     150.292 156.937 160.142  0.00  0.00    -0.041 A 
ATOM     15  C   UNL     1     150.516 157.286 158.807  0.00  0.00    +0.059 A 
ATOM     16 CL   UNL     1     150.357 156.046 157.614  0.00  0.00    -0.082 Cl
ATOM     17  C   UNL     1     150.862 158.603 158.481  0.00  0.00    +0.060 A 
ATOM     18 CL   UNL     1     151.162 159.103 156.854  0.00  0.00    -0.082 Cl
ATOM     19  C   UNL     1     150.976 159.569 159.487  0.00  0.00    -0.032 A 
ATOM     20  H   UNL     1     150.803 162.272 162.263  0.00  0.00    +0.000 HD
ATOM     21  H   UNL     1     150.562 161.830 160.634  0.00  0.00    +0.000 HD
ATOM     22  H   UNL     1     151.166 158.844 163.283  0.00  0.00    +0.000 HD
ENDROOT
TORSDOF 0
ENDMDL
MODEL 8
REMARK VINA RESULT:    -3.686      5.880      8.054
REMARK INTER + INTRA:          -3.686
REMARK INTER:                  -3.686
REMARK INTRA:                   0.000
REMARK UNBOUND:                 0.000
REMARK  Name = /home/vital/Documents/PhD_2021/Malaria_codes/scripts/../data/pdbqt_ligands/ligand_20_temp.pdb
REMARK                            x       y       z     vdW  Elec       q    Type
REMARK                         _______ _______ _______ _____ _____    ______ ____
ROOT
ATOM      1  N   UNL     1     151.084 158.876 162.539  0.00  0.00    -0.345 N 
ATOM      2  C   UNL     1     151.463 159.877 161.672  0.00  0.00    +0.114 C 
ATOM      3  N   UNL     1     151.720 161.102 162.020  0.00  0.00    -0.191 N 
ATOM      4  C   UNL     1     151.619 161.461 163.334  0.00  0.00    +0.115 C 
ATOM      5  S   UNL     1     152.823 161.015 164.495  0.00  0.00    +0.047 S 
ATOM      6  O   UNL     1     151.730 160.562 165.673  0.00  0.00    -0.304 OA
ATOM      7  C   UNL     1     151.813 161.318 166.875  0.00  0.00    +0.081 C 
ATOM      8  C   UNL     1     151.519 162.786 166.743  0.00  0.00    -0.057 C 
ATOM      9  C   UNL     1     150.831 163.468 165.815  0.00  0.00    -0.063 C 
ATOM     10  C   UNL     1     150.063 162.990 164.693  0.00  0.00    -0.060 C 
ATOM     11  C   UNL     1     150.385 162.199 163.661  0.00  0.00    -0.030 C 
ATOM     12  C   UNL     1     151.592 159.541 160.215  0.00  0.00    +0.014 A 
ATOM     13  C   UNL     1     152.389 160.341 159.386  0.00  0.00    -0.050 A 
ATOM     14  C   UNL     1     152.519 160.039 158.028  0.00  0.00    -0.041 A 
ATOM     15  C   UNL     1     151.847 158.938 157.488  0.00  0.00    +0.059 A 
ATOM     16 CL   UNL     1     152.051 158.619 155.803  0.00  0.00    -0.082 Cl
ATOM     17  C   UNL     1     151.041 158.143 158.312  0.00  0.00    +0.060 A 
ATOM     18 CL   UNL     1     150.174 156.773 157.712  0.00  0.00    -0.082 Cl
ATOM     19  C   UNL     1     150.912 158.445 159.672  0.00  0.00    -0.032 A 
ATOM     20  H   UNL     1     150.991 159.066 163.500  0.00  0.00    +0.000 HD
ATOM     21  H   UNL     1     150.907 157.970 162.197  0.00  0.00    +0.000 HD
ATOM     22  H   UNL     1     151.984 161.766 161.343  0.00  0.00    +0.000 HD
ENDROOT
TORSDOF 0
ENDMDL
MODEL 9
REMARK VINA RESULT:    -3.356      7.123      9.506
REMARK INTER + INTRA:          -3.356
REMARK INTER:                  -3.356
REMARK INTRA:                   0.000
REMARK UNBOUND:                 0.000
REMARK  Name = /home/vital/Documents/PhD_2021/Malaria_codes/scripts/../data/pdbqt_ligands/ligand_20_temp.pdb
REMARK                            x       y       z     vdW  Elec       q    Type
REMARK                         _______ _______ _______ _____ _____    ______ ____
ROOT
ATOM      1  N   UNL     1     150.566 162.543 162.875  0.00  0.00    -0.345 N 
ATOM      2  C   UNL     1     150.759 161.182 162.962  0.00  0.00    +0.114 C 
ATOM      3  N   UNL     1     150.921 160.525 164.071  0.00  0.00    -0.191 N 
ATOM      4  C   UNL     1     150.904 161.199 165.258  0.00  0.00    +0.115 C 
ATOM      5  S   UNL     1     149.429 161.768 165.963  0.00  0.00    +0.047 S 
ATOM      6  O   UNL     1     150.033 163.268 166.378  0.00  0.00    -0.304 OA
ATOM      7  C   UNL     1     150.020 163.540 167.775  0.00  0.00    +0.081 C 
ATOM      8  C   UNL     1     150.862 162.632 168.624  0.00  0.00    -0.057 C 
ATOM      9  C   UNL     1     151.915 161.861 168.315  0.00  0.00    -0.063 C 
ATOM     10  C   UNL     1     152.641 161.735 167.077  0.00  0.00    -0.060 C 
ATOM     11  C   UNL     1     152.242 161.434 165.834  0.00  0.00    -0.030 C 
ATOM     12  C   UNL     1     150.784 160.387 161.689  0.00  0.00    +0.014 A 
ATOM     13  C   UNL     1     150.514 159.014 161.722  0.00  0.00    -0.050 A 
ATOM     14  C   UNL     1     150.534 158.263 160.544  0.00  0.00    -0.041 A 
ATOM     15  C   UNL     1     150.830 158.880 159.325  0.00  0.00    +0.059 A 
ATOM     16 CL   UNL     1     150.837 157.895 157.906  0.00  0.00    -0.082 Cl
ATOM     17  C   UNL     1     151.111 160.251 159.290  0.00  0.00    +0.060 A 
ATOM     18 CL   UNL     1     151.495 161.078 157.821  0.00  0.00    -0.082 Cl
ATOM     19  C   UNL     1     151.090 161.003 160.470  0.00  0.00    -0.032 A 
ATOM     20  H   UNL     1     150.544 163.090 163.693  0.00  0.00    +0.000 HD
ATOM     21  H   UNL     1     150.450 162.969 161.995  0.00  0.00    +0.000 HD
ATOM     22  H   UNL     1     151.055 159.550 164.056  0.00  0.00    +0.000 HD
ENDROOT
TORSDOF 0
ENDMDL
