MODEL 1
REMARK VINA RESULT:    -8.994      0.000      0.000
REMARK INTER + INTRA:          -8.994
REMARK INTER:                  -8.994
REMARK INTRA:                   0.000
REMARK UNBOUND:                 0.000
REMARK  Name = /home/vital/Documents/PhD_2021/Malaria_codes/scripts/../data/pdbqt_ligands/ligand_131_temp.pdb
REMARK                            x       y       z     vdW  Elec       q    Type
REMARK                         _______ _______ _______ _____ _____    ______ ____
ROOT
ATOM      1  C1  UNL     1     156.687 152.138 151.513  0.00  0.00    -0.099 C 
ATOM      2  C2  UNL     1     157.347 153.058 150.795  0.00  0.00    -0.051 C 
ATOM      3  C3  UNL     1     156.776 154.092 149.855  0.00  0.00    +0.157 C 
ATOM      4  C4  UNL     1     157.517 155.426 149.998  0.00  0.00    -0.024 C 
ATOM      5  O1  UNL     1     157.055 153.615 148.535  0.00  0.00    -0.376 OA
ATOM      6  C5  UNL     1     155.237 154.330 150.025  0.00  0.00    +0.253 C 
ATOM      7  O2  UNL     1     154.445 153.936 149.166  0.00  0.00    -0.272 OA
ATOM      8  N1  UNL     1     154.869 154.958 151.198  0.00  0.00    -0.280 N 
ATOM      9  C6  UNL     1     153.618 155.505 151.570  0.00  0.00    +0.077 A 
ATOM     10  C7  UNL     1     153.533 155.937 152.904  0.00  0.00    -0.012 A 
ATOM     11  C8  UNL     1     152.384 156.580 153.380  0.00  0.00    +0.090 A 
ATOM     12  S1  UNL     1     152.350 157.189 155.050  0.00  0.00    -0.003 S 
ATOM     13  O3  UNL     1     153.732 157.263 155.498  0.00  0.00    -0.169 OA
ATOM     14  O4  UNL     1     151.508 158.375 155.063  0.00  0.00    -0.169 OA
ATOM     15  C9  UNL     1     151.554 155.907 155.998  0.00  0.00    +0.068 C 
ATOM     16  C10 UNL     1     150.099 155.680 155.631  0.00  0.00    -0.045 C 
ATOM     17  C11 UNL     1     151.308 156.837 152.532  0.00  0.00    -0.033 A 
ATOM     18  C12 UNL     1     151.371 156.398 151.211  0.00  0.00    -0.017 A 
ATOM     19  C13 UNL     1     152.508 155.727 150.735  0.00  0.00    +0.138 A 
ATOM     20  O5  UNL     1     152.420 155.377 149.419  0.00  0.00    -0.505 OA
ATOM     21  H   UNL     1     158.009 153.471 148.438  0.00  0.00    +0.000 HD
ATOM     22  H   UNL     1     155.580 155.036 151.874  0.00  0.00    +0.000 HD
ATOM     23  H   UNL     1     153.129 154.925 149.006  0.00  0.00    +0.000 HD
ENDROOT
TORSDOF 0
ENDMDL
MODEL 2
REMARK VINA RESULT:    -7.211      9.113     11.978
REMARK INTER + INTRA:          -7.211
REMARK INTER:                  -7.211
REMARK INTRA:                   0.000
REMARK UNBOUND:                 0.000
REMARK  Name = /home/vital/Documents/PhD_2021/Malaria_codes/scripts/../data/pdbqt_ligands/ligand_131_temp.pdb
REMARK                            x       y       z     vdW  Elec       q    Type
REMARK                         _______ _______ _______ _____ _____    ______ ____
ROOT
ATOM      1  C1  UNL     1     153.050 160.630 164.854  0.00  0.00    -0.099 C 
ATOM      2  C2  UNL     1     151.961 161.409 164.778  0.00  0.00    -0.051 C 
ATOM      3  C3  UNL     1     151.205 161.835 163.544  0.00  0.00    +0.157 C 
ATOM      4  C4  UNL     1     149.694 161.820 163.798  0.00  0.00    -0.024 C 
ATOM      5  O1  UNL     1     151.563 163.203 163.321  0.00  0.00    -0.376 OA
ATOM      6  C5  UNL     1     151.527 160.983 162.269  0.00  0.00    +0.253 C 
ATOM      7  O2  UNL     1     152.184 161.465 161.344  0.00  0.00    -0.272 OA
ATOM      8  N1  UNL     1     151.062 159.684 162.302  0.00  0.00    -0.280 N 
ATOM      9  C6  UNL     1     150.991 158.728 161.262  0.00  0.00    +0.077 A 
ATOM     10  C7  UNL     1     150.606 157.439 161.666  0.00  0.00    -0.012 A 
ATOM     11  C8  UNL     1     150.409 156.419 160.727  0.00  0.00    +0.090 A 
ATOM     12  S1  UNL     1     149.838 154.825 161.271  0.00  0.00    -0.003 S 
ATOM     13  O3  UNL     1     149.274 155.013 162.599  0.00  0.00    -0.169 OA
ATOM     14  O4  UNL     1     149.028 154.266 160.200  0.00  0.00    -0.169 OA
ATOM     15  C9  UNL     1     151.312 153.841 161.454  0.00  0.00    +0.068 C 
ATOM     16  C10 UNL     1     152.043 153.573 160.152  0.00  0.00    -0.045 C 
ATOM     17  C11 UNL     1     150.558 156.668 159.363  0.00  0.00    -0.033 A 
ATOM     18  C12 UNL     1     150.956 157.937 158.949  0.00  0.00    -0.017 A 
ATOM     19  C13 UNL     1     151.184 158.956 159.887  0.00  0.00    +0.138 A 
ATOM     20  O5  UNL     1     151.553 160.141 159.322  0.00  0.00    -0.505 OA
ATOM     21  H   UNL     1     151.360 163.723 164.113  0.00  0.00    +0.000 HD
ATOM     22  H   UNL     1     150.731 159.378 163.178  0.00  0.00    +0.000 HD
ATOM     23  H   UNL     1     151.728 160.885 159.864  0.00  0.00    +0.000 HD
ENDROOT
TORSDOF 0
ENDMDL
MODEL 3
REMARK VINA RESULT:    -7.143     10.448     13.491
REMARK INTER + INTRA:          -7.143
REMARK INTER:                  -7.143
REMARK INTRA:                   0.000
REMARK UNBOUND:                 0.000
REMARK  Name = /home/vital/Documents/PhD_2021/Malaria_codes/scripts/../data/pdbqt_ligands/ligand_131_temp.pdb
REMARK                            x       y       z     vdW  Elec       q    Type
REMARK                         _______ _______ _______ _____ _____    ______ ____
ROOT
ATOM      1  C1  UNL     1     152.441 161.604 160.673  0.00  0.00    -0.099 C 
ATOM      2  C2  UNL     1     151.401 160.911 160.187  0.00  0.00    -0.051 C 
ATOM      3  C3  UNL     1     151.084 159.449 160.380  0.00  0.00    +0.157 C 
ATOM      4  C4  UNL     1     149.579 159.239 160.579  0.00  0.00    -0.024 C 
ATOM      5  O1  UNL     1     151.420 158.811 159.144  0.00  0.00    -0.376 OA
ATOM      6  C5  UNL     1     151.864 158.775 161.560  0.00  0.00    +0.253 C 
ATOM      7  O2  UNL     1     152.767 157.968 161.332  0.00  0.00    -0.272 OA
ATOM      8  N1  UNL     1     151.487 159.190 162.822  0.00  0.00    -0.280 N 
ATOM      9  C6  UNL     1     151.824 158.647 164.084  0.00  0.00    +0.077 A 
ATOM     10  C7  UNL     1     151.396 159.403 165.188  0.00  0.00    -0.012 A 
ATOM     11  C8  UNL     1     151.585 158.938 166.495  0.00  0.00    +0.090 A 
ATOM     12  S1  UNL     1     150.952 159.884 167.861  0.00  0.00    -0.003 S 
ATOM     13  O3  UNL     1     149.963 160.801 167.314  0.00  0.00    -0.169 OA
ATOM     14  O4  UNL     1     150.584 158.943 168.907  0.00  0.00    -0.169 OA
ATOM     15  C9  UNL     1     152.329 160.864 168.426  0.00  0.00    +0.068 C 
ATOM     16  C10 UNL     1     153.471 160.051 169.006  0.00  0.00    -0.045 C 
ATOM     17  C11 UNL     1     152.172 157.696 166.732  0.00  0.00    -0.033 A 
ATOM     18  C12 UNL     1     152.617 156.943 165.647  0.00  0.00    -0.017 A 
ATOM     19  C13 UNL     1     152.457 157.417 164.335  0.00  0.00    +0.138 A 
ATOM     20  O5  UNL     1     152.930 156.557 163.387  0.00  0.00    -0.505 OA
ATOM     21  H   UNL     1     150.933 159.233 158.419  0.00  0.00    +0.000 HD
ATOM     22  H   UNL     1     150.897 159.977 162.846  0.00  0.00    +0.000 HD
ATOM     23  H   UNL     1     152.870 156.781 162.479  0.00  0.00    +0.000 HD
ENDROOT
TORSDOF 0
ENDMDL
MODEL 4
REMARK VINA RESULT:    -7.022     13.334     15.333
REMARK INTER + INTRA:          -7.022
REMARK INTER:                  -7.022
REMARK INTRA:                   0.000
REMARK UNBOUND:                 0.000
REMARK  Name = /home/vital/Documents/PhD_2021/Malaria_codes/scripts/../data/pdbqt_ligands/ligand_131_temp.pdb
REMARK                            x       y       z     vdW  Elec       q    Type
REMARK                         _______ _______ _______ _____ _____    ______ ____
ROOT
ATOM      1  C1  UNL     1     148.662 153.501 162.750  0.00  0.00    -0.099 C 
ATOM      2  C2  UNL     1     148.096 152.731 163.691  0.00  0.00    -0.051 C 
ATOM      3  C3  UNL     1     148.723 152.186 164.950  0.00  0.00    +0.157 C 
ATOM      4  C4  UNL     1     147.736 152.245 166.120  0.00  0.00    -0.024 C 
ATOM      5  O1  UNL     1     148.964 150.798 164.696  0.00  0.00    -0.376 OA
ATOM      6  C5  UNL     1     150.059 152.895 165.359  0.00  0.00    +0.253 C 
ATOM      7  O2  UNL     1     151.138 152.310 165.243  0.00  0.00    -0.272 OA
ATOM      8  N1  UNL     1     149.919 154.195 165.799  0.00  0.00    -0.280 N 
ATOM      9  C6  UNL     1     150.865 155.037 166.431  0.00  0.00    +0.077 A 
ATOM     10  C7  UNL     1     150.447 156.366 166.613  0.00  0.00    -0.012 A 
ATOM     11  C8  UNL     1     151.248 157.283 167.305  0.00  0.00    +0.090 A 
ATOM     12  S1  UNL     1     150.646 158.931 167.589  0.00  0.00    -0.003 S 
ATOM     13  O3  UNL     1     149.205 158.892 167.390  0.00  0.00    -0.169 OA
ATOM     14  O4  UNL     1     151.202 159.384 168.855  0.00  0.00    -0.169 OA
ATOM     15  C9  UNL     1     151.336 159.913 166.272  0.00  0.00    +0.068 C 
ATOM     16  C10 UNL     1     152.848 160.032 166.317  0.00  0.00    -0.045 C 
ATOM     17  C11 UNL     1     152.465 156.890 167.859  0.00  0.00    -0.033 A 
ATOM     18  C12 UNL     1     152.900 155.579 167.672  0.00  0.00    -0.017 A 
ATOM     19  C13 UNL     1     152.115 154.663 166.954  0.00  0.00    +0.138 A 
ATOM     20  O5  UNL     1     152.673 153.420 166.872  0.00  0.00    -0.505 OA
ATOM     21  H   UNL     1     148.133 150.366 164.444  0.00  0.00    +0.000 HD
ATOM     22  H   UNL     1     149.032 154.596 165.652  0.00  0.00    +0.000 HD
ATOM     23  H   UNL     1     152.226 152.735 166.413  0.00  0.00    +0.000 HD
ENDROOT
TORSDOF 0
ENDMDL
MODEL 5
REMARK VINA RESULT:    -6.743     17.558     19.651
REMARK INTER + INTRA:          -6.743
REMARK INTER:                  -6.743
REMARK INTRA:                   0.000
REMARK UNBOUND:                 0.000
REMARK  Name = /home/vital/Documents/PhD_2021/Malaria_codes/scripts/../data/pdbqt_ligands/ligand_131_temp.pdb
REMARK                            x       y       z     vdW  Elec       q    Type
REMARK                         _______ _______ _______ _____ _____    ______ ____
ROOT
ATOM      1  C1  UNL     1     142.263 140.987 163.788  0.00  0.00    -0.099 C 
ATOM      2  C2  UNL     1     143.384 140.486 164.326  0.00  0.00    -0.051 C 
ATOM      3  C3  UNL     1     144.785 141.041 164.246  0.00  0.00    +0.157 C 
ATOM      4  C4  UNL     1     145.511 140.884 165.587  0.00  0.00    -0.024 C 
ATOM      5  O1  UNL     1     145.481 140.209 163.311  0.00  0.00    -0.376 OA
ATOM      6  C5  UNL     1     144.856 142.537 163.788  0.00  0.00    +0.253 C 
ATOM      7  O2  UNL     1     145.283 142.828 162.668  0.00  0.00    -0.272 OA
ATOM      8  N1  UNL     1     144.373 143.452 164.702  0.00  0.00    -0.280 N 
ATOM      9  C6  UNL     1     144.478 144.863 164.702  0.00  0.00    +0.077 A 
ATOM     10  C7  UNL     1     143.738 145.512 165.704  0.00  0.00    -0.012 A 
ATOM     11  C8  UNL     1     143.822 146.899 165.876  0.00  0.00    +0.090 A 
ATOM     12  S1  UNL     1     142.937 147.671 167.211  0.00  0.00    -0.003 S 
ATOM     13  O3  UNL     1     142.599 146.617 168.156  0.00  0.00    -0.169 OA
ATOM     14  O4  UNL     1     143.716 148.822 167.640  0.00  0.00    -0.169 OA
ATOM     15  C9  UNL     1     141.412 148.243 166.488  0.00  0.00    +0.068 C 
ATOM     16  C10 UNL     1     141.591 149.336 165.450  0.00  0.00    -0.045 C 
ATOM     17  C11 UNL     1     144.669 147.666 165.078  0.00  0.00    -0.033 A 
ATOM     18  C12 UNL     1     145.396 147.038 164.068  0.00  0.00    -0.017 A 
ATOM     19  C13 UNL     1     145.294 145.652 163.872  0.00  0.00    +0.138 A 
ATOM     20  O5  UNL     1     146.079 145.189 162.856  0.00  0.00    -0.505 OA
ATOM     21  H   UNL     1     145.433 139.286 163.603  0.00  0.00    +0.000 HD
ATOM     22  H   UNL     1     143.884 143.066 165.464  0.00  0.00    +0.000 HD
ATOM     23  H   UNL     1     146.082 144.276 162.645  0.00  0.00    +0.000 HD
ENDROOT
TORSDOF 0
ENDMDL
MODEL 6
REMARK VINA RESULT:    -6.434     10.847     14.341
REMARK INTER + INTRA:          -6.434
REMARK INTER:                  -6.434
REMARK INTRA:                   0.000
REMARK UNBOUND:                 0.000
REMARK  Name = /home/vital/Documents/PhD_2021/Malaria_codes/scripts/../data/pdbqt_ligands/ligand_131_temp.pdb
REMARK                            x       y       z     vdW  Elec       q    Type
REMARK                         _______ _______ _______ _____ _____    ______ ____
ROOT
ATOM      1  C1  UNL     1     151.604 158.103 161.544  0.00  0.00    -0.099 C 
ATOM      2  C2  UNL     1     151.962 159.079 160.697  0.00  0.00    -0.051 C 
ATOM      3  C3  UNL     1     151.501 160.516 160.683  0.00  0.00    +0.157 C 
ATOM      4  C4  UNL     1     152.665 161.457 160.353  0.00  0.00    -0.024 C 
ATOM      5  O1  UNL     1     150.578 160.619 159.594  0.00  0.00    -0.376 OA
ATOM      6  C5  UNL     1     150.816 160.982 162.013  0.00  0.00    +0.253 C 
ATOM      7  O2  UNL     1     149.601 161.184 162.051  0.00  0.00    -0.272 OA
ATOM      8  N1  UNL     1     151.662 161.094 163.098  0.00  0.00    -0.280 N 
ATOM      9  C6  UNL     1     151.425 161.677 164.364  0.00  0.00    +0.077 A 
ATOM     10  C7  UNL     1     152.451 161.488 165.305  0.00  0.00    -0.012 A 
ATOM     11  C8  UNL     1     152.388 162.087 166.569  0.00  0.00    +0.090 A 
ATOM     12  S1  UNL     1     153.747 161.894 167.700  0.00  0.00    -0.003 S 
ATOM     13  O3  UNL     1     154.891 161.464 166.910  0.00  0.00    -0.169 OA
ATOM     14  O4  UNL     1     153.819 163.104 168.502  0.00  0.00    -0.169 OA
ATOM     15  C9  UNL     1     153.286 160.531 168.752  0.00  0.00    +0.068 C 
ATOM     16  C10 UNL     1     152.080 160.808 169.630  0.00  0.00    -0.045 C 
ATOM     17  C11 UNL     1     151.320 162.915 166.913  0.00  0.00    -0.033 A 
ATOM     18  C12 UNL     1     150.286 163.099 165.995  0.00  0.00    -0.017 A 
ATOM     19  C13 UNL     1     150.330 162.477 164.738  0.00  0.00    +0.138 A 
ATOM     20  O5  UNL     1     149.253 162.768 163.952  0.00  0.00    -0.505 OA
ATOM     21  H   UNL     1     151.010 160.330 158.776  0.00  0.00    +0.000 HD
ATOM     22  H   UNL     1     152.560 160.712 162.972  0.00  0.00    +0.000 HD
ATOM     23  H   UNL     1     149.187 162.401 163.092  0.00  0.00    +0.000 HD
ENDROOT
TORSDOF 0
ENDMDL
MODEL 7
REMARK VINA RESULT:    -6.333     11.311     15.884
REMARK INTER + INTRA:          -6.333
REMARK INTER:                  -6.333
REMARK INTRA:                   0.000
REMARK UNBOUND:                 0.000
REMARK  Name = /home/vital/Documents/PhD_2021/Malaria_codes/scripts/../data/pdbqt_ligands/ligand_131_temp.pdb
REMARK                            x       y       z     vdW  Elec       q    Type
REMARK                         _______ _______ _______ _____ _____    ______ ____
ROOT
ATOM      1  C1  UNL     1     148.508 163.154 167.697  0.00  0.00    -0.099 C 
ATOM      2  C2  UNL     1     149.689 163.536 168.203  0.00  0.00    -0.051 C 
ATOM      3  C3  UNL     1     150.897 162.682 168.496  0.00  0.00    +0.157 C 
ATOM      4  C4  UNL     1     152.188 163.416 168.117  0.00  0.00    -0.024 C 
ATOM      5  O1  UNL     1     150.927 162.524 169.919  0.00  0.00    -0.376 OA
ATOM      6  C5  UNL     1     150.873 161.278 167.802  0.00  0.00    +0.253 C 
ATOM      7  O2  UNL     1     150.692 160.256 168.466  0.00  0.00    -0.272 OA
ATOM      8  N1  UNL     1     151.023 161.303 166.430  0.00  0.00    -0.280 N 
ATOM      9  C6  UNL     1     151.255 160.234 165.532  0.00  0.00    +0.077 A 
ATOM     10  C7  UNL     1     151.204 160.581 164.172  0.00  0.00    -0.012 A 
ATOM     11  C8  UNL     1     151.504 159.641 163.178  0.00  0.00    +0.090 A 
ATOM     12  S1  UNL     1     151.512 160.142 161.472  0.00  0.00    -0.003 S 
ATOM     13  O3  UNL     1     151.603 161.594 161.462  0.00  0.00    -0.169 OA
ATOM     14  O4  UNL     1     152.512 159.337 160.788  0.00  0.00    -0.169 OA
ATOM     15  C9  UNL     1     149.899 159.708 160.852  0.00  0.00    +0.068 C 
ATOM     16  C10 UNL     1     149.629 158.215 160.822  0.00  0.00    -0.045 C 
ATOM     17  C11 UNL     1     151.893 158.346 163.517  0.00  0.00    -0.033 A 
ATOM     18  C12 UNL     1     151.931 157.983 164.862  0.00  0.00    -0.017 A 
ATOM     19  C13 UNL     1     151.604 158.912 165.861  0.00  0.00    +0.138 A 
ATOM     20  O5  UNL     1     151.705 158.407 167.125  0.00  0.00    -0.505 OA
ATOM     21  H   UNL     1     150.942 163.397 170.341  0.00  0.00    +0.000 HD
ATOM     22  H   UNL     1     150.958 162.194 166.016  0.00  0.00    +0.000 HD
ATOM     23  H   UNL     1     151.507 158.949 167.863  0.00  0.00    +0.000 HD
ENDROOT
TORSDOF 0
ENDMDL
MODEL 8
REMARK VINA RESULT:    -6.171     18.148     21.055
REMARK INTER + INTRA:          -6.171
REMARK INTER:                  -6.171
REMARK INTRA:                   0.000
REMARK UNBOUND:                 0.000
REMARK  Name = /home/vital/Documents/PhD_2021/Malaria_codes/scripts/../data/pdbqt_ligands/ligand_131_temp.pdb
REMARK                            x       y       z     vdW  Elec       q    Type
REMARK                         _______ _______ _______ _____ _____    ______ ____
ROOT
ATOM      1  C1  UNL     1     142.372 148.703 167.692  0.00  0.00    -0.099 C 
ATOM      2  C2  UNL     1     142.674 149.146 166.464  0.00  0.00    -0.051 C 
ATOM      3  C3  UNL     1     143.821 148.727 165.578  0.00  0.00    +0.157 C 
ATOM      4  C4  UNL     1     143.371 148.624 164.116  0.00  0.00    -0.024 C 
ATOM      5  O1  UNL     1     144.768 149.800 165.633  0.00  0.00    -0.376 OA
ATOM      6  C5  UNL     1     144.506 147.386 166.009  0.00  0.00    +0.253 C 
ATOM      7  O2  UNL     1     145.634 147.392 166.507  0.00  0.00    -0.272 OA
ATOM      8  N1  UNL     1     143.739 146.253 165.824  0.00  0.00    -0.280 N 
ATOM      9  C6  UNL     1     144.114 144.891 165.904  0.00  0.00    +0.077 A 
ATOM     10  C7  UNL     1     143.051 143.977 165.814  0.00  0.00    -0.012 A 
ATOM     11  C8  UNL     1     143.288 142.598 165.788  0.00  0.00    +0.090 A 
ATOM     12  S1  UNL     1     141.922 141.477 165.586  0.00  0.00    -0.003 S 
ATOM     13  O3  UNL     1     140.813 142.258 165.060  0.00  0.00    -0.169 OA
ATOM     14  O4  UNL     1     142.416 140.318 164.860  0.00  0.00    -0.169 OA
ATOM     15  C9  UNL     1     141.481 140.978 167.239  0.00  0.00    +0.068 C 
ATOM     16  C10 UNL     1     142.552 140.170 167.947  0.00  0.00    -0.045 C 
ATOM     17  C11 UNL     1     144.589 142.098 165.818  0.00  0.00    -0.033 A 
ATOM     18  C12 UNL     1     145.653 142.993 165.925  0.00  0.00    -0.017 A 
ATOM     19  C13 UNL     1     145.420 144.375 165.980  0.00  0.00    +0.138 A 
ATOM     20  O5  UNL     1     146.563 145.114 166.069  0.00  0.00    -0.505 OA
ATOM     21  H   UNL     1     144.337 150.626 165.365  0.00  0.00    +0.000 HD
ATOM     22  H   UNL     1     142.793 146.417 165.606  0.00  0.00    +0.000 HD
ATOM     23  H   UNL     1     146.515 146.049 166.111  0.00  0.00    +0.000 HD
ENDROOT
TORSDOF 0
ENDMDL
