MODEL 1
REMARK VINA RESULT:    -8.365      0.000      0.000
REMARK INTER + INTRA:          -8.365
REMARK INTER:                  -8.365
REMARK INTRA:                   0.000
REMARK UNBOUND:                 0.000
REMARK  Name = /home/vital/Documents/PhD_2021/Malaria_codes/scripts/../data/pdbqt_ligands/ligand_260_temp.pdb
REMARK                            x       y       z     vdW  Elec       q    Type
REMARK                         _______ _______ _______ _____ _____    ______ ____
ROOT
ATOM      1  C1  UNL     1     149.675 156.370 157.118  0.00  0.00    +0.079 C 
ATOM      2  O1  UNL     1     150.628 157.216 156.483  0.00  0.00    -0.495 OA
ATOM      3  C2  UNL     1     151.242 158.153 157.268  0.00  0.00    +0.122 A 
ATOM      4  C3  UNL     1     152.113 159.006 156.583  0.00  0.00    -0.020 A 
ATOM      5  C4  UNL     1     152.803 160.015 157.259  0.00  0.00    -0.056 A 
ATOM      6  C5  UNL     1     152.627 160.174 158.631  0.00  0.00    -0.038 A 
ATOM      7  C6  UNL     1     151.762 159.323 159.324  0.00  0.00    +0.065 A 
ATOM      8  N1  UNL     1     151.593 159.520 160.737  0.00  0.00    -0.123 N 
ATOM      9  C7  UNL     1     152.232 158.579 161.569  0.00  0.00    +0.333 C 
ATOM     10  O2  UNL     1     152.982 157.729 161.090  0.00  0.00    -0.250 OA
ATOM     11  N2  UNL     1     152.044 158.660 162.958  0.00  0.00    -0.248 N 
ATOM     12  C8  UNL     1     152.729 157.633 163.757  0.00  0.00    +0.046 C 
ATOM     13  C9  UNL     1     151.797 156.520 164.195  0.00  0.00    -0.027 A 
ATOM     14  C10 UNL     1     151.505 156.311 165.551  0.00  0.00    -0.053 A 
ATOM     15  C11 UNL     1     150.644 155.278 165.952  0.00  0.00    -0.017 A 
ATOM     16  C12 UNL     1     150.068 154.431 165.005  0.00  0.00    +0.155 A 
ATOM     17  O3  UNL     1     149.223 153.390 165.274  0.00  0.00    -0.492 OA
ATOM     18  C13 UNL     1     148.868 153.173 166.633  0.00  0.00    +0.079 C 
ATOM     19  C14 UNL     1     150.369 154.638 163.655  0.00  0.00    +0.165 A 
ATOM     20  F1  UNL     1     149.838 153.840 162.715  0.00  0.00    -0.202 F 
ATOM     21  C15 UNL     1     151.221 155.663 163.249  0.00  0.00    -0.018 A 
ATOM     22  C16 UNL     1     151.252 159.666 163.601  0.00  0.00    +0.065 A 
ATOM     23  C17 UNL     1     151.317 159.886 164.991  0.00  0.00    -0.038 A 
ATOM     24  C18 UNL     1     150.562 160.887 165.620  0.00  0.00    -0.060 A 
ATOM     25  C19 UNL     1     149.715 161.698 164.878  0.00  0.00    -0.060 A 
ATOM     26  C20 UNL     1     149.620 161.499 163.508  0.00  0.00    -0.033 A 
ATOM     27  C21 UNL     1     150.377 160.488 162.894  0.00  0.00    +0.131 A 
ATOM     28  S1  UNL     1     150.164 160.249 161.176  0.00  0.00    +0.084 S 
ATOM     29  O4  UNL     1     149.074 159.309 161.017  0.00  0.00    -0.149 OA
ATOM     30  O5  UNL     1     150.115 161.568 160.574  0.00  0.00    -0.149 OA
ATOM     31  C22 UNL     1     151.070 158.311 158.643  0.00  0.00    +0.003 A 
ENDROOT
TORSDOF 0
ENDMDL
MODEL 2
REMARK VINA RESULT:    -8.147     13.545     17.502
REMARK INTER + INTRA:          -8.147
REMARK INTER:                  -8.147
REMARK INTRA:                   0.000
REMARK UNBOUND:                 0.000
REMARK  Name = /home/vital/Documents/PhD_2021/Malaria_codes/scripts/../data/pdbqt_ligands/ligand_260_temp.pdb
REMARK                            x       y       z     vdW  Elec       q    Type
REMARK                         _______ _______ _______ _____ _____    ______ ____
ROOT
ATOM      1  C1  UNL     1     141.469 139.612 162.879  0.00  0.00    +0.079 C 
ATOM      2  O1  UNL     1     141.332 139.039 164.174  0.00  0.00    -0.495 OA
ATOM      3  C2  UNL     1     141.731 139.806 165.235  0.00  0.00    +0.122 A 
ATOM      4  C3  UNL     1     141.645 139.172 166.478  0.00  0.00    -0.020 A 
ATOM      5  C4  UNL     1     142.025 139.835 167.646  0.00  0.00    -0.056 A 
ATOM      6  C5  UNL     1     142.493 141.145 167.577  0.00  0.00    -0.038 A 
ATOM      7  C6  UNL     1     142.578 141.788 166.340  0.00  0.00    +0.065 A 
ATOM      8  N1  UNL     1     143.075 143.135 166.301  0.00  0.00    -0.123 N 
ATOM      9  C7  UNL     1     142.109 144.140 166.090  0.00  0.00    +0.333 C 
ATOM     10  O2  UNL     1     140.910 143.861 166.071  0.00  0.00    -0.250 OA
ATOM     11  N2  UNL     1     142.531 145.472 165.959  0.00  0.00    -0.248 N 
ATOM     12  C8  UNL     1     141.467 146.461 165.724  0.00  0.00    +0.046 C 
ATOM     13  C9  UNL     1     141.364 146.870 164.269  0.00  0.00    -0.027 A 
ATOM     14  C10 UNL     1     141.641 148.184 163.863  0.00  0.00    -0.053 A 
ATOM     15  C11 UNL     1     141.541 148.559 162.515  0.00  0.00    -0.017 A 
ATOM     16  C12 UNL     1     141.155 147.628 161.550  0.00  0.00    +0.155 A 
ATOM     17  O3  UNL     1     141.017 147.876 160.212  0.00  0.00    -0.492 OA
ATOM     18  C13 UNL     1     141.331 149.185 159.756  0.00  0.00    +0.079 C 
ATOM     19  C14 UNL     1     140.871 146.322 161.960  0.00  0.00    +0.165 A 
ATOM     20  F1  UNL     1     140.491 145.400 161.061  0.00  0.00    -0.202 F 
ATOM     21  C15 UNL     1     140.970 145.941 163.297  0.00  0.00    -0.018 A 
ATOM     22  C16 UNL     1     143.898 145.892 166.048  0.00  0.00    +0.065 A 
ATOM     23  C17 UNL     1     144.251 147.248 166.195  0.00  0.00    -0.038 A 
ATOM     24  C18 UNL     1     145.587 147.659 166.309  0.00  0.00    -0.060 A 
ATOM     25  C19 UNL     1     146.613 146.726 166.276  0.00  0.00    -0.060 A 
ATOM     26  C20 UNL     1     146.300 145.383 166.120  0.00  0.00    -0.033 A 
ATOM     27  C21 UNL     1     144.957 144.988 166.001  0.00  0.00    +0.131 A 
ATOM     28  S1  UNL     1     144.634 143.290 165.744  0.00  0.00    +0.084 S 
ATOM     29  O4  UNL     1     144.660 143.071 164.313  0.00  0.00    -0.149 OA
ATOM     30  O5  UNL     1     145.516 142.558 166.634  0.00  0.00    -0.149 OA
ATOM     31  C22 UNL     1     142.195 141.119 165.168  0.00  0.00    +0.003 A 
ENDROOT
TORSDOF 0
ENDMDL
MODEL 3
REMARK VINA RESULT:    -8.064      3.490      6.309
REMARK INTER + INTRA:          -8.064
REMARK INTER:                  -8.064
REMARK INTRA:                   0.000
REMARK UNBOUND:                 0.000
REMARK  Name = /home/vital/Documents/PhD_2021/Malaria_codes/scripts/../data/pdbqt_ligands/ligand_260_temp.pdb
REMARK                            x       y       z     vdW  Elec       q    Type
REMARK                         _______ _______ _______ _____ _____    ______ ____
ROOT
ATOM      1  C1  UNL     1     154.882 160.729 167.299  0.00  0.00    +0.079 C 
ATOM      2  O1  UNL     1     154.046 161.762 166.788  0.00  0.00    -0.495 OA
ATOM      3  C2  UNL     1     153.076 161.388 165.899  0.00  0.00    +0.122 A 
ATOM      4  C3  UNL     1     152.330 162.446 165.371  0.00  0.00    -0.020 A 
ATOM      5  C4  UNL     1     151.310 162.210 164.447  0.00  0.00    -0.056 A 
ATOM      6  C5  UNL     1     151.028 160.906 164.046  0.00  0.00    -0.038 A 
ATOM      7  C6  UNL     1     151.765 159.843 164.572  0.00  0.00    +0.065 A 
ATOM      8  N1  UNL     1     151.457 158.511 164.130  0.00  0.00    -0.123 N 
ATOM      9  C7  UNL     1     150.757 157.705 165.050  0.00  0.00    +0.333 C 
ATOM     10  O2  UNL     1     150.339 158.180 166.106  0.00  0.00    -0.250 OA
ATOM     11  N2  UNL     1     150.492 156.367 164.719  0.00  0.00    -0.248 N 
ATOM     12  C8  UNL     1     149.773 155.586 165.738  0.00  0.00    +0.046 C 
ATOM     13  C9  UNL     1     150.693 154.688 166.540  0.00  0.00    -0.027 A 
ATOM     14  C10 UNL     1     150.585 153.292 166.472  0.00  0.00    -0.053 A 
ATOM     15  C11 UNL     1     151.438 152.465 167.218  0.00  0.00    -0.017 A 
ATOM     16  C12 UNL     1     152.407 153.021 168.053  0.00  0.00    +0.155 A 
ATOM     17  O3  UNL     1     153.288 152.320 168.832  0.00  0.00    -0.492 OA
ATOM     18  C13 UNL     1     153.238 150.902 168.756  0.00  0.00    +0.079 C 
ATOM     19  C14 UNL     1     152.506 154.413 168.125  0.00  0.00    +0.165 A 
ATOM     20  F1  UNL     1     153.423 154.985 168.921  0.00  0.00    -0.202 F 
ATOM     21  C15 UNL     1     151.665 155.241 167.385  0.00  0.00    -0.018 A 
ATOM     22  C16 UNL     1     150.873 155.758 163.479  0.00  0.00    +0.065 A 
ATOM     23  C17 UNL     1     150.349 154.516 163.070  0.00  0.00    -0.038 A 
ATOM     24  C18 UNL     1     150.699 153.931 161.845  0.00  0.00    -0.060 A 
ATOM     25  C19 UNL     1     151.588 154.568 160.991  0.00  0.00    -0.060 A 
ATOM     26  C20 UNL     1     152.131 155.787 161.370  0.00  0.00    -0.033 A 
ATOM     27  C21 UNL     1     151.775 156.358 162.604  0.00  0.00    +0.131 A 
ATOM     28  S1  UNL     1     152.542 157.863 163.049  0.00  0.00    +0.084 S 
ATOM     29  O4  UNL     1     153.767 157.520 163.741  0.00  0.00    -0.149 OA
ATOM     30  O5  UNL     1     152.557 158.692 161.858  0.00  0.00    -0.149 OA
ATOM     31  C22 UNL     1     152.789 160.082 165.500  0.00  0.00    +0.003 A 
ENDROOT
TORSDOF 0
ENDMDL
MODEL 4
REMARK VINA RESULT:    -7.746     10.664     15.207
REMARK INTER + INTRA:          -7.746
REMARK INTER:                  -7.746
REMARK INTRA:                   0.000
REMARK UNBOUND:                 0.000
REMARK  Name = /home/vital/Documents/PhD_2021/Malaria_codes/scripts/../data/pdbqt_ligands/ligand_260_temp.pdb
REMARK                            x       y       z     vdW  Elec       q    Type
REMARK                         _______ _______ _______ _____ _____    ______ ____
ROOT
ATOM      1  C1  UNL     1     146.500 149.479 161.865  0.00  0.00    +0.079 C 
ATOM      2  O1  UNL     1     146.734 150.294 163.009  0.00  0.00    -0.495 OA
ATOM      3  C2  UNL     1     146.251 149.834 164.203  0.00  0.00    +0.122 A 
ATOM      4  C3  UNL     1     146.440 150.703 165.282  0.00  0.00    -0.020 A 
ATOM      5  C4  UNL     1     145.991 150.364 166.560  0.00  0.00    -0.056 A 
ATOM      6  C5  UNL     1     145.349 149.146 166.767  0.00  0.00    -0.038 A 
ATOM      7  C6  UNL     1     145.159 148.269 165.696  0.00  0.00    +0.065 A 
ATOM      8  N1  UNL     1     144.484 147.025 165.940  0.00  0.00    -0.123 N 
ATOM      9  C7  UNL     1     145.301 145.877 165.964  0.00  0.00    +0.333 C 
ATOM     10  O2  UNL     1     146.526 145.980 165.904  0.00  0.00    -0.250 OA
ATOM     11  N2  UNL     1     144.700 144.618 166.117  0.00  0.00    -0.248 N 
ATOM     12  C8  UNL     1     145.617 143.467 166.115  0.00  0.00    +0.046 C 
ATOM     13  C9  UNL     1     145.641 142.745 164.783  0.00  0.00    -0.027 A 
ATOM     14  C10 UNL     1     145.183 141.424 164.665  0.00  0.00    -0.053 A 
ATOM     15  C11 UNL     1     145.210 140.759 163.431  0.00  0.00    -0.017 A 
ATOM     16  C12 UNL     1     145.705 141.399 162.294  0.00  0.00    +0.155 A 
ATOM     17  O3  UNL     1     145.788 140.853 161.043  0.00  0.00    -0.492 OA
ATOM     18  C13 UNL     1     145.293 139.531 160.874  0.00  0.00    +0.079 C 
ATOM     19  C14 UNL     1     146.169 142.712 162.418  0.00  0.00    +0.165 A 
ATOM     20  F1  UNL     1     146.657 143.359 161.348  0.00  0.00    -0.202 F 
ATOM     21  C15 UNL     1     146.143 143.380 163.640  0.00  0.00    -0.018 A 
ATOM     22  C16 UNL     1     143.290 144.416 166.274  0.00  0.00    +0.065 A 
ATOM     23  C17 UNL     1     142.759 143.185 166.704  0.00  0.00    -0.038 A 
ATOM     24  C18 UNL     1     141.382 142.993 166.884  0.00  0.00    -0.060 A 
ATOM     25  C19 UNL     1     140.490 144.027 166.635  0.00  0.00    -0.060 A 
ATOM     26  C20 UNL     1     140.981 145.250 166.199  0.00  0.00    -0.033 A 
ATOM     27  C21 UNL     1     142.363 145.424 166.017  0.00  0.00    +0.131 A 
ATOM     28  S1  UNL     1     142.909 146.967 165.407  0.00  0.00    +0.084 S 
ATOM     29  O4  UNL     1     142.892 146.875 163.962  0.00  0.00    -0.149 OA
ATOM     30  O5  UNL     1     142.148 147.986 166.106  0.00  0.00    -0.149 OA
ATOM     31  C22 UNL     1     145.611 148.612 164.413  0.00  0.00    +0.003 A 
ENDROOT
TORSDOF 0
ENDMDL
MODEL 5
REMARK VINA RESULT:    -7.248      2.404      3.139
REMARK INTER + INTRA:          -7.248
REMARK INTER:                  -7.248
REMARK INTRA:                   0.000
REMARK UNBOUND:                 0.000
REMARK  Name = /home/vital/Documents/PhD_2021/Malaria_codes/scripts/../data/pdbqt_ligands/ligand_260_temp.pdb
REMARK                            x       y       z     vdW  Elec       q    Type
REMARK                         _______ _______ _______ _____ _____    ______ ____
ROOT
ATOM      1  C1  UNL     1     148.604 159.446 159.884  0.00  0.00    +0.079 C 
ATOM      2  O1  UNL     1     149.636 160.299 159.402  0.00  0.00    -0.495 OA
ATOM      3  C2  UNL     1     150.583 160.696 160.307  0.00  0.00    +0.122 A 
ATOM      4  C3  UNL     1     151.532 161.591 159.804  0.00  0.00    -0.020 A 
ATOM      5  C4  UNL     1     152.552 162.083 160.620  0.00  0.00    -0.056 A 
ATOM      6  C5  UNL     1     152.631 161.679 161.950  0.00  0.00    -0.038 A 
ATOM      7  C6  UNL     1     151.690 160.781 162.460  0.00  0.00    +0.065 A 
ATOM      8  N1  UNL     1     151.792 160.391 163.839  0.00  0.00    -0.123 N 
ATOM      9  C7  UNL     1     152.282 159.091 164.075  0.00  0.00    +0.333 C 
ATOM     10  O2  UNL     1     152.707 158.405 163.145  0.00  0.00    -0.250 OA
ATOM     11  N2  UNL     1     152.333 158.612 165.393  0.00  0.00    -0.248 N 
ATOM     12  C8  UNL     1     152.841 157.241 165.557  0.00  0.00    +0.046 C 
ATOM     13  C9  UNL     1     151.730 156.230 165.757  0.00  0.00    -0.027 A 
ATOM     14  C10 UNL     1     151.600 155.524 166.962  0.00  0.00    -0.053 A 
ATOM     15  C11 UNL     1     150.573 154.587 167.142  0.00  0.00    -0.017 A 
ATOM     16  C12 UNL     1     149.662 154.332 166.116  0.00  0.00    +0.155 A 
ATOM     17  O3  UNL     1     148.626 153.440 166.171  0.00  0.00    -0.492 OA
ATOM     18  C13 UNL     1     148.435 152.737 167.391  0.00  0.00    +0.079 C 
ATOM     19  C14 UNL     1     149.800 155.031 164.914  0.00  0.00    +0.165 A 
ATOM     20  F1  UNL     1     148.946 154.810 163.902  0.00  0.00    -0.202 F 
ATOM     21  C15 UNL     1     150.817 155.966 164.728  0.00  0.00    -0.018 A 
ATOM     22  C16 UNL     1     151.934 159.375 166.539  0.00  0.00    +0.065 A 
ATOM     23  C17 UNL     1     152.261 158.974 167.849  0.00  0.00    -0.038 A 
ATOM     24  C18 UNL     1     151.894 159.733 168.970  0.00  0.00    -0.060 A 
ATOM     25  C19 UNL     1     151.184 160.915 168.816  0.00  0.00    -0.060 A 
ATOM     26  C20 UNL     1     150.836 161.332 167.539  0.00  0.00    -0.033 A 
ATOM     27  C21 UNL     1     151.205 160.557 166.426  0.00  0.00    +0.131 A 
ATOM     28  S1  UNL     1     150.682 161.105 164.852  0.00  0.00    +0.084 S 
ATOM     29  O4  UNL     1     149.375 160.526 164.621  0.00  0.00    -0.149 OA
ATOM     30  O5  UNL     1     150.886 162.541 164.820  0.00  0.00    -0.149 OA
ATOM     31  C22 UNL     1     150.666 160.288 161.638  0.00  0.00    +0.003 A 
ENDROOT
TORSDOF 0
ENDMDL
MODEL 6
REMARK VINA RESULT:    -6.898      3.432      7.034
REMARK INTER + INTRA:          -6.898
REMARK INTER:                  -6.898
REMARK INTRA:                   0.000
REMARK UNBOUND:                 0.000
REMARK  Name = /home/vital/Documents/PhD_2021/Malaria_codes/scripts/../data/pdbqt_ligands/ligand_260_temp.pdb
REMARK                            x       y       z     vdW  Elec       q    Type
REMARK                         _______ _______ _______ _____ _____    ______ ____
ROOT
ATOM      1  C1  UNL     1     148.897 162.986 164.949  0.00  0.00    +0.079 C 
ATOM      2  O1  UNL     1     149.742 163.542 165.950  0.00  0.00    -0.495 OA
ATOM      3  C2  UNL     1     150.558 162.673 166.622  0.00  0.00    +0.122 A 
ATOM      4  C3  UNL     1     151.314 163.254 167.644  0.00  0.00    -0.020 A 
ATOM      5  C4  UNL     1     152.186 162.483 168.415  0.00  0.00    -0.056 A 
ATOM      6  C5  UNL     1     152.308 161.118 168.165  0.00  0.00    -0.038 A 
ATOM      7  C6  UNL     1     151.559 160.529 167.143  0.00  0.00    +0.065 A 
ATOM      8  N1  UNL     1     151.700 159.118 166.917  0.00  0.00    -0.123 N 
ATOM      9  C7  UNL     1     152.443 158.749 165.778  0.00  0.00    +0.333 C 
ATOM     10  O2  UNL     1     153.029 159.602 165.111  0.00  0.00    -0.250 OA
ATOM     11  N2  UNL     1     152.554 157.389 165.449  0.00  0.00    -0.248 N 
ATOM     12  C8  UNL     1     153.331 157.085 164.237  0.00  0.00    +0.046 C 
ATOM     13  C9  UNL     1     152.450 156.794 163.039  0.00  0.00    -0.027 A 
ATOM     14  C10 UNL     1     152.434 155.526 162.440  0.00  0.00    -0.053 A 
ATOM     15  C11 UNL     1     151.620 155.263 161.329  0.00  0.00    -0.017 A 
ATOM     16  C12 UNL     1     150.812 156.266 160.792  0.00  0.00    +0.155 A 
ATOM     17  O3  UNL     1     149.984 156.131 159.712  0.00  0.00    -0.492 OA
ATOM     18  C13 UNL     1     149.908 154.848 159.105  0.00  0.00    +0.079 C 
ATOM     19  C14 UNL     1     150.837 157.531 161.386  0.00  0.00    +0.165 A 
ATOM     20  F1  UNL     1     150.078 158.523 160.895  0.00  0.00    -0.202 F 
ATOM     21  C15 UNL     1     151.642 157.800 162.491  0.00  0.00    -0.018 A 
ATOM     22  C16 UNL     1     151.971 156.329 166.217  0.00  0.00    +0.065 A 
ATOM     23  C17 UNL     1     152.336 154.983 166.021  0.00  0.00    -0.038 A 
ATOM     24  C18 UNL     1     151.786 153.946 166.789  0.00  0.00    -0.060 A 
ATOM     25  C19 UNL     1     150.851 154.223 167.775  0.00  0.00    -0.060 A 
ATOM     26  C20 UNL     1     150.461 155.538 167.985  0.00  0.00    -0.033 A 
ATOM     27  C21 UNL     1     151.016 156.565 167.203  0.00  0.00    +0.131 A 
ATOM     28  S1  UNL     1     150.437 158.190 167.475  0.00  0.00    +0.084 S 
ATOM     29  O4  UNL     1     149.286 158.374 166.615  0.00  0.00    -0.149 OA
ATOM     30  O5  UNL     1     150.338 158.364 168.912  0.00  0.00    -0.149 OA
ATOM     31  C22 UNL     1     150.685 161.307 166.369  0.00  0.00    +0.003 A 
ENDROOT
TORSDOF 0
ENDMDL
MODEL 7
REMARK VINA RESULT:    -6.684     10.868     15.753
REMARK INTER + INTRA:          -6.684
REMARK INTER:                  -6.684
REMARK INTRA:                   0.000
REMARK UNBOUND:                 0.000
REMARK  Name = /home/vital/Documents/PhD_2021/Malaria_codes/scripts/../data/pdbqt_ligands/ligand_260_temp.pdb
REMARK                            x       y       z     vdW  Elec       q    Type
REMARK                         _______ _______ _______ _____ _____    ______ ____
ROOT
ATOM      1  C1  UNL     1     145.502 141.230 165.199  0.00  0.00    +0.079 C 
ATOM      2  O1  UNL     1     144.309 140.583 164.769  0.00  0.00    -0.495 OA
ATOM      3  C2  UNL     1     143.186 141.358 164.674  0.00  0.00    +0.122 A 
ATOM      4  C3  UNL     1     142.026 140.663 164.319  0.00  0.00    -0.020 A 
ATOM      5  C4  UNL     1     140.805 141.328 164.191  0.00  0.00    -0.056 A 
ATOM      6  C5  UNL     1     140.738 142.701 164.418  0.00  0.00    -0.038 A 
ATOM      7  C6  UNL     1     141.892 143.404 164.769  0.00  0.00    +0.065 A 
ATOM      8  N1  UNL     1     141.788 144.818 165.006  0.00  0.00    -0.123 N 
ATOM      9  C7  UNL     1     142.304 145.650 163.992  0.00  0.00    +0.333 C 
ATOM     10  O2  UNL     1     142.696 145.171 162.929  0.00  0.00    -0.250 OA
ATOM     11  N2  UNL     1     142.310 147.040 164.191  0.00  0.00    -0.248 N 
ATOM     12  C8  UNL     1     142.879 147.840 163.096  0.00  0.00    +0.046 C 
ATOM     13  C9  UNL     1     144.297 148.291 163.381  0.00  0.00    -0.027 A 
ATOM     14  C10 UNL     1     144.610 149.650 163.533  0.00  0.00    -0.053 A 
ATOM     15  C11 UNL     1     145.924 150.063 163.795  0.00  0.00    -0.017 A 
ATOM     16  C12 UNL     1     146.952 149.125 163.900  0.00  0.00    +0.155 A 
ATOM     17  O3  UNL     1     148.268 149.406 164.145  0.00  0.00    -0.492 OA
ATOM     18  C13 UNL     1     148.617 150.768 164.348  0.00  0.00    +0.079 C 
ATOM     19  C14 UNL     1     146.638 147.772 163.739  0.00  0.00    +0.165 A 
ATOM     20  F1  UNL     1     147.600 146.840 163.828  0.00  0.00    -0.202 F 
ATOM     21  C15 UNL     1     145.334 147.354 163.481  0.00  0.00    -0.018 A 
ATOM     22  C16 UNL     1     141.799 147.683 165.365  0.00  0.00    +0.065 A 
ATOM     23  C17 UNL     1     141.564 149.071 165.408  0.00  0.00    -0.038 A 
ATOM     24  C18 UNL     1     141.039 149.700 166.547  0.00  0.00    -0.060 A 
ATOM     25  C19 UNL     1     140.737 148.960 167.681  0.00  0.00    -0.060 A 
ATOM     26  C20 UNL     1     140.969 147.592 167.675  0.00  0.00    -0.033 A 
ATOM     27  C21 UNL     1     141.501 146.977 166.528  0.00  0.00    +0.131 A 
ATOM     28  S1  UNL     1     141.827 145.263 166.608  0.00  0.00    +0.084 S 
ATOM     29  O4  UNL     1     143.174 145.117 167.118  0.00  0.00    -0.149 OA
ATOM     30  O5  UNL     1     140.696 144.653 167.283  0.00  0.00    -0.149 OA
ATOM     31  C22 UNL     1     143.118 142.734 164.896  0.00  0.00    +0.003 A 
ENDROOT
TORSDOF 0
ENDMDL
MODEL 8
REMARK VINA RESULT:    -5.990      2.788      5.735
REMARK INTER + INTRA:          -5.990
REMARK INTER:                  -5.990
REMARK INTRA:                   0.000
REMARK UNBOUND:                 0.000
REMARK  Name = /home/vital/Documents/PhD_2021/Malaria_codes/scripts/../data/pdbqt_ligands/ligand_260_temp.pdb
REMARK                            x       y       z     vdW  Elec       q    Type
REMARK                         _______ _______ _______ _____ _____    ______ ____
ROOT
ATOM      1  C1  UNL     1     148.299 154.154 164.463  0.00  0.00    +0.079 C 
ATOM      2  O1  UNL     1     149.317 153.358 163.866  0.00  0.00    -0.495 OA
ATOM      3  C2  UNL     1     150.315 154.023 163.208  0.00  0.00    +0.122 A 
ATOM      4  C3  UNL     1     151.250 153.197 162.577  0.00  0.00    -0.020 A 
ATOM      5  C4  UNL     1     152.318 153.742 161.863  0.00  0.00    -0.056 A 
ATOM      6  C5  UNL     1     152.460 155.124 161.777  0.00  0.00    -0.038 A 
ATOM      7  C6  UNL     1     151.534 155.958 162.408  0.00  0.00    +0.065 A 
ATOM      8  N1  UNL     1     151.702 157.380 162.293  0.00  0.00    -0.123 N 
ATOM      9  C7  UNL     1     152.186 158.036 163.443  0.00  0.00    +0.333 C 
ATOM     10  O2  UNL     1     152.551 157.391 164.425  0.00  0.00    -0.250 OA
ATOM     11  N2  UNL     1     152.298 159.436 163.430  0.00  0.00    -0.248 N 
ATOM     12  C8  UNL     1     152.793 160.049 164.672  0.00  0.00    +0.046 C 
ATOM     13  C9  UNL     1     151.680 160.641 165.513  0.00  0.00    -0.027 A 
ATOM     14  C10 UNL     1     151.603 162.021 165.747  0.00  0.00    -0.053 A 
ATOM     15  C11 UNL     1     150.573 162.564 166.529  0.00  0.00    -0.017 A 
ATOM     16  C12 UNL     1     149.606 161.734 167.098  0.00  0.00    +0.155 A 
ATOM     17  O3  UNL     1     148.561 162.145 167.880  0.00  0.00    -0.492 OA
ATOM     18  C13 UNL     1     148.424 163.542 168.104  0.00  0.00    +0.079 C 
ATOM     19  C14 UNL     1     149.691 160.358 166.869  0.00  0.00    +0.165 A 
ATOM     20  F1  UNL     1     148.783 159.527 167.404  0.00  0.00    -0.202 F 
ATOM     21  C15 UNL     1     150.711 159.811 166.092  0.00  0.00    -0.018 A 
ATOM     22  C16 UNL     1     151.970 160.256 162.302  0.00  0.00    +0.065 A 
ATOM     23  C17 UNL     1     152.359 161.607 162.228  0.00  0.00    -0.038 A 
ATOM     24  C18 UNL     1     152.062 162.405 161.113  0.00  0.00    -0.060 A 
ATOM     25  C19 UNL     1     151.363 161.877 160.038  0.00  0.00    -0.060 A 
ATOM     26  C20 UNL     1     150.955 160.551 160.085  0.00  0.00    -0.033 A 
ATOM     27  C21 UNL     1     151.254 159.766 161.212  0.00  0.00    +0.131 A 
ATOM     28  S1  UNL     1     150.658 158.125 161.235  0.00  0.00    +0.084 S 
ATOM     29  O4  UNL     1     149.332 158.170 161.815  0.00  0.00    -0.149 OA
ATOM     30  O5  UNL     1     150.880 157.581 159.908  0.00  0.00    -0.149 OA
ATOM     31  C22 UNL     1     150.461 155.408 163.126  0.00  0.00    +0.003 A 
ENDROOT
TORSDOF 0
ENDMDL
