MODEL 1
REMARK VINA RESULT:    -7.944      0.000      0.000
REMARK INTER + INTRA:          -7.944
REMARK INTER:                  -7.944
REMARK INTRA:                   0.000
REMARK UNBOUND:                 0.000
REMARK  Name = /home/vital/Documents/PhD_2021/Malaria_codes/scripts/../data/pdbqt_ligands/ligand_265_temp.pdb
REMARK                            x       y       z     vdW  Elec       q    Type
REMARK                         _______ _______ _______ _____ _____    ______ ____
ROOT
ATOM      1  C1  UNL     1     151.701 155.484 161.882  0.00  0.00    -0.022 C 
ATOM      2  C2  UNL     1     151.455 156.296 160.634  0.00  0.00    +0.045 A 
ATOM      3  C3  UNL     1     151.288 155.545 159.353  0.00  0.00    -0.000 A 
ATOM      4  C4  UNL     1     151.113 156.265 158.228  0.00  0.00    +0.130 A 
ATOM      5  N1  UNL     1     150.931 155.654 156.988  0.00  0.00    -0.299 N 
ATOM      6  C5  UNL     1     151.658 155.907 155.798  0.00  0.00    +0.033 A 
ATOM      7  C6  UNL     1     152.756 156.766 155.718  0.00  0.00    -0.040 A 
ATOM      8  C7  UNL     1     153.412 156.989 154.502  0.00  0.00    -0.056 A 
ATOM      9  C8  UNL     1     152.981 156.364 153.323  0.00  0.00    -0.036 A 
ATOM     10  C9  UNL     1     153.710 156.636 152.038  0.00  0.00    -0.039 C 
ATOM     11  C10 UNL     1     151.870 155.515 153.396  0.00  0.00    +0.023 A 
ATOM     12 BR1  UNL     1     151.187 154.623 151.863  0.00  0.00    -0.050 Br
ATOM     13  C11 UNL     1     151.218 155.294 154.616  0.00  0.00    -0.026 A 
ATOM     14  N2  UNL     1     151.029 157.676 158.361  0.00  0.00    -0.182 N 
ATOM     15  N3  UNL     1     150.779 158.635 157.425  0.00  0.00    -0.151 NA
ATOM     16  C12 UNL     1     150.814 159.752 158.144  0.00  0.00    +0.141 A 
ATOM     17  N4  UNL     1     151.060 159.600 159.469  0.00  0.00    -0.197 NA
ATOM     18  C13 UNL     1     151.181 158.298 159.612  0.00  0.00    +0.255 A 
ATOM     19  N5  UNL     1     151.411 157.588 160.753  0.00  0.00    -0.216 NA
ATOM     20  H   UNL     1     150.221 154.974 156.933  0.00  0.00    +0.000 HD
ENDROOT
TORSDOF 0
ENDMDL
MODEL 2
REMARK VINA RESULT:    -7.749      1.622      3.100
REMARK INTER + INTRA:          -7.749
REMARK INTER:                  -7.749
REMARK INTRA:                   0.000
REMARK UNBOUND:                 0.000
REMARK  Name = /home/vital/Documents/PhD_2021/Malaria_codes/scripts/../data/pdbqt_ligands/ligand_265_temp.pdb
REMARK                            x       y       z     vdW  Elec       q    Type
REMARK                         _______ _______ _______ _____ _____    ______ ____
ROOT
ATOM      1  C1  UNL     1     149.518 160.505 160.886  0.00  0.00    -0.022 C 
ATOM      2  C2  UNL     1     150.117 159.214 160.385  0.00  0.00    +0.045 A 
ATOM      3  C3  UNL     1     150.830 159.257 159.073  0.00  0.00    -0.000 A 
ATOM      4  C4  UNL     1     151.329 158.099 158.598  0.00  0.00    +0.130 A 
ATOM      5  N1  UNL     1     152.024 158.040 157.391  0.00  0.00    -0.299 N 
ATOM      6  C5  UNL     1     151.768 157.174 156.299  0.00  0.00    +0.033 A 
ATOM      7  C6  UNL     1     150.689 156.288 156.239  0.00  0.00    -0.040 A 
ATOM      8  C7  UNL     1     150.511 155.441 155.139  0.00  0.00    -0.056 A 
ATOM      9  C8  UNL     1     151.415 155.448 154.067  0.00  0.00    -0.036 A 
ATOM     10  C9  UNL     1     151.189 154.518 152.910  0.00  0.00    -0.039 C 
ATOM     11  C10 UNL     1     152.507 156.323 154.132  0.00  0.00    +0.023 A 
ATOM     12 BR1  UNL     1     153.804 156.411 152.746  0.00  0.00    -0.050 Br
ATOM     13  C11 UNL     1     152.680 157.170 155.234  0.00  0.00    -0.026 A 
ATOM     14  N2  UNL     1     151.200 156.946 159.417  0.00  0.00    -0.182 N 
ATOM     15  N3  UNL     1     151.672 155.680 159.235  0.00  0.00    -0.151 NA
ATOM     16  C12 UNL     1     151.248 155.058 160.331  0.00  0.00    +0.141 A 
ATOM     17  N4  UNL     1     150.547 155.814 161.212  0.00  0.00    -0.197 NA
ATOM     18  C13 UNL     1     150.527 157.002 160.650  0.00  0.00    +0.255 A 
ATOM     19  N5  UNL     1     149.971 158.155 161.121  0.00  0.00    -0.216 NA
ATOM     20  H   UNL     1     152.775 158.669 157.286  0.00  0.00    +0.000 HD
ENDROOT
TORSDOF 0
ENDMDL
MODEL 3
REMARK VINA RESULT:    -7.308      9.496     11.046
REMARK INTER + INTRA:          -7.308
REMARK INTER:                  -7.308
REMARK INTRA:                   0.000
REMARK UNBOUND:                 0.000
REMARK  Name = /home/vital/Documents/PhD_2021/Malaria_codes/scripts/../data/pdbqt_ligands/ligand_265_temp.pdb
REMARK                            x       y       z     vdW  Elec       q    Type
REMARK                         _______ _______ _______ _____ _____    ______ ____
ROOT
ATOM      1  C1  UNL     1     151.389 158.159 166.932  0.00  0.00    -0.022 C 
ATOM      2  C2  UNL     1     151.385 156.650 166.908  0.00  0.00    +0.045 A 
ATOM      3  C3  UNL     1     150.481 155.986 165.920  0.00  0.00    -0.000 A 
ATOM      4  C4  UNL     1     150.439 154.639 165.923  0.00  0.00    +0.130 A 
ATOM      5  N1  UNL     1     149.640 153.928 165.028  0.00  0.00    -0.299 N 
ATOM      6  C5  UNL     1     148.691 152.924 165.344  0.00  0.00    +0.033 A 
ATOM      7  C6  UNL     1     148.346 152.555 166.646  0.00  0.00    -0.040 A 
ATOM      8  C7  UNL     1     147.418 151.533 166.884  0.00  0.00    -0.056 A 
ATOM      9  C8  UNL     1     146.814 150.843 165.824  0.00  0.00    -0.036 A 
ATOM     10  C9  UNL     1     145.828 149.750 166.125  0.00  0.00    -0.039 C 
ATOM     11  C10 UNL     1     147.170 151.200 164.517  0.00  0.00    +0.023 A 
ATOM     12 BR1  UNL     1     146.429 150.327 163.002  0.00  0.00    -0.050 Br
ATOM     13  C11 UNL     1     148.099 152.223 164.284  0.00  0.00    -0.026 A 
ATOM     14  N2  UNL     1     151.310 153.959 166.814  0.00  0.00    -0.182 N 
ATOM     15  N3  UNL     1     151.539 152.625 166.975  0.00  0.00    -0.151 NA
ATOM     16  C12 UNL     1     152.457 152.607 167.937  0.00  0.00    +0.141 A 
ATOM     17  N4  UNL     1     152.848 153.816 168.410  0.00  0.00    -0.197 NA
ATOM     18  C13 UNL     1     152.143 154.668 167.699  0.00  0.00    +0.255 A 
ATOM     19  N5  UNL     1     152.159 156.030 167.745  0.00  0.00    -0.216 NA
ATOM     20  H   UNL     1     149.746 154.149 164.075  0.00  0.00    +0.000 HD
ENDROOT
TORSDOF 0
ENDMDL
MODEL 4
REMARK VINA RESULT:    -6.768      3.756      6.000
REMARK INTER + INTRA:          -6.768
REMARK INTER:                  -6.768
REMARK INTRA:                   0.000
REMARK UNBOUND:                 0.000
REMARK  Name = /home/vital/Documents/PhD_2021/Malaria_codes/scripts/../data/pdbqt_ligands/ligand_265_temp.pdb
REMARK                            x       y       z     vdW  Elec       q    Type
REMARK                         _______ _______ _______ _____ _____    ______ ____
ROOT
ATOM      1  C1  UNL     1     149.327 162.645 164.874  0.00  0.00    -0.022 C 
ATOM      2  C2  UNL     1     150.171 161.537 164.290  0.00  0.00    +0.045 A 
ATOM      3  C3  UNL     1     150.347 161.524 162.807  0.00  0.00    -0.000 A 
ATOM      4  C4  UNL     1     151.062 160.513 162.275  0.00  0.00    +0.130 A 
ATOM      5  N1  UNL     1     151.296 160.423 160.903  0.00  0.00    -0.299 N 
ATOM      6  C5  UNL     1     151.045 159.307 160.066  0.00  0.00    +0.033 A 
ATOM      7  C6  UNL     1     150.423 158.132 160.494  0.00  0.00    -0.040 A 
ATOM      8  C7  UNL     1     150.231 157.057 159.618  0.00  0.00    -0.056 A 
ATOM      9  C8  UNL     1     150.664 157.123 158.286  0.00  0.00    -0.036 A 
ATOM     10  C9  UNL     1     150.443 155.944 157.382  0.00  0.00    -0.039 C 
ATOM     11  C10 UNL     1     151.303 158.293 157.858  0.00  0.00    +0.023 A 
ATOM     12 BR1  UNL     1     151.945 158.493 156.082  0.00  0.00    -0.050 Br
ATOM     13  C11 UNL     1     151.492 159.367 158.739  0.00  0.00    -0.026 A 
ATOM     14  N2  UNL     1     151.650 159.584 163.173  0.00  0.00    -0.182 N 
ATOM     15  N3  UNL     1     152.477 158.528 162.930  0.00  0.00    -0.151 NA
ATOM     16  C12 UNL     1     152.700 158.053 164.152  0.00  0.00    +0.141 A 
ATOM     17  N4  UNL     1     152.093 158.715 165.168  0.00  0.00    -0.197 NA
ATOM     18  C13 UNL     1     151.445 159.685 164.560  0.00  0.00    +0.255 A 
ATOM     19  N5  UNL     1     150.681 160.671 165.111  0.00  0.00    -0.216 NA
ATOM     20  H   UNL     1     151.676 161.220 160.469  0.00  0.00    +0.000 HD
ENDROOT
TORSDOF 0
ENDMDL
MODEL 5
REMARK VINA RESULT:    -6.657      4.991      8.002
REMARK INTER + INTRA:          -6.657
REMARK INTER:                  -6.657
REMARK INTRA:                   0.000
REMARK UNBOUND:                 0.000
REMARK  Name = /home/vital/Documents/PhD_2021/Malaria_codes/scripts/../data/pdbqt_ligands/ligand_265_temp.pdb
REMARK                            x       y       z     vdW  Elec       q    Type
REMARK                         _______ _______ _______ _____ _____    ______ ____
ROOT
ATOM      1  C1  UNL     1     149.806 154.557 159.891  0.00  0.00    -0.022 C 
ATOM      2  C2  UNL     1     150.480 155.908 159.916  0.00  0.00    +0.045 A 
ATOM      3  C3  UNL     1     150.887 156.442 161.250  0.00  0.00    -0.000 A 
ATOM      4  C4  UNL     1     151.449 157.666 161.285  0.00  0.00    +0.130 A 
ATOM      5  N1  UNL     1     151.877 158.243 162.480  0.00  0.00    -0.299 N 
ATOM      6  C5  UNL     1     151.535 159.524 162.980  0.00  0.00    +0.033 A 
ATOM      7  C6  UNL     1     150.618 160.383 162.371  0.00  0.00    -0.040 A 
ATOM      8  C7  UNL     1     150.347 161.648 162.907  0.00  0.00    -0.056 A 
ATOM      9  C8  UNL     1     150.995 162.095 164.066  0.00  0.00    -0.036 A 
ATOM     10  C9  UNL     1     150.679 163.462 164.604  0.00  0.00    -0.039 C 
ATOM     11  C10 UNL     1     151.927 161.243 164.671  0.00  0.00    +0.023 A 
ATOM     12 BR1  UNL     1     152.877 161.746 166.238  0.00  0.00    -0.050 Br
ATOM     13  C11 UNL     1     152.194 159.978 164.131  0.00  0.00    -0.026 A 
ATOM     14  N2  UNL     1     151.674 158.318 160.044  0.00  0.00    -0.182 N 
ATOM     15  N3  UNL     1     152.287 159.505 159.771  0.00  0.00    -0.151 NA
ATOM     16  C12 UNL     1     152.202 159.572 158.446  0.00  0.00    +0.141 A 
ATOM     17  N4  UNL     1     151.593 158.526 157.834  0.00  0.00    -0.197 NA
ATOM     18  C13 UNL     1     151.272 157.731 158.831  0.00  0.00    +0.255 A 
ATOM     19  N5  UNL     1     150.655 156.516 158.782  0.00  0.00    -0.216 NA
ATOM     20  H   UNL     1     152.483 157.702 163.036  0.00  0.00    +0.000 HD
ENDROOT
TORSDOF 0
ENDMDL
MODEL 6
REMARK VINA RESULT:    -6.524      5.268      8.669
REMARK INTER + INTRA:          -6.524
REMARK INTER:                  -6.524
REMARK INTRA:                   0.000
REMARK UNBOUND:                 0.000
REMARK  Name = /home/vital/Documents/PhD_2021/Malaria_codes/scripts/../data/pdbqt_ligands/ligand_265_temp.pdb
REMARK                            x       y       z     vdW  Elec       q    Type
REMARK                         _______ _______ _______ _____ _____    ______ ____
ROOT
ATOM      1  C1  UNL     1     151.481 155.894 158.347  0.00  0.00    -0.022 C 
ATOM      2  C2  UNL     1     151.181 156.127 159.808  0.00  0.00    +0.045 A 
ATOM      3  C3  UNL     1     151.017 157.544 160.252  0.00  0.00    -0.000 A 
ATOM      4  C4  UNL     1     150.794 157.763 161.563  0.00  0.00    +0.130 A 
ATOM      5  N1  UNL     1     150.611 159.049 162.071  0.00  0.00    -0.299 N 
ATOM      6  C5  UNL     1     151.304 159.645 163.153  0.00  0.00    +0.033 A 
ATOM      7  C6  UNL     1     152.368 159.042 163.829  0.00  0.00    -0.040 A 
ATOM      8  C7  UNL     1     152.991 159.679 164.909  0.00  0.00    -0.056 A 
ATOM      9  C8  UNL     1     152.562 160.938 165.352  0.00  0.00    -0.036 A 
ATOM     10  C9  UNL     1     153.254 161.582 166.518  0.00  0.00    -0.039 C 
ATOM     11  C10 UNL     1     151.485 161.538 164.687  0.00  0.00    +0.023 A 
ATOM     12 BR1  UNL     1     150.807 163.236 165.205  0.00  0.00    -0.050 Br
ATOM     13  C11 UNL     1     150.865 160.897 163.606  0.00  0.00    -0.026 A 
ATOM     14  N2  UNL     1     150.659 156.626 162.402  0.00  0.00    -0.182 N 
ATOM     15  N3  UNL     1     150.354 156.542 163.728  0.00  0.00    -0.151 NA
ATOM     16  C12 UNL     1     150.361 155.230 163.940  0.00  0.00    +0.141 A 
ATOM     17  N4  UNL     1     150.638 154.454 162.863  0.00  0.00    -0.197 NA
ATOM     18  C13 UNL     1     150.811 155.324 161.893  0.00  0.00    +0.255 A 
ATOM     19  N5  UNL     1     151.090 155.087 160.579  0.00  0.00    -0.216 NA
ATOM     20  H   UNL     1     149.927 159.602 161.630  0.00  0.00    +0.000 HD
ENDROOT
TORSDOF 0
ENDMDL
MODEL 7
REMARK VINA RESULT:    -6.401      5.493      7.572
REMARK INTER + INTRA:          -6.401
REMARK INTER:                  -6.401
REMARK INTRA:                   0.000
REMARK UNBOUND:                 0.000
REMARK  Name = /home/vital/Documents/PhD_2021/Malaria_codes/scripts/../data/pdbqt_ligands/ligand_265_temp.pdb
REMARK                            x       y       z     vdW  Elec       q    Type
REMARK                         _______ _______ _______ _____ _____    ______ ____
ROOT
ATOM      1  C1  UNL     1     154.182 161.647 167.316  0.00  0.00    -0.022 C 
ATOM      2  C2  UNL     1     152.950 161.495 166.457  0.00  0.00    +0.045 A 
ATOM      3  C3  UNL     1     152.956 160.396 165.445  0.00  0.00    -0.000 A 
ATOM      4  C4  UNL     1     151.878 160.282 164.645  0.00  0.00    +0.130 A 
ATOM      5  N1  UNL     1     151.783 159.277 163.682  0.00  0.00    -0.299 N 
ATOM      6  C5  UNL     1     151.495 159.441 162.304  0.00  0.00    +0.033 A 
ATOM      7  C6  UNL     1     151.352 160.680 161.676  0.00  0.00    -0.040 A 
ATOM      8  C7  UNL     1     151.041 160.768 160.314  0.00  0.00    -0.056 A 
ATOM      9  C8  UNL     1     150.856 159.614 159.539  0.00  0.00    -0.036 A 
ATOM     10  C9  UNL     1     150.518 159.754 158.082  0.00  0.00    -0.039 C 
ATOM     11  C10 UNL     1     150.983 158.370 160.169  0.00  0.00    +0.023 A 
ATOM     12 BR1  UNL     1     150.741 156.739 159.226  0.00  0.00    -0.050 Br
ATOM     13  C11 UNL     1     151.295 158.287 161.533  0.00  0.00    -0.026 A 
ATOM     14  N2  UNL     1     150.794 161.169 164.876  0.00  0.00    -0.182 N 
ATOM     15  N3  UNL     1     149.566 161.231 164.288  0.00  0.00    -0.151 NA
ATOM     16  C12 UNL     1     148.995 162.249 164.926  0.00  0.00    +0.141 A 
ATOM     17  N4  UNL     1     149.746 162.848 165.883  0.00  0.00    -0.197 NA
ATOM     18  C13 UNL     1     150.869 162.165 165.866  0.00  0.00    +0.255 A 
ATOM     19  N5  UNL     1     151.973 162.328 166.649  0.00  0.00    -0.216 NA
ATOM     20  H   UNL     1     151.931 158.355 163.993  0.00  0.00    +0.000 HD
ENDROOT
TORSDOF 0
ENDMDL
MODEL 8
REMARK VINA RESULT:    -6.348      8.308     11.544
REMARK INTER + INTRA:          -6.348
REMARK INTER:                  -6.348
REMARK INTRA:                   0.000
REMARK UNBOUND:                 0.000
REMARK  Name = /home/vital/Documents/PhD_2021/Malaria_codes/scripts/../data/pdbqt_ligands/ligand_265_temp.pdb
REMARK                            x       y       z     vdW  Elec       q    Type
REMARK                         _______ _______ _______ _____ _____    ______ ____
ROOT
ATOM      1  C1  UNL     1     149.483 153.244 166.545  0.00  0.00    -0.022 C 
ATOM      2  C2  UNL     1     150.088 154.560 166.121  0.00  0.00    +0.045 A 
ATOM      3  C3  UNL     1     150.771 155.368 167.176  0.00  0.00    -0.000 A 
ATOM      4  C4  UNL     1     151.274 156.565 166.814  0.00  0.00    +0.130 A 
ATOM      5  N1  UNL     1     151.943 157.383 167.723  0.00  0.00    -0.299 N 
ATOM      6  C5  UNL     1     151.674 158.746 168.003  0.00  0.00    +0.033 A 
ATOM      7  C6  UNL     1     150.607 159.462 167.456  0.00  0.00    -0.040 A 
ATOM      8  C7  UNL     1     150.416 160.816 167.756  0.00  0.00    -0.056 A 
ATOM      9  C8  UNL     1     151.295 161.498 168.607  0.00  0.00    -0.036 A 
ATOM     10  C9  UNL     1     151.056 162.953 168.898  0.00  0.00    -0.039 C 
ATOM     11  C10 UNL     1     152.376 160.789 169.145  0.00  0.00    +0.023 A 
ATOM     12 BR1  UNL     1     153.641 161.610 170.301  0.00  0.00    -0.050 Br
ATOM     13  C11 UNL     1     152.563 159.433 168.843  0.00  0.00    -0.026 A 
ATOM     14  N2  UNL     1     151.180 156.928 165.445  0.00  0.00    -0.182 N 
ATOM     15  N3  UNL     1     151.664 158.019 164.788  0.00  0.00    -0.151 NA
ATOM     16  C12 UNL     1     151.273 157.796 163.537  0.00  0.00    +0.141 A 
ATOM     17  N4  UNL     1     150.582 156.649 163.324  0.00  0.00    -0.197 NA
ATOM     18  C13 UNL     1     150.533 156.094 164.515  0.00  0.00    +0.255 A 
ATOM     19  N5  UNL     1     149.972 154.904 164.874  0.00  0.00    -0.216 NA
ATOM     20  H   UNL     1     152.683 156.970 168.225  0.00  0.00    +0.000 HD
ENDROOT
TORSDOF 0
ENDMDL
MODEL 9
REMARK VINA RESULT:    -6.329      5.787      9.243
REMARK INTER + INTRA:          -6.329
REMARK INTER:                  -6.329
REMARK INTRA:                   0.000
REMARK UNBOUND:                 0.000
REMARK  Name = /home/vital/Documents/PhD_2021/Malaria_codes/scripts/../data/pdbqt_ligands/ligand_265_temp.pdb
REMARK                            x       y       z     vdW  Elec       q    Type
REMARK                         _______ _______ _______ _____ _____    ______ ____
ROOT
ATOM      1  C1  UNL     1     151.893 160.414 157.373  0.00  0.00    -0.022 C 
ATOM      2  C2  UNL     1     151.521 159.907 158.744  0.00  0.00    +0.045 A 
ATOM      3  C3  UNL     1     151.260 160.930 159.802  0.00  0.00    -0.000 A 
ATOM      4  C4  UNL     1     150.971 160.484 161.040  0.00  0.00    +0.130 A 
ATOM      5  N1  UNL     1     150.696 161.360 162.089  0.00  0.00    -0.299 N 
ATOM      6  C5  UNL     1     151.310 161.383 163.366  0.00  0.00    +0.033 A 
ATOM      7  C6  UNL     1     152.377 160.561 163.736  0.00  0.00    -0.040 A 
ATOM      8  C7  UNL     1     152.919 160.618 165.026  0.00  0.00    -0.056 A 
ATOM      9  C8  UNL     1     152.402 161.495 165.989  0.00  0.00    -0.036 A 
ATOM     10  C9  UNL     1     153.009 161.519 167.363  0.00  0.00    -0.039 C 
ATOM     11  C10 UNL     1     151.321 162.309 165.627  0.00  0.00    +0.023 A 
ATOM     12 BR1  UNL     1     150.528 163.526 166.851  0.00  0.00    -0.050 Br
ATOM     13  C11 UNL     1     150.783 162.249 164.334  0.00  0.00    -0.026 A 
ATOM     14  N2  UNL     1     150.867 159.080 161.223  0.00  0.00    -0.182 N 
ATOM     15  N3  UNL     1     150.513 158.359 162.325  0.00  0.00    -0.151 NA
ATOM     16  C12 UNL     1     150.586 157.107 161.882  0.00  0.00    +0.141 A 
ATOM     17  N4  UNL     1     150.950 156.954 160.584  0.00  0.00    -0.197 NA
ATOM     18  C13 UNL     1     151.113 158.189 160.163  0.00  0.00    +0.255 A 
ATOM     19  N5  UNL     1     151.457 158.622 158.916  0.00  0.00    -0.216 NA
ATOM     20  H   UNL     1     150.000 162.037 161.925  0.00  0.00    +0.000 HD
ENDROOT
TORSDOF 0
ENDMDL
