MODEL 1
REMARK VINA RESULT:    -4.320      0.000      0.000
REMARK INTER + INTRA:          -4.320
REMARK INTER:                  -4.320
REMARK INTRA:                   0.000
REMARK UNBOUND:                 0.000
REMARK  Name = /home/vital/Documents/PhD_2021/Malaria_codes/scripts/../data/pdbqt_ligands/ligand_213_temp.pdb
REMARK                            x       y       z     vdW  Elec       q    Type
REMARK                         _______ _______ _______ _____ _____    ______ ____
ROOT
ATOM      1  C1  UNL     1     149.914 160.455 167.807  0.00  0.00    -0.062 C 
ATOM      2  C2  UNL     1     150.346 159.716 166.550  0.00  0.00    -0.037 C 
ATOM      3  C3  UNL     1     151.836 159.797 166.356  0.00  0.00    -0.076 C 
ATOM      4  C4  UNL     1     152.492 160.338 165.311  0.00  0.00    +0.008 C 
ATOM      5  C5  UNL     1     153.981 160.495 165.269  0.00  0.00    -0.035 C 
ATOM      6  C6  UNL     1     151.765 160.973 164.174  0.00  0.00    +0.242 C 
ATOM      7  O1  UNL     1     151.745 162.201 164.119  0.00  0.00    -0.270 OA
ATOM      8  N1  UNL     1     151.146 160.142 163.249  0.00  0.00    -0.294 N 
ATOM      9  C7  UNL     1     151.274 158.680 163.204  0.00  0.00    +0.012 C 
ATOM     10  C8  UNL     1     152.523 158.188 162.488  0.00  0.00    -0.049 C 
ATOM     11  C9  UNL     1     150.381 160.784 162.180  0.00  0.00    +0.042 C 
ATOM     12  C10 UNL     1     151.183 160.880 160.921  0.00  0.00    -0.005 A 
ATOM     13  C11 UNL     1     152.294 161.678 160.716  0.00  0.00    +0.007 A 
ATOM     14  N2  UNL     1     152.732 161.493 159.435  0.00  0.00    -0.360 N 
ATOM     15  C12 UNL     1     151.925 160.589 158.783  0.00  0.00    +0.047 A 
ATOM     16  C13 UNL     1     151.995 160.104 157.471  0.00  0.00    -0.038 A 
ATOM     17  C14 UNL     1     151.027 159.179 157.070  0.00  0.00    -0.060 A 
ATOM     18  C15 UNL     1     150.029 158.761 157.947  0.00  0.00    -0.061 A 
ATOM     19  C16 UNL     1     149.974 159.257 159.255  0.00  0.00    -0.052 A 
ATOM     20  C17 UNL     1     150.939 160.191 159.687  0.00  0.00    +0.004 A 
ATOM     21  H   UNL     1     153.511 161.941 159.035  0.00  0.00    +0.000 HD
ENDROOT
TORSDOF 0
ENDMDL
MODEL 2
REMARK VINA RESULT:    -4.291     16.095     17.562
REMARK INTER + INTRA:          -4.291
REMARK INTER:                  -4.291
REMARK INTRA:                   0.000
REMARK UNBOUND:                 0.000
REMARK  Name = /home/vital/Documents/PhD_2021/Malaria_codes/scripts/../data/pdbqt_ligands/ligand_213_temp.pdb
REMARK                            x       y       z     vdW  Elec       q    Type
REMARK                         _______ _______ _______ _____ _____    ______ ____
ROOT
ATOM      1  C1  UNL     1     141.518 149.799 167.027  0.00  0.00    -0.062 C 
ATOM      2  C2  UNL     1     142.513 148.664 167.215  0.00  0.00    -0.037 C 
ATOM      3  C3  UNL     1     143.838 148.992 166.583  0.00  0.00    -0.076 C 
ATOM      4  C4  UNL     1     144.457 148.317 165.595  0.00  0.00    +0.008 C 
ATOM      5  C5  UNL     1     145.714 148.798 164.935  0.00  0.00    -0.035 C 
ATOM      6  C6  UNL     1     143.846 147.110 164.969  0.00  0.00    +0.242 C 
ATOM      7  O1  UNL     1     143.345 147.233 163.853  0.00  0.00    -0.270 OA
ATOM      8  N1  UNL     1     143.871 145.920 165.683  0.00  0.00    -0.294 N 
ATOM      9  C7  UNL     1     144.587 145.705 166.947  0.00  0.00    +0.012 C 
ATOM     10  C8  UNL     1     146.064 145.382 166.776  0.00  0.00    -0.049 C 
ATOM     11  C9  UNL     1     143.206 144.764 165.081  0.00  0.00    +0.042 C 
ATOM     12  C10 UNL     1     144.188 143.873 164.389  0.00  0.00    -0.005 A 
ATOM     13  C11 UNL     1     144.892 144.170 163.236  0.00  0.00    +0.007 A 
ATOM     14  N2  UNL     1     145.674 143.096 162.915  0.00  0.00    -0.360 N 
ATOM     15  C12 UNL     1     145.494 142.087 163.832  0.00  0.00    +0.047 A 
ATOM     16  C13 UNL     1     146.081 140.817 163.899  0.00  0.00    -0.038 A 
ATOM     17  C14 UNL     1     145.706 139.985 164.957  0.00  0.00    -0.060 A 
ATOM     18  C15 UNL     1     144.778 140.407 165.906  0.00  0.00    -0.061 A 
ATOM     19  C16 UNL     1     144.200 141.679 165.823  0.00  0.00    -0.052 A 
ATOM     20  C17 UNL     1     144.562 142.541 164.766  0.00  0.00    +0.004 A 
ATOM     21  H   UNL     1     146.278 143.050 162.139  0.00  0.00    +0.000 HD
ENDROOT
TORSDOF 0
ENDMDL
MODEL 3
REMARK VINA RESULT:    -4.043     12.218     13.765
REMARK INTER + INTRA:          -4.043
REMARK INTER:                  -4.043
REMARK INTRA:                   0.000
REMARK UNBOUND:                 0.000
REMARK  Name = /home/vital/Documents/PhD_2021/Malaria_codes/scripts/../data/pdbqt_ligands/ligand_213_temp.pdb
REMARK                            x       y       z     vdW  Elec       q    Type
REMARK                         _______ _______ _______ _____ _____    ______ ____
ROOT
ATOM      1  C1  UNL     1     145.323 143.151 166.165  0.00  0.00    -0.062 C 
ATOM      2  C2  UNL     1     145.292 144.662 166.343  0.00  0.00    -0.037 C 
ATOM      3  C3  UNL     1     143.996 145.242 165.848  0.00  0.00    -0.076 C 
ATOM      4  C4  UNL     1     143.834 146.147 164.863  0.00  0.00    +0.008 C 
ATOM      5  C5  UNL     1     142.491 146.565 164.346  0.00  0.00    -0.035 C 
ATOM      6  C6  UNL     1     144.993 146.688 164.098  0.00  0.00    +0.242 C 
ATOM      7  O1  UNL     1     145.178 146.265 162.958  0.00  0.00    -0.270 OA
ATOM      8  N1  UNL     1     145.803 147.631 164.717  0.00  0.00    -0.294 N 
ATOM      9  C7  UNL     1     145.528 148.263 166.014  0.00  0.00    +0.012 C 
ATOM     10  C8  UNL     1     144.575 149.447 165.938  0.00  0.00    -0.049 C 
ATOM     11  C9  UNL     1     146.974 148.099 163.976  0.00  0.00    +0.042 C 
ATOM     12  C10 UNL     1     146.702 149.403 163.297  0.00  0.00    -0.005 A 
ATOM     13  C11 UNL     1     145.844 149.610 162.232  0.00  0.00    +0.007 A 
ATOM     14  N2  UNL     1     145.882 150.932 161.892  0.00  0.00    -0.360 N 
ATOM     15  C12 UNL     1     146.757 151.608 162.711  0.00  0.00    +0.047 A 
ATOM     16  C13 UNL     1     147.112 152.963 162.725  0.00  0.00    -0.038 A 
ATOM     17  C14 UNL     1     148.042 153.378 163.682  0.00  0.00    -0.060 A 
ATOM     18  C15 UNL     1     148.597 152.473 164.583  0.00  0.00    -0.061 A 
ATOM     19  C16 UNL     1     148.232 151.122 164.553  0.00  0.00    -0.052 A 
ATOM     20  C17 UNL     1     147.293 150.675 163.599  0.00  0.00    +0.004 A 
ATOM     21  H   UNL     1     145.360 151.343 161.166  0.00  0.00    +0.000 HD
ENDROOT
TORSDOF 0
ENDMDL
MODEL 4
REMARK VINA RESULT:    -3.394     15.821     17.503
REMARK INTER + INTRA:          -3.394
REMARK INTER:                  -3.394
REMARK INTRA:                   0.000
REMARK UNBOUND:                 0.000
REMARK  Name = /home/vital/Documents/PhD_2021/Malaria_codes/scripts/../data/pdbqt_ligands/ligand_213_temp.pdb
REMARK                            x       y       z     vdW  Elec       q    Type
REMARK                         _______ _______ _______ _____ _____    ______ ____
ROOT
ATOM      1  C1  UNL     1     146.485 150.144 162.073  0.00  0.00    -0.062 C 
ATOM      2  C2  UNL     1     145.408 149.196 162.578  0.00  0.00    -0.037 C 
ATOM      3  C3  UNL     1     145.176 149.371 164.054  0.00  0.00    -0.076 C 
ATOM      4  C4  UNL     1     145.334 148.443 165.018  0.00  0.00    +0.008 C 
ATOM      5  C5  UNL     1     145.210 148.749 166.479  0.00  0.00    -0.035 C 
ATOM      6  C6  UNL     1     145.804 147.063 164.707  0.00  0.00    +0.242 C 
ATOM      7  O1  UNL     1     146.969 146.777 164.978  0.00  0.00    -0.270 OA
ATOM      8  N1  UNL     1     144.904 146.182 164.122  0.00  0.00    -0.294 N 
ATOM      9  C7  UNL     1     143.472 146.442 163.921  0.00  0.00    +0.012 C 
ATOM     10  C8  UNL     1     142.614 146.168 165.147  0.00  0.00    -0.049 C 
ATOM     11  C9  UNL     1     145.404 144.855 163.762  0.00  0.00    +0.042 C 
ATOM     12  C10 UNL     1     145.059 143.843 164.809  0.00  0.00    -0.005 A 
ATOM     13  C11 UNL     1     145.578 143.780 166.090  0.00  0.00    +0.007 A 
ATOM     14  N2  UNL     1     145.024 142.708 166.731  0.00  0.00    -0.360 N 
ATOM     15  C12 UNL     1     144.151 142.053 165.894  0.00  0.00    +0.047 A 
ATOM     16  C13 UNL     1     143.368 140.914 166.123  0.00  0.00    -0.038 A 
ATOM     17  C14 UNL     1     142.562 140.461 165.075  0.00  0.00    -0.060 A 
ATOM     18  C15 UNL     1     142.543 141.120 163.848  0.00  0.00    -0.061 A 
ATOM     19  C16 UNL     1     143.333 142.256 163.636  0.00  0.00    -0.052 A 
ATOM     20  C17 UNL     1     144.156 142.737 164.677  0.00  0.00    +0.004 A 
ATOM     21  H   UNL     1     145.222 142.442 167.658  0.00  0.00    +0.000 HD
ENDROOT
TORSDOF 0
ENDMDL
MODEL 5
REMARK VINA RESULT:    -3.193      2.347      4.265
REMARK INTER + INTRA:          -3.193
REMARK INTER:                  -3.193
REMARK INTRA:                   0.000
REMARK UNBOUND:                 0.000
REMARK  Name = /home/vital/Documents/PhD_2021/Malaria_codes/scripts/../data/pdbqt_ligands/ligand_213_temp.pdb
REMARK                            x       y       z     vdW  Elec       q    Type
REMARK                         _______ _______ _______ _____ _____    ______ ____
ROOT
ATOM      1  C1  UNL     1     153.512 162.310 170.590  0.00  0.00    -0.062 C 
ATOM      2  C2  UNL     1     152.610 162.391 169.367  0.00  0.00    -0.037 C 
ATOM      3  C3  UNL     1     151.434 161.461 169.496  0.00  0.00    -0.076 C 
ATOM      4  C4  UNL     1     151.117 160.434 168.684  0.00  0.00    +0.008 C 
ATOM      5  C5  UNL     1     150.000 159.477 168.969  0.00  0.00    -0.035 C 
ATOM      6  C6  UNL     1     151.962 160.074 167.509  0.00  0.00    +0.242 C 
ATOM      7  O1  UNL     1     152.686 159.085 167.603  0.00  0.00    -0.270 OA
ATOM      8  N1  UNL     1     151.890 160.880 166.381  0.00  0.00    -0.294 N 
ATOM      9  C7  UNL     1     150.933 161.977 166.182  0.00  0.00    +0.012 C 
ATOM     10  C8  UNL     1     149.568 161.525 165.684  0.00  0.00    -0.049 C 
ATOM     11  C9  UNL     1     152.777 160.551 165.265  0.00  0.00    +0.042 C 
ATOM     12  C10 UNL     1     152.061 159.755 164.220  0.00  0.00    -0.005 A 
ATOM     13  C11 UNL     1     151.607 158.454 164.349  0.00  0.00    +0.007 A 
ATOM     14  N2  UNL     1     151.020 158.080 163.173  0.00  0.00    -0.360 N 
ATOM     15  C12 UNL     1     151.084 159.109 162.262  0.00  0.00    +0.047 A 
ATOM     16  C13 UNL     1     150.618 159.172 160.943  0.00  0.00    -0.038 A 
ATOM     17  C14 UNL     1     150.824 160.362 160.239  0.00  0.00    -0.060 A 
ATOM     18  C15 UNL     1     151.473 161.442 160.833  0.00  0.00    -0.061 A 
ATOM     19  C16 UNL     1     151.934 161.361 162.152  0.00  0.00    -0.052 A 
ATOM     20  C17 UNL     1     151.738 160.172 162.886  0.00  0.00    +0.004 A 
ATOM     21  H   UNL     1     150.611 157.201 163.001  0.00  0.00    +0.000 HD
ENDROOT
TORSDOF 0
ENDMDL
MODEL 6
REMARK VINA RESULT:    -2.990     17.347     19.101
REMARK INTER + INTRA:          -2.990
REMARK INTER:                  -2.990
REMARK INTRA:                   0.000
REMARK UNBOUND:                 0.000
REMARK  Name = /home/vital/Documents/PhD_2021/Malaria_codes/scripts/../data/pdbqt_ligands/ligand_213_temp.pdb
REMARK                            x       y       z     vdW  Elec       q    Type
REMARK                         _______ _______ _______ _____ _____    ______ ____
ROOT
ATOM      1  C1  UNL     1     141.348 138.866 165.175  0.00  0.00    -0.062 C 
ATOM      2  C2  UNL     1     141.399 140.317 164.722  0.00  0.00    -0.037 C 
ATOM      3  C3  UNL     1     142.762 140.676 164.196  0.00  0.00    -0.076 C 
ATOM      4  C4  UNL     1     143.596 141.620 164.675  0.00  0.00    +0.008 C 
ATOM      5  C5  UNL     1     144.993 141.813 164.169  0.00  0.00    -0.035 C 
ATOM      6  C6  UNL     1     143.242 142.448 165.863  0.00  0.00    +0.242 C 
ATOM      7  O1  UNL     1     143.784 142.179 166.933  0.00  0.00    -0.270 OA
ATOM      8  N1  UNL     1     142.315 143.469 165.696  0.00  0.00    -0.294 N 
ATOM      9  C7  UNL     1     141.762 143.909 164.408  0.00  0.00    +0.012 C 
ATOM     10  C8  UNL     1     142.652 144.884 163.652  0.00  0.00    -0.049 C 
ATOM     11  C9  UNL     1     141.930 144.225 166.888  0.00  0.00    +0.042 C 
ATOM     12  C10 UNL     1     142.691 145.509 166.985  0.00  0.00    -0.005 A 
ATOM     13  C11 UNL     1     144.045 145.642 167.238  0.00  0.00    +0.007 A 
ATOM     14  N2  UNL     1     144.354 146.973 167.262  0.00  0.00    -0.360 N 
ATOM     15  C12 UNL     1     143.226 147.727 167.034  0.00  0.00    +0.047 A 
ATOM     16  C13 UNL     1     143.071 149.117 166.972  0.00  0.00    -0.038 A 
ATOM     17  C14 UNL     1     141.789 149.616 166.724  0.00  0.00    -0.060 A 
ATOM     18  C15 UNL     1     140.707 148.756 166.550  0.00  0.00    -0.061 A 
ATOM     19  C16 UNL     1     140.880 147.369 166.616  0.00  0.00    -0.052 A 
ATOM     20  C17 UNL     1     142.164 146.838 166.864  0.00  0.00    +0.004 A 
ATOM     21  H   UNL     1     145.254 147.340 167.419  0.00  0.00    +0.000 HD
ENDROOT
TORSDOF 0
ENDMDL
MODEL 7
REMARK VINA RESULT:    -2.958     16.957     18.463
REMARK INTER + INTRA:          -2.958
REMARK INTER:                  -2.958
REMARK INTRA:                   0.000
REMARK UNBOUND:                 0.000
REMARK  Name = /home/vital/Documents/PhD_2021/Malaria_codes/scripts/../data/pdbqt_ligands/ligand_213_temp.pdb
REMARK                            x       y       z     vdW  Elec       q    Type
REMARK                         _______ _______ _______ _____ _____    ______ ____
ROOT
ATOM      1  C1  UNL     1     140.528 140.537 168.826  0.00  0.00    -0.062 C 
ATOM      2  C2  UNL     1     140.713 141.665 167.822  0.00  0.00    -0.037 C 
ATOM      3  C3  UNL     1     141.160 141.137 166.486  0.00  0.00    -0.076 C 
ATOM      4  C4  UNL     1     142.303 141.432 165.836  0.00  0.00    +0.008 C 
ATOM      5  C5  UNL     1     142.726 140.751 164.571  0.00  0.00    -0.035 C 
ATOM      6  C6  UNL     1     143.319 142.355 166.418  0.00  0.00    +0.242 C 
ATOM      7  O1  UNL     1     144.338 141.861 166.895  0.00  0.00    -0.270 OA
ATOM      8  N1  UNL     1     143.052 143.718 166.395  0.00  0.00    -0.294 N 
ATOM      9  C7  UNL     1     141.919 144.349 165.706  0.00  0.00    +0.012 C 
ATOM     10  C8  UNL     1     142.151 144.588 164.222  0.00  0.00    -0.049 C 
ATOM     11  C9  UNL     1     144.029 144.602 167.032  0.00  0.00    +0.042 C 
ATOM     12  C10 UNL     1     144.958 145.199 166.024  0.00  0.00    -0.005 A 
ATOM     13  C11 UNL     1     145.922 144.525 165.296  0.00  0.00    +0.007 A 
ATOM     14  N2  UNL     1     146.569 145.422 164.494  0.00  0.00    -0.360 N 
ATOM     15  C12 UNL     1     146.056 146.684 164.683  0.00  0.00    +0.047 A 
ATOM     16  C13 UNL     1     146.410 147.898 164.082  0.00  0.00    -0.038 A 
ATOM     17  C14 UNL     1     145.710 149.043 164.472  0.00  0.00    -0.060 A 
ATOM     18  C15 UNL     1     144.698 148.973 165.427  0.00  0.00    -0.061 A 
ATOM     19  C16 UNL     1     144.357 147.751 166.018  0.00  0.00    -0.052 A 
ATOM     20  C17 UNL     1     145.047 146.579 165.642  0.00  0.00    +0.004 A 
ATOM     21  H   UNL     1     147.298 145.198 163.872  0.00  0.00    +0.000 HD
ENDROOT
TORSDOF 0
ENDMDL
MODEL 8
REMARK VINA RESULT:    -2.673     16.904     18.735
REMARK INTER + INTRA:          -2.673
REMARK INTER:                  -2.673
REMARK INTRA:                   0.000
REMARK UNBOUND:                 0.000
REMARK  Name = /home/vital/Documents/PhD_2021/Malaria_codes/scripts/../data/pdbqt_ligands/ligand_213_temp.pdb
REMARK                            x       y       z     vdW  Elec       q    Type
REMARK                         _______ _______ _______ _____ _____    ______ ____
ROOT
ATOM      1  C1  UNL     1     145.491 140.542 161.766  0.00  0.00    -0.062 C 
ATOM      2  C2  UNL     1     145.510 141.565 162.891  0.00  0.00    -0.037 C 
ATOM      3  C3  UNL     1     144.860 141.020 164.133  0.00  0.00    -0.076 C 
ATOM      4  C4  UNL     1     143.778 141.512 164.768  0.00  0.00    +0.008 C 
ATOM      5  C5  UNL     1     143.120 140.822 165.923  0.00  0.00    -0.035 C 
ATOM      6  C6  UNL     1     143.052 142.713 164.262  0.00  0.00    +0.242 C 
ATOM      7  O1  UNL     1     141.980 142.536 163.688  0.00  0.00    -0.270 OA
ATOM      8  N1  UNL     1     143.632 143.959 164.461  0.00  0.00    -0.294 N 
ATOM      9  C7  UNL     1     144.833 144.216 165.267  0.00  0.00    +0.012 C 
ATOM     10  C8  UNL     1     144.562 144.343 166.759  0.00  0.00    -0.049 C 
ATOM     11  C9  UNL     1     142.939 145.117 163.897  0.00  0.00    +0.042 C 
ATOM     12  C10 UNL     1     142.111 145.810 164.933  0.00  0.00    -0.005 A 
ATOM     13  C11 UNL     1     140.967 145.316 165.534  0.00  0.00    +0.007 A 
ATOM     14  N2  UNL     1     140.498 146.251 166.412  0.00  0.00    -0.360 N 
ATOM     15  C12 UNL     1     141.307 147.363 166.399  0.00  0.00    +0.047 A 
ATOM     16  C13 UNL     1     141.210 148.555 167.128  0.00  0.00    -0.038 A 
ATOM     17  C14 UNL     1     142.188 149.530 166.908  0.00  0.00    -0.060 A 
ATOM     18  C15 UNL     1     143.217 149.320 165.994  0.00  0.00    -0.061 A 
ATOM     19  C16 UNL     1     143.298 148.123 165.273  0.00  0.00    -0.052 A 
ATOM     20  C17 UNL     1     142.325 147.121 165.476  0.00  0.00    +0.004 A 
ATOM     21  H   UNL     1     139.696 146.146 166.972  0.00  0.00    +0.000 HD
ENDROOT
TORSDOF 0
ENDMDL
