MODEL 1
REMARK VINA RESULT:    -4.250      0.000      0.000
REMARK INTER + INTRA:          -4.250
REMARK INTER:                  -4.250
REMARK INTRA:                   0.000
REMARK UNBOUND:                 0.000
REMARK  Name = /home/vital/Documents/PhD_2021/Malaria_codes/scripts/../data/pdbqt_ligands/ligand_64_temp.pdb
REMARK                            x       y       z     vdW  Elec       q    Type
REMARK                         _______ _______ _______ _____ _____    ______ ____
ROOT
ATOM      1  C   UNL     1     150.459 160.336 169.100  0.00  0.00    -0.061 C 
ATOM      2  C   UNL     1     150.710 160.141 167.607  0.00  0.00    -0.028 C 
ATOM      3  C   UNL     1     151.587 161.272 167.047  0.00  0.00    -0.045 C 
ATOM      4  C   UNL     1     152.150 160.970 165.644  0.00  0.00    -0.028 C 
ATOM      5  C   UNL     1     153.679 160.855 165.684  0.00  0.00    -0.061 C 
ATOM      6  C   UNL     1     151.527 159.716 165.021  0.00  0.00    +0.018 C 
ATOM      7  N   UNL     1     151.608 158.555 165.905  0.00  0.00    -0.297 N 
ATOM      8  C   UNL     1     151.693 157.296 165.321  0.00  0.00    +0.249 C 
ATOM      9  O   UNL     1     151.692 157.080 164.114  0.00  0.00    -0.270 OA
ATOM     10  C   UNL     1     151.831 156.120 166.194  0.00  0.00    +0.068 A 
ATOM     11  C   UNL     1     153.007 155.964 166.938  0.00  0.00    -0.029 A 
ATOM     12  C   UNL     1     153.192 154.806 167.694  0.00  0.00    +0.042 A 
ATOM     13 CL   UNL     1     154.629 154.618 168.620  0.00  0.00    -0.084 Cl
ATOM     14  C   UNL     1     152.226 153.795 167.702  0.00  0.00    -0.041 A 
ATOM     15  C   UNL     1     151.059 153.937 166.949  0.00  0.00    -0.029 A 
ATOM     16  C   UNL     1     150.872 155.105 166.196  0.00  0.00    +0.138 A 
ATOM     17  N   UNL     1     149.628 155.265 165.466  0.00  0.00    +0.057 N 
ATOM     18  O   UNL     1     149.284 154.332 164.729  0.00  0.00    -0.126 OA
ATOM     19  O   UNL     1     148.964 156.283 165.704  0.00  0.00    -0.126 OA
ATOM     20  C   UNL     1     151.345 158.776 167.331  0.00  0.00    +0.018 C 
ENDROOT
TORSDOF 0
ENDMDL
MODEL 2
REMARK VINA RESULT:    -4.016      3.210      5.974
REMARK INTER + INTRA:          -4.016
REMARK INTER:                  -4.016
REMARK INTRA:                   0.000
REMARK UNBOUND:                 0.000
REMARK  Name = /home/vital/Documents/PhD_2021/Malaria_codes/scripts/../data/pdbqt_ligands/ligand_64_temp.pdb
REMARK                            x       y       z     vdW  Elec       q    Type
REMARK                         _______ _______ _______ _____ _____    ______ ____
ROOT
ATOM      1  C   UNL     1     152.289 158.283 163.665  0.00  0.00    -0.061 C 
ATOM      2  C   UNL     1     151.591 157.697 164.890  0.00  0.00    -0.028 C 
ATOM      3  C   UNL     1     152.313 156.433 165.380  0.00  0.00    -0.045 C 
ATOM      4  C   UNL     1     151.872 155.983 166.786  0.00  0.00    -0.028 C 
ATOM      5  C   UNL     1     153.033 156.091 167.782  0.00  0.00    -0.061 C 
ATOM      6  C   UNL     1     150.648 156.758 167.291  0.00  0.00    +0.018 C 
ATOM      7  N   UNL     1     150.833 158.204 167.211  0.00  0.00    -0.297 N 
ATOM      8  C   UNL     1     150.176 158.997 168.145  0.00  0.00    +0.249 C 
ATOM      9  O   UNL     1     149.436 158.577 169.028  0.00  0.00    -0.270 OA
ATOM     10  C   UNL     1     150.393 160.453 168.115  0.00  0.00    +0.068 A 
ATOM     11  C   UNL     1     151.661 160.953 168.436  0.00  0.00    -0.029 A 
ATOM     12  C   UNL     1     151.856 162.333 168.506  0.00  0.00    +0.042 A 
ATOM     13 CL   UNL     1     153.415 162.951 168.886  0.00  0.00    -0.084 Cl
ATOM     14  C   UNL     1     150.797 163.218 168.279  0.00  0.00    -0.041 A 
ATOM     15  C   UNL     1     149.526 162.723 167.975  0.00  0.00    -0.029 A 
ATOM     16  C   UNL     1     149.335 161.337 167.898  0.00  0.00    +0.138 A 
ATOM     17  N   UNL     1     148.024 160.841 167.523  0.00  0.00    +0.057 N 
ATOM     18  O   UNL     1     147.055 161.277 168.156  0.00  0.00    -0.126 OA
ATOM     19  O   UNL     1     147.969 160.086 166.543  0.00  0.00    -0.126 OA
ATOM     20  C   UNL     1     151.493 158.734 166.014  0.00  0.00    +0.018 C 
ENDROOT
TORSDOF 0
ENDMDL
MODEL 3
REMARK VINA RESULT:    -3.806      2.046      2.287
REMARK INTER + INTRA:          -3.806
REMARK INTER:                  -3.806
REMARK INTRA:                   0.000
REMARK UNBOUND:                 0.000
REMARK  Name = /home/vital/Documents/PhD_2021/Malaria_codes/scripts/../data/pdbqt_ligands/ligand_64_temp.pdb
REMARK                            x       y       z     vdW  Elec       q    Type
REMARK                         _______ _______ _______ _____ _____    ______ ____
ROOT
ATOM      1  C   UNL     1     149.264 161.236 166.855  0.00  0.00    -0.061 C 
ATOM      2  C   UNL     1     150.532 161.093 166.017  0.00  0.00    -0.028 C 
ATOM      3  C   UNL     1     151.637 162.028 166.531  0.00  0.00    -0.045 C 
ATOM      4  C   UNL     1     153.029 161.704 165.955  0.00  0.00    -0.028 C 
ATOM      5  C   UNL     1     153.983 161.239 167.063  0.00  0.00    -0.061 C 
ATOM      6  C   UNL     1     152.967 160.672 164.822  0.00  0.00    +0.018 C 
ATOM      7  N   UNL     1     152.239 159.466 165.207  0.00  0.00    -0.297 N 
ATOM      8  C   UNL     1     152.609 158.264 164.613  0.00  0.00    +0.249 C 
ATOM      9  O   UNL     1     153.495 158.138 163.774  0.00  0.00    -0.270 OA
ATOM     10  C   UNL     1     151.924 157.029 165.028  0.00  0.00    +0.068 A 
ATOM     11  C   UNL     1     152.114 156.557 166.332  0.00  0.00    -0.029 A 
ATOM     12  C   UNL     1     151.549 155.338 166.710  0.00  0.00    +0.042 A 
ATOM     13 CL   UNL     1     151.769 154.762 168.315  0.00  0.00    -0.084 Cl
ATOM     14  C   UNL     1     150.814 154.577 165.796  0.00  0.00    -0.041 A 
ATOM     15  C   UNL     1     150.636 155.035 164.488  0.00  0.00    -0.029 A 
ATOM     16  C   UNL     1     151.198 156.264 164.114  0.00  0.00    +0.138 A 
ATOM     17  N   UNL     1     150.953 156.754 162.771  0.00  0.00    +0.057 N 
ATOM     18  O   UNL     1     151.191 155.979 161.837  0.00  0.00    -0.126 OA
ATOM     19  O   UNL     1     150.443 157.878 162.668  0.00  0.00    -0.126 OA
ATOM     20  C   UNL     1     151.017 159.640 165.998  0.00  0.00    +0.018 C 
ENDROOT
TORSDOF 0
ENDMDL
MODEL 4
REMARK VINA RESULT:    -3.318      4.113      5.027
REMARK INTER + INTRA:          -3.318
REMARK INTER:                  -3.318
REMARK INTRA:                   0.000
REMARK UNBOUND:                 0.000
REMARK  Name = /home/vital/Documents/PhD_2021/Malaria_codes/scripts/../data/pdbqt_ligands/ligand_64_temp.pdb
REMARK                            x       y       z     vdW  Elec       q    Type
REMARK                         _______ _______ _______ _____ _____    ______ ____
ROOT
ATOM      1  C   UNL     1     148.540 160.132 167.695  0.00  0.00    -0.061 C 
ATOM      2  C   UNL     1     149.950 160.650 167.425  0.00  0.00    -0.028 C 
ATOM      3  C   UNL     1     150.840 160.492 168.668  0.00  0.00    -0.045 C 
ATOM      4  C   UNL     1     152.341 160.682 168.372  0.00  0.00    -0.028 C 
ATOM      5  C   UNL     1     153.112 159.378 168.611  0.00  0.00    -0.061 C 
ATOM      6  C   UNL     1     152.596 161.214 166.957  0.00  0.00    +0.018 C 
ATOM      7  N   UNL     1     151.933 160.411 165.932  0.00  0.00    -0.297 N 
ATOM      8  C   UNL     1     152.526 160.339 164.677  0.00  0.00    +0.249 C 
ATOM      9  O   UNL     1     153.562 160.912 164.355  0.00  0.00    -0.270 OA
ATOM     10  C   UNL     1     151.904 159.491 163.648  0.00  0.00    +0.068 A 
ATOM     11  C   UNL     1     151.893 158.103 163.832  0.00  0.00    -0.029 A 
ATOM     12  C   UNL     1     151.394 157.281 162.821  0.00  0.00    +0.042 A 
ATOM     13 CL   UNL     1     151.366 155.577 163.049  0.00  0.00    -0.084 Cl
ATOM     14  C   UNL     1     150.922 157.826 161.623  0.00  0.00    -0.041 A 
ATOM     15  C   UNL     1     150.946 159.209 161.427  0.00  0.00    -0.029 A 
ATOM     16  C   UNL     1     151.442 160.033 162.448  0.00  0.00    +0.138 A 
ATOM     17  N   UNL     1     151.404 161.470 162.253  0.00  0.00    +0.057 N 
ATOM     18  O   UNL     1     151.890 161.909 161.203  0.00  0.00    -0.126 OA
ATOM     19  O   UNL     1     150.813 162.138 163.112  0.00  0.00    -0.126 OA
ATOM     20  C   UNL     1     150.574 159.942 166.219  0.00  0.00    +0.018 C 
ENDROOT
TORSDOF 0
ENDMDL
MODEL 5
REMARK VINA RESULT:    -3.315      3.028      3.797
REMARK INTER + INTRA:          -3.315
REMARK INTER:                  -3.315
REMARK INTRA:                   0.000
REMARK UNBOUND:                 0.000
REMARK  Name = /home/vital/Documents/PhD_2021/Malaria_codes/scripts/../data/pdbqt_ligands/ligand_64_temp.pdb
REMARK                            x       y       z     vdW  Elec       q    Type
REMARK                         _______ _______ _______ _____ _____    ______ ____
ROOT
ATOM      1  C   UNL     1     148.144 162.017 166.788  0.00  0.00    -0.061 C 
ATOM      2  C   UNL     1     149.546 162.373 166.299  0.00  0.00    -0.028 C 
ATOM      3  C   UNL     1     150.213 163.388 167.240  0.00  0.00    -0.045 C 
ATOM      4  C   UNL     1     151.728 163.539 167.000  0.00  0.00    -0.028 C 
ATOM      5  C   UNL     1     152.523 163.057 168.220  0.00  0.00    -0.061 C 
ATOM      6  C   UNL     1     152.193 162.819 165.729  0.00  0.00    +0.018 C 
ATOM      7  N   UNL     1     151.769 161.422 165.692  0.00  0.00    -0.297 N 
ATOM      8  C   UNL     1     152.575 160.514 165.014  0.00  0.00    +0.249 C 
ATOM      9  O   UNL     1     153.615 160.798 164.428  0.00  0.00    -0.270 OA
ATOM     10  C   UNL     1     152.194 159.093 165.013  0.00  0.00    +0.068 A 
ATOM     11  C   UNL     1     152.236 158.381 166.218  0.00  0.00    -0.029 A 
ATOM     12  C   UNL     1     151.970 157.012 166.216  0.00  0.00    +0.042 A 
ATOM     13 CL   UNL     1     152.007 156.137 167.695  0.00  0.00    -0.084 Cl
ATOM     14  C   UNL     1     151.684 156.341 165.022  0.00  0.00    -0.041 A 
ATOM     15  C   UNL     1     151.658 157.043 163.815  0.00  0.00    -0.029 A 
ATOM     16  C   UNL     1     151.917 158.420 163.822  0.00  0.00    +0.138 A 
ATOM     17  N   UNL     1     151.827 159.146 162.569  0.00  0.00    +0.057 N 
ATOM     18  O   UNL     1     152.461 158.691 161.608  0.00  0.00    -0.126 OA
ATOM     19  O   UNL     1     151.056 160.114 162.534  0.00  0.00    -0.126 OA
ATOM     20  C   UNL     1     150.412 161.118 166.154  0.00  0.00    +0.018 C 
ENDROOT
TORSDOF 0
ENDMDL
MODEL 6
REMARK VINA RESULT:    -3.221      3.131      4.414
REMARK INTER + INTRA:          -3.221
REMARK INTER:                  -3.221
REMARK INTRA:                   0.000
REMARK UNBOUND:                 0.000
REMARK  Name = /home/vital/Documents/PhD_2021/Malaria_codes/scripts/../data/pdbqt_ligands/ligand_64_temp.pdb
REMARK                            x       y       z     vdW  Elec       q    Type
REMARK                         _______ _______ _______ _____ _____    ______ ____
ROOT
ATOM      1  C   UNL     1     155.332 161.760 168.090  0.00  0.00    -0.061 C 
ATOM      2  C   UNL     1     154.078 161.213 168.767  0.00  0.00    -0.028 C 
ATOM      3  C   UNL     1     153.312 162.332 169.487  0.00  0.00    -0.045 C 
ATOM      4  C   UNL     1     151.885 161.925 169.905  0.00  0.00    -0.028 C 
ATOM      5  C   UNL     1     150.839 162.755 169.151  0.00  0.00    -0.061 C 
ATOM      6  C   UNL     1     151.627 160.425 169.718  0.00  0.00    +0.018 C 
ATOM      7  N   UNL     1     151.955 159.967 168.371  0.00  0.00    -0.297 N 
ATOM      8  C   UNL     1     151.236 158.894 167.855  0.00  0.00    +0.249 C 
ATOM      9  O   UNL     1     150.351 158.290 168.450  0.00  0.00    -0.270 OA
ATOM     10  C   UNL     1     151.514 158.453 166.478  0.00  0.00    +0.068 A 
ATOM     11  C   UNL     1     151.193 159.308 165.417  0.00  0.00    -0.029 A 
ATOM     12  C   UNL     1     151.362 158.865 164.105  0.00  0.00    +0.042 A 
ATOM     13 CL   UNL     1     150.982 159.917 162.799  0.00  0.00    -0.084 Cl
ATOM     14  C   UNL     1     151.828 157.574 163.840  0.00  0.00    -0.041 A 
ATOM     15  C   UNL     1     152.133 156.711 164.895  0.00  0.00    -0.029 A 
ATOM     16  C   UNL     1     151.971 157.161 166.213  0.00  0.00    +0.138 A 
ATOM     17  N   UNL     1     152.349 156.275 167.297  0.00  0.00    +0.057 N 
ATOM     18  O   UNL     1     151.883 155.128 167.275  0.00  0.00    -0.126 OA
ATOM     19  O   UNL     1     153.176 156.705 168.112  0.00  0.00    -0.126 OA
ATOM     20  C   UNL     1     153.174 160.501 167.757  0.00  0.00    +0.018 C 
ENDROOT
TORSDOF 0
ENDMDL
MODEL 7
REMARK VINA RESULT:    -3.089     13.553     15.425
REMARK INTER + INTRA:          -3.089
REMARK INTER:                  -3.089
REMARK INTRA:                   0.000
REMARK UNBOUND:                 0.000
REMARK  Name = /home/vital/Documents/PhD_2021/Malaria_codes/scripts/../data/pdbqt_ligands/ligand_64_temp.pdb
REMARK                            x       y       z     vdW  Elec       q    Type
REMARK                         _______ _______ _______ _____ _____    ______ ____
ROOT
ATOM      1  C   UNL     1     141.692 142.050 163.573  0.00  0.00    -0.061 C 
ATOM      2  C   UNL     1     142.964 142.520 164.274  0.00  0.00    -0.028 C 
ATOM      3  C   UNL     1     144.212 141.945 163.587  0.00  0.00    -0.045 C 
ATOM      4  C   UNL     1     145.522 142.630 164.026  0.00  0.00    -0.028 C 
ATOM      5  C   UNL     1     146.168 143.372 162.850  0.00  0.00    -0.061 C 
ATOM      6  C   UNL     1     145.317 143.573 165.218  0.00  0.00    +0.018 C 
ATOM      7  N   UNL     1     144.244 144.537 164.988  0.00  0.00    -0.297 N 
ATOM      8  C   UNL     1     144.339 145.778 165.608  0.00  0.00    +0.249 C 
ATOM      9  O   UNL     1     145.252 146.125 166.351  0.00  0.00    -0.270 OA
ATOM     10  C   UNL     1     143.297 146.783 165.345  0.00  0.00    +0.068 A 
ATOM     11  C   UNL     1     143.189 147.324 164.058  0.00  0.00    -0.029 A 
ATOM     12  C   UNL     1     142.270 148.346 163.818  0.00  0.00    +0.042 A 
ATOM     13 CL   UNL     1     142.126 149.003 162.236  0.00  0.00    -0.084 Cl
ATOM     14  C   UNL     1     141.471 148.846 164.851  0.00  0.00    -0.041 A 
ATOM     15  C   UNL     1     141.586 148.322 166.140  0.00  0.00    -0.029 A 
ATOM     16  C   UNL     1     142.505 147.289 166.377  0.00  0.00    +0.138 A 
ATOM     17  N   UNL     1     142.570 146.715 167.707  0.00  0.00    +0.057 N 
ATOM     18  O   UNL     1     142.698 147.500 168.654  0.00  0.00    -0.126 OA
ATOM     19  O   UNL     1     142.405 145.491 167.799  0.00  0.00    -0.126 OA
ATOM     20  C   UNL     1     143.031 144.049 164.326  0.00  0.00    +0.018 C 
ENDROOT
TORSDOF 0
ENDMDL
MODEL 8
REMARK VINA RESULT:    -2.888     13.061     15.328
REMARK INTER + INTRA:          -2.888
REMARK INTER:                  -2.888
REMARK INTRA:                   0.000
REMARK UNBOUND:                 0.000
REMARK  Name = /home/vital/Documents/PhD_2021/Malaria_codes/scripts/../data/pdbqt_ligands/ligand_64_temp.pdb
REMARK                            x       y       z     vdW  Elec       q    Type
REMARK                         _______ _______ _______ _____ _____    ______ ____
ROOT
ATOM      1  C   UNL     1     141.430 147.003 162.993  0.00  0.00    -0.061 C 
ATOM      2  C   UNL     1     142.773 147.035 163.719  0.00  0.00    -0.028 C 
ATOM      3  C   UNL     1     142.879 148.273 164.622  0.00  0.00    -0.045 C 
ATOM      4  C   UNL     1     144.049 148.201 165.623  0.00  0.00    -0.028 C 
ATOM      5  C   UNL     1     143.529 148.153 167.065  0.00  0.00    -0.061 C 
ATOM      6  C   UNL     1     144.986 147.020 165.343  0.00  0.00    +0.018 C 
ATOM      7  N   UNL     1     144.270 145.751 165.245  0.00  0.00    -0.297 N 
ATOM      8  C   UNL     1     144.941 144.593 165.623  0.00  0.00    +0.249 C 
ATOM      9  O   UNL     1     146.100 144.551 166.021  0.00  0.00    -0.270 OA
ATOM     10  C   UNL     1     144.218 143.312 165.584  0.00  0.00    +0.068 A 
ATOM     11  C   UNL     1     143.158 143.107 166.475  0.00  0.00    -0.029 A 
ATOM     12  C   UNL     1     142.527 141.863 166.515  0.00  0.00    +0.042 A 
ATOM     13 CL   UNL     1     141.215 141.611 167.598  0.00  0.00    -0.084 Cl
ATOM     14  C   UNL     1     142.954 140.817 165.691  0.00  0.00    -0.041 A 
ATOM     15  C   UNL     1     144.023 141.011 164.812  0.00  0.00    -0.029 A 
ATOM     16  C   UNL     1     144.649 142.264 164.768  0.00  0.00    +0.138 A 
ATOM     17  N   UNL     1     145.718 142.468 163.808  0.00  0.00    +0.057 N 
ATOM     18  O   UNL     1     146.633 141.635 163.800  0.00  0.00    -0.126 OA
ATOM     19  O   UNL     1     145.588 143.410 163.015  0.00  0.00    -0.126 OA
ATOM     20  C   UNL     1     142.991 145.753 164.528  0.00  0.00    +0.018 C 
ENDROOT
TORSDOF 0
ENDMDL
MODEL 9
REMARK VINA RESULT:    -2.883     12.863     16.307
REMARK INTER + INTRA:          -2.883
REMARK INTER:                  -2.883
REMARK INTRA:                   0.000
REMARK UNBOUND:                 0.000
REMARK  Name = /home/vital/Documents/PhD_2021/Malaria_codes/scripts/../data/pdbqt_ligands/ligand_64_temp.pdb
REMARK                            x       y       z     vdW  Elec       q    Type
REMARK                         _______ _______ _______ _____ _____    ______ ____
ROOT
ATOM      1  C   UNL     1     140.703 142.710 162.767  0.00  0.00    -0.061 C 
ATOM      2  C   UNL     1     141.549 142.242 163.949  0.00  0.00    -0.028 C 
ATOM      3  C   UNL     1     142.249 140.912 163.631  0.00  0.00    -0.045 C 
ATOM      4  C   UNL     1     143.363 140.553 164.633  0.00  0.00    -0.028 C 
ATOM      5  C   UNL     1     144.734 140.546 163.944  0.00  0.00    -0.061 C 
ATOM      6  C   UNL     1     143.374 141.482 165.853  0.00  0.00    +0.018 C 
ATOM      7  N   UNL     1     143.407 142.893 165.479  0.00  0.00    -0.297 N 
ATOM      8  C   UNL     1     144.032 143.783 166.347  0.00  0.00    +0.249 C 
ATOM      9  O   UNL     1     144.549 143.476 167.415  0.00  0.00    -0.270 OA
ATOM     10  C   UNL     1     144.124 145.200 165.961  0.00  0.00    +0.068 A 
ATOM     11  C   UNL     1     144.922 145.552 164.866  0.00  0.00    -0.029 A 
ATOM     12  C   UNL     1     145.095 146.900 164.549  0.00  0.00    +0.042 A 
ATOM     13 CL   UNL     1     146.063 147.336 163.197  0.00  0.00    -0.084 Cl
ATOM     14  C   UNL     1     144.497 147.900 165.323  0.00  0.00    -0.041 A 
ATOM     15  C   UNL     1     143.714 147.554 166.427  0.00  0.00    -0.029 A 
ATOM     16  C   UNL     1     143.535 146.199 166.738  0.00  0.00    +0.138 A 
ATOM     17  N   UNL     1     142.670 145.855 167.851  0.00  0.00    +0.057 N 
ATOM     18  O   UNL     1     142.889 146.421 168.930  0.00  0.00    -0.126 OA
ATOM     19  O   UNL     1     141.727 145.089 167.613  0.00  0.00    -0.126 OA
ATOM     20  C   UNL     1     142.571 143.310 164.349  0.00  0.00    +0.018 C 
ENDROOT
TORSDOF 0
ENDMDL
