MODEL 1
REMARK VINA RESULT:    -4.539      0.000      0.000
REMARK INTER + INTRA:          -4.539
REMARK INTER:                  -4.539
REMARK INTRA:                   0.000
REMARK UNBOUND:                 0.000
REMARK  Name = /home/vital/Documents/PhD_2021/Malaria_codes/scripts/../data/pdbqt_ligands/ligand_12_temp.pdb
REMARK                            x       y       z     vdW  Elec       q    Type
REMARK                         _______ _______ _______ _____ _____    ______ ____
ROOT
ATOM      1  N   UNL     1     153.439 160.548 169.758  0.00  0.00    -0.327 N 
ATOM      2  C   UNL     1     151.985 160.498 169.728  0.00  0.00    +0.012 C 
ATOM      3  C   UNL     1     151.441 161.887 169.829  0.00  0.00    -0.074 C 
ATOM      4  C   UNL     1     150.606 162.518 168.985  0.00  0.00    -0.082 C 
ATOM      5  C   UNL     1     150.025 161.985 167.708  0.00  0.00    +0.001 C 
ATOM      6  C   UNL     1     150.266 162.984 166.598  0.00  0.00    +0.004 C 
ATOM      7  N   UNL     1     151.243 163.026 165.754  0.00  0.00    -0.283 NA
ATOM      8  C   UNL     1     152.308 162.034 165.822  0.00  0.00    +0.102 C 
ATOM      9  C   UNL     1     151.887 160.861 165.058  0.00  0.00    -0.054 C 
ATOM     10  C   UNL     1     151.553 159.878 164.456  0.00  0.00    +0.036 C 
ATOM     11  N   UNL     1     151.185 158.764 163.809  0.00  0.00    -0.205 NA
ATOM     12  C   UNL     1     151.400 158.750 162.536  0.00  0.00    +0.038 C 
ATOM     13  C   UNL     1     151.075 157.605 161.648  0.00  0.00    -0.046 C 
ATOM     14  C   UNL     1     150.440 156.519 162.117  0.00  0.00    -0.071 C 
ATOM     15  C   UNL     1     150.045 155.279 161.362  0.00  0.00    +0.028 C 
ATOM     16  C   UNL     1     150.508 155.260 159.969  0.00  0.00    -0.093 C 
ATOM     17  C   UNL     1     150.895 155.260 158.832  0.00  0.00    -0.074 C 
ATOM     18  C   UNL     1     151.373 155.300 157.494  0.00  0.00    -0.009 C 
ATOM     19  C   UNL     1     151.146 156.329 156.653  0.00  0.00    -0.020 C 
ATOM     20  C   UNL     1     151.687 156.293 155.250  0.00  0.00    +0.047 C 
ATOM     21 CL   UNL     1     153.278 157.076 155.163  0.00  0.00    -0.121 Cl
ATOM     22  C   UNL     1     150.309 157.540 156.995  0.00  0.00    +0.092 C 
ATOM     23  O   UNL     1     151.139 158.695 157.014  0.00  0.00    -0.274 OA
ATOM     24 CL   UNL     1     150.288 160.104 157.378  0.00  0.00    +0.062 Cl
ATOM     25  H   UNL     1     153.813 159.602 169.690  0.00  0.00    +0.000 HD
ATOM     26  H   UNL     1     153.746 160.973 170.633  0.00  0.00    +0.000 HD
ATOM     27  H   UNL     1     153.776 161.105 168.973  0.00  0.00    +0.000 HD
ENDROOT
TORSDOF 0
ENDMDL
MODEL 2
REMARK VINA RESULT:    -4.260      8.015     11.642
REMARK INTER + INTRA:          -4.260
REMARK INTER:                  -4.260
REMARK INTRA:                   0.000
REMARK UNBOUND:                 0.000
REMARK  Name = /home/vital/Documents/PhD_2021/Malaria_codes/scripts/../data/pdbqt_ligands/ligand_12_temp.pdb
REMARK                            x       y       z     vdW  Elec       q    Type
REMARK                         _______ _______ _______ _____ _____    ______ ____
ROOT
ATOM      1  N   UNL     1     142.290 147.374 167.055  0.00  0.00    -0.327 N 
ATOM      2  C   UNL     1     143.546 146.677 167.285  0.00  0.00    +0.012 C 
ATOM      3  C   UNL     1     143.658 145.532 166.330  0.00  0.00    -0.074 C 
ATOM      4  C   UNL     1     144.639 145.277 165.447  0.00  0.00    -0.082 C 
ATOM      5  C   UNL     1     145.867 146.099 165.184  0.00  0.00    +0.001 C 
ATOM      6  C   UNL     1     145.986 146.352 163.697  0.00  0.00    +0.004 C 
ATOM      7  N   UNL     1     145.560 147.363 163.018  0.00  0.00    -0.283 NA
ATOM      8  C   UNL     1     144.840 148.438 163.687  0.00  0.00    +0.102 C 
ATOM      9  C   UNL     1     145.821 149.386 164.213  0.00  0.00    -0.054 C 
ATOM     10  C   UNL     1     146.609 150.166 164.674  0.00  0.00    +0.036 C 
ATOM     11  N   UNL     1     147.475 151.032 165.216  0.00  0.00    -0.205 NA
ATOM     12  C   UNL     1     147.915 151.960 164.432  0.00  0.00    +0.038 C 
ATOM     13  C   UNL     1     148.869 153.019 164.848  0.00  0.00    -0.046 C 
ATOM     14  C   UNL     1     149.414 153.022 166.075  0.00  0.00    -0.071 C 
ATOM     15  C   UNL     1     150.383 154.016 166.655  0.00  0.00    +0.028 C 
ATOM     16  C   UNL     1     150.672 155.150 165.769  0.00  0.00    -0.093 C 
ATOM     17  C   UNL     1     150.897 156.071 165.031  0.00  0.00    -0.074 C 
ATOM     18  C   UNL     1     151.134 157.143 164.130  0.00  0.00    -0.009 C 
ATOM     19  C   UNL     1     151.512 156.967 162.847  0.00  0.00    -0.020 C 
ATOM     20  C   UNL     1     151.744 158.158 161.956  0.00  0.00    +0.047 C 
ATOM     21 CL   UNL     1     150.270 158.575 161.060  0.00  0.00    -0.121 Cl
ATOM     22  C   UNL     1     151.794 155.622 162.219  0.00  0.00    +0.092 C 
ATOM     23  O   UNL     1     150.832 155.368 161.202  0.00  0.00    -0.274 OA
ATOM     24 CL   UNL     1     151.071 153.887 160.433  0.00  0.00    +0.062 Cl
ATOM     25  H   UNL     1     142.211 148.155 167.706  0.00  0.00    +0.000 HD
ATOM     26  H   UNL     1     141.513 146.729 167.202  0.00  0.00    +0.000 HD
ATOM     27  H   UNL     1     142.265 147.724 166.098  0.00  0.00    +0.000 HD
ENDROOT
TORSDOF 0
ENDMDL
MODEL 3
REMARK VINA RESULT:    -3.831      2.575      3.687
REMARK INTER + INTRA:          -3.831
REMARK INTER:                  -3.831
REMARK INTRA:                   0.000
REMARK UNBOUND:                 0.000
REMARK  Name = /home/vital/Documents/PhD_2021/Malaria_codes/scripts/../data/pdbqt_ligands/ligand_12_temp.pdb
REMARK                            x       y       z     vdW  Elec       q    Type
REMARK                         _______ _______ _______ _____ _____    ______ ____
ROOT
ATOM      1  N   UNL     1     149.641 162.377 168.862  0.00  0.00    -0.327 N 
ATOM      2  C   UNL     1     151.092 162.338 168.766  0.00  0.00    +0.012 C 
ATOM      3  C   UNL     1     151.627 161.363 169.766  0.00  0.00    -0.074 C 
ATOM      4  C   UNL     1     152.416 160.296 169.549  0.00  0.00    -0.082 C 
ATOM      5  C   UNL     1     152.943 159.803 168.233  0.00  0.00    +0.001 C 
ATOM      6  C   UNL     1     152.641 158.327 168.100  0.00  0.00    +0.004 C 
ATOM      7  N   UNL     1     151.626 157.763 167.534  0.00  0.00    -0.283 NA
ATOM      8  C   UNL     1     150.576 158.580 166.942  0.00  0.00    +0.102 C 
ATOM      9  C   UNL     1     150.972 158.910 165.574  0.00  0.00    -0.054 C 
ATOM     10  C   UNL     1     151.288 159.215 164.457  0.00  0.00    +0.036 C 
ATOM     11  N   UNL     1     151.636 159.583 163.217  0.00  0.00    -0.205 NA
ATOM     12  C   UNL     1     151.364 158.741 162.276  0.00  0.00    +0.038 C 
ATOM     13  C   UNL     1     151.659 158.971 160.840  0.00  0.00    -0.046 C 
ATOM     14  C   UNL     1     152.326 160.064 160.432  0.00  0.00    -0.071 C 
ATOM     15  C   UNL     1     152.698 160.450 159.027  0.00  0.00    +0.028 C 
ATOM     16  C   UNL     1     152.171 159.541 158.001  0.00  0.00    -0.093 C 
ATOM     17  C   UNL     1     151.732 158.787 157.176  0.00  0.00    -0.074 C 
ATOM     18  C   UNL     1     151.193 157.872 156.232  0.00  0.00    -0.009 C 
ATOM     19  C   UNL     1     151.371 156.537 156.304  0.00  0.00    -0.020 C 
ATOM     20  C   UNL     1     150.766 155.636 155.262  0.00  0.00    +0.047 C 
ATOM     21 CL   UNL     1     149.166 155.062 155.771  0.00  0.00    -0.121 Cl
ATOM     22  C   UNL     1     152.212 155.845 157.352  0.00  0.00    +0.092 C 
ATOM     23  O   UNL     1     151.371 155.039 158.171  0.00  0.00    -0.274 OA
ATOM     24 CL   UNL     1     152.225 154.216 159.369  0.00  0.00    +0.062 Cl
ATOM     25  H   UNL     1     149.274 163.042 168.181  0.00  0.00    +0.000 HD
ATOM     26  H   UNL     1     149.370 162.668 169.801  0.00  0.00    +0.000 HD
ATOM     27  H   UNL     1     149.262 161.450 168.671  0.00  0.00    +0.000 HD
ENDROOT
TORSDOF 0
ENDMDL
MODEL 4
REMARK VINA RESULT:    -3.696      5.996      9.716
REMARK INTER + INTRA:          -3.696
REMARK INTER:                  -3.696
REMARK INTRA:                   0.000
REMARK UNBOUND:                 0.000
REMARK  Name = /home/vital/Documents/PhD_2021/Malaria_codes/scripts/../data/pdbqt_ligands/ligand_12_temp.pdb
REMARK                            x       y       z     vdW  Elec       q    Type
REMARK                         _______ _______ _______ _____ _____    ______ ____
ROOT
ATOM      1  N   UNL     1     143.983 149.716 166.439  0.00  0.00    -0.327 N 
ATOM      2  C   UNL     1     145.251 149.005 166.374  0.00  0.00    +0.012 C 
ATOM      3  C   UNL     1     145.075 147.753 165.578  0.00  0.00    -0.074 C 
ATOM      4  C   UNL     1     145.751 147.359 164.484  0.00  0.00    -0.082 C 
ATOM      5  C   UNL     1     146.847 148.098 163.773  0.00  0.00    +0.001 C 
ATOM      6  C   UNL     1     146.522 148.169 162.298  0.00  0.00    +0.004 C 
ATOM      7  N   UNL     1     145.914 149.109 161.654  0.00  0.00    -0.283 NA
ATOM      8  C   UNL     1     145.424 150.281 162.367  0.00  0.00    +0.102 C 
ATOM      9  C   UNL     1     146.518 151.248 162.460  0.00  0.00    -0.054 C 
ATOM     10  C   UNL     1     147.407 152.046 162.570  0.00  0.00    +0.036 C 
ATOM     11  N   UNL     1     148.394 152.937 162.723  0.00  0.00    -0.205 NA
ATOM     12  C   UNL     1     148.584 153.750 161.736  0.00  0.00    +0.038 C 
ATOM     13  C   UNL     1     149.619 154.815 161.719  0.00  0.00    -0.046 C 
ATOM     14  C   UNL     1     150.502 154.943 162.723  0.00  0.00    -0.071 C 
ATOM     15  C   UNL     1     151.599 155.961 162.866  0.00  0.00    +0.028 C 
ATOM     16  C   UNL     1     151.614 156.972 161.801  0.00  0.00    -0.093 C 
ATOM     17  C   UNL     1     151.611 157.791 160.922  0.00  0.00    -0.074 C 
ATOM     18  C   UNL     1     151.571 158.739 159.865  0.00  0.00    -0.009 C 
ATOM     19  C   UNL     1     151.554 158.399 158.560  0.00  0.00    -0.020 C 
ATOM     20  C   UNL     1     151.513 159.467 157.500  0.00  0.00    +0.047 C 
ATOM     21 CL   UNL     1     149.839 159.830 157.032  0.00  0.00    -0.121 Cl
ATOM     22  C   UNL     1     151.637 156.980 158.048  0.00  0.00    +0.092 C 
ATOM     23  O   UNL     1     150.417 156.643 157.397  0.00  0.00    -0.274 OA
ATOM     24 CL   UNL     1     150.418 155.074 156.781  0.00  0.00    +0.062 Cl
ATOM     25  H   UNL     1     144.100 150.571 166.982  0.00  0.00    +0.000 HD
ATOM     26  H   UNL     1     143.284 149.123 166.885  0.00  0.00    +0.000 HD
ATOM     27  H   UNL     1     143.677 149.952 165.495  0.00  0.00    +0.000 HD
ENDROOT
TORSDOF 0
ENDMDL
MODEL 5
REMARK VINA RESULT:    -3.482      4.859     10.951
REMARK INTER + INTRA:          -3.482
REMARK INTER:                  -3.482
REMARK INTRA:                   0.000
REMARK UNBOUND:                 0.000
REMARK  Name = /home/vital/Documents/PhD_2021/Malaria_codes/scripts/../data/pdbqt_ligands/ligand_12_temp.pdb
REMARK                            x       y       z     vdW  Elec       q    Type
REMARK                         _______ _______ _______ _____ _____    ______ ____
ROOT
ATOM      1  N   UNL     1     153.757 156.967 156.007  0.00  0.00    -0.327 N 
ATOM      2  C   UNL     1     152.373 157.402 155.890  0.00  0.00    +0.012 C 
ATOM      3  C   UNL     1     151.490 156.205 155.743  0.00  0.00    -0.074 C 
ATOM      4  C   UNL     1     150.440 155.847 156.503  0.00  0.00    -0.082 C 
ATOM      5  C   UNL     1     149.903 156.556 157.712  0.00  0.00    +0.001 C 
ATOM      6  C   UNL     1     149.761 155.565 158.846  0.00  0.00    +0.004 C 
ATOM      7  N   UNL     1     150.606 155.292 159.784  0.00  0.00    -0.283 NA
ATOM      8  C   UNL     1     151.898 155.963 159.818  0.00  0.00    +0.102 C 
ATOM      9  C   UNL     1     151.736 157.230 160.529  0.00  0.00    -0.054 C 
ATOM     10  C   UNL     1     151.621 158.286 161.088  0.00  0.00    +0.036 C 
ATOM     11  N   UNL     1     151.505 159.477 161.689  0.00  0.00    -0.205 NA
ATOM     12  C   UNL     1     151.593 159.475 162.977  0.00  0.00    +0.038 C 
ATOM     13  C   UNL     1     151.503 160.693 163.822  0.00  0.00    -0.046 C 
ATOM     14  C   UNL     1     151.229 161.893 163.284  0.00  0.00    -0.071 C 
ATOM     15  C   UNL     1     151.110 163.217 163.989  0.00  0.00    +0.028 C 
ATOM     16  C   UNL     1     151.426 163.158 165.422  0.00  0.00    -0.093 C 
ATOM     17  C   UNL     1     151.689 163.092 166.592  0.00  0.00    -0.074 C 
ATOM     18  C   UNL     1     152.008 162.970 167.971  0.00  0.00    -0.009 C 
ATOM     19  C   UNL     1     151.435 162.066 168.790  0.00  0.00    -0.020 C 
ATOM     20  C   UNL     1     151.830 162.002 170.241  0.00  0.00    +0.047 C 
ATOM     21 CL   UNL     1     153.137 160.828 170.492  0.00  0.00    -0.121 Cl
ATOM     22  C   UNL     1     150.341 161.111 168.373  0.00  0.00    +0.092 C 
ATOM     23  O   UNL     1     150.830 159.776 168.444  0.00  0.00    -0.274 OA
ATOM     24 CL   UNL     1     149.671 158.633 168.004  0.00  0.00    +0.062 Cl
ATOM     25  H   UNL     1     154.362 157.782 156.107  0.00  0.00    +0.000 HD
ATOM     26  H   UNL     1     154.021 156.448 155.170  0.00  0.00    +0.000 HD
ATOM     27  H   UNL     1     153.856 156.366 156.825  0.00  0.00    +0.000 HD
ENDROOT
TORSDOF 0
ENDMDL
MODEL 6
REMARK VINA RESULT:    -3.339      7.346     11.372
REMARK INTER + INTRA:          -3.339
REMARK INTER:                  -3.339
REMARK INTRA:                   0.000
REMARK UNBOUND:                 0.000
REMARK  Name = /home/vital/Documents/PhD_2021/Malaria_codes/scripts/../data/pdbqt_ligands/ligand_12_temp.pdb
REMARK                            x       y       z     vdW  Elec       q    Type
REMARK                         _______ _______ _______ _____ _____    ______ ____
ROOT
ATOM      1  N   UNL     1     143.702 147.559 166.819  0.00  0.00    -0.327 N 
ATOM      2  C   UNL     1     144.947 146.868 166.520  0.00  0.00    +0.012 C 
ATOM      3  C   UNL     1     144.832 146.197 165.189  0.00  0.00    -0.074 C 
ATOM      4  C   UNL     1     145.623 146.341 164.112  0.00  0.00    -0.082 C 
ATOM      5  C   UNL     1     146.819 147.239 163.972  0.00  0.00    +0.001 C 
ATOM      6  C   UNL     1     146.676 148.061 162.709  0.00  0.00    +0.004 C 
ATOM      7  N   UNL     1     146.179 149.244 162.574  0.00  0.00    -0.283 NA
ATOM      8  C   UNL     1     145.640 149.945 163.732  0.00  0.00    +0.102 C 
ATOM      9  C   UNL     1     146.742 150.639 164.397  0.00  0.00    -0.054 C 
ATOM     10  C   UNL     1     147.634 151.198 164.974  0.00  0.00    +0.036 C 
ATOM     11  N   UNL     1     148.622 151.807 165.642  0.00  0.00    -0.205 NA
ATOM     12  C   UNL     1     148.953 152.982 165.219  0.00  0.00    +0.038 C 
ATOM     13  C   UNL     1     150.013 153.822 165.834  0.00  0.00    -0.046 C 
ATOM     14  C   UNL     1     150.771 153.358 166.841  0.00  0.00    -0.071 C 
ATOM     15  C   UNL     1     151.873 154.073 167.574  0.00  0.00    +0.028 C 
ATOM     16  C   UNL     1     152.046 155.473 167.168  0.00  0.00    -0.093 C 
ATOM     17  C   UNL     1     152.173 156.617 166.824  0.00  0.00    -0.074 C 
ATOM     18  C   UNL     1     152.289 157.964 166.390  0.00  0.00    -0.009 C 
ATOM     19  C   UNL     1     152.420 158.320 165.096  0.00  0.00    -0.020 C 
ATOM     20  C   UNL     1     152.538 159.772 164.718  0.00  0.00    +0.047 C 
ATOM     21 CL   UNL     1     150.945 160.462 164.347  0.00  0.00    -0.121 Cl
ATOM     22  C   UNL     1     152.523 157.341 163.949  0.00  0.00    +0.092 C 
ATOM     23  O   UNL     1     151.381 157.479 163.110  0.00  0.00    -0.274 OA
ATOM     24 CL   UNL     1     151.411 156.429 161.791  0.00  0.00    +0.062 Cl
ATOM     25  H   UNL     1     143.777 148.017 167.726  0.00  0.00    +0.000 HD
ATOM     26  H   UNL     1     142.936 146.885 166.841  0.00  0.00    +0.000 HD
ATOM     27  H   UNL     1     143.519 148.257 166.098  0.00  0.00    +0.000 HD
ENDROOT
TORSDOF 0
ENDMDL
MODEL 7
REMARK VINA RESULT:    -3.117     12.562     16.148
REMARK INTER + INTRA:          -3.117
REMARK INTER:                  -3.117
REMARK INTRA:                   0.000
REMARK UNBOUND:                 0.000
REMARK  Name = /home/vital/Documents/PhD_2021/Malaria_codes/scripts/../data/pdbqt_ligands/ligand_12_temp.pdb
REMARK                            x       y       z     vdW  Elec       q    Type
REMARK                         _______ _______ _______ _____ _____    ______ ____
ROOT
ATOM      1  N   UNL     1     142.569 140.105 162.923  0.00  0.00    -0.327 N 
ATOM      2  C   UNL     1     141.405 140.957 163.112  0.00  0.00    +0.012 C 
ATOM      3  C   UNL     1     140.758 140.627 164.418  0.00  0.00    -0.074 C 
ATOM      4  C   UNL     1     140.490 141.450 165.447  0.00  0.00    -0.082 C 
ATOM      5  C   UNL     1     140.797 142.916 165.547  0.00  0.00    +0.001 C 
ATOM      6  C   UNL     1     141.521 143.184 166.848  0.00  0.00    +0.004 C 
ATOM      7  N   UNL     1     142.793 143.235 167.064  0.00  0.00    -0.283 NA
ATOM      8  C   UNL     1     143.727 142.992 165.973  0.00  0.00    +0.102 C 
ATOM      9  C   UNL     1     143.941 144.255 165.267  0.00  0.00    -0.054 C 
ATOM     10  C   UNL     1     144.113 145.274 164.657  0.00  0.00    +0.036 C 
ATOM     11  N   UNL     1     144.298 146.398 163.952  0.00  0.00    -0.205 NA
ATOM     12  C   UNL     1     145.198 147.208 164.400  0.00  0.00    +0.038 C 
ATOM     13  C   UNL     1     145.558 148.496 163.753  0.00  0.00    -0.046 C 
ATOM     14  C   UNL     1     144.886 148.947 162.681  0.00  0.00    -0.071 C 
ATOM     15  C   UNL     1     145.123 150.215 161.908  0.00  0.00    +0.028 C 
ATOM     16  C   UNL     1     146.295 150.977 162.359  0.00  0.00    -0.093 C 
ATOM     17  C   UNL     1     147.257 151.586 162.741  0.00  0.00    -0.074 C 
ATOM     18  C   UNL     1     148.403 152.274 163.222  0.00  0.00    -0.009 C 
ATOM     19  C   UNL     1     148.588 152.595 164.518  0.00  0.00    -0.020 C 
ATOM     20  C   UNL     1     149.831 153.327 164.947  0.00  0.00    +0.047 C 
ATOM     21 CL   UNL     1     151.096 152.188 165.448  0.00  0.00    -0.121 Cl
ATOM     22  C   UNL     1     147.583 152.326 165.615  0.00  0.00    +0.092 C 
ATOM     23  O   UNL     1     148.129 151.383 166.531  0.00  0.00    -0.274 OA
ATOM     24 CL   UNL     1     147.079 151.025 167.801  0.00  0.00    +0.062 Cl
ATOM     25  H   UNL     1     143.012 140.328 162.032  0.00  0.00    +0.000 HD
ATOM     26  H   UNL     1     142.278 139.127 162.922  0.00  0.00    +0.000 HD
ATOM     27  H   UNL     1     143.232 140.262 163.682  0.00  0.00    +0.000 HD
ENDROOT
TORSDOF 0
ENDMDL
MODEL 8
REMARK VINA RESULT:    -2.660      4.584     10.658
REMARK INTER + INTRA:          -2.660
REMARK INTER:                  -2.660
REMARK INTRA:                   0.000
REMARK UNBOUND:                 0.000
REMARK  Name = /home/vital/Documents/PhD_2021/Malaria_codes/scripts/../data/pdbqt_ligands/ligand_12_temp.pdb
REMARK                            x       y       z     vdW  Elec       q    Type
REMARK                         _______ _______ _______ _____ _____    ______ ____
ROOT
ATOM      1  N   UNL     1     149.962 154.576 155.194  0.00  0.00    -0.327 N 
ATOM      2  C   UNL     1     151.392 154.821 155.312  0.00  0.00    +0.012 C 
ATOM      3  C   UNL     1     151.813 155.802 154.266  0.00  0.00    -0.074 C 
ATOM      4  C   UNL     1     152.443 156.979 154.432  0.00  0.00    -0.082 C 
ATOM      5  C   UNL     1     152.863 157.614 155.725  0.00  0.00    +0.001 C 
ATOM      6  C   UNL     1     152.358 159.039 155.765  0.00  0.00    +0.004 C 
ATOM      7  N   UNL     1     151.262 159.489 156.278  0.00  0.00    -0.283 NA
ATOM      8  C   UNL     1     150.318 158.569 156.899  0.00  0.00    +0.102 C 
ATOM      9  C   UNL     1     150.721 158.375 158.291  0.00  0.00    -0.054 C 
ATOM     10  C   UNL     1     151.047 158.181 159.430  0.00  0.00    +0.036 C 
ATOM     11  N   UNL     1     151.410 157.935 160.695  0.00  0.00    -0.205 NA
ATOM     12  C   UNL     1     151.001 158.784 161.579  0.00  0.00    +0.038 C 
ATOM     13  C   UNL     1     151.287 158.678 163.032  0.00  0.00    -0.046 C 
ATOM     14  C   UNL     1     152.087 157.714 163.516  0.00  0.00    -0.071 C 
ATOM     15  C   UNL     1     152.472 157.463 164.948  0.00  0.00    +0.028 C 
ATOM     16  C   UNL     1     151.800 158.347 165.908  0.00  0.00    -0.093 C 
ATOM     17  C   UNL     1     151.241 159.079 166.679  0.00  0.00    -0.074 C 
ATOM     18  C   UNL     1     150.557 159.962 167.557  0.00  0.00    -0.009 C 
ATOM     19  C   UNL     1     150.552 161.302 167.408  0.00  0.00    -0.020 C 
ATOM     20  C   UNL     1     149.803 162.170 168.384  0.00  0.00    +0.047 C 
ATOM     21 CL   UNL     1     148.153 162.486 167.813  0.00  0.00    -0.121 Cl
ATOM     22  C   UNL     1     151.317 162.044 166.336  0.00  0.00    +0.092 C 
ATOM     23  O   UNL     1     150.395 162.678 165.456  0.00  0.00    -0.274 OA
ATOM     24 CL   UNL     1     151.159 163.542 164.225  0.00  0.00    +0.062 Cl
ATOM     25  H   UNL     1     149.672 153.907 155.906  0.00  0.00    +0.000 HD
ATOM     26  H   UNL     1     149.758 154.198 154.269  0.00  0.00    +0.000 HD
ATOM     27  H   UNL     1     149.455 155.452 155.322  0.00  0.00    +0.000 HD
ENDROOT
TORSDOF 0
ENDMDL
MODEL 9
REMARK VINA RESULT:    -2.381     10.375     12.181
REMARK INTER + INTRA:          -2.381
REMARK INTER:                  -2.381
REMARK INTRA:                   0.000
REMARK UNBOUND:                 0.000
REMARK  Name = /home/vital/Documents/PhD_2021/Malaria_codes/scripts/../data/pdbqt_ligands/ligand_12_temp.pdb
REMARK                            x       y       z     vdW  Elec       q    Type
REMARK                         _______ _______ _______ _____ _____    ______ ____
ROOT
ATOM      1  N   UNL     1     152.492 152.981 168.151  0.00  0.00    -0.327 N 
ATOM      2  C   UNL     1     151.496 154.040 168.199  0.00  0.00    +0.012 C 
ATOM      3  C   UNL     1     151.785 155.040 167.126  0.00  0.00    -0.074 C 
ATOM      4  C   UNL     1     150.975 155.463 166.141  0.00  0.00    -0.082 C 
ATOM      5  C   UNL     1     149.571 155.014 165.858  0.00  0.00    +0.001 C 
ATOM      6  C   UNL     1     149.457 154.627 164.400  0.00  0.00    +0.004 C 
ATOM      7  N   UNL     1     149.591 153.460 163.867  0.00  0.00    -0.283 NA
ATOM      8  C   UNL     1     149.917 152.311 164.701  0.00  0.00    +0.102 C 
ATOM      9  C   UNL     1     148.668 151.767 165.234  0.00  0.00    -0.054 C 
ATOM     10  C   UNL     1     147.659 151.317 165.703  0.00  0.00    +0.036 C 
ATOM     11  N   UNL     1     146.544 150.819 166.253  0.00  0.00    -0.205 NA
ATOM     12  C   UNL     1     145.884 149.973 165.533  0.00  0.00    +0.038 C 
ATOM     13  C   UNL     1     144.634 149.302 165.970  0.00  0.00    -0.046 C 
ATOM     14  C   UNL     1     144.052 149.611 167.141  0.00  0.00    -0.071 C 
ATOM     15  C   UNL     1     142.798 149.027 167.733  0.00  0.00    +0.028 C 
ATOM     16  C   UNL     1     142.225 147.928 166.945  0.00  0.00    -0.093 C 
ATOM     17  C   UNL     1     141.770 147.031 166.288  0.00  0.00    -0.074 C 
ATOM     18  C   UNL     1     141.267 145.974 165.483  0.00  0.00    -0.009 C 
ATOM     19  C   UNL     1     141.026 146.095 164.162  0.00  0.00    -0.020 C 
ATOM     20  C   UNL     1     140.491 144.926 163.380  0.00  0.00    +0.047 C 
ATOM     21 CL   UNL     1     141.813 143.985 162.662  0.00  0.00    -0.121 Cl
ATOM     22  C   UNL     1     141.198 147.376 163.378  0.00  0.00    +0.092 C 
ATOM     23  O   UNL     1     142.243 147.207 162.427  0.00  0.00    -0.274 OA
ATOM     24 CL   UNL     1     142.503 148.587 161.494  0.00  0.00    +0.062 Cl
ATOM     25  H   UNL     1     152.297 152.297 168.881  0.00  0.00    +0.000 HD
ATOM     26  H   UNL     1     153.419 153.380 168.297  0.00  0.00    +0.000 HD
ATOM     27  H   UNL     1     152.459 152.524 167.239  0.00  0.00    +0.000 HD
ENDROOT
TORSDOF 0
ENDMDL
