MODEL 1
REMARK VINA RESULT:    -4.789      0.000      0.000
REMARK INTER + INTRA:          -4.789
REMARK INTER:                  -4.789
REMARK INTRA:                   0.000
REMARK UNBOUND:                 0.000
REMARK  Name = /home/vital/Documents/PhD_2021/Malaria_codes/scripts/../data/pdbqt_ligands/ligand_286_temp.pdb
REMARK                            x       y       z     vdW  Elec       q    Type
REMARK                         _______ _______ _______ _____ _____    ______ ____
ROOT
ATOM      1  C   UNL     1     141.257 132.586  89.993  0.00  0.00    -0.104 C 
ATOM      2  N   UNL     1     140.913 131.473  90.941  0.00  0.00    +0.376 N 
ATOM      3  C   UNL     1     141.563 130.172  90.550  0.00  0.00    -0.104 C 
ATOM      4  C   UNL     1     141.086 131.828  92.405  0.00  0.00    -0.090 C 
ATOM      5  C   UNL     1     142.534 132.127  92.778  0.00  0.00    -0.055 C 
ATOM      6  C   UNL     1     142.648 132.386  94.282  0.00  0.00    -0.005 C 
ATOM      7  N   UNL     1     144.058 132.547  94.632  0.00  0.00    -0.309 N 
ATOM      8  C   UNL     1     144.259 132.637  96.089  0.00  0.00    +0.055 C 
ATOM      9  C   UNL     1     143.980 131.347  96.775  0.00  0.00    +0.119 A 
ATOM     10  C   UNL     1     144.674 130.161  96.881  0.00  0.00    -0.019 A 
ATOM     11  C   UNL     1     143.859 129.289  97.644  0.00  0.00    -0.016 A 
ATOM     12  C   UNL     1     142.715 129.994  97.960  0.00  0.00    +0.137 A 
ATOM     13  C   UNL     1     141.498 129.694  98.702  0.00  0.00    +0.036 A 
ATOM     14  C   UNL     1     141.069 130.606  99.683  0.00  0.00    -0.048 A 
ATOM     15  C   UNL     1     139.918 130.362 100.438  0.00  0.00    -0.043 A 
ATOM     16  C   UNL     1     139.181 129.204 100.216  0.00  0.00    +0.042 A 
ATOM     17 CL   UNL     1     137.760 128.905 101.137  0.00  0.00    -0.083 Cl
ATOM     18  C   UNL     1     139.581 128.288  99.245  0.00  0.00    -0.024 A 
ATOM     19  C   UNL     1     140.733 128.533  98.490  0.00  0.00    +0.053 A 
ATOM     20 CL   UNL     1     141.125 127.375  97.263  0.00  0.00    -0.083 Cl
ATOM     21  O   UNL     1     142.791 131.254  97.439  0.00  0.00    -0.458 OA
ATOM     22  H   UNL     1     139.908 131.329  90.844  0.00  0.00    +0.000 HD
ATOM     23  H   UNL     1     144.409 133.400  94.199  0.00  0.00    +0.000 HD
ATOM     24  H   UNL     1     144.562 131.727  94.295  0.00  0.00    +0.000 HD
ENDROOT
TORSDOF 0
ENDMDL
MODEL 2
REMARK VINA RESULT:    -4.338      4.251      5.734
REMARK INTER + INTRA:          -4.338
REMARK INTER:                  -4.338
REMARK INTRA:                   0.000
REMARK UNBOUND:                 0.000
REMARK  Name = /home/vital/Documents/PhD_2021/Malaria_codes/scripts/../data/pdbqt_ligands/ligand_286_temp.pdb
REMARK                            x       y       z     vdW  Elec       q    Type
REMARK                         _______ _______ _______ _____ _____    ______ ____
ROOT
ATOM      1  C   UNL     1     142.842 126.686  92.797  0.00  0.00    -0.104 C 
ATOM      2  N   UNL     1     143.369 127.272  94.076  0.00  0.00    +0.376 N 
ATOM      3  C   UNL     1     143.605 128.754  93.967  0.00  0.00    -0.104 C 
ATOM      4  C   UNL     1     142.592 126.865  95.313  0.00  0.00    -0.090 C 
ATOM      5  C   UNL     1     141.152 127.367  95.304  0.00  0.00    -0.055 C 
ATOM      6  C   UNL     1     140.458 127.002  96.618  0.00  0.00    -0.005 C 
ATOM      7  N   UNL     1     139.124 127.599  96.634  0.00  0.00    -0.309 N 
ATOM      8  C   UNL     1     138.457 127.426  97.937  0.00  0.00    +0.055 C 
ATOM      9  C   UNL     1     139.101 128.231  99.008  0.00  0.00    +0.119 A 
ATOM     10  C   UNL     1     139.089 129.573  99.324  0.00  0.00    -0.019 A 
ATOM     11  C   UNL     1     139.938 129.727 100.446  0.00  0.00    -0.016 A 
ATOM     12  C   UNL     1     140.420 128.470 100.753  0.00  0.00    +0.137 A 
ATOM     13  C   UNL     1     141.321 127.936 101.764  0.00  0.00    +0.036 A 
ATOM     14  C   UNL     1     140.911 126.808 102.499  0.00  0.00    -0.048 A 
ATOM     15  C   UNL     1     141.727 126.262 103.494  0.00  0.00    -0.043 A 
ATOM     16  C   UNL     1     142.965 126.836 103.762  0.00  0.00    +0.042 A 
ATOM     17 CL   UNL     1     143.974 126.162 104.980  0.00  0.00    -0.083 Cl
ATOM     18  C   UNL     1     143.397 127.949 103.043  0.00  0.00    -0.024 A 
ATOM     19  C   UNL     1     142.579 128.495 102.048  0.00  0.00    +0.053 A 
ATOM     20 CL   UNL     1     143.218 129.838 101.160  0.00  0.00    -0.083 Cl
ATOM     21  O   UNL     1     139.903 127.554  99.882  0.00  0.00    -0.458 OA
ATOM     22  H   UNL     1     144.286 126.847  94.216  0.00  0.00    +0.000 HD
ATOM     23  H   UNL     1     138.556 127.156  95.912  0.00  0.00    +0.000 HD
ATOM     24  H   UNL     1     139.225 128.599  96.463  0.00  0.00    +0.000 HD
ENDROOT
TORSDOF 0
ENDMDL
MODEL 3
REMARK VINA RESULT:    -4.311      3.866      5.455
REMARK INTER + INTRA:          -4.311
REMARK INTER:                  -4.311
REMARK INTRA:                   0.000
REMARK UNBOUND:                 0.000
REMARK  Name = /home/vital/Documents/PhD_2021/Malaria_codes/scripts/../data/pdbqt_ligands/ligand_286_temp.pdb
REMARK                            x       y       z     vdW  Elec       q    Type
REMARK                         _______ _______ _______ _____ _____    ______ ____
ROOT
ATOM      1  C   UNL     1     140.961 126.632  92.038  0.00  0.00    -0.104 C 
ATOM      2  N   UNL     1     141.594 127.766  92.791  0.00  0.00    +0.376 N 
ATOM      3  C   UNL     1     141.003 129.099  92.413  0.00  0.00    -0.104 C 
ATOM      4  C   UNL     1     141.691 127.542  94.287  0.00  0.00    -0.090 C 
ATOM      5  C   UNL     1     140.328 127.434  94.962  0.00  0.00    -0.055 C 
ATOM      6  C   UNL     1     140.499 127.302  96.478  0.00  0.00    -0.005 C 
ATOM      7  N   UNL     1     139.182 127.324  97.110  0.00  0.00    -0.309 N 
ATOM      8  C   UNL     1     139.275 127.364  98.580  0.00  0.00    +0.055 C 
ATOM      9  C   UNL     1     139.807 128.662  99.073  0.00  0.00    +0.119 A 
ATOM     10  C   UNL     1     139.264 129.923  99.200  0.00  0.00    -0.019 A 
ATOM     11  C   UNL     1     140.295 130.754  99.702  0.00  0.00    -0.016 A 
ATOM     12  C   UNL     1     141.409 129.952  99.855  0.00  0.00    +0.137 A 
ATOM     13  C   UNL     1     142.774 130.169 100.313  0.00  0.00    +0.036 A 
ATOM     14  C   UNL     1     143.307 129.290 101.273  0.00  0.00    -0.048 A 
ATOM     15  C   UNL     1     144.606 129.460 101.762  0.00  0.00    -0.043 A 
ATOM     16  C   UNL     1     145.387 130.510 101.291  0.00  0.00    +0.042 A 
ATOM     17 CL   UNL     1     146.988 130.717 101.885  0.00  0.00    -0.083 Cl
ATOM     18  C   UNL     1     144.885 131.390 100.335  0.00  0.00    -0.024 A 
ATOM     19  C   UNL     1     143.585 131.219  99.847  0.00  0.00    +0.053 A 
ATOM     20 CL   UNL     1     143.061 132.319  98.615  0.00  0.00    -0.083 Cl
ATOM     21  O   UNL     1     141.110 128.673  99.480  0.00  0.00    -0.458 OA
ATOM     22  H   UNL     1     142.567 127.791  92.487  0.00  0.00    +0.000 HD
ATOM     23  H   UNL     1     138.671 126.485  96.836  0.00  0.00    +0.000 HD
ATOM     24  H   UNL     1     138.699 128.167  96.802  0.00  0.00    +0.000 HD
ENDROOT
TORSDOF 0
ENDMDL
MODEL 4
REMARK VINA RESULT:    -4.230      4.795      8.120
REMARK INTER + INTRA:          -4.230
REMARK INTER:                  -4.230
REMARK INTRA:                   0.000
REMARK UNBOUND:                 0.000
REMARK  Name = /home/vital/Documents/PhD_2021/Malaria_codes/scripts/../data/pdbqt_ligands/ligand_286_temp.pdb
REMARK                            x       y       z     vdW  Elec       q    Type
REMARK                         _______ _______ _______ _____ _____    ______ ____
ROOT
ATOM      1  C   UNL     1     145.846 128.566 104.126  0.00  0.00    -0.104 C 
ATOM      2  N   UNL     1     145.161 127.509 103.309  0.00  0.00    +0.376 N 
ATOM      3  C   UNL     1     144.221 126.672 104.135  0.00  0.00    -0.104 C 
ATOM      4  C   UNL     1     144.553 128.017 102.017  0.00  0.00    -0.090 C 
ATOM      5  C   UNL     1     143.427 129.021 102.244  0.00  0.00    -0.055 C 
ATOM      6  C   UNL     1     142.800 129.421 100.906  0.00  0.00    -0.005 C 
ATOM      7  N   UNL     1     141.648 130.284 101.158  0.00  0.00    -0.309 N 
ATOM      8  C   UNL     1     140.896 130.577  99.926  0.00  0.00    +0.055 C 
ATOM      9  C   UNL     1     140.194 129.377  99.399  0.00  0.00    +0.119 A 
ATOM     10  C   UNL     1     139.055 128.701  99.781  0.00  0.00    -0.019 A 
ATOM     11  C   UNL     1     138.926 127.604  98.894  0.00  0.00    -0.016 A 
ATOM     12  C   UNL     1     139.993 127.674  98.020  0.00  0.00    +0.137 A 
ATOM     13  C   UNL     1     140.451 126.873  96.894  0.00  0.00    +0.036 A 
ATOM     14  C   UNL     1     140.778 127.529  95.694  0.00  0.00    -0.048 A 
ATOM     15  C   UNL     1     141.207 126.809  94.575  0.00  0.00    -0.043 A 
ATOM     16  C   UNL     1     141.317 125.424  94.646  0.00  0.00    +0.042 A 
ATOM     17 CL   UNL     1     141.852 124.537  93.273  0.00  0.00    -0.083 Cl
ATOM     18  C   UNL     1     141.005 124.752  95.825  0.00  0.00    -0.024 A 
ATOM     19  C   UNL     1     140.576 125.473  96.945  0.00  0.00    +0.053 A 
ATOM     20 CL   UNL     1     140.269 124.567  98.389  0.00  0.00    -0.083 Cl
ATOM     21  O   UNL     1     140.763 128.762  98.320  0.00  0.00    -0.458 OA
ATOM     22  H   UNL     1     145.901 126.880 102.997  0.00  0.00    +0.000 HD
ATOM     23  H   UNL     1     141.977 131.162 101.560  0.00  0.00    +0.000 HD
ATOM     24  H   UNL     1     141.024 129.796 101.800  0.00  0.00    +0.000 HD
ENDROOT
TORSDOF 0
ENDMDL
MODEL 5
REMARK VINA RESULT:    -4.066      7.297      9.632
REMARK INTER + INTRA:          -4.066
REMARK INTER:                  -4.066
REMARK INTRA:                   0.000
REMARK UNBOUND:                 0.000
REMARK  Name = /home/vital/Documents/PhD_2021/Malaria_codes/scripts/../data/pdbqt_ligands/ligand_286_temp.pdb
REMARK                            x       y       z     vdW  Elec       q    Type
REMARK                         _______ _______ _______ _____ _____    ______ ____
ROOT
ATOM      1  C   UNL     1     140.156 130.139  99.455  0.00  0.00    -0.104 C 
ATOM      2  N   UNL     1     139.291 129.187 100.231  0.00  0.00    +0.376 N 
ATOM      3  C   UNL     1     138.396 128.373  99.335  0.00  0.00    -0.104 C 
ATOM      4  C   UNL     1     140.040 128.364 101.261  0.00  0.00    -0.090 C 
ATOM      5  C   UNL     1     141.067 127.423 100.637  0.00  0.00    -0.055 C 
ATOM      6  C   UNL     1     141.717 126.560 101.722  0.00  0.00    -0.005 C 
ATOM      7  N   UNL     1     142.603 125.586 101.087  0.00  0.00    -0.309 N 
ATOM      8  C   UNL     1     143.139 124.614 102.056  0.00  0.00    +0.055 C 
ATOM      9  C   UNL     1     142.089 123.695 102.569  0.00  0.00    +0.119 A 
ATOM     10  C   UNL     1     141.436 122.606 102.032  0.00  0.00    -0.019 A 
ATOM     11  C   UNL     1     140.507 122.174 103.010  0.00  0.00    -0.016 A 
ATOM     12  C   UNL     1     140.647 123.024 104.089  0.00  0.00    +0.137 A 
ATOM     13  C   UNL     1     140.008 123.139 105.393  0.00  0.00    +0.036 A 
ATOM     14  C   UNL     1     140.826 123.258 106.532  0.00  0.00    -0.048 A 
ATOM     15  C   UNL     1     140.269 123.355 107.810  0.00  0.00    -0.043 A 
ATOM     16  C   UNL     1     138.886 123.337 107.963  0.00  0.00    +0.042 A 
ATOM     17 CL   UNL     1     138.199 123.463 109.534  0.00  0.00    -0.083 Cl
ATOM     18  C   UNL     1     138.055 123.227 106.851  0.00  0.00    -0.024 A 
ATOM     19  C   UNL     1     138.614 123.130 105.571  0.00  0.00    +0.053 A 
ATOM     20 CL   UNL     1     137.509 123.059 104.239  0.00  0.00    -0.083 Cl
ATOM     21  O   UNL     1     141.618 123.947 103.826  0.00  0.00    -0.458 OA
ATOM     22  H   UNL     1     138.674 129.773 100.794  0.00  0.00    +0.000 HD
ATOM     23  H   UNL     1     143.381 126.082 100.654  0.00  0.00    +0.000 HD
ATOM     24  H   UNL     1     142.060 125.072 100.394  0.00  0.00    +0.000 HD
ENDROOT
TORSDOF 0
ENDMDL
MODEL 6
REMARK VINA RESULT:    -4.046      4.554      6.574
REMARK INTER + INTRA:          -4.046
REMARK INTER:                  -4.046
REMARK INTRA:                   0.000
REMARK UNBOUND:                 0.000
REMARK  Name = /home/vital/Documents/PhD_2021/Malaria_codes/scripts/../data/pdbqt_ligands/ligand_286_temp.pdb
REMARK                            x       y       z     vdW  Elec       q    Type
REMARK                         _______ _______ _______ _____ _____    ______ ____
ROOT
ATOM      1  C   UNL     1     143.685 134.380  98.288  0.00  0.00    -0.104 C 
ATOM      2  N   UNL     1     144.155 132.955  98.219  0.00  0.00    +0.376 N 
ATOM      3  C   UNL     1     145.249 132.669  99.213  0.00  0.00    -0.104 C 
ATOM      4  C   UNL     1     143.038 131.931  98.225  0.00  0.00    -0.090 C 
ATOM      5  C   UNL     1     142.233 131.936  99.521  0.00  0.00    -0.055 C 
ATOM      6  C   UNL     1     141.186 130.820  99.497  0.00  0.00    -0.005 C 
ATOM      7  N   UNL     1     140.514 130.768 100.794  0.00  0.00    -0.309 N 
ATOM      8  C   UNL     1     139.606 129.612 100.900  0.00  0.00    +0.055 C 
ATOM      9  C   UNL     1     140.345 128.322 100.952  0.00  0.00    +0.119 A 
ATOM     10  C   UNL     1     141.067 127.683 101.936  0.00  0.00    -0.019 A 
ATOM     11  C   UNL     1     141.562 126.489 101.356  0.00  0.00    -0.016 A 
ATOM     12  C   UNL     1     141.112 126.468 100.051  0.00  0.00    +0.137 A 
ATOM     13  C   UNL     1     141.259 125.549  98.931  0.00  0.00    +0.036 A 
ATOM     14  C   UNL     1     140.104 125.158  98.229  0.00  0.00    -0.048 A 
ATOM     15  C   UNL     1     140.183 124.266  97.155  0.00  0.00    -0.043 A 
ATOM     16  C   UNL     1     141.419 123.758  96.770  0.00  0.00    +0.042 A 
ATOM     17 CL   UNL     1     141.519 122.667  95.445  0.00  0.00    -0.083 Cl
ATOM     18  C   UNL     1     142.577 124.136  97.444  0.00  0.00    -0.024 A 
ATOM     19  C   UNL     1     142.498 125.029  98.519  0.00  0.00    +0.053 A 
ATOM     20 CL   UNL     1     143.992 125.493  99.262  0.00  0.00    -0.083 Cl
ATOM     21  O   UNL     1     140.360 127.581  99.805  0.00  0.00    -0.458 OA
ATOM     22  H   UNL     1     144.575 132.848  97.295  0.00  0.00    +0.000 HD
ATOM     23  H   UNL     1     139.973 131.623 100.919  0.00  0.00    +0.000 HD
ATOM     24  H   UNL     1     141.229 130.674 101.515  0.00  0.00    +0.000 HD
ENDROOT
TORSDOF 0
ENDMDL
MODEL 7
REMARK VINA RESULT:    -3.874      5.773      7.721
REMARK INTER + INTRA:          -3.874
REMARK INTER:                  -3.874
REMARK INTRA:                   0.000
REMARK UNBOUND:                 0.000
REMARK  Name = /home/vital/Documents/PhD_2021/Malaria_codes/scripts/../data/pdbqt_ligands/ligand_286_temp.pdb
REMARK                            x       y       z     vdW  Elec       q    Type
REMARK                         _______ _______ _______ _____ _____    ______ ____
ROOT
ATOM      1  C   UNL     1     139.852 121.307  96.231  0.00  0.00    -0.104 C 
ATOM      2  N   UNL     1     139.292 122.625  96.682  0.00  0.00    +0.376 N 
ATOM      3  C   UNL     1     138.020 122.462  97.471  0.00  0.00    -0.104 C 
ATOM      4  C   UNL     1     140.306 123.541  97.337  0.00  0.00    -0.090 C 
ATOM      5  C   UNL     1     140.867 122.974  98.638  0.00  0.00    -0.055 C 
ATOM      6  C   UNL     1     141.811 123.987  99.290  0.00  0.00    -0.005 C 
ATOM      7  N   UNL     1     142.237 123.473 100.590  0.00  0.00    -0.309 N 
ATOM      8  C   UNL     1     143.018 124.466 101.349  0.00  0.00    +0.055 C 
ATOM      9  C   UNL     1     142.183 125.611 101.798  0.00  0.00    +0.119 A 
ATOM     10  C   UNL     1     141.250 125.769 102.800  0.00  0.00    -0.019 A 
ATOM     11  C   UNL     1     140.773 127.098 102.696  0.00  0.00    -0.016 A 
ATOM     12  C   UNL     1     141.444 127.677 101.637  0.00  0.00    +0.137 A 
ATOM     13  C   UNL     1     141.426 128.989 101.005  0.00  0.00    +0.036 A 
ATOM     14  C   UNL     1     142.652 129.638 100.772  0.00  0.00    -0.048 A 
ATOM     15  C   UNL     1     142.694 130.905 100.184  0.00  0.00    -0.043 A 
ATOM     16  C   UNL     1     141.510 131.536  99.819  0.00  0.00    +0.042 A 
ATOM     17 CL   UNL     1     141.560 133.092  99.089  0.00  0.00    -0.083 Cl
ATOM     18  C   UNL     1     140.284 130.911 100.033  0.00  0.00    -0.024 A 
ATOM     19  C   UNL     1     140.242 129.642 100.621  0.00  0.00    +0.053 A 
ATOM     20 CL   UNL     1     138.681 128.911 100.794  0.00  0.00    -0.083 Cl
ATOM     21  O   UNL     1     142.313 126.774 101.093  0.00  0.00    -0.458 OA
ATOM     22  H   UNL     1     139.034 123.121  95.828  0.00  0.00    +0.000 HD
ATOM     23  H   UNL     1     142.813 122.644 100.443  0.00  0.00    +0.000 HD
ATOM     24  H   UNL     1     141.401 123.251 101.130  0.00  0.00    +0.000 HD
ENDROOT
TORSDOF 0
ENDMDL
MODEL 8
REMARK VINA RESULT:    -3.822      1.985      2.126
REMARK INTER + INTRA:          -3.822
REMARK INTER:                  -3.822
REMARK INTRA:                   0.000
REMARK UNBOUND:                 0.000
REMARK  Name = /home/vital/Documents/PhD_2021/Malaria_codes/scripts/../data/pdbqt_ligands/ligand_286_temp.pdb
REMARK                            x       y       z     vdW  Elec       q    Type
REMARK                         _______ _______ _______ _____ _____    ______ ____
ROOT
ATOM      1  C   UNL     1     144.318 131.395  90.866  0.00  0.00    -0.104 C 
ATOM      2  N   UNL     1     143.969 130.412  91.946  0.00  0.00    +0.376 N 
ATOM      3  C   UNL     1     145.040 129.371  92.134  0.00  0.00    -0.104 C 
ATOM      4  C   UNL     1     143.499 131.049  93.239  0.00  0.00    -0.090 C 
ATOM      5  C   UNL     1     144.577 131.891  93.913  0.00  0.00    -0.055 C 
ATOM      6  C   UNL     1     144.066 132.426  95.254  0.00  0.00    -0.005 C 
ATOM      7  N   UNL     1     145.155 133.124  95.934  0.00  0.00    -0.309 N 
ATOM      8  C   UNL     1     144.784 133.525  97.303  0.00  0.00    +0.055 C 
ATOM      9  C   UNL     1     144.635 132.356  98.209  0.00  0.00    +0.119 A 
ATOM     10  C   UNL     1     145.536 131.521  98.835  0.00  0.00    -0.019 A 
ATOM     11  C   UNL     1     144.768 130.564  99.543  0.00  0.00    -0.016 A 
ATOM     12  C   UNL     1     143.442 130.870  99.309  0.00  0.00    +0.137 A 
ATOM     13  C   UNL     1     142.169 130.298  99.723  0.00  0.00    +0.036 A 
ATOM     14  C   UNL     1     141.186 131.157 100.247  0.00  0.00    -0.048 A 
ATOM     15  C   UNL     1     139.952 130.661 100.676  0.00  0.00    -0.043 A 
ATOM     16  C   UNL     1     139.686 129.299 100.582  0.00  0.00    +0.042 A 
ATOM     17 CL   UNL     1     138.165 128.687 101.102  0.00  0.00    -0.083 Cl
ATOM     18  C   UNL     1     140.640 128.429 100.061  0.00  0.00    -0.024 A 
ATOM     19  C   UNL     1     141.876 128.926  99.632  0.00  0.00    +0.053 A 
ATOM     20 CL   UNL     1     142.980 127.785  98.940  0.00  0.00    -0.083 Cl
ATOM     21  O   UNL     1     143.359 131.970  98.503  0.00  0.00    -0.458 OA
ATOM     22  H   UNL     1     143.145 129.914  91.609  0.00  0.00    +0.000 HD
ATOM     23  H   UNL     1     145.395 133.959  95.400  0.00  0.00    +0.000 HD
ATOM     24  H   UNL     1     145.947 132.485  95.997  0.00  0.00    +0.000 HD
ENDROOT
TORSDOF 0
ENDMDL
