MODEL 1
REMARK VINA RESULT:    -4.876      0.000      0.000
REMARK INTER + INTRA:          -4.876
REMARK INTER:                  -4.876
REMARK INTRA:                   0.000
REMARK UNBOUND:                 0.000
REMARK  Name = /home/vital/Documents/PhD_2021/Malaria_codes/scripts/../data/pdbqt_ligands/ligand_217_temp.pdb
REMARK                            x       y       z     vdW  Elec       q    Type
REMARK                         _______ _______ _______ _____ _____    ______ ____
ROOT
ATOM      1  C1  UNL     1     143.192 127.524 103.636  0.00  0.00    +0.041 C 
ATOM      2  C2  UNL     1     141.723 127.650 103.165  0.00  0.00    +0.123 C 
ATOM      3  N1  UNL     1     140.957 126.575 103.798  0.00  0.00    -0.254 NA
ATOM      4  C3  UNL     1     141.292 125.379 103.484  0.00  0.00    +0.078 C 
ATOM      5  N2  UNL     1     140.701 124.232 103.947  0.00  0.00    -0.333 N 
ATOM      6  C4  UNL     1     139.835 124.218 105.118  0.00  0.00    +0.033 C 
ATOM      7  C5  UNL     1     138.452 124.799 104.818  0.00  0.00    +0.060 C 
ATOM      8  O1  UNL     1     137.578 124.565 105.920  0.00  0.00    -0.393 OA
ATOM      9  N3  UNL     1     141.648 127.614 101.711  0.00  0.00    -0.321 N 
ATOM     10  C6  UNL     1     141.604 128.896 101.109  0.00  0.00    +0.047 A 
ATOM     11  C7  UNL     1     142.783 129.639 100.965  0.00  0.00    -0.038 A 
ATOM     12  C8  UNL     1     142.756 130.918 100.402  0.00  0.00    -0.042 A 
ATOM     13  C9  UNL     1     141.545 131.467  99.984  0.00  0.00    +0.042 A 
ATOM     14 CL1  UNL     1     141.517 133.043  99.295  0.00  0.00    -0.083 Cl
ATOM     15  C10 UNL     1     140.358 130.754 100.123  0.00  0.00    -0.023 A 
ATOM     16  C11 UNL     1     140.391 129.477 100.684  0.00  0.00    +0.063 A 
ATOM     17 CL2  UNL     1     138.903 128.615 100.866  0.00  0.00    -0.082 Cl
ATOM     18  H   UNL     1     140.869 123.387 103.471  0.00  0.00    +0.000 HD
ATOM     19  H   UNL     1     137.496 123.610 106.071  0.00  0.00    +0.000 HD
ATOM     20  H   UNL     1     141.631 126.776 101.194  0.00  0.00    +0.000 HD
ENDROOT
TORSDOF 0
ENDMDL
MODEL 2
REMARK VINA RESULT:    -4.014      5.566      8.312
REMARK INTER + INTRA:          -4.014
REMARK INTER:                  -4.014
REMARK INTRA:                   0.000
REMARK UNBOUND:                 0.000
REMARK  Name = /home/vital/Documents/PhD_2021/Malaria_codes/scripts/../data/pdbqt_ligands/ligand_217_temp.pdb
REMARK                            x       y       z     vdW  Elec       q    Type
REMARK                         _______ _______ _______ _____ _____    ______ ____
ROOT
ATOM      1  C1  UNL     1     145.455 129.818  99.906  0.00  0.00    +0.041 C 
ATOM      2  C2  UNL     1     144.447 130.881  99.408  0.00  0.00    +0.123 C 
ATOM      3  N1  UNL     1     145.209 131.948  98.757  0.00  0.00    -0.254 NA
ATOM      4  C3  UNL     1     146.021 132.602  99.502  0.00  0.00    +0.078 C 
ATOM      5  N2  UNL     1     146.817 133.643  99.102  0.00  0.00    -0.333 N 
ATOM      6  C4  UNL     1     147.091 133.922  97.699  0.00  0.00    +0.033 C 
ATOM      7  C5  UNL     1     145.899 134.575  96.997  0.00  0.00    +0.060 C 
ATOM      8  O1  UNL     1     146.286 135.024  95.701  0.00  0.00    -0.393 OA
ATOM      9  N3  UNL     1     143.629 131.366 100.512  0.00  0.00    -0.321 N 
ATOM     10  C6  UNL     1     142.377 130.713 100.625  0.00  0.00    +0.047 A 
ATOM     11  C7  UNL     1     142.305 129.444 101.215  0.00  0.00    -0.038 A 
ATOM     12  C8  UNL     1     141.084 128.770 101.307  0.00  0.00    -0.042 A 
ATOM     13  C9  UNL     1     139.925 129.358 100.805  0.00  0.00    +0.042 A 
ATOM     14 CL1  UNL     1     138.426 128.522 100.920  0.00  0.00    -0.083 Cl
ATOM     15  C10 UNL     1     139.970 130.614 100.207  0.00  0.00    -0.023 A 
ATOM     16  C11 UNL     1     141.191 131.284 100.118  0.00  0.00    +0.063 A 
ATOM     17 CL2  UNL     1     141.230 132.835  99.354  0.00  0.00    -0.082 Cl
ATOM     18  H   UNL     1     147.218 134.224  99.788  0.00  0.00    +0.000 HD
ATOM     19  H   UNL     1     147.001 135.674  95.783  0.00  0.00    +0.000 HD
ATOM     20  H   UNL     1     143.920 132.082 101.123  0.00  0.00    +0.000 HD
ENDROOT
TORSDOF 0
ENDMDL
MODEL 3
REMARK VINA RESULT:    -3.918     16.545     17.229
REMARK INTER + INTRA:          -3.918
REMARK INTER:                  -3.918
REMARK INTRA:                   0.000
REMARK UNBOUND:                 0.000
REMARK  Name = /home/vital/Documents/PhD_2021/Malaria_codes/scripts/../data/pdbqt_ligands/ligand_217_temp.pdb
REMARK                            x       y       z     vdW  Elec       q    Type
REMARK                         _______ _______ _______ _____ _____    ______ ____
ROOT
ATOM      1  C1  UNL     1     133.713 124.941  86.224  0.00  0.00    +0.041 C 
ATOM      2  C2  UNL     1     133.910 123.695  87.122  0.00  0.00    +0.123 C 
ATOM      3  N1  UNL     1     132.749 123.592  88.006  0.00  0.00    -0.254 NA
ATOM      4  C3  UNL     1     132.577 124.557  88.832  0.00  0.00    +0.078 C 
ATOM      5  N2  UNL     1     131.568 124.656  89.753  0.00  0.00    -0.333 N 
ATOM      6  C4  UNL     1     130.365 123.837  89.683  0.00  0.00    +0.033 C 
ATOM      7  C5  UNL     1     130.621 122.397  90.131  0.00  0.00    +0.060 C 
ATOM      8  O1  UNL     1     129.384 121.700  90.254  0.00  0.00    -0.393 OA
ATOM      9  N3  UNL     1     135.168 123.786  87.851  0.00  0.00    -0.321 N 
ATOM     10  C6  UNL     1     136.241 123.099  87.230  0.00  0.00    +0.047 A 
ATOM     11  C7  UNL     1     136.905 123.683  86.143  0.00  0.00    -0.038 A 
ATOM     12  C8  UNL     1     137.944 123.008  85.498  0.00  0.00    -0.042 A 
ATOM     13  C9  UNL     1     138.324 121.739  85.931  0.00  0.00    +0.042 A 
ATOM     14 CL1  UNL     1     139.602 120.912  85.131  0.00  0.00    -0.083 Cl
ATOM     15  C10 UNL     1     137.675 121.133  87.004  0.00  0.00    -0.023 A 
ATOM     16  C11 UNL     1     136.639 121.812  87.646  0.00  0.00    +0.063 A 
ATOM     17 CL2  UNL     1     135.833 121.034  88.963  0.00  0.00    -0.082 Cl
ATOM     18  H   UNL     1     131.659 125.303  90.488  0.00  0.00    +0.000 HD
ATOM     19  H   UNL     1     128.827 122.143  90.913  0.00  0.00    +0.000 HD
ATOM     20  H   UNL     1     135.264 124.280  88.698  0.00  0.00    +0.000 HD
ENDROOT
TORSDOF 0
ENDMDL
MODEL 4
REMARK VINA RESULT:    -3.833      5.149      5.907
REMARK INTER + INTRA:          -3.833
REMARK INTER:                  -3.833
REMARK INTRA:                   0.000
REMARK UNBOUND:                 0.000
REMARK  Name = /home/vital/Documents/PhD_2021/Malaria_codes/scripts/../data/pdbqt_ligands/ligand_217_temp.pdb
REMARK                            x       y       z     vdW  Elec       q    Type
REMARK                         _______ _______ _______ _____ _____    ______ ____
ROOT
ATOM      1  C1  UNL     1     138.401 127.639  98.108  0.00  0.00    +0.041 C 
ATOM      2  C2  UNL     1     139.907 127.575  97.756  0.00  0.00    +0.123 C 
ATOM      3  N1  UNL     1     140.193 126.228  97.260  0.00  0.00    -0.254 NA
ATOM      4  C3  UNL     1     140.017 125.268  98.091  0.00  0.00    +0.078 C 
ATOM      5  N2  UNL     1     140.237 123.939  97.839  0.00  0.00    -0.333 N 
ATOM      6  C4  UNL     1     140.377 123.413  96.489  0.00  0.00    +0.033 C 
ATOM      7  C5  UNL     1     141.740 123.745  95.879  0.00  0.00    +0.060 C 
ATOM      8  O1  UNL     1     141.912 123.030  94.657  0.00  0.00    -0.393 OA
ATOM      9  N3  UNL     1     140.717 127.933  98.914  0.00  0.00    -0.321 N 
ATOM     10  C6  UNL     1     141.118 129.292  98.932  0.00  0.00    +0.047 A 
ATOM     11  C7  UNL     1     140.213 130.279  99.343  0.00  0.00    -0.038 A 
ATOM     12  C8  UNL     1     140.579 131.628  99.338  0.00  0.00    -0.042 A 
ATOM     13  C9  UNL     1     141.854 132.000  98.917  0.00  0.00    +0.042 A 
ATOM     14 CL1  UNL     1     142.298 133.662  98.911  0.00  0.00    -0.083 Cl
ATOM     15  C10 UNL     1     142.770 131.040  98.497  0.00  0.00    -0.023 A 
ATOM     16  C11 UNL     1     142.400 129.695  98.504  0.00  0.00    +0.063 A 
ATOM     17 CL2  UNL     1     143.545 128.519  97.960  0.00  0.00    -0.082 Cl
ATOM     18  H   UNL     1     140.303 123.318  98.600  0.00  0.00    +0.000 HD
ATOM     19  H   UNL     1     141.865 122.077  94.831  0.00  0.00    +0.000 HD
ATOM     20  H   UNL     1     140.963 127.290  99.618  0.00  0.00    +0.000 HD
ENDROOT
TORSDOF 0
ENDMDL
MODEL 5
REMARK VINA RESULT:    -3.810      3.883      6.578
REMARK INTER + INTRA:          -3.810
REMARK INTER:                  -3.810
REMARK INTRA:                   0.000
REMARK UNBOUND:                 0.000
REMARK  Name = /home/vital/Documents/PhD_2021/Malaria_codes/scripts/../data/pdbqt_ligands/ligand_217_temp.pdb
REMARK                            x       y       z     vdW  Elec       q    Type
REMARK                         _______ _______ _______ _____ _____    ______ ____
ROOT
ATOM      1  C1  UNL     1     144.591 129.569 101.372  0.00  0.00    +0.041 C 
ATOM      2  C2  UNL     1     143.336 128.716 101.676  0.00  0.00    +0.123 C 
ATOM      3  N1  UNL     1     142.232 129.243 100.873  0.00  0.00    -0.254 NA
ATOM      4  C3  UNL     1     141.870 130.447 101.126  0.00  0.00    +0.078 C 
ATOM      5  N2  UNL     1     140.856 131.127 100.505  0.00  0.00    -0.333 N 
ATOM      6  C4  UNL     1     140.277 130.686  99.244  0.00  0.00    +0.033 C 
ATOM      7  C5  UNL     1     139.348 129.484  99.425  0.00  0.00    +0.060 C 
ATOM      8  O1  UNL     1     138.642 129.229  98.213  0.00  0.00    -0.393 OA
ATOM      9  N3  UNL     1     143.048 128.724 103.104  0.00  0.00    -0.321 N 
ATOM     10  C6  UNL     1     143.570 127.604 103.799  0.00  0.00    +0.047 A 
ATOM     11  C7  UNL     1     144.928 127.568 104.140  0.00  0.00    -0.038 A 
ATOM     12  C8  UNL     1     145.468 126.459 104.796  0.00  0.00    -0.042 A 
ATOM     13  C9  UNL     1     144.654 125.374 105.113  0.00  0.00    +0.042 A 
ATOM     14 CL1  UNL     1     145.325 124.011 105.920  0.00  0.00    -0.083 Cl
ATOM     15  C10 UNL     1     143.302 125.381 104.779  0.00  0.00    -0.023 A 
ATOM     16  C11 UNL     1     142.768 126.491 104.124  0.00  0.00    +0.063 A 
ATOM     17 CL2  UNL     1     141.092 126.472 103.700  0.00  0.00    -0.082 Cl
ATOM     18  H   UNL     1     140.506 131.945 100.928  0.00  0.00    +0.000 HD
ATOM     19  H   UNL     1     138.113 130.007  97.977  0.00  0.00    +0.000 HD
ATOM     20  H   UNL     1     142.537 129.441 103.546  0.00  0.00    +0.000 HD
ENDROOT
TORSDOF 0
ENDMDL
MODEL 6
REMARK VINA RESULT:    -3.751      4.830      7.451
REMARK INTER + INTRA:          -3.751
REMARK INTER:                  -3.751
REMARK INTRA:                   0.000
REMARK UNBOUND:                 0.000
REMARK  Name = /home/vital/Documents/PhD_2021/Malaria_codes/scripts/../data/pdbqt_ligands/ligand_217_temp.pdb
REMARK                            x       y       z     vdW  Elec       q    Type
REMARK                         _______ _______ _______ _____ _____    ______ ____
ROOT
ATOM      1  C1  UNL     1     139.200 128.096  98.155  0.00  0.00    +0.041 C 
ATOM      2  C2  UNL     1     140.379 127.602  99.027  0.00  0.00    +0.123 C 
ATOM      3  N1  UNL     1     141.136 128.776  99.462  0.00  0.00    -0.254 NA
ATOM      4  C3  UNL     1     141.690 129.469  98.537  0.00  0.00    +0.078 C 
ATOM      5  N2  UNL     1     142.452 130.593  98.722  0.00  0.00    -0.333 N 
ATOM      6  C4  UNL     1     142.450 131.340  99.973  0.00  0.00    +0.033 C 
ATOM      7  C5  UNL     1     143.246 130.630 101.069  0.00  0.00    +0.060 C 
ATOM      8  O1  UNL     1     143.399 131.492 102.194  0.00  0.00    -0.393 OA
ATOM      9  N3  UNL     1     141.195 126.647  98.288  0.00  0.00    -0.321 N 
ATOM     10  C6  UNL     1     140.868 125.293  98.549  0.00  0.00    +0.047 A 
ATOM     11  C7  UNL     1     139.751 124.716  97.932  0.00  0.00    -0.038 A 
ATOM     12  C8  UNL     1     139.394 123.392  98.200  0.00  0.00    -0.042 A 
ATOM     13  C9  UNL     1     140.149 122.635  99.094  0.00  0.00    +0.042 A 
ATOM     14 CL1  UNL     1     139.704 121.007  99.422  0.00  0.00    -0.083 Cl
ATOM     15  C10 UNL     1     141.260 123.187  99.726  0.00  0.00    -0.023 A 
ATOM     16  C11 UNL     1     141.613 124.509  99.454  0.00  0.00    +0.063 A 
ATOM     17 CL2  UNL     1     142.984 125.182 100.265  0.00  0.00    -0.082 Cl
ATOM     18  H   UNL     1     143.021 130.907  97.983  0.00  0.00    +0.000 HD
ATOM     19  H   UNL     1     143.874 132.294 101.925  0.00  0.00    +0.000 HD
ATOM     20  H   UNL     1     141.908 126.918  97.665  0.00  0.00    +0.000 HD
ENDROOT
TORSDOF 0
ENDMDL
MODEL 7
REMARK VINA RESULT:    -3.673     15.375     16.319
REMARK INTER + INTRA:          -3.673
REMARK INTER:                  -3.673
REMARK INTRA:                   0.000
REMARK UNBOUND:                 0.000
REMARK  Name = /home/vital/Documents/PhD_2021/Malaria_codes/scripts/../data/pdbqt_ligands/ligand_217_temp.pdb
REMARK                            x       y       z     vdW  Elec       q    Type
REMARK                         _______ _______ _______ _____ _____    ______ ____
ROOT
ATOM      1  C1  UNL     1     136.123 121.798  86.136  0.00  0.00    +0.041 C 
ATOM      2  C2  UNL     1     135.562 122.619  87.322  0.00  0.00    +0.123 C 
ATOM      3  N1  UNL     1     134.118 122.388  87.382  0.00  0.00    -0.254 NA
ATOM      4  C3  UNL     1     133.437 122.782  86.370  0.00  0.00    +0.078 C 
ATOM      5  N2  UNL     1     132.079 122.676  86.226  0.00  0.00    -0.333 N 
ATOM      6  C4  UNL     1     131.271 121.796  87.060  0.00  0.00    +0.033 C 
ATOM      7  C5  UNL     1     131.070 122.361  88.467  0.00  0.00    +0.060 C 
ATOM      8  O1  UNL     1     130.103 121.582  89.169  0.00  0.00    -0.393 OA
ATOM      9  N3  UNL     1     135.901 124.028  87.173  0.00  0.00    -0.321 N 
ATOM     10  C6  UNL     1     137.064 124.414  87.886  0.00  0.00    +0.047 A 
ATOM     11  C7  UNL     1     138.330 124.121  87.363  0.00  0.00    -0.038 A 
ATOM     12  C8  UNL     1     139.488 124.466  88.065  0.00  0.00    -0.042 A 
ATOM     13  C9  UNL     1     139.388 125.102  89.301  0.00  0.00    +0.042 A 
ATOM     14 CL1  UNL     1     140.816 125.522  90.162  0.00  0.00    -0.083 Cl
ATOM     15  C10 UNL     1     138.141 125.398  89.847  0.00  0.00    -0.023 A 
ATOM     16  C11 UNL     1     136.988 125.052  89.141  0.00  0.00    +0.063 A 
ATOM     17 CL2  UNL     1     135.450 125.410  89.845  0.00  0.00    -0.082 Cl
ATOM     18  H   UNL     1     131.632 123.215  85.534  0.00  0.00    +0.000 HD
ATOM     19  H   UNL     1     129.258 121.608  88.692  0.00  0.00    +0.000 HD
ATOM     20  H   UNL     1     135.372 124.654  86.627  0.00  0.00    +0.000 HD
ENDROOT
TORSDOF 0
ENDMDL
MODEL 8
REMARK VINA RESULT:    -3.572      5.938      8.678
REMARK INTER + INTRA:          -3.572
REMARK INTER:                  -3.572
REMARK INTRA:                   0.000
REMARK UNBOUND:                 0.000
REMARK  Name = /home/vital/Documents/PhD_2021/Malaria_codes/scripts/../data/pdbqt_ligands/ligand_217_temp.pdb
REMARK                            x       y       z     vdW  Elec       q    Type
REMARK                         _______ _______ _______ _____ _____    ______ ____
ROOT
ATOM      1  C1  UNL     1     143.700 128.406  96.326  0.00  0.00    +0.041 C 
ATOM      2  C2  UNL     1     143.270 129.804  96.832  0.00  0.00    +0.123 C 
ATOM      3  N1  UNL     1     144.120 130.798  96.175  0.00  0.00    -0.254 NA
ATOM      4  C3  UNL     1     145.374 130.734  96.437  0.00  0.00    +0.078 C 
ATOM      5  N2  UNL     1     146.340 131.571  95.943  0.00  0.00    -0.333 N 
ATOM      6  C4  UNL     1     146.112 132.433  94.791  0.00  0.00    +0.033 C 
ATOM      7  C5  UNL     1     145.251 133.648  95.141  0.00  0.00    +0.060 C 
ATOM      8  O1  UNL     1     145.239 134.565  94.049  0.00  0.00    -0.393 OA
ATOM      9  N3  UNL     1     143.349 129.867  98.285  0.00  0.00    -0.321 N 
ATOM     10  C6  UNL     1     142.115 129.617  98.936  0.00  0.00    +0.047 A 
ATOM     11  C7  UNL     1     141.660 128.300  99.083  0.00  0.00    -0.038 A 
ATOM     12  C8  UNL     1     140.432 128.035  99.694  0.00  0.00    -0.042 A 
ATOM     13  C9  UNL     1     139.645 129.087 100.158  0.00  0.00    +0.042 A 
ATOM     14 CL1  UNL     1     138.132 128.755 100.907  0.00  0.00    -0.083 Cl
ATOM     15  C10 UNL     1     140.070 130.406 100.017  0.00  0.00    -0.023 A 
ATOM     16  C11 UNL     1     141.298 130.665  99.408  0.00  0.00    +0.063 A 
ATOM     17 CL2  UNL     1     141.799 132.309  99.225  0.00  0.00    -0.082 Cl
ATOM     18  H   UNL     1     147.220 131.590  96.383  0.00  0.00    +0.000 HD
ATOM     19  H   UNL     1     146.145 134.860  93.864  0.00  0.00    +0.000 HD
ATOM     20  H   UNL     1     144.183 130.065  98.771  0.00  0.00    +0.000 HD
ENDROOT
TORSDOF 0
ENDMDL
MODEL 9
REMARK VINA RESULT:    -3.503     16.188     17.752
REMARK INTER + INTRA:          -3.503
REMARK INTER:                  -3.503
REMARK INTRA:                   0.000
REMARK UNBOUND:                 0.000
REMARK  Name = /home/vital/Documents/PhD_2021/Malaria_codes/scripts/../data/pdbqt_ligands/ligand_217_temp.pdb
REMARK                            x       y       z     vdW  Elec       q    Type
REMARK                         _______ _______ _______ _____ _____    ______ ____
ROOT
ATOM      1  C1  UNL     1     137.993 123.839  85.406  0.00  0.00    +0.041 C 
ATOM      2  C2  UNL     1     136.831 124.507  86.181  0.00  0.00    +0.123 C 
ATOM      3  N1  UNL     1     137.345 125.738  86.784  0.00  0.00    -0.254 NA
ATOM      4  C3  UNL     1     138.272 125.597  87.657  0.00  0.00    +0.078 C 
ATOM      5  N2  UNL     1     138.882 126.610  88.351  0.00  0.00    -0.333 N 
ATOM      6  C4  UNL     1     138.790 128.004  87.939  0.00  0.00    +0.033 C 
ATOM      7  C5  UNL     1     137.425 128.612  88.268  0.00  0.00    +0.060 C 
ATOM      8  O1  UNL     1     137.457 130.021  88.050  0.00  0.00    -0.393 OA
ATOM      9  N3  UNL     1     136.278 123.586  87.165  0.00  0.00    -0.321 N 
ATOM     10  C6  UNL     1     135.133 122.885  86.711  0.00  0.00    +0.047 A 
ATOM     11  C7  UNL     1     135.284 121.782  85.860  0.00  0.00    -0.038 A 
ATOM     12  C8  UNL     1     134.166 121.097  85.376  0.00  0.00    -0.042 A 
ATOM     13  C9  UNL     1     132.886 121.514  85.736  0.00  0.00    +0.042 A 
ATOM     14 CL1  UNL     1     131.513 120.668  85.136  0.00  0.00    -0.083 Cl
ATOM     15  C10 UNL     1     132.707 122.611  86.575  0.00  0.00    -0.023 A 
ATOM     16  C11 UNL     1     133.827 123.291  87.055  0.00  0.00    +0.063 A 
ATOM     17 CL2  UNL     1     133.584 124.663  88.079  0.00  0.00    -0.082 Cl
ATOM     18  H   UNL     1     139.402 126.386  89.156  0.00  0.00    +0.000 HD
ATOM     19  H   UNL     1     138.130 130.422  88.622  0.00  0.00    +0.000 HD
ATOM     20  H   UNL     1     136.664 123.462  88.062  0.00  0.00    +0.000 HD
ENDROOT
TORSDOF 0
ENDMDL
