MODEL 1
REMARK VINA RESULT:    -4.913      0.000      0.000
REMARK INTER + INTRA:          -4.913
REMARK INTER:                  -4.913
REMARK INTRA:                   0.000
REMARK UNBOUND:                 0.000
REMARK  Name = /home/vital/Documents/PhD_2021/Malaria_codes/scripts/../data/pdbqt_ligands/ligand_363_temp.pdb
REMARK                            x       y       z     vdW  Elec       q    Type
REMARK                         _______ _______ _______ _____ _____    ______ ____
ROOT
ATOM      1  C1  UNL     1     136.882 120.779 104.855  0.00  0.00    +0.079 C 
ATOM      2  O1  UNL     1     136.874 122.189 105.062  0.00  0.00    -0.491 OA
ATOM      3  C2  UNL     1     138.023 122.861 104.735  0.00  0.00    +0.161 A 
ATOM      4  C3  UNL     1     139.158 122.315 104.141  0.00  0.00    -0.016 A 
ATOM      5  C4  UNL     1     140.262 123.132 103.861  0.00  0.00    -0.047 A 
ATOM      6  C5  UNL     1     140.247 124.500 104.177  0.00  0.00    +0.025 A 
ATOM      7  C6  UNL     1     141.448 125.313 103.833  0.00  0.00    +0.186 C 
ATOM      8  O2  UNL     1     142.262 124.884 103.023  0.00  0.00    -0.287 OA
ATOM      9  C7  UNL     1     141.644 126.606 104.549  0.00  0.00    -0.014 C 
ATOM     10  C8  UNL     1     142.345 127.650 104.079  0.00  0.00    -0.047 C 
ATOM     11  C9  UNL     1     142.990 127.765 102.764  0.00  0.00    +0.020 A 
ATOM     12  C10 UNL     1     142.214 127.805 101.597  0.00  0.00    -0.006 A 
ATOM     13  C11 UNL     1     142.819 127.957 100.341  0.00  0.00    +0.162 A 
ATOM     14  O3  UNL     1     142.132 127.996  99.152  0.00  0.00    -0.491 OA
ATOM     15  C12 UNL     1     140.725 127.807  99.194  0.00  0.00    +0.079 C 
ATOM     16  C13 UNL     1     144.221 128.092 100.251  0.00  0.00    +0.165 A 
ATOM     17  O4  UNL     1     144.729 128.261  98.985  0.00  0.00    -0.491 OA
ATOM     18  C14 UNL     1     146.140 128.362  98.851  0.00  0.00    +0.079 C 
ATOM     19  C15 UNL     1     144.995 128.058 101.413  0.00  0.00    +0.026 A 
ATOM     20  C16 UNL     1     144.382 127.876 102.655  0.00  0.00    +0.131 A 
ATOM     21  O5  UNL     1     145.168 127.870 103.784  0.00  0.00    -0.494 OA
ATOM     22  C17 UNL     1     145.715 126.563 103.978  0.00  0.00    +0.079 C 
ATOM     23  C18 UNL     1     139.104 125.052 104.759  0.00  0.00    -0.006 A 
ATOM     24  C19 UNL     1     138.014 124.229 105.031  0.00  0.00    +0.159 A 
ATOM     25  O6  UNL     1     136.908 124.800 105.603  0.00  0.00    -0.503 OA
ATOM     26  H   UNL     1     136.158 124.275 105.799  0.00  0.00    +0.000 HD
ENDROOT
TORSDOF 0
ENDMDL
MODEL 2
REMARK VINA RESULT:    -4.827      4.416     10.372
REMARK INTER + INTRA:          -4.827
REMARK INTER:                  -4.827
REMARK INTRA:                   0.000
REMARK UNBOUND:                 0.000
REMARK  Name = /home/vital/Documents/PhD_2021/Malaria_codes/scripts/../data/pdbqt_ligands/ligand_363_temp.pdb
REMARK                            x       y       z     vdW  Elec       q    Type
REMARK                         _______ _______ _______ _____ _____    ______ ____
ROOT
ATOM      1  C1  UNL     1     147.155 133.925  93.729  0.00  0.00    +0.079 C 
ATOM      2  O1  UNL     1     146.681 134.477  94.954  0.00  0.00    -0.491 OA
ATOM      3  C2  UNL     1     145.773 133.724  95.653  0.00  0.00    +0.161 A 
ATOM      4  C3  UNL     1     145.341 132.441  95.328  0.00  0.00    -0.016 A 
ATOM      5  C4  UNL     1     144.405 131.792  96.146  0.00  0.00    -0.047 A 
ATOM      6  C5  UNL     1     143.888 132.418  97.291  0.00  0.00    +0.025 A 
ATOM      7  C6  UNL     1     142.912 131.661  98.125  0.00  0.00    +0.186 C 
ATOM      8  O2  UNL     1     142.823 130.445  98.004  0.00  0.00    -0.287 OA
ATOM      9  C7  UNL     1     142.026 132.436  99.040  0.00  0.00    -0.014 C 
ATOM     10  C8  UNL     1     141.456 131.953 100.156  0.00  0.00    -0.047 C 
ATOM     11  C9  UNL     1     141.637 130.615 100.735  0.00  0.00    +0.020 A 
ATOM     12  C10 UNL     1     142.884 130.229 101.246  0.00  0.00    -0.006 A 
ATOM     13  C11 UNL     1     143.055 128.970 101.840  0.00  0.00    +0.162 A 
ATOM     14  O3  UNL     1     144.243 128.513 102.355  0.00  0.00    -0.491 OA
ATOM     15  C12 UNL     1     145.387 129.345 102.220  0.00  0.00    +0.079 C 
ATOM     16  C13 UNL     1     141.956 128.089 101.943  0.00  0.00    +0.165 A 
ATOM     17  O4  UNL     1     142.205 126.887 102.559  0.00  0.00    -0.491 OA
ATOM     18  C14 UNL     1     141.132 125.959 102.647  0.00  0.00    +0.079 C 
ATOM     19  C15 UNL     1     140.712 128.475 101.439  0.00  0.00    +0.026 A 
ATOM     20  C16 UNL     1     140.563 129.721 100.824  0.00  0.00    +0.131 A 
ATOM     21  O5  UNL     1     139.320 130.082 100.358  0.00  0.00    -0.494 OA
ATOM     22  C17 UNL     1     139.120 129.529  99.054  0.00  0.00    +0.079 C 
ATOM     23  C18 UNL     1     144.332 133.700  97.626  0.00  0.00    -0.006 A 
ATOM     24  C19 UNL     1     145.262 134.333  96.806  0.00  0.00    +0.159 A 
ATOM     25  O6  UNL     1     145.677 135.589  97.160  0.00  0.00    -0.503 OA
ATOM     26  H   UNL     1     146.301 136.044  96.630  0.00  0.00    +0.000 HD
ENDROOT
TORSDOF 0
ENDMDL
MODEL 3
REMARK VINA RESULT:    -4.788      3.670      8.985
REMARK INTER + INTRA:          -4.788
REMARK INTER:                  -4.788
REMARK INTRA:                   0.000
REMARK UNBOUND:                 0.000
REMARK  Name = /home/vital/Documents/PhD_2021/Malaria_codes/scripts/../data/pdbqt_ligands/ligand_363_temp.pdb
REMARK                            x       y       z     vdW  Elec       q    Type
REMARK                         _______ _______ _______ _____ _____    ______ ____
ROOT
ATOM      1  C1  UNL     1     145.279 135.025  97.615  0.00  0.00    +0.079 C 
ATOM      2  O1  UNL     1     144.024 134.733  98.222  0.00  0.00    -0.491 OA
ATOM      3  C2  UNL     1     143.647 133.415  98.245  0.00  0.00    +0.161 A 
ATOM      4  C3  UNL     1     144.408 132.332  97.813  0.00  0.00    -0.016 A 
ATOM      5  C4  UNL     1     143.887 131.033  97.902  0.00  0.00    -0.047 A 
ATOM      6  C5  UNL     1     142.601 130.804  98.416  0.00  0.00    +0.025 A 
ATOM      7  C6  UNL     1     142.119 129.396  98.500  0.00  0.00    +0.186 C 
ATOM      8  O2  UNL     1     142.922 128.473  98.437  0.00  0.00    -0.287 OA
ATOM      9  C7  UNL     1     140.649 129.165  98.592  0.00  0.00    -0.014 C 
ATOM     10  C8  UNL     1     140.070 128.080  99.129  0.00  0.00    -0.047 C 
ATOM     11  C9  UNL     1     140.742 126.951  99.788  0.00  0.00    +0.020 A 
ATOM     12  C10 UNL     1     141.425 127.143 100.997  0.00  0.00    -0.006 A 
ATOM     13  C11 UNL     1     142.033 126.064 101.654  0.00  0.00    +0.162 A 
ATOM     14  O3  UNL     1     142.727 126.169 102.834  0.00  0.00    -0.491 OA
ATOM     15  C12 UNL     1     142.893 127.466 103.392  0.00  0.00    +0.079 C 
ATOM     16  C13 UNL     1     141.940 124.767 101.105  0.00  0.00    +0.165 A 
ATOM     17  O4  UNL     1     142.543 123.764 101.824  0.00  0.00    -0.491 OA
ATOM     18  C14 UNL     1     142.503 122.451 101.282  0.00  0.00    +0.079 C 
ATOM     19  C15 UNL     1     141.255 124.573  99.902  0.00  0.00    +0.026 A 
ATOM     20  C16 UNL     1     140.679 125.663  99.244  0.00  0.00    +0.131 A 
ATOM     21  O5  UNL     1     139.991 125.437  98.074  0.00  0.00    -0.494 OA
ATOM     22  C17 UNL     1     140.911 125.393  96.979  0.00  0.00    +0.079 C 
ATOM     23  C18 UNL     1     141.842 131.889  98.862  0.00  0.00    -0.006 A 
ATOM     24  C19 UNL     1     142.371 133.173  98.769  0.00  0.00    +0.159 A 
ATOM     25  O6  UNL     1     141.603 134.216  99.214  0.00  0.00    -0.503 OA
ATOM     26  H   UNL     1     141.929 135.092  99.166  0.00  0.00    +0.000 HD
ENDROOT
TORSDOF 0
ENDMDL
MODEL 4
REMARK VINA RESULT:    -4.769      3.376      5.128
REMARK INTER + INTRA:          -4.769
REMARK INTER:                  -4.769
REMARK INTRA:                   0.000
REMARK UNBOUND:                 0.000
REMARK  Name = /home/vital/Documents/PhD_2021/Malaria_codes/scripts/../data/pdbqt_ligands/ligand_363_temp.pdb
REMARK                            x       y       z     vdW  Elec       q    Type
REMARK                         _______ _______ _______ _____ _____    ______ ____
ROOT
ATOM      1  C1  UNL     1     142.262 123.396 107.256  0.00  0.00    +0.079 C 
ATOM      2  O1  UNL     1     142.840 123.285 105.959  0.00  0.00    -0.491 OA
ATOM      3  C2  UNL     1     142.464 124.229 105.039  0.00  0.00    +0.161 A 
ATOM      4  C3  UNL     1     141.646 125.332 105.275  0.00  0.00    -0.016 A 
ATOM      5  C4  UNL     1     141.350 126.218 104.230  0.00  0.00    -0.047 A 
ATOM      6  C5  UNL     1     141.862 126.010 102.939  0.00  0.00    +0.025 A 
ATOM      7  C6  UNL     1     141.523 127.004 101.881  0.00  0.00    +0.186 C 
ATOM      8  O2  UNL     1     141.102 128.110 102.198  0.00  0.00    -0.287 OA
ATOM      9  C7  UNL     1     141.652 126.580 100.458  0.00  0.00    -0.014 C 
ATOM     10  C8  UNL     1     141.853 127.408  99.420  0.00  0.00    -0.047 C 
ATOM     11  C9  UNL     1     142.054 128.862  99.474  0.00  0.00    +0.020 A 
ATOM     12  C10 UNL     1     143.203 129.395 100.077  0.00  0.00    -0.006 A 
ATOM     13  C11 UNL     1     143.424 130.779 100.095  0.00  0.00    +0.162 A 
ATOM     14  O3  UNL     1     144.516 131.380 100.672  0.00  0.00    -0.491 OA
ATOM     15  C12 UNL     1     145.448 130.549 101.349  0.00  0.00    +0.079 C 
ATOM     16  C13 UNL     1     142.494 131.645  99.482  0.00  0.00    +0.165 A 
ATOM     17  O4  UNL     1     142.799 132.984  99.524  0.00  0.00    -0.491 OA
ATOM     18  C14 UNL     1     141.866 133.890  98.951  0.00  0.00    +0.079 C 
ATOM     19  C15 UNL     1     141.351 131.116  98.876  0.00  0.00    +0.026 A 
ATOM     20  C16 UNL     1     141.129 129.736  98.891  0.00  0.00    +0.131 A 
ATOM     21  O5  UNL     1     140.008 129.242  98.266  0.00  0.00    -0.494 OA
ATOM     22  C17 UNL     1     138.889 129.329  99.153  0.00  0.00    +0.079 C 
ATOM     23  C18 UNL     1     142.695 124.913 102.705  0.00  0.00    -0.006 A 
ATOM     24  C19 UNL     1     142.981 124.041 103.752  0.00  0.00    +0.159 A 
ATOM     25  O6  UNL     1     143.799 122.974 103.490  0.00  0.00    -0.503 OA
ATOM     26  H   UNL     1     144.012 122.368 104.172  0.00  0.00    +0.000 HD
ENDROOT
TORSDOF 0
ENDMDL
MODEL 5
REMARK VINA RESULT:    -4.484      4.332      9.206
REMARK INTER + INTRA:          -4.484
REMARK INTER:                  -4.484
REMARK INTRA:                   0.000
REMARK UNBOUND:                 0.000
REMARK  Name = /home/vital/Documents/PhD_2021/Malaria_codes/scripts/../data/pdbqt_ligands/ligand_363_temp.pdb
REMARK                            x       y       z     vdW  Elec       q    Type
REMARK                         _______ _______ _______ _____ _____    ______ ____
ROOT
ATOM      1  C1  UNL     1     143.329 130.677  91.254  0.00  0.00    +0.079 C 
ATOM      2  O1  UNL     1     142.204 129.887  91.628  0.00  0.00    -0.491 OA
ATOM      3  C2  UNL     1     142.285 129.241  92.834  0.00  0.00    +0.161 A 
ATOM      4  C3  UNL     1     143.317 129.352  93.763  0.00  0.00    -0.016 A 
ATOM      5  C4  UNL     1     143.259 128.627  94.961  0.00  0.00    -0.047 A 
ATOM      6  C5  UNL     1     142.175 127.780  95.242  0.00  0.00    +0.025 A 
ATOM      7  C6  UNL     1     142.169 127.055  96.545  0.00  0.00    +0.186 C 
ATOM      8  O2  UNL     1     142.898 127.434  97.454  0.00  0.00    -0.287 OA
ATOM      9  C7  UNL     1     141.312 125.842  96.665  0.00  0.00    -0.014 C 
ATOM     10  C8  UNL     1     140.818 125.356  97.815  0.00  0.00    -0.047 C 
ATOM     11  C9  UNL     1     140.954 125.943  99.155  0.00  0.00    +0.020 A 
ATOM     12  C10 UNL     1     140.348 127.171  99.454  0.00  0.00    -0.006 A 
ATOM     13  C11 UNL     1     140.437 127.718 100.742  0.00  0.00    +0.162 A 
ATOM     14  O3  UNL     1     139.882 128.918 101.113  0.00  0.00    -0.491 OA
ATOM     15  C12 UNL     1     139.230 129.684 100.109  0.00  0.00    +0.079 C 
ATOM     16  C13 UNL     1     141.124 127.015 101.755  0.00  0.00    +0.165 A 
ATOM     17  O4  UNL     1     141.143 127.610 102.994  0.00  0.00    -0.491 OA
ATOM     18  C14 UNL     1     141.858 126.950 104.029  0.00  0.00    +0.079 C 
ATOM     19  C15 UNL     1     141.723 125.788 101.461  0.00  0.00    +0.026 A 
ATOM     20  C16 UNL     1     141.652 125.269 100.165  0.00  0.00    +0.131 A 
ATOM     21  O5  UNL     1     142.231 124.048  99.911  0.00  0.00    -0.494 OA
ATOM     22  C17 UNL     1     143.627 124.226  99.652  0.00  0.00    +0.079 C 
ATOM     23  C18 UNL     1     141.132 127.678  94.318  0.00  0.00    -0.006 A 
ATOM     24  C19 UNL     1     141.202 128.404  93.132  0.00  0.00    +0.159 A 
ATOM     25  O6  UNL     1     140.165 128.282  92.245  0.00  0.00    -0.503 OA
ATOM     26  H   UNL     1     140.180 128.757  91.438  0.00  0.00    +0.000 HD
ENDROOT
TORSDOF 0
ENDMDL
MODEL 6
REMARK VINA RESULT:    -4.414      2.048      2.578
REMARK INTER + INTRA:          -4.414
REMARK INTER:                  -4.414
REMARK INTRA:                   0.000
REMARK UNBOUND:                 0.000
REMARK  Name = /home/vital/Documents/PhD_2021/Malaria_codes/scripts/../data/pdbqt_ligands/ligand_363_temp.pdb
REMARK                            x       y       z     vdW  Elec       q    Type
REMARK                         _______ _______ _______ _____ _____    ______ ____
ROOT
ATOM      1  C1  UNL     1     139.287 120.932 104.463  0.00  0.00    +0.079 C 
ATOM      2  O1  UNL     1     139.324 122.250 105.001  0.00  0.00    -0.491 OA
ATOM      3  C2  UNL     1     140.077 123.169 104.318  0.00  0.00    +0.161 A 
ATOM      4  C3  UNL     1     140.734 122.961 103.108  0.00  0.00    -0.016 A 
ATOM      5  C4  UNL     1     141.469 124.003 102.524  0.00  0.00    -0.047 A 
ATOM      6  C5  UNL     1     141.560 125.259 103.145  0.00  0.00    +0.025 A 
ATOM      7  C6  UNL     1     142.341 126.327 102.458  0.00  0.00    +0.186 C 
ATOM      8  O2  UNL     1     142.605 126.216 101.266  0.00  0.00    -0.287 OA
ATOM      9  C7  UNL     1     142.830 127.471 103.278  0.00  0.00    -0.014 C 
ATOM     10  C8  UNL     1     143.113 128.696 102.805  0.00  0.00    -0.047 C 
ATOM     11  C9  UNL     1     142.935 129.176 101.428  0.00  0.00    +0.020 A 
ATOM     12  C10 UNL     1     141.649 129.299 100.882  0.00  0.00    -0.006 A 
ATOM     13  C11 UNL     1     141.468 129.797  99.584  0.00  0.00    +0.162 A 
ATOM     14  O3  UNL     1     140.245 129.939  98.974  0.00  0.00    -0.491 OA
ATOM     15  C12 UNL     1     139.097 129.494  99.683  0.00  0.00    +0.079 C 
ATOM     16  C13 UNL     1     142.588 130.198  98.825  0.00  0.00    +0.165 A 
ATOM     17  O4  UNL     1     142.320 130.696  97.573  0.00  0.00    -0.491 OA
ATOM     18  C14 UNL     1     143.425 131.074  96.764  0.00  0.00    +0.079 C 
ATOM     19  C15 UNL     1     143.870 130.081  99.369  0.00  0.00    +0.026 A 
ATOM     20  C16 UNL     1     144.038 129.556 100.653  0.00  0.00    +0.131 A 
ATOM     21  O5  UNL     1     145.309 129.475 101.171  0.00  0.00    -0.494 OA
ATOM     22  C17 UNL     1     145.938 128.275 100.709  0.00  0.00    +0.079 C 
ATOM     23  C18 UNL     1     140.890 125.473 104.352  0.00  0.00    -0.006 A 
ATOM     24  C19 UNL     1     140.163 124.430 104.920  0.00  0.00    +0.159 A 
ATOM     25  O6  UNL     1     139.518 124.671 106.104  0.00  0.00    -0.503 OA
ATOM     26  H   UNL     1     139.021 123.991 106.514  0.00  0.00    +0.000 HD
ENDROOT
TORSDOF 0
ENDMDL
MODEL 7
REMARK VINA RESULT:    -4.105      2.474      7.588
REMARK INTER + INTRA:          -4.105
REMARK INTER:                  -4.105
REMARK INTRA:                   0.000
REMARK UNBOUND:                 0.000
REMARK  Name = /home/vital/Documents/PhD_2021/Malaria_codes/scripts/../data/pdbqt_ligands/ligand_363_temp.pdb
REMARK                            x       y       z     vdW  Elec       q    Type
REMARK                         _______ _______ _______ _____ _____    ______ ____
ROOT
ATOM      1  C1  UNL     1     141.228 131.387  99.048  0.00  0.00    +0.079 C 
ATOM      2  O1  UNL     1     140.879 130.037  98.754  0.00  0.00    -0.491 OA
ATOM      3  C2  UNL     1     141.177 129.105  99.714  0.00  0.00    +0.161 A 
ATOM      4  C3  UNL     1     141.704 129.362 100.978  0.00  0.00    -0.016 A 
ATOM      5  C4  UNL     1     141.955 128.300 101.858  0.00  0.00    -0.047 A 
ATOM      6  C5  UNL     1     141.688 126.973 101.485  0.00  0.00    +0.025 A 
ATOM      7  C6  UNL     1     141.960 125.896 102.479  0.00  0.00    +0.186 C 
ATOM      8  O2  UNL     1     142.091 126.181 103.663  0.00  0.00    -0.287 OA
ATOM      9  C7  UNL     1     142.128 124.504 101.972  0.00  0.00    -0.014 C 
ATOM     10  C8  UNL     1     141.910 123.390 102.688  0.00  0.00    -0.047 C 
ATOM     11  C9  UNL     1     141.403 123.307 104.065  0.00  0.00    +0.020 A 
ATOM     12  C10 UNL     1     140.095 123.713 104.362  0.00  0.00    -0.006 A 
ATOM     13  C11 UNL     1     139.588 123.597 105.665  0.00  0.00    +0.162 A 
ATOM     14  O3  UNL     1     138.323 123.980 106.039  0.00  0.00    -0.491 OA
ATOM     15  C12 UNL     1     137.498 124.591 105.057  0.00  0.00    +0.079 C 
ATOM     16  C13 UNL     1     140.395 123.046 106.683  0.00  0.00    +0.165 A 
ATOM     17  O4  UNL     1     139.814 122.947 107.924  0.00  0.00    -0.491 OA
ATOM     18  C14 UNL     1     140.609 122.434 108.983  0.00  0.00    +0.079 C 
ATOM     19  C15 UNL     1     141.698 122.636 106.387  0.00  0.00    +0.026 A 
ATOM     20  C16 UNL     1     142.199 122.785 105.091  0.00  0.00    +0.131 A 
ATOM     21  O5  UNL     1     143.476 122.350 104.825  0.00  0.00    -0.494 OA
ATOM     22  C17 UNL     1     144.414 123.366 105.194  0.00  0.00    +0.079 C 
ATOM     23  C18 UNL     1     141.146 126.716 100.223  0.00  0.00    -0.006 A 
ATOM     24  C19 UNL     1     140.901 127.779  99.359  0.00  0.00    +0.159 A 
ATOM     25  O6  UNL     1     140.370 127.495  98.129  0.00  0.00    -0.503 OA
ATOM     26  H   UNL     1     140.193 128.187  97.523  0.00  0.00    +0.000 HD
ENDROOT
TORSDOF 0
ENDMDL
MODEL 8
REMARK VINA RESULT:    -4.084     13.552     16.937
REMARK INTER + INTRA:          -4.084
REMARK INTER:                  -4.084
REMARK INTRA:                   0.000
REMARK UNBOUND:                 0.000
REMARK  Name = /home/vital/Documents/PhD_2021/Malaria_codes/scripts/../data/pdbqt_ligands/ligand_363_temp.pdb
REMARK                            x       y       z     vdW  Elec       q    Type
REMARK                         _______ _______ _______ _____ _____    ______ ____
ROOT
ATOM      1  C1  UNL     1     131.315 121.445  86.778  0.00  0.00    +0.079 C 
ATOM      2  O1  UNL     1     132.638 121.358  86.257  0.00  0.00    -0.491 OA
ATOM      3  C2  UNL     1     133.394 122.500  86.316  0.00  0.00    +0.161 A 
ATOM      4  C3  UNL     1     133.027 123.704  86.912  0.00  0.00    -0.016 A 
ATOM      5  C4  UNL     1     133.912 124.790  86.895  0.00  0.00    -0.047 A 
ATOM      6  C5  UNL     1     135.170 124.688  86.279  0.00  0.00    +0.025 A 
ATOM      7  C6  UNL     1     136.069 125.877  86.317  0.00  0.00    +0.186 C 
ATOM      8  O2  UNL     1     135.858 126.773  87.125  0.00  0.00    -0.287 OA
ATOM      9  C7  UNL     1     137.165 125.955  85.311  0.00  0.00    -0.014 C 
ATOM     10  C8  UNL     1     138.306 126.647  85.463  0.00  0.00    -0.047 C 
ATOM     11  C9  UNL     1     138.736 127.394  86.653  0.00  0.00    +0.020 A 
ATOM     12  C10 UNL     1     139.027 126.717  87.846  0.00  0.00    -0.006 A 
ATOM     13  C11 UNL     1     139.479 127.418  88.973  0.00  0.00    +0.162 A 
ATOM     14  O3  UNL     1     139.775 126.832  90.180  0.00  0.00    -0.491 OA
ATOM     15  C12 UNL     1     139.548 125.435  90.311  0.00  0.00    +0.079 C 
ATOM     16  C13 UNL     1     139.665 128.815  88.902  0.00  0.00    +0.165 A 
ATOM     17  O4  UNL     1     140.133 129.419  90.044  0.00  0.00    -0.491 OA
ATOM     18  C14 UNL     1     140.295 130.830  90.022  0.00  0.00    +0.079 C 
ATOM     19  C15 UNL     1     139.381 129.490  87.712  0.00  0.00    +0.026 A 
ATOM     20  C16 UNL     1     138.903 128.783  86.605  0.00  0.00    +0.131 A 
ATOM     21  O5  UNL     1     138.655 129.471  85.441  0.00  0.00    -0.494 OA
ATOM     22  C17 UNL     1     137.351 130.058  85.501  0.00  0.00    +0.079 C 
ATOM     23  C18 UNL     1     135.545 123.477  85.693  0.00  0.00    -0.006 A 
ATOM     24  C19 UNL     1     134.657 122.406  85.717  0.00  0.00    +0.159 A 
ATOM     25  O6  UNL     1     135.053 121.232  85.134  0.00  0.00    -0.503 OA
ATOM     26  H   UNL     1     134.480 120.492  85.132  0.00  0.00    +0.000 HD
ENDROOT
TORSDOF 0
ENDMDL
MODEL 9
REMARK VINA RESULT:    -3.859     14.679     16.672
REMARK INTER + INTRA:          -3.859
REMARK INTER:                  -3.859
REMARK INTRA:                   0.000
REMARK UNBOUND:                 0.000
REMARK  Name = /home/vital/Documents/PhD_2021/Malaria_codes/scripts/../data/pdbqt_ligands/ligand_363_temp.pdb
REMARK                            x       y       z     vdW  Elec       q    Type
REMARK                         _______ _______ _______ _____ _____    ______ ____
ROOT
ATOM      1  C1  UNL     1     131.339 121.125  85.511  0.00  0.00    +0.079 C 
ATOM      2  O1  UNL     1     131.388 122.159  86.489  0.00  0.00    -0.491 OA
ATOM      3  C2  UNL     1     132.600 122.775  86.669  0.00  0.00    +0.161 A 
ATOM      4  C3  UNL     1     133.758 122.549  85.929  0.00  0.00    -0.016 A 
ATOM      5  C4  UNL     1     134.928 123.260  86.229  0.00  0.00    -0.047 A 
ATOM      6  C5  UNL     1     134.955 124.200  87.272  0.00  0.00    +0.025 A 
ATOM      7  C6  UNL     1     136.228 124.935  87.521  0.00  0.00    +0.186 C 
ATOM      8  O2  UNL     1     137.095 124.960  86.656  0.00  0.00    -0.287 OA
ATOM      9  C7  UNL     1     136.421 125.563  88.859  0.00  0.00    -0.014 C 
ATOM     10  C8  UNL     1     137.222 126.609  89.113  0.00  0.00    -0.047 C 
ATOM     11  C9  UNL     1     138.004 127.383  88.139  0.00  0.00    +0.020 A 
ATOM     12  C10 UNL     1     137.354 128.160  87.169  0.00  0.00    -0.006 A 
ATOM     13  C11 UNL     1     138.091 128.935  86.262  0.00  0.00    +0.162 A 
ATOM     14  O3  UNL     1     137.533 129.713  85.278  0.00  0.00    -0.491 OA
ATOM     15  C12 UNL     1     136.120 129.681  85.130  0.00  0.00    +0.079 C 
ATOM     16  C13 UNL     1     139.501 128.952  86.339  0.00  0.00    +0.165 A 
ATOM     17  O4  UNL     1     140.144 129.756  85.430  0.00  0.00    -0.491 OA
ATOM     18  C14 UNL     1     141.564 129.768  85.451  0.00  0.00    +0.079 C 
ATOM     19  C15 UNL     1     140.149 128.183  87.309  0.00  0.00    +0.026 A 
ATOM     20  C16 UNL     1     139.403 127.392  88.187  0.00  0.00    +0.131 A 
ATOM     21  O5  UNL     1     140.068 126.664  89.146  0.00  0.00    -0.494 OA
ATOM     22  C17 UNL     1     140.520 125.430  88.581  0.00  0.00    +0.079 C 
ATOM     23  C18 UNL     1     133.790 124.438  88.005  0.00  0.00    -0.006 A 
ATOM     24  C19 UNL     1     132.635 123.725  87.697  0.00  0.00    +0.159 A 
ATOM     25  O6  UNL     1     131.510 123.980  88.435  0.00  0.00    -0.503 OA
ATOM     26  H   UNL     1     130.716 123.517  88.254  0.00  0.00    +0.000 HD
ENDROOT
TORSDOF 0
ENDMDL
