MODEL 1
REMARK VINA RESULT:    -5.491      0.000      0.000
REMARK INTER + INTRA:          -5.491
REMARK INTER:                  -5.491
REMARK INTRA:                   0.000
REMARK UNBOUND:                 0.000
REMARK  Name = /home/vital/Documents/PhD_2021/Malaria_codes/scripts/../data/pdbqt_ligands/ligand_19_temp.pdb
REMARK                            x       y       z     vdW  Elec       q    Type
REMARK                         _______ _______ _______ _____ _____    ______ ____
ROOT
ATOM      1  N   UNL     1     141.726 124.810  99.651  0.00  0.00    -0.345 N 
ATOM      2  C   UNL     1     141.309 126.106  99.742  0.00  0.00    +0.115 C 
ATOM      3  N   UNL     1     140.422 126.634  98.945  0.00  0.00    -0.235 N 
ATOM      4  C   UNL     1     140.253 127.958  99.378  0.00  0.00    +0.071 A 
ATOM      5  C   UNL     1     139.401 128.888  98.809  0.00  0.00    -0.036 A 
ATOM      6  C   UNL     1     139.366 130.176  99.347  0.00  0.00    -0.060 A 
ATOM      7  C   UNL     1     140.186 130.517 100.434  0.00  0.00    -0.061 A 
ATOM      8  C   UNL     1     141.047 129.574 101.003  0.00  0.00    -0.055 A 
ATOM      9  C   UNL     1     141.057 128.292 100.475  0.00  0.00    +0.002 A 
ATOM     10  C   UNL     1     141.869 127.087 100.831  0.00  0.00    +0.091 C 
ATOM     11  N   UNL     1     141.611 126.478 102.137  0.00  0.00    -0.301 N 
ATOM     12  C   UNL     1     142.260 127.166 103.253  0.00  0.00    +0.023 C 
ATOM     13  C   UNL     1     141.990 126.435 104.576  0.00  0.00    +0.088 C 
ATOM     14  O   UNL     1     140.593 126.537 104.886  0.00  0.00    -0.273 OA
ATOM     15  N   UNL     1     140.378 125.779 106.043  0.00  0.00    -0.266 N 
ATOM     16  C   UNL     1     139.535 124.646 105.965  0.00  0.00    +0.063 A 
ATOM     17  C   UNL     1     139.259 124.020 104.745  0.00  0.00    -0.035 A 
ATOM     18  C   UNL     1     138.483 122.859 104.692  0.00  0.00    -0.040 A 
ATOM     19  C   UNL     1     137.992 122.292 105.869  0.00  0.00    +0.059 A 
ATOM     20 CL   UNL     1     137.040 120.857 105.738  0.00  0.00    -0.082 Cl
ATOM     21  C   UNL     1     138.289 122.888 107.099  0.00  0.00    +0.061 A 
ATOM     22 CL   UNL     1     137.737 122.235 108.601  0.00  0.00    -0.082 Cl
ATOM     23  C   UNL     1     139.067 124.052 107.144  0.00  0.00    -0.017 A 
ATOM     24  H   UNL     1     141.354 124.220  98.956  0.00  0.00    +0.000 HD
ATOM     25  H   UNL     1     142.399 124.464 100.281  0.00  0.00    +0.000 HD
ATOM     26  H   UNL     1     139.964 126.194  98.194  0.00  0.00    +0.000 HD
ATOM     27  H   UNL     1     141.948 125.516 102.114  0.00  0.00    +0.000 HD
ATOM     28  H   UNL     1     140.606 126.538 102.296  0.00  0.00    +0.000 HD
ATOM     29  H   UNL     1     140.805 126.030 106.895  0.00  0.00    +0.000 HD
ENDROOT
TORSDOF 0
ENDMDL
MODEL 2
REMARK VINA RESULT:    -5.381      8.597     12.406
REMARK INTER + INTRA:          -5.381
REMARK INTER:                  -5.381
REMARK INTRA:                   0.000
REMARK UNBOUND:                 0.000
REMARK  Name = /home/vital/Documents/PhD_2021/Malaria_codes/scripts/../data/pdbqt_ligands/ligand_19_temp.pdb
REMARK                            x       y       z     vdW  Elec       q    Type
REMARK                         _______ _______ _______ _____ _____    ______ ____
ROOT
ATOM      1  N   UNL     1     143.722 127.441  96.733  0.00  0.00    -0.345 N 
ATOM      2  C   UNL     1     142.443 127.580  97.189  0.00  0.00    +0.115 C 
ATOM      3  N   UNL     1     142.147 128.036  98.374  0.00  0.00    -0.235 N 
ATOM      4  C   UNL     1     140.746 128.048  98.446  0.00  0.00    +0.071 A 
ATOM      5  C   UNL     1     139.999 128.458  99.535  0.00  0.00    -0.036 A 
ATOM      6  C   UNL     1     138.607 128.388  99.453  0.00  0.00    -0.060 A 
ATOM      7  C   UNL     1     137.985 127.902  98.292  0.00  0.00    -0.061 A 
ATOM      8  C   UNL     1     138.746 127.486  97.195  0.00  0.00    -0.055 A 
ATOM      9  C   UNL     1     140.126 127.581  97.279  0.00  0.00    +0.002 A 
ATOM     10  C   UNL     1     141.201 127.199  96.311  0.00  0.00    +0.091 C 
ATOM     11  N   UNL     1     141.286 127.980  95.076  0.00  0.00    -0.301 N 
ATOM     12  C   UNL     1     140.315 127.589  94.055  0.00  0.00    +0.023 C 
ATOM     13  C   UNL     1     140.507 128.412  92.774  0.00  0.00    +0.088 C 
ATOM     14  O   UNL     1     140.172 129.780  93.047  0.00  0.00    -0.273 OA
ATOM     15  N   UNL     1     140.453 130.506  91.883  0.00  0.00    -0.266 N 
ATOM     16  C   UNL     1     141.457 131.502  91.930  0.00  0.00    +0.063 A 
ATOM     17  C   UNL     1     142.442 131.503  92.923  0.00  0.00    -0.035 A 
ATOM     18  C   UNL     1     143.470 132.450  92.915  0.00  0.00    -0.040 A 
ATOM     19  C   UNL     1     143.540 133.397  91.892  0.00  0.00    +0.059 A 
ATOM     20 CL   UNL     1     144.834 134.540  91.937  0.00  0.00    -0.082 Cl
ATOM     21  C   UNL     1     142.581 133.385  90.873  0.00  0.00    +0.061 A 
ATOM     22 CL   UNL     1     142.611 134.510  89.562  0.00  0.00    -0.082 Cl
ATOM     23  C   UNL     1     141.554 132.434  90.889  0.00  0.00    -0.017 A 
ATOM     24  H   UNL     1     144.481 127.690  97.310  0.00  0.00    +0.000 HD
ATOM     25  H   UNL     1     143.887 127.091  95.828  0.00  0.00    +0.000 HD
ATOM     26  H   UNL     1     142.778 128.314  99.076  0.00  0.00    +0.000 HD
ATOM     27  H   UNL     1     142.223 127.866  94.688  0.00  0.00    +0.000 HD
ATOM     28  H   UNL     1     141.080 128.948  95.325  0.00  0.00    +0.000 HD
ATOM     29  H   UNL     1     139.961 130.328  91.048  0.00  0.00    +0.000 HD
ENDROOT
TORSDOF 0
ENDMDL
MODEL 3
REMARK VINA RESULT:    -5.377      8.488     11.957
REMARK INTER + INTRA:          -5.377
REMARK INTER:                  -5.377
REMARK INTRA:                   0.000
REMARK UNBOUND:                 0.000
REMARK  Name = /home/vital/Documents/PhD_2021/Malaria_codes/scripts/../data/pdbqt_ligands/ligand_19_temp.pdb
REMARK                            x       y       z     vdW  Elec       q    Type
REMARK                         _______ _______ _______ _____ _____    ______ ____
ROOT
ATOM      1  N   UNL     1     144.078 130.326  97.562  0.00  0.00    -0.345 N 
ATOM      2  C   UNL     1     142.891 129.927  98.105  0.00  0.00    +0.115 C 
ATOM      3  N   UNL     1     142.242 130.617  99.001  0.00  0.00    -0.235 N 
ATOM      4  C   UNL     1     141.075 129.889  99.279  0.00  0.00    +0.071 A 
ATOM      5  C   UNL     1     140.093 130.256 100.181  0.00  0.00    -0.036 A 
ATOM      6  C   UNL     1     139.000 129.406 100.359  0.00  0.00    -0.060 A 
ATOM      7  C   UNL     1     138.910 128.202  99.644  0.00  0.00    -0.061 A 
ATOM      8  C   UNL     1     139.907 127.834  98.735  0.00  0.00    -0.055 A 
ATOM      9  C   UNL     1     140.977 128.696  98.550  0.00  0.00    +0.002 A 
ATOM     10  C   UNL     1     142.197 128.582  97.692  0.00  0.00    +0.091 C 
ATOM     11  N   UNL     1     141.992 128.628  96.243  0.00  0.00    -0.301 N 
ATOM     12  C   UNL     1     141.545 127.361  95.665  0.00  0.00    +0.023 C 
ATOM     13  C   UNL     1     141.411 127.474  94.140  0.00  0.00    +0.088 C 
ATOM     14  O   UNL     1     140.340 128.378  93.834  0.00  0.00    -0.273 OA
ATOM     15  N   UNL     1     140.317 128.524  92.441  0.00  0.00    -0.266 N 
ATOM     16  C   UNL     1     140.581 129.798  91.888  0.00  0.00    +0.063 A 
ATOM     17  C   UNL     1     141.261 130.784  92.611  0.00  0.00    -0.035 A 
ATOM     18  C   UNL     1     141.579 132.013  92.026  0.00  0.00    -0.040 A 
ATOM     19  C   UNL     1     141.242 132.262  90.694  0.00  0.00    +0.059 A 
ATOM     20 CL   UNL     1     141.663 133.799  90.029  0.00  0.00    -0.082 Cl
ATOM     21  C   UNL     1     140.594 131.271  89.949  0.00  0.00    +0.061 A 
ATOM     22 CL   UNL     1     140.163 131.495  88.291  0.00  0.00    -0.082 Cl
ATOM     23  C   UNL     1     140.278 130.043  90.543  0.00  0.00    -0.017 A 
ATOM     24  H   UNL     1     144.487 131.176  97.843  0.00  0.00    +0.000 HD
ATOM     25  H   UNL     1     144.525 129.764  96.888  0.00  0.00    +0.000 HD
ATOM     26  H   UNL     1     142.514 131.474  99.400  0.00  0.00    +0.000 HD
ATOM     27  H   UNL     1     142.875 128.888  95.802  0.00  0.00    +0.000 HD
ATOM     28  H   UNL     1     141.253 129.309  96.071  0.00  0.00    +0.000 HD
ATOM     29  H   UNL     1     140.120 127.754  91.859  0.00  0.00    +0.000 HD
ENDROOT
TORSDOF 0
ENDMDL
MODEL 4
REMARK VINA RESULT:    -5.352      7.641     10.794
REMARK INTER + INTRA:          -5.352
REMARK INTER:                  -5.352
REMARK INTRA:                   0.000
REMARK UNBOUND:                 0.000
REMARK  Name = /home/vital/Documents/PhD_2021/Malaria_codes/scripts/../data/pdbqt_ligands/ligand_19_temp.pdb
REMARK                            x       y       z     vdW  Elec       q    Type
REMARK                         _______ _______ _______ _____ _____    ______ ____
ROOT
ATOM      1  N   UNL     1     142.443 129.421 101.936  0.00  0.00    -0.345 N 
ATOM      2  C   UNL     1     141.499 129.027 101.032  0.00  0.00    +0.115 C 
ATOM      3  N   UNL     1     140.220 129.224 101.194  0.00  0.00    -0.235 N 
ATOM      4  C   UNL     1     139.600 128.704 100.048  0.00  0.00    +0.071 A 
ATOM      5  C   UNL     1     138.239 128.699  99.802  0.00  0.00    -0.036 A 
ATOM      6  C   UNL     1     137.779 128.120  98.617  0.00  0.00    -0.060 A 
ATOM      7  C   UNL     1     138.680 127.548  97.706  0.00  0.00    -0.061 A 
ATOM      8  C   UNL     1     140.055 127.554  97.962  0.00  0.00    -0.055 A 
ATOM      9  C   UNL     1     140.502 128.150  99.130  0.00  0.00    +0.002 A 
ATOM     10  C   UNL     1     141.879 128.292  99.699  0.00  0.00    +0.091 C 
ATOM     11  N   UNL     1     142.807 129.162  98.974  0.00  0.00    -0.301 N 
ATOM     12  C   UNL     1     143.423 128.533  97.806  0.00  0.00    +0.023 C 
ATOM     13  C   UNL     1     144.424 129.486  97.138  0.00  0.00    +0.088 C 
ATOM     14  O   UNL     1     143.707 130.596  96.580  0.00  0.00    -0.273 OA
ATOM     15  N   UNL     1     144.663 131.481  96.068  0.00  0.00    -0.266 N 
ATOM     16  C   UNL     1     144.769 132.771  96.639  0.00  0.00    +0.063 A 
ATOM     17  C   UNL     1     144.281 133.047  97.921  0.00  0.00    -0.035 A 
ATOM     18  C   UNL     1     144.456 134.307  98.500  0.00  0.00    -0.040 A 
ATOM     19  C   UNL     1     145.150 135.304  97.812  0.00  0.00    +0.059 A 
ATOM     20 CL   UNL     1     145.334 136.838  98.582  0.00  0.00    -0.082 Cl
ATOM     21  C   UNL     1     145.674 135.030  96.544  0.00  0.00    +0.061 A 
ATOM     22 CL   UNL     1     146.561 136.202  95.637  0.00  0.00    -0.082 Cl
ATOM     23  C   UNL     1     145.492 133.765  95.969  0.00  0.00    -0.017 A 
ATOM     24  H   UNL     1     142.170 129.880 102.764  0.00  0.00    +0.000 HD
ATOM     25  H   UNL     1     143.395 129.245 101.761  0.00  0.00    +0.000 HD
ATOM     26  H   UNL     1     139.780 129.650 101.964  0.00  0.00    +0.000 HD
ATOM     27  H   UNL     1     143.549 129.444  99.615  0.00  0.00    +0.000 HD
ATOM     28  H   UNL     1     142.263 129.953  98.631  0.00  0.00    +0.000 HD
ATOM     29  H   UNL     1     145.251 131.212  95.325  0.00  0.00    +0.000 HD
ENDROOT
TORSDOF 0
ENDMDL
MODEL 5
REMARK VINA RESULT:    -5.329      5.707      6.816
REMARK INTER + INTRA:          -5.329
REMARK INTER:                  -5.329
REMARK INTRA:                   0.000
REMARK UNBOUND:                 0.000
REMARK  Name = /home/vital/Documents/PhD_2021/Malaria_codes/scripts/../data/pdbqt_ligands/ligand_19_temp.pdb
REMARK                            x       y       z     vdW  Elec       q    Type
REMARK                         _______ _______ _______ _____ _____    ______ ____
ROOT
ATOM      1  N   UNL     1     143.739 129.550 102.598  0.00  0.00    -0.345 N 
ATOM      2  C   UNL     1     143.538 130.495 101.633  0.00  0.00    +0.115 C 
ATOM      3  N   UNL     1     144.507 131.106 101.012  0.00  0.00    -0.235 N 
ATOM      4  C   UNL     1     143.894 131.970 100.092  0.00  0.00    +0.071 A 
ATOM      5  C   UNL     1     144.554 132.818  99.221  0.00  0.00    -0.036 A 
ATOM      6  C   UNL     1     143.792 133.633  98.381  0.00  0.00    -0.060 A 
ATOM      7  C   UNL     1     142.390 133.597  98.431  0.00  0.00    -0.061 A 
ATOM      8  C   UNL     1     141.729 132.739  99.315  0.00  0.00    -0.055 A 
ATOM      9  C   UNL     1     142.494 131.918 100.129  0.00  0.00    +0.002 A 
ATOM     10  C   UNL     1     142.100 130.932 101.182  0.00  0.00    +0.091 C 
ATOM     11  N   UNL     1     141.403 129.726 100.731  0.00  0.00    -0.301 N 
ATOM     12  C   UNL     1     139.977 129.925 100.473  0.00  0.00    +0.023 C 
ATOM     13  C   UNL     1     139.307 128.606 100.062  0.00  0.00    +0.088 C 
ATOM     14  O   UNL     1     139.824 128.201  98.787  0.00  0.00    -0.273 OA
ATOM     15  N   UNL     1     139.260 126.952  98.498  0.00  0.00    -0.266 N 
ATOM     16  C   UNL     1     140.114 125.830  98.388  0.00  0.00    +0.063 A 
ATOM     17  C   UNL     1     141.394 125.826  98.953  0.00  0.00    -0.035 A 
ATOM     18  C   UNL     1     142.199 124.684  98.898  0.00  0.00    -0.040 A 
ATOM     19  C   UNL     1     141.722 123.519  98.296  0.00  0.00    +0.059 A 
ATOM     20 CL   UNL     1     142.764 122.143  98.260  0.00  0.00    -0.082 Cl
ATOM     21  C   UNL     1     140.431 123.500  97.757  0.00  0.00    +0.061 A 
ATOM     22 CL   UNL     1     139.759 122.092  97.015  0.00  0.00    -0.082 Cl
ATOM     23  C   UNL     1     139.630 124.648  97.816  0.00  0.00    -0.017 A 
ATOM     24  H   UNL     1     144.654 129.299 102.858  0.00  0.00    +0.000 HD
ATOM     25  H   UNL     1     142.968 129.120 103.034  0.00  0.00    +0.000 HD
ATOM     26  H   UNL     1     145.473 130.987 101.159  0.00  0.00    +0.000 HD
ATOM     27  H   UNL     1     141.502 129.010 101.450  0.00  0.00    +0.000 HD
ATOM     28  H   UNL     1     141.828 129.454  99.845  0.00  0.00    +0.000 HD
ATOM     29  H   UNL     1     138.287 126.856  98.375  0.00  0.00    +0.000 HD
ENDROOT
TORSDOF 0
ENDMDL
MODEL 6
REMARK VINA RESULT:    -5.233      9.622     12.828
REMARK INTER + INTRA:          -5.233
REMARK INTER:                  -5.233
REMARK INTRA:                   0.000
REMARK UNBOUND:                 0.000
REMARK  Name = /home/vital/Documents/PhD_2021/Malaria_codes/scripts/../data/pdbqt_ligands/ligand_19_temp.pdb
REMARK                            x       y       z     vdW  Elec       q    Type
REMARK                         _______ _______ _______ _____ _____    ______ ____
ROOT
ATOM      1  N   UNL     1     145.150 133.080  95.633  0.00  0.00    -0.345 N 
ATOM      2  C   UNL     1     144.234 132.632  96.539  0.00  0.00    +0.115 C 
ATOM      3  N   UNL     1     143.593 133.415  97.361  0.00  0.00    -0.235 N 
ATOM      4  C   UNL     1     142.737 132.584  98.100  0.00  0.00    +0.071 A 
ATOM      5  C   UNL     1     141.870 133.001  99.093  0.00  0.00    -0.036 A 
ATOM      6  C   UNL     1     141.099 132.040  99.751  0.00  0.00    -0.060 A 
ATOM      7  C   UNL     1     141.214 130.682  99.415  0.00  0.00    -0.061 A 
ATOM      8  C   UNL     1     142.094 130.266  98.412  0.00  0.00    -0.055 A 
ATOM      9  C   UNL     1     142.838 131.231  97.750  0.00  0.00    +0.002 A 
ATOM     10  C   UNL     1     143.869 131.112  96.673  0.00  0.00    +0.091 C 
ATOM     11  N   UNL     1     143.404 130.661  95.360  0.00  0.00    -0.301 N 
ATOM     12  C   UNL     1     143.222 129.214  95.257  0.00  0.00    +0.023 C 
ATOM     13  C   UNL     1     142.792 128.817  93.838  0.00  0.00    +0.088 C 
ATOM     14  O   UNL     1     141.479 129.337  93.589  0.00  0.00    -0.273 OA
ATOM     15  N   UNL     1     141.169 129.034  92.257  0.00  0.00    -0.266 N 
ATOM     16  C   UNL     1     140.973 130.099  91.347  0.00  0.00    +0.063 A 
ATOM     17  C   UNL     1     141.477 131.380  91.599  0.00  0.00    -0.035 A 
ATOM     18  C   UNL     1     141.339 132.404  90.657  0.00  0.00    -0.040 A 
ATOM     19  C   UNL     1     140.715 132.151  89.435  0.00  0.00    +0.059 A 
ATOM     20 CL   UNL     1     140.576 133.457  88.313  0.00  0.00    -0.082 Cl
ATOM     21  C   UNL     1     140.238 130.866  89.156  0.00  0.00    +0.061 A 
ATOM     22 CL   UNL     1     139.473 130.468  87.659  0.00  0.00    -0.082 Cl
ATOM     23  C   UNL     1     140.379 129.846  90.105  0.00  0.00    -0.017 A 
ATOM     24  H   UNL     1     145.357 134.041  95.574  0.00  0.00    +0.000 HD
ATOM     25  H   UNL     1     145.605 132.442  95.036  0.00  0.00    +0.000 HD
ATOM     26  H   UNL     1     143.688 134.391  97.446  0.00  0.00    +0.000 HD
ATOM     27  H   UNL     1     144.089 130.949  94.661  0.00  0.00    +0.000 HD
ATOM     28  H   UNL     1     142.489 131.086  95.209  0.00  0.00    +0.000 HD
ATOM     29  H   UNL     1     141.088 128.099  91.960  0.00  0.00    +0.000 HD
ENDROOT
TORSDOF 0
ENDMDL
MODEL 7
REMARK VINA RESULT:    -4.750      8.786     12.210
REMARK INTER + INTRA:          -4.750
REMARK INTER:                  -4.750
REMARK INTRA:                   0.000
REMARK UNBOUND:                 0.000
REMARK  Name = /home/vital/Documents/PhD_2021/Malaria_codes/scripts/../data/pdbqt_ligands/ligand_19_temp.pdb
REMARK                            x       y       z     vdW  Elec       q    Type
REMARK                         _______ _______ _______ _____ _____    ______ ____
ROOT
ATOM      1  N   UNL     1     144.069 133.287  97.673  0.00  0.00    -0.345 N 
ATOM      2  C   UNL     1     143.181 132.431  98.257  0.00  0.00    +0.115 C 
ATOM      3  N   UNL     1     142.166 132.825  98.975  0.00  0.00    -0.235 N 
ATOM      4  C   UNL     1     141.492 131.659  99.367  0.00  0.00    +0.071 A 
ATOM      5  C   UNL     1     140.352 131.612 100.149  0.00  0.00    -0.036 A 
ATOM      6  C   UNL     1     139.815 130.364 100.470  0.00  0.00    -0.060 A 
ATOM      7  C   UNL     1     140.429 129.186 100.016  0.00  0.00    -0.061 A 
ATOM      8  C   UNL     1     141.583 129.240  99.228  0.00  0.00    -0.055 A 
ATOM      9  C   UNL     1     142.094 130.484  98.897  0.00  0.00    +0.002 A 
ATOM     10  C   UNL     1     143.307 130.874  98.112  0.00  0.00    +0.091 C 
ATOM     11  N   UNL     1     143.293 130.570  96.680  0.00  0.00    -0.301 N 
ATOM     12  C   UNL     1     143.613 129.178  96.364  0.00  0.00    +0.023 C 
ATOM     13  C   UNL     1     143.636 128.955  94.845  0.00  0.00    +0.088 C 
ATOM     14  O   UNL     1     142.306 129.116  94.333  0.00  0.00    -0.273 OA
ATOM     15  N   UNL     1     142.390 128.999  92.940  0.00  0.00    -0.266 N 
ATOM     16  C   UNL     1     142.053 130.117  92.143  0.00  0.00    +0.063 A 
ATOM     17  C   UNL     1     142.053 131.416  92.665  0.00  0.00    -0.035 A 
ATOM     18  C   UNL     1     141.788 132.518  91.847  0.00  0.00    -0.040 A 
ATOM     19  C   UNL     1     141.545 132.337  90.485  0.00  0.00    +0.059 A 
ATOM     20 CL   UNL     1     141.225 133.739  89.528  0.00  0.00    -0.082 Cl
ATOM     21  C   UNL     1     141.577 131.047  89.944  0.00  0.00    +0.061 A 
ATOM     22 CL   UNL     1     141.306 130.742  88.264  0.00  0.00    -0.082 Cl
ATOM     23  C   UNL     1     141.842 129.948  90.769  0.00  0.00    -0.017 A 
ATOM     24  H   UNL     1     143.961 134.260  97.784  0.00  0.00    +0.000 HD
ATOM     25  H   UNL     1     144.817 132.932  97.142  0.00  0.00    +0.000 HD
ATOM     26  H   UNL     1     141.922 133.753  99.196  0.00  0.00    +0.000 HD
ATOM     27  H   UNL     1     143.977 131.169  96.218  0.00  0.00    +0.000 HD
ATOM     28  H   UNL     1     142.341 130.736  96.353  0.00  0.00    +0.000 HD
ATOM     29  H   UNL     1     142.679 128.154  92.523  0.00  0.00    +0.000 HD
ENDROOT
TORSDOF 0
ENDMDL
MODEL 8
REMARK VINA RESULT:    -4.612      8.181     11.572
REMARK INTER + INTRA:          -4.612
REMARK INTER:                  -4.612
REMARK INTRA:                   0.000
REMARK UNBOUND:                 0.000
REMARK  Name = /home/vital/Documents/PhD_2021/Malaria_codes/scripts/../data/pdbqt_ligands/ligand_19_temp.pdb
REMARK                            x       y       z     vdW  Elec       q    Type
REMARK                         _______ _______ _______ _____ _____    ______ ____
ROOT
ATOM      1  N   UNL     1     144.143 129.409  99.742  0.00  0.00    -0.345 N 
ATOM      2  C   UNL     1     142.800 129.169  99.716  0.00  0.00    +0.115 C 
ATOM      3  N   UNL     1     141.943 129.790 100.478  0.00  0.00    -0.235 N 
ATOM      4  C   UNL     1     140.681 129.283 100.133  0.00  0.00    +0.071 A 
ATOM      5  C   UNL     1     139.478 129.664 100.701  0.00  0.00    -0.036 A 
ATOM      6  C   UNL     1     138.307 129.045 100.260  0.00  0.00    -0.060 A 
ATOM      7  C   UNL     1     138.356 128.051  99.270  0.00  0.00    -0.061 A 
ATOM      8  C   UNL     1     139.575 127.669  98.701  0.00  0.00    -0.055 A 
ATOM      9  C   UNL     1     140.728 128.305  99.131  0.00  0.00    +0.002 A 
ATOM     10  C   UNL     1     142.162 128.109  98.751  0.00  0.00    +0.091 C 
ATOM     11  N   UNL     1     142.542 128.481  97.387  0.00  0.00    -0.301 N 
ATOM     12  C   UNL     1     142.203 127.476  96.380  0.00  0.00    +0.023 C 
ATOM     13  C   UNL     1     142.685 127.912  94.989  0.00  0.00    +0.088 C 
ATOM     14  O   UNL     1     141.933 129.063  94.578  0.00  0.00    -0.273 OA
ATOM     15  N   UNL     1     142.469 129.482  93.354  0.00  0.00    -0.266 N 
ATOM     16  C   UNL     1     143.080 130.755  93.281  0.00  0.00    +0.063 A 
ATOM     17  C   UNL     1     143.541 131.414  94.426  0.00  0.00    -0.035 A 
ATOM     18  C   UNL     1     144.207 132.640  94.330  0.00  0.00    -0.040 A 
ATOM     19  C   UNL     1     144.445 133.211  93.079  0.00  0.00    +0.059 A 
ATOM     20 CL   UNL     1     145.273 134.725  93.027  0.00  0.00    -0.082 Cl
ATOM     21  C   UNL     1     144.020 132.545  91.924  0.00  0.00    +0.061 A 
ATOM     22 CL   UNL     1     144.295 133.176  90.339  0.00  0.00    -0.082 Cl
ATOM     23  C   UNL     1     143.353 131.319  92.028  0.00  0.00    -0.017 A 
ATOM     24  H   UNL     1     144.512 130.081 100.360  0.00  0.00    +0.000 HD
ATOM     25  H   UNL     1     144.744 128.909  99.144  0.00  0.00    +0.000 HD
ATOM     26  H   UNL     1     142.141 130.475 101.156  0.00  0.00    +0.000 HD
ATOM     27  H   UNL     1     143.550 128.630  97.364  0.00  0.00    +0.000 HD
ATOM     28  H   UNL     1     142.015 129.322  97.154  0.00  0.00    +0.000 HD
ATOM     29  H   UNL     1     142.422 128.901  92.560  0.00  0.00    +0.000 HD
ENDROOT
TORSDOF 0
ENDMDL
MODEL 9
REMARK VINA RESULT:    -4.496     14.941     17.124
REMARK INTER + INTRA:          -4.496
REMARK INTER:                  -4.496
REMARK INTRA:                   0.000
REMARK UNBOUND:                 0.000
REMARK  Name = /home/vital/Documents/PhD_2021/Malaria_codes/scripts/../data/pdbqt_ligands/ligand_19_temp.pdb
REMARK                            x       y       z     vdW  Elec       q    Type
REMARK                         _______ _______ _______ _____ _____    ______ ____
ROOT
ATOM      1  N   UNL     1     132.451 124.623  90.161  0.00  0.00    -0.345 N 
ATOM      2  C   UNL     1     132.585 123.741  89.128  0.00  0.00    +0.115 C 
ATOM      3  N   UNL     1     131.794 123.723  88.091  0.00  0.00    -0.235 N 
ATOM      4  C   UNL     1     132.274 122.702  87.256  0.00  0.00    +0.071 A 
ATOM      5  C   UNL     1     131.727 122.333  86.041  0.00  0.00    -0.036 A 
ATOM      6  C   UNL     1     132.313 121.276  85.340  0.00  0.00    -0.060 A 
ATOM      7  C   UNL     1     133.425 120.601  85.867  0.00  0.00    -0.061 A 
ATOM      8  C   UNL     1     133.971 120.977  87.098  0.00  0.00    -0.055 A 
ATOM      9  C   UNL     1     133.396 122.041  87.774  0.00  0.00    +0.002 A 
ATOM     10  C   UNL     1     133.718 122.657  89.099  0.00  0.00    +0.091 C 
ATOM     11  N   UNL     1     134.996 123.363  89.206  0.00  0.00    -0.301 N 
ATOM     12  C   UNL     1     136.148 122.484  89.406  0.00  0.00    +0.023 C 
ATOM     13  C   UNL     1     137.437 123.301  89.567  0.00  0.00    +0.088 C 
ATOM     14  O   UNL     1     137.729 123.957  88.325  0.00  0.00    -0.273 OA
ATOM     15  N   UNL     1     138.853 124.762  88.546  0.00  0.00    -0.266 N 
ATOM     16  C   UNL     1     138.719 126.164  88.419  0.00  0.00    +0.063 A 
ATOM     17  C   UNL     1     137.471 126.792  88.504  0.00  0.00    -0.035 A 
ATOM     18  C   UNL     1     137.363 128.184  88.450  0.00  0.00    -0.040 A 
ATOM     19  C   UNL     1     138.510 128.972  88.336  0.00  0.00    +0.059 A 
ATOM     20 CL   UNL     1     138.309 130.686  88.275  0.00  0.00    -0.082 Cl
ATOM     21  C   UNL     1     139.766 128.359  88.286  0.00  0.00    +0.061 A 
ATOM     22 CL   UNL     1     141.233 129.264  88.166  0.00  0.00    -0.082 Cl
ATOM     23  C   UNL     1     139.867 126.963  88.339  0.00  0.00    -0.017 A 
ATOM     24  H   UNL     1     131.729 125.291  90.148  0.00  0.00    +0.000 HD
ATOM     25  H   UNL     1     133.078 124.590  90.920  0.00  0.00    +0.000 HD
ATOM     26  H   UNL     1     131.019 124.307  87.927  0.00  0.00    +0.000 HD
ATOM     27  H   UNL     1     134.942 124.006  89.997  0.00  0.00    +0.000 HD
ATOM     28  H   UNL     1     135.142 123.845  88.319  0.00  0.00    +0.000 HD
ATOM     29  H   UNL     1     139.720 124.360  88.784  0.00  0.00    +0.000 HD
ENDROOT
TORSDOF 0
ENDMDL
