MODEL 1
REMARK VINA RESULT:    -5.006      0.000      0.000
REMARK INTER + INTRA:          -5.006
REMARK INTER:                  -5.006
REMARK INTRA:                   0.000
REMARK UNBOUND:                 0.000
REMARK  Name = /home/vital/Documents/PhD_2021/Malaria_codes/scripts/../data/pdbqt_ligands/ligand_322_temp.pdb
REMARK                            x       y       z     vdW  Elec       q    Type
REMARK                         _______ _______ _______ _____ _____    ______ ____
ROOT
ATOM      1  O1  UNL     1     142.429 124.835 104.899  0.00  0.00    -0.270 OA
ATOM      2  C1  UNL     1     141.338 124.999 104.368  0.00  0.00    +0.250 C 
ATOM      3  N1  UNL     1     140.961 126.013 103.519  0.00  0.00    -0.261 N 
ATOM      4  C2  UNL     1     141.714 127.094 103.137  0.00  0.00    +0.165 A 
ATOM      5  N2  UNL     1     141.249 127.952 102.259  0.00  0.00    -0.223 NA
ATOM      6  C3  UNL     1     142.187 128.961 102.046  0.00  0.00    +0.098 A 
ATOM      7  C4  UNL     1     141.954 130.060 101.111  0.00  0.00    +0.090 A 
ATOM      8  C5  UNL     1     140.769 130.129 100.384  0.00  0.00    -0.034 A 
ATOM      9  C6  UNL     1     140.582 131.192  99.503  0.00  0.00    -0.058 A 
ATOM     10  C7  UNL     1     141.577 132.152  99.374  0.00  0.00    -0.044 A 
ATOM     11  C8  UNL     1     142.727 132.010 100.134  0.00  0.00    +0.028 A 
ATOM     12  N3  UNL     1     142.937 130.991 100.997  0.00  0.00    -0.253 NA
ATOM     13  C9  UNL     1     143.345 128.831 102.790  0.00  0.00    +0.006 A 
ATOM     14  S1  UNL     1     143.258 127.429 103.768  0.00  0.00    -0.060 S 
ATOM     15  C10 UNL     1     140.284 123.976 104.621  0.00  0.00    +0.039 A 
ATOM     16  C11 UNL     1     140.678 122.641 104.794  0.00  0.00    -0.046 A 
ATOM     17  C12 UNL     1     139.724 121.651 105.036  0.00  0.00    -0.018 A 
ATOM     18  C13 UNL     1     138.380 121.998 105.116  0.00  0.00    +0.135 A 
ATOM     19  O2  UNL     1     137.485 120.993 105.354  0.00  0.00    -0.505 OA
ATOM     20  C14 UNL     1     137.982 123.329 104.963  0.00  0.00    +0.083 A 
ATOM     21 CL1  UNL     1     136.316 123.757 105.078  0.00  0.00    -0.080 Cl
ATOM     22  C15 UNL     1     138.930 124.323 104.719  0.00  0.00    -0.028 A 
ATOM     23  H   UNL     1     140.052 125.957 103.144  0.00  0.00    +0.000 HD
ATOM     24  H   UNL     1     137.787 120.112 105.451  0.00  0.00    +0.000 HD
ENDROOT
TORSDOF 0
ENDMDL
MODEL 2
REMARK VINA RESULT:    -4.991     15.055     15.597
REMARK INTER + INTRA:          -4.991
REMARK INTER:                  -4.991
REMARK INTRA:                   0.000
REMARK UNBOUND:                 0.000
REMARK  Name = /home/vital/Documents/PhD_2021/Malaria_codes/scripts/../data/pdbqt_ligands/ligand_322_temp.pdb
REMARK                            x       y       z     vdW  Elec       q    Type
REMARK                         _______ _______ _______ _____ _____    ______ ____
ROOT
ATOM      1  O1  UNL     1     136.149 123.211  89.548  0.00  0.00    -0.270 OA
ATOM      2  C1  UNL     1     135.250 123.979  89.228  0.00  0.00    +0.250 C 
ATOM      3  N1  UNL     1     135.371 125.270  88.771  0.00  0.00    -0.261 N 
ATOM      4  C2  UNL     1     136.528 125.994  88.635  0.00  0.00    +0.165 A 
ATOM      5  N2  UNL     1     136.503 127.198  88.115  0.00  0.00    -0.223 NA
ATOM      6  C3  UNL     1     137.792 127.729  88.095  0.00  0.00    +0.098 A 
ATOM      7  C4  UNL     1     138.081 129.060  87.563  0.00  0.00    +0.090 A 
ATOM      8  C5  UNL     1     137.060 129.848  87.041  0.00  0.00    -0.034 A 
ATOM      9  C6  UNL     1     137.374 131.111  86.544  0.00  0.00    -0.058 A 
ATOM     10  C7  UNL     1     138.691 131.549  86.582  0.00  0.00    -0.044 A 
ATOM     11  C8  UNL     1     139.647 130.703  87.118  0.00  0.00    +0.028 A 
ATOM     12  N3  UNL     1     139.375 129.473  87.608  0.00  0.00    -0.253 NA
ATOM     13  C9  UNL     1     138.762 126.895  88.618  0.00  0.00    +0.006 A 
ATOM     14  S1  UNL     1     138.051 125.428  89.141  0.00  0.00    -0.060 S 
ATOM     15  C10 UNL     1     133.850 123.472  89.296  0.00  0.00    +0.039 A 
ATOM     16  C11 UNL     1     133.617 122.118  89.017  0.00  0.00    -0.046 A 
ATOM     17  C12 UNL     1     132.321 121.600  89.071  0.00  0.00    -0.018 A 
ATOM     18  C13 UNL     1     131.264 122.434  89.416  0.00  0.00    +0.135 A 
ATOM     19  O2  UNL     1     130.015 121.880  89.455  0.00  0.00    -0.505 OA
ATOM     20  C14 UNL     1     131.491 123.780  89.713  0.00  0.00    +0.083 A 
ATOM     21 CL1  UNL     1     130.179 124.807  90.155  0.00  0.00    -0.080 Cl
ATOM     22  C15 UNL     1     132.782 124.304  89.659  0.00  0.00    -0.028 A 
ATOM     23  H   UNL     1     134.536 125.724  88.511  0.00  0.00    +0.000 HD
ATOM     24  H   UNL     1     129.898 120.974  89.249  0.00  0.00    +0.000 HD
ENDROOT
TORSDOF 0
ENDMDL
MODEL 3
REMARK VINA RESULT:    -4.979      7.406      9.089
REMARK INTER + INTRA:          -4.979
REMARK INTER:                  -4.979
REMARK INTRA:                   0.000
REMARK UNBOUND:                 0.000
REMARK  Name = /home/vital/Documents/PhD_2021/Malaria_codes/scripts/../data/pdbqt_ligands/ligand_322_temp.pdb
REMARK                            x       y       z     vdW  Elec       q    Type
REMARK                         _______ _______ _______ _____ _____    ______ ____
ROOT
ATOM      1  O1  UNL     1     140.479 125.960  98.078  0.00  0.00    -0.270 OA
ATOM      2  C1  UNL     1     140.363 127.139  97.770  0.00  0.00    +0.250 C 
ATOM      3  N1  UNL     1     140.452 127.693  96.515  0.00  0.00    -0.261 N 
ATOM      4  C2  UNL     1     140.753 127.044  95.345  0.00  0.00    +0.165 A 
ATOM      5  N2  UNL     1     140.733 127.688  94.202  0.00  0.00    -0.223 NA
ATOM      6  C3  UNL     1     141.084 126.822  93.168  0.00  0.00    +0.098 A 
ATOM      7  C4  UNL     1     141.142 127.254  91.772  0.00  0.00    +0.090 A 
ATOM      8  C5  UNL     1     140.833 128.566  91.426  0.00  0.00    -0.034 A 
ATOM      9  C6  UNL     1     140.900 128.941  90.086  0.00  0.00    -0.058 A 
ATOM     10  C7  UNL     1     141.272 128.001  89.134  0.00  0.00    -0.044 A 
ATOM     11  C8  UNL     1     141.564 126.716  89.562  0.00  0.00    +0.028 A 
ATOM     12  N3  UNL     1     141.508 126.322  90.853  0.00  0.00    -0.253 NA
ATOM     13  C9  UNL     1     141.370 125.532  93.574  0.00  0.00    +0.006 A 
ATOM     14  S1  UNL     1     141.198 125.403  95.272  0.00  0.00    -0.060 S 
ATOM     15  C10 UNL     1     140.050 128.110  98.857  0.00  0.00    +0.039 A 
ATOM     16  C11 UNL     1     139.248 127.681  99.925  0.00  0.00    -0.046 A 
ATOM     17  C12 UNL     1     138.933 128.556 100.966  0.00  0.00    -0.018 A 
ATOM     18  C13 UNL     1     139.429 129.855 100.944  0.00  0.00    +0.135 A 
ATOM     19  O2  UNL     1     139.092 130.674 101.984  0.00  0.00    -0.505 OA
ATOM     20  C14 UNL     1     140.244 130.284  99.892  0.00  0.00    +0.083 A 
ATOM     21 CL1  UNL     1     140.870 131.890  99.876  0.00  0.00    -0.080 Cl
ATOM     22  C15 UNL     1     140.562 129.415  98.848  0.00  0.00    -0.028 A 
ATOM     23  H   UNL     1     140.279 128.660  96.449  0.00  0.00    +0.000 HD
ATOM     24  H   UNL     1     138.544 130.354 102.673  0.00  0.00    +0.000 HD
ENDROOT
TORSDOF 0
ENDMDL
MODEL 4
REMARK VINA RESULT:    -4.903      6.163      8.731
REMARK INTER + INTRA:          -4.903
REMARK INTER:                  -4.903
REMARK INTRA:                   0.000
REMARK UNBOUND:                 0.000
REMARK  Name = /home/vital/Documents/PhD_2021/Malaria_codes/scripts/../data/pdbqt_ligands/ligand_322_temp.pdb
REMARK                            x       y       z     vdW  Elec       q    Type
REMARK                         _______ _______ _______ _____ _____    ______ ____
ROOT
ATOM      1  O1  UNL     1     144.929 131.021  98.582  0.00  0.00    -0.270 OA
ATOM      2  C1  UNL     1     143.759 130.742  98.357  0.00  0.00    +0.250 C 
ATOM      3  N1  UNL     1     143.060 130.930  97.187  0.00  0.00    -0.261 N 
ATOM      4  C2  UNL     1     143.515 131.529  96.040  0.00  0.00    +0.165 A 
ATOM      5  N2  UNL     1     142.758 131.576  94.969  0.00  0.00    -0.223 NA
ATOM      6  C3  UNL     1     143.433 132.241  93.946  0.00  0.00    +0.098 A 
ATOM      7  C4  UNL     1     142.843 132.444  92.624  0.00  0.00    +0.090 A 
ATOM      8  C5  UNL     1     141.570 131.960  92.336  0.00  0.00    -0.034 A 
ATOM      9  C6  UNL     1     141.041 132.172  91.065  0.00  0.00    -0.058 A 
ATOM     10  C7  UNL     1     141.794 132.859  90.121  0.00  0.00    -0.044 A 
ATOM     11  C8  UNL     1     143.052 133.307  90.488  0.00  0.00    +0.028 A 
ATOM     12  N3  UNL     1     143.593 133.117  91.711  0.00  0.00    -0.253 NA
ATOM     13  C9  UNL     1     144.695 132.689  94.290  0.00  0.00    +0.006 A 
ATOM     14  S1  UNL     1     145.040 132.272  95.914  0.00  0.00    -0.060 S 
ATOM     15  C10 UNL     1     142.981 130.087  99.446  0.00  0.00    +0.039 A 
ATOM     16  C11 UNL     1     143.654 129.215 100.314  0.00  0.00    -0.046 A 
ATOM     17  C12 UNL     1     142.965 128.582 101.351  0.00  0.00    -0.018 A 
ATOM     18  C13 UNL     1     141.608 128.830 101.524  0.00  0.00    +0.135 A 
ATOM     19  O2  UNL     1     140.979 128.185 102.552  0.00  0.00    -0.505 OA
ATOM     20  C14 UNL     1     140.935 129.711 100.674  0.00  0.00    +0.083 A 
ATOM     21 CL1  UNL     1     139.255 130.028 100.902  0.00  0.00    -0.080 Cl
ATOM     22  C15 UNL     1     141.616 130.346  99.636  0.00  0.00    -0.028 A 
ATOM     23  H   UNL     1     142.134 130.597  97.170  0.00  0.00    +0.000 HD
ATOM     24  H   UNL     1     141.460 127.601 103.103  0.00  0.00    +0.000 HD
ENDROOT
TORSDOF 0
ENDMDL
MODEL 5
REMARK VINA RESULT:    -4.733      8.119     10.966
REMARK INTER + INTRA:          -4.733
REMARK INTER:                  -4.733
REMARK INTRA:                   0.000
REMARK UNBOUND:                 0.000
REMARK  Name = /home/vital/Documents/PhD_2021/Malaria_codes/scripts/../data/pdbqt_ligands/ligand_322_temp.pdb
REMARK                            x       y       z     vdW  Elec       q    Type
REMARK                         _______ _______ _______ _____ _____    ______ ____
ROOT
ATOM      1  O1  UNL     1     145.073 133.212  96.221  0.00  0.00    -0.270 OA
ATOM      2  C1  UNL     1     144.111 132.498  96.471  0.00  0.00    +0.250 C 
ATOM      3  N1  UNL     1     143.260 131.890  95.578  0.00  0.00    -0.261 N 
ATOM      4  C2  UNL     1     143.275 132.007  94.212  0.00  0.00    +0.165 A 
ATOM      5  N2  UNL     1     142.444 131.309  93.475  0.00  0.00    -0.223 NA
ATOM      6  C3  UNL     1     142.644 131.609  92.128  0.00  0.00    +0.098 A 
ATOM      7  C4  UNL     1     141.866 130.978  91.063  0.00  0.00    +0.090 A 
ATOM      8  C5  UNL     1     140.890 130.033  91.366  0.00  0.00    -0.034 A 
ATOM      9  C6  UNL     1     140.169 129.454  90.325  0.00  0.00    -0.058 A 
ATOM     10  C7  UNL     1     140.440 129.833  89.016  0.00  0.00    -0.044 A 
ATOM     11  C8  UNL     1     141.427 130.780  88.801  0.00  0.00    +0.028 A 
ATOM     12  N3  UNL     1     142.143 131.360  89.789  0.00  0.00    -0.253 NA
ATOM     13  C9  UNL     1     143.631 132.546  91.892  0.00  0.00    +0.006 A 
ATOM     14  S1  UNL     1     144.317 133.058  93.374  0.00  0.00    -0.060 S 
ATOM     15  C10 UNL     1     143.822 132.204  97.904  0.00  0.00    +0.039 A 
ATOM     16  C11 UNL     1     144.900 132.100  98.794  0.00  0.00    -0.046 A 
ATOM     17  C12 UNL     1     144.676 131.828 100.145  0.00  0.00    -0.018 A 
ATOM     18  C13 UNL     1     143.373 131.672 100.606  0.00  0.00    +0.135 A 
ATOM     19  O2  UNL     1     143.205 131.406 101.935  0.00  0.00    -0.505 OA
ATOM     20  C14 UNL     1     142.292 131.792  99.728  0.00  0.00    +0.083 A 
ATOM     21 CL1  UNL     1     140.678 131.613 100.306  0.00  0.00    -0.080 Cl
ATOM     22  C15 UNL     1     142.510 132.062  98.377  0.00  0.00    -0.028 A 
ATOM     23  H   UNL     1     142.565 131.306  95.961  0.00  0.00    +0.000 HD
ATOM     24  H   UNL     1     143.952 131.332 102.496  0.00  0.00    +0.000 HD
ENDROOT
TORSDOF 0
ENDMDL
MODEL 6
REMARK VINA RESULT:    -4.710      3.392      8.425
REMARK INTER + INTRA:          -4.710
REMARK INTER:                  -4.710
REMARK INTRA:                   0.000
REMARK UNBOUND:                 0.000
REMARK  Name = /home/vital/Documents/PhD_2021/Malaria_codes/scripts/../data/pdbqt_ligands/ligand_322_temp.pdb
REMARK                            x       y       z     vdW  Elec       q    Type
REMARK                         _______ _______ _______ _____ _____    ______ ____
ROOT
ATOM      1  O1  UNL     1     143.993 127.886 102.370  0.00  0.00    -0.270 OA
ATOM      2  C1  UNL     1     142.807 128.170 102.270  0.00  0.00    +0.250 C 
ATOM      3  N1  UNL     1     141.736 127.518 102.835  0.00  0.00    -0.261 N 
ATOM      4  C2  UNL     1     141.769 126.368 103.582  0.00  0.00    +0.165 A 
ATOM      5  N2  UNL     1     140.671 125.894 104.122  0.00  0.00    -0.223 NA
ATOM      6  C3  UNL     1     140.959 124.720 104.818  0.00  0.00    +0.098 A 
ATOM      7  C4  UNL     1     139.933 123.964 105.533  0.00  0.00    +0.090 A 
ATOM      8  C5  UNL     1     138.613 124.406 105.550  0.00  0.00    -0.034 A 
ATOM      9  C6  UNL     1     137.663 123.659 106.242  0.00  0.00    -0.058 A 
ATOM     10  C7  UNL     1     138.054 122.496 106.893  0.00  0.00    -0.044 A 
ATOM     11  C8  UNL     1     139.387 122.126 106.827  0.00  0.00    +0.028 A 
ATOM     12  N3  UNL     1     140.332 122.829 106.165  0.00  0.00    -0.253 NA
ATOM     13  C9  UNL     1     142.287 124.339 104.771  0.00  0.00    +0.006 A 
ATOM     14  S1  UNL     1     143.185 125.463 103.844  0.00  0.00    -0.060 S 
ATOM     15  C10 UNL     1     142.449 129.383 101.481  0.00  0.00    +0.039 A 
ATOM     16  C11 UNL     1     143.333 130.472 101.494  0.00  0.00    -0.046 A 
ATOM     17  C12 UNL     1     143.040 131.627 100.766  0.00  0.00    -0.018 A 
ATOM     18  C13 UNL     1     141.869 131.687 100.018  0.00  0.00    +0.135 A 
ATOM     19  O2  UNL     1     141.627 132.839  99.325  0.00  0.00    -0.505 OA
ATOM     20  C14 UNL     1     140.993 130.599  99.986  0.00  0.00    +0.083 A 
ATOM     21 CL1  UNL     1     139.550 130.672  99.045  0.00  0.00    -0.080 Cl
ATOM     22  C15 UNL     1     141.279 129.443 100.712  0.00  0.00    -0.028 A 
ATOM     23  H   UNL     1     140.849 127.921 102.688  0.00  0.00    +0.000 HD
ATOM     24  H   UNL     1     142.236 133.549  99.369  0.00  0.00    +0.000 HD
ENDROOT
TORSDOF 0
ENDMDL
MODEL 7
REMARK VINA RESULT:    -4.576      2.280      2.534
REMARK INTER + INTRA:          -4.576
REMARK INTER:                  -4.576
REMARK INTRA:                   0.000
REMARK UNBOUND:                 0.000
REMARK  Name = /home/vital/Documents/PhD_2021/Malaria_codes/scripts/../data/pdbqt_ligands/ligand_322_temp.pdb
REMARK                            x       y       z     vdW  Elec       q    Type
REMARK                         _______ _______ _______ _____ _____    ______ ____
ROOT
ATOM      1  O1  UNL     1     143.509 124.750 105.687  0.00  0.00    -0.270 OA
ATOM      2  C1  UNL     1     142.293 124.647 105.592  0.00  0.00    +0.250 C 
ATOM      3  N1  UNL     1     141.456 125.320 104.732  0.00  0.00    -0.261 N 
ATOM      4  C2  UNL     1     141.805 126.300 103.838  0.00  0.00    +0.165 A 
ATOM      5  N2  UNL     1     140.910 126.809 103.025  0.00  0.00    -0.223 NA
ATOM      6  C3  UNL     1     141.501 127.788 102.228  0.00  0.00    +0.098 A 
ATOM      7  C4  UNL     1     140.751 128.529 101.215  0.00  0.00    +0.090 A 
ATOM      8  C5  UNL     1     139.400 128.268 101.005  0.00  0.00    -0.034 A 
ATOM      9  C6  UNL     1     138.719 128.995 100.032  0.00  0.00    -0.058 A 
ATOM     10  C7  UNL     1     139.401 129.958  99.300  0.00  0.00    -0.044 A 
ATOM     11  C8  UNL     1     140.745 130.156  99.571  0.00  0.00    +0.028 A 
ATOM     12  N3  UNL     1     141.433 129.468 100.507  0.00  0.00    -0.253 NA
ATOM     13  C9  UNL     1     142.845 127.994 102.477  0.00  0.00    +0.006 A 
ATOM     14  S1  UNL     1     143.374 126.949 103.726  0.00  0.00    -0.060 S 
ATOM     15  C10 UNL     1     141.611 123.656 106.473  0.00  0.00    +0.039 A 
ATOM     16  C11 UNL     1     142.294 122.477 106.803  0.00  0.00    -0.046 A 
ATOM     17  C12 UNL     1     141.695 121.523 107.627  0.00  0.00    -0.018 A 
ATOM     18  C13 UNL     1     140.419 121.754 108.129  0.00  0.00    +0.135 A 
ATOM     19  O2  UNL     1     139.875 120.790 108.930  0.00  0.00    -0.505 OA
ATOM     20  C14 UNL     1     139.739 122.935 107.819  0.00  0.00    +0.083 A 
ATOM     21 CL1  UNL     1     138.163 123.225 108.455  0.00  0.00    -0.080 Cl
ATOM     22  C15 UNL     1     140.331 123.892 106.994  0.00  0.00    -0.028 A 
ATOM     23  H   UNL     1     140.504 125.072 104.761  0.00  0.00    +0.000 HD
ATOM     24  H   UNL     1     140.358 120.010 109.118  0.00  0.00    +0.000 HD
ENDROOT
TORSDOF 0
ENDMDL
MODEL 8
REMARK VINA RESULT:    -4.540      7.801     10.410
REMARK INTER + INTRA:          -4.540
REMARK INTER:                  -4.540
REMARK INTRA:                   0.000
REMARK UNBOUND:                 0.000
REMARK  Name = /home/vital/Documents/PhD_2021/Malaria_codes/scripts/../data/pdbqt_ligands/ligand_322_temp.pdb
REMARK                            x       y       z     vdW  Elec       q    Type
REMARK                         _______ _______ _______ _____ _____    ______ ____
ROOT
ATOM      1  O1  UNL     1     144.977 131.924  96.095  0.00  0.00    -0.270 OA
ATOM      2  C1  UNL     1     144.095 131.241  96.599  0.00  0.00    +0.250 C 
ATOM      3  N1  UNL     1     143.254 130.354  95.967  0.00  0.00    -0.261 N 
ATOM      4  C2  UNL     1     143.186 130.094  94.622  0.00  0.00    +0.165 A 
ATOM      5  N2  UNL     1     142.381 129.165  94.164  0.00  0.00    -0.223 NA
ATOM      6  C3  UNL     1     142.482 129.099  92.775  0.00  0.00    +0.098 A 
ATOM      7  C4  UNL     1     141.707 128.149  91.979  0.00  0.00    +0.090 A 
ATOM      8  C5  UNL     1     140.834 127.257  92.597  0.00  0.00    -0.034 A 
ATOM      9  C6  UNL     1     140.112 126.367  91.805  0.00  0.00    -0.058 A 
ATOM     10  C7  UNL     1     140.279 126.392  90.427  0.00  0.00    -0.044 A 
ATOM     11  C8  UNL     1     141.168 127.310  89.892  0.00  0.00    +0.028 A 
ATOM     12  N3  UNL     1     141.882 128.186  90.632  0.00  0.00    -0.253 NA
ATOM     13  C9  UNL     1     143.371 130.002  92.223  0.00  0.00    +0.006 A 
ATOM     14  S1  UNL     1     144.088 130.946  93.458  0.00  0.00    -0.060 S 
ATOM     15  C10 UNL     1     143.909 131.329  98.075  0.00  0.00    +0.039 A 
ATOM     16  C11 UNL     1     145.038 131.547  98.877  0.00  0.00    -0.046 A 
ATOM     17  C12 UNL     1     144.910 131.640 100.265  0.00  0.00    -0.018 A 
ATOM     18  C13 UNL     1     143.652 131.526 100.846  0.00  0.00    +0.135 A 
ATOM     19  O2  UNL     1     143.579 131.623 102.207  0.00  0.00    -0.505 OA
ATOM     20  C14 UNL     1     142.520 131.327 100.051  0.00  0.00    +0.083 A 
ATOM     21 CL1  UNL     1     140.960 131.202 100.775  0.00  0.00    -0.080 Cl
ATOM     22  C15 UNL     1     142.641 131.232  98.665  0.00  0.00    -0.028 A 
ATOM     23  H   UNL     1     142.634 129.850  96.544  0.00  0.00    +0.000 HD
ATOM     24  H   UNL     1     144.358 131.757 102.710  0.00  0.00    +0.000 HD
ENDROOT
TORSDOF 0
ENDMDL
MODEL 9
REMARK VINA RESULT:    -4.527      8.974     11.059
REMARK INTER + INTRA:          -4.527
REMARK INTER:                  -4.527
REMARK INTRA:                   0.000
REMARK UNBOUND:                 0.000
REMARK  Name = /home/vital/Documents/PhD_2021/Malaria_codes/scripts/../data/pdbqt_ligands/ligand_322_temp.pdb
REMARK                            x       y       z     vdW  Elec       q    Type
REMARK                         _______ _______ _______ _____ _____    ______ ____
ROOT
ATOM      1  O1  UNL     1     142.671 126.557  92.463  0.00  0.00    -0.270 OA
ATOM      2  C1  UNL     1     141.450 126.598  92.544  0.00  0.00    +0.250 C 
ATOM      3  N1  UNL     1     140.690 126.856  93.661  0.00  0.00    -0.261 N 
ATOM      4  C2  UNL     1     141.143 127.061  94.939  0.00  0.00    +0.165 A 
ATOM      5  N2  UNL     1     140.305 127.370  95.901  0.00  0.00    -0.223 NA
ATOM      6  C3  UNL     1     141.000 127.515  97.101  0.00  0.00    +0.098 A 
ATOM      7  C4  UNL     1     140.332 127.867  98.353  0.00  0.00    +0.090 A 
ATOM      8  C5  UNL     1     138.957 128.081  98.384  0.00  0.00    -0.034 A 
ATOM      9  C6  UNL     1     138.356 128.414  99.595  0.00  0.00    -0.058 A 
ATOM     10  C7  UNL     1     139.139 128.522 100.737  0.00  0.00    -0.044 A 
ATOM     11  C8  UNL     1     140.500 128.293 100.620  0.00  0.00    +0.028 A 
ATOM     12  N3  UNL     1     141.113 127.969  99.460  0.00  0.00    -0.253 NA
ATOM     13  C9  UNL     1     142.361 127.299  97.003  0.00  0.00    +0.006 A 
ATOM     14  S1  UNL     1     142.777 126.909  95.389  0.00  0.00    -0.060 S 
ATOM     15  C10 UNL     1     140.665 126.384  91.295  0.00  0.00    +0.039 A 
ATOM     16  C11 UNL     1     141.206 126.835  90.082  0.00  0.00    -0.046 A 
ATOM     17  C12 UNL     1     140.507 126.653  88.887  0.00  0.00    -0.018 A 
ATOM     18  C13 UNL     1     139.274 126.011  88.906  0.00  0.00    +0.135 A 
ATOM     19  O2  UNL     1     138.628 125.857  87.711  0.00  0.00    -0.505 OA
ATOM     20  C14 UNL     1     138.737 125.542  90.108  0.00  0.00    +0.083 A 
ATOM     21 CL1  UNL     1     137.215 124.733  90.124  0.00  0.00    -0.080 Cl
ATOM     22  C15 UNL     1     139.429 125.723  91.305  0.00  0.00    -0.028 A 
ATOM     23  H   UNL     1     139.715 126.899  93.529  0.00  0.00    +0.000 HD
ATOM     24  H   UNL     1     139.017 126.183  86.924  0.00  0.00    +0.000 HD
ENDROOT
TORSDOF 0
ENDMDL
