MODEL 1
REMARK VINA RESULT:    -4.822      0.000      0.000
REMARK INTER + INTRA:          -4.822
REMARK INTER:                  -4.822
REMARK INTRA:                   0.000
REMARK UNBOUND:                 0.000
REMARK  Name = /home/vital/Documents/PhD_2021/Malaria_codes/scripts/../data/pdbqt_ligands/ligand_341_temp.pdb
REMARK                            x       y       z     vdW  Elec       q    Type
REMARK                         _______ _______ _______ _____ _____    ______ ____
ROOT
ATOM      1 CL1  UNL     1     137.714 127.647  98.024  0.00  0.00    -0.073 Cl
ATOM      2  C1  UNL     1     139.068 127.815  99.027  0.00  0.00    +0.105 C 
ATOM      3  C2  UNL     1     139.493 128.983  99.397  0.00  0.00    -0.073 C 
ATOM      4  C3  UNL     1     140.775 129.090  99.587  0.00  0.00    +0.104 C 
ATOM      5  N1  UNL     1     141.471 130.258  99.450  0.00  0.00    -0.297 N 
ATOM      6  C4  UNL     1     141.057 131.530  99.748  0.00  0.00    +0.086 C 
ATOM      7  N2  UNL     1     141.521 132.697  99.440  0.00  0.00    -0.247 NA
ATOM      8  C5  UNL     1     142.555 132.816  98.554  0.00  0.00    +0.037 C 
ATOM      9  C6  UNL     1     143.856 132.563  98.744  0.00  0.00    +0.008 C 
ATOM     10  C7  UNL     1     144.395 131.972  99.914  0.00  0.00    -0.052 C 
ATOM     11  C8  UNL     1     144.829 131.334 100.832  0.00  0.00    +0.000 C 
ATOM     12  N3  UNL     1     145.280 130.389 101.858  0.00  0.00    -0.302 N 
ATOM     13  C9  UNL     1     144.379 129.249 102.039  0.00  0.00    +0.043 C 
ATOM     14  C10 UNL     1     144.312 128.341 100.802  0.00  0.00    +0.091 C 
ATOM     15  O1  UNL     1     143.101 127.582 100.873  0.00  0.00    -0.272 OA
ATOM     16  N4  UNL     1     142.633 127.383  99.560  0.00  0.00    -0.262 N 
ATOM     17  C11 UNL     1     141.310 127.736  99.360  0.00  0.00    +0.111 C 
ATOM     18  C12 UNL     1     140.255 126.984  98.973  0.00  0.00    +0.095 C 
ATOM     19 CL2  UNL     1     140.276 125.336  98.575  0.00  0.00    -0.079 Cl
ATOM     20  H   UNL     1     142.383 130.176  99.091  0.00  0.00    +0.000 HD
ATOM     21  H   UNL     1     146.109 130.509 102.376  0.00  0.00    +0.000 HD
ATOM     22  H   UNL     1     143.201 127.023  98.842  0.00  0.00    +0.000 HD
ENDROOT
TORSDOF 0
ENDMDL
MODEL 2
REMARK VINA RESULT:    -4.431      2.153      2.290
REMARK INTER + INTRA:          -4.431
REMARK INTER:                  -4.431
REMARK INTRA:                   0.000
REMARK UNBOUND:                 0.000
REMARK  Name = /home/vital/Documents/PhD_2021/Malaria_codes/scripts/../data/pdbqt_ligands/ligand_341_temp.pdb
REMARK                            x       y       z     vdW  Elec       q    Type
REMARK                         _______ _______ _______ _____ _____    ______ ____
ROOT
ATOM      1 CL1  UNL     1     138.309 128.989 100.887  0.00  0.00    -0.073 Cl
ATOM      2  C1  UNL     1     139.910 129.410 101.247  0.00  0.00    +0.105 C 
ATOM      3  C2  UNL     1     140.415 130.538 100.856  0.00  0.00    -0.073 C 
ATOM      4  C3  UNL     1     141.690 130.534 100.599  0.00  0.00    +0.104 C 
ATOM      5  N1  UNL     1     142.291 131.384  99.713  0.00  0.00    -0.297 N 
ATOM      6  C4  UNL     1     141.977 132.691  99.448  0.00  0.00    +0.086 C 
ATOM      7  N2  UNL     1     142.304 133.493  98.489  0.00  0.00    -0.247 NA
ATOM      8  C5  UNL     1     143.002 133.029  97.409  0.00  0.00    +0.037 C 
ATOM      9  C6  UNL     1     144.300 132.708  97.323  0.00  0.00    +0.008 C 
ATOM     10  C7  UNL     1     145.189 132.667  98.426  0.00  0.00    -0.052 C 
ATOM     11  C8  UNL     1     145.900 132.481  99.373  0.00  0.00    +0.000 C 
ATOM     12  N3  UNL     1     146.666 132.077 100.557  0.00  0.00    -0.302 N 
ATOM     13  C9  UNL     1     145.883 131.302 101.522  0.00  0.00    +0.043 C 
ATOM     14  C10 UNL     1     145.439 129.939 100.971  0.00  0.00    +0.091 C 
ATOM     15  O1  UNL     1     144.323 129.488 101.745  0.00  0.00    -0.272 OA
ATOM     16  N4  UNL     1     143.465 128.765 100.894  0.00  0.00    -0.262 N 
ATOM     17  C11 UNL     1     142.143 129.171 100.929  0.00  0.00    +0.111 C 
ATOM     18  C12 UNL     1     141.028 128.489 101.278  0.00  0.00    +0.095 C 
ATOM     19 CL2  UNL     1     140.944 126.864 101.758  0.00  0.00    -0.079 Cl
ATOM     20  H   UNL     1     143.044 131.010  99.201  0.00  0.00    +0.000 HD
ATOM     21  H   UNL     1     147.614 132.304 100.690  0.00  0.00    +0.000 HD
ATOM     22  H   UNL     1     143.780 128.030 100.320  0.00  0.00    +0.000 HD
ENDROOT
TORSDOF 0
ENDMDL
MODEL 3
REMARK VINA RESULT:    -4.130      2.908      5.132
REMARK INTER + INTRA:          -4.130
REMARK INTER:                  -4.130
REMARK INTRA:                   0.000
REMARK UNBOUND:                 0.000
REMARK  Name = /home/vital/Documents/PhD_2021/Malaria_codes/scripts/../data/pdbqt_ligands/ligand_341_temp.pdb
REMARK                            x       y       z     vdW  Elec       q    Type
REMARK                         _______ _______ _______ _____ _____    ______ ____
ROOT
ATOM      1 CL1  UNL     1     138.205 127.418  98.050  0.00  0.00    -0.073 Cl
ATOM      2  C1  UNL     1     139.681 127.756  98.809  0.00  0.00    +0.105 C 
ATOM      3  C2  UNL     1     140.358 126.829  99.411  0.00  0.00    -0.073 C 
ATOM      4  C3  UNL     1     141.062 127.210 100.436  0.00  0.00    +0.104 C 
ATOM      5  N1  UNL     1     141.389 126.392 101.482  0.00  0.00    -0.297 N 
ATOM      6  C4  UNL     1     141.680 125.054 101.450  0.00  0.00    +0.086 C 
ATOM      7  N2  UNL     1     141.761 124.152 102.374  0.00  0.00    -0.247 NA
ATOM      8  C5  UNL     1     141.394 124.447 103.657  0.00  0.00    +0.037 C 
ATOM      9  C6  UNL     1     142.051 125.168 104.574  0.00  0.00    +0.008 C 
ATOM     10  C7  UNL     1     143.237 125.899 104.318  0.00  0.00    -0.052 C 
ATOM     11  C8  UNL     1     144.147 126.638 104.065  0.00  0.00    +0.000 C 
ATOM     12  N3  UNL     1     145.117 127.666 103.675  0.00  0.00    -0.302 N 
ATOM     13  C9  UNL     1     144.750 128.380 102.449  0.00  0.00    +0.043 C 
ATOM     14  C10 UNL     1     143.471 129.216 102.608  0.00  0.00    +0.091 C 
ATOM     15  O1  UNL     1     142.936 129.462 101.304  0.00  0.00    -0.272 OA
ATOM     16  N4  UNL     1     141.532 129.491 101.406  0.00  0.00    -0.262 N 
ATOM     17  C11 UNL     1     140.872 128.669 100.510  0.00  0.00    +0.111 C 
ATOM     18  C12 UNL     1     139.986 128.974  99.534  0.00  0.00    +0.095 C 
ATOM     19 CL2  UNL     1     139.393 130.515  99.150  0.00  0.00    -0.079 Cl
ATOM     20  H   UNL     1     141.420 126.818 102.368  0.00  0.00    +0.000 HD
ATOM     21  H   UNL     1     145.936 127.859 104.187  0.00  0.00    +0.000 HD
ATOM     22  H   UNL     1     141.058 130.050 102.062  0.00  0.00    +0.000 HD
ENDROOT
TORSDOF 0
ENDMDL
MODEL 4
REMARK VINA RESULT:    -4.067      3.071      4.985
REMARK INTER + INTRA:          -4.067
REMARK INTER:                  -4.067
REMARK INTRA:                   0.000
REMARK UNBOUND:                 0.000
REMARK  Name = /home/vital/Documents/PhD_2021/Malaria_codes/scripts/../data/pdbqt_ligands/ligand_341_temp.pdb
REMARK                            x       y       z     vdW  Elec       q    Type
REMARK                         _______ _______ _______ _____ _____    ______ ____
ROOT
ATOM      1 CL1  UNL     1     141.898 132.815  99.086  0.00  0.00    -0.073 Cl
ATOM      2  C1  UNL     1     141.685 131.585 100.232  0.00  0.00    +0.105 C 
ATOM      3  C2  UNL     1     142.672 131.157 100.954  0.00  0.00    -0.073 C 
ATOM      4  C3  UNL     1     142.626 129.904 101.299  0.00  0.00    +0.104 C 
ATOM      5  N1  UNL     1     143.732 129.146 101.566  0.00  0.00    -0.297 N 
ATOM      6  C4  UNL     1     144.902 129.536 102.161  0.00  0.00    +0.086 C 
ATOM      7  N2  UNL     1     146.070 128.988 102.241  0.00  0.00    -0.247 NA
ATOM      8  C5  UNL     1     146.347 127.850 101.536  0.00  0.00    +0.037 C 
ATOM      9  C6  UNL     1     145.955 126.594 101.782  0.00  0.00    +0.008 C 
ATOM     10  C7  UNL     1     145.029 126.227 102.790  0.00  0.00    -0.052 C 
ATOM     11  C8  UNL     1     144.134 125.936 103.534  0.00  0.00    +0.000 C 
ATOM     12  N3  UNL     1     142.915 125.653 104.298  0.00  0.00    -0.302 N 
ATOM     13  C9  UNL     1     141.840 126.620 104.059  0.00  0.00    +0.043 C 
ATOM     14  C10 UNL     1     141.310 126.576 102.618  0.00  0.00    +0.091 C 
ATOM     15  O1  UNL     1     140.654 127.819 102.348  0.00  0.00    -0.272 OA
ATOM     16  N4  UNL     1     140.856 128.134 100.991  0.00  0.00    -0.262 N 
ATOM     17  C11 UNL     1     141.348 129.405 100.761  0.00  0.00    +0.111 C 
ATOM     18  C12 UNL     1     140.813 130.438 100.071  0.00  0.00    +0.095 C 
ATOM     19 CL2  UNL     1     139.337 130.442  99.235  0.00  0.00    -0.079 Cl
ATOM     20  H   UNL     1     143.681 128.201 101.295  0.00  0.00    +0.000 HD
ATOM     21  H   UNL     1     142.827 124.888 104.911  0.00  0.00    +0.000 HD
ATOM     22  H   UNL     1     140.662 127.499 100.263  0.00  0.00    +0.000 HD
ENDROOT
TORSDOF 0
ENDMDL
MODEL 5
REMARK VINA RESULT:    -3.744      2.508      4.308
REMARK INTER + INTRA:          -3.744
REMARK INTER:                  -3.744
REMARK INTRA:                   0.000
REMARK UNBOUND:                 0.000
REMARK  Name = /home/vital/Documents/PhD_2021/Malaria_codes/scripts/../data/pdbqt_ligands/ligand_341_temp.pdb
REMARK                            x       y       z     vdW  Elec       q    Type
REMARK                         _______ _______ _______ _____ _____    ______ ____
ROOT
ATOM      1 CL1  UNL     1     141.155 126.836 102.224  0.00  0.00    -0.073 Cl
ATOM      2  C1  UNL     1     141.408 127.959 100.981  0.00  0.00    +0.105 C 
ATOM      3  C2  UNL     1     142.589 128.168 100.492  0.00  0.00    -0.073 C 
ATOM      4  C3  UNL     1     142.824 129.374 100.063  0.00  0.00    +0.104 C 
ATOM      5  N1  UNL     1     144.068 129.939 100.020  0.00  0.00    -0.297 N 
ATOM      6  C4  UNL     1     145.265 129.330  99.751  0.00  0.00    +0.086 C 
ATOM      7  N2  UNL     1     146.493 129.698  99.919  0.00  0.00    -0.247 NA
ATOM      8  C5  UNL     1     146.780 130.853 100.592  0.00  0.00    +0.037 C 
ATOM      9  C6  UNL     1     146.660 132.120 100.176  0.00  0.00    +0.008 C 
ATOM     10  C7  UNL     1     146.059 132.507  98.953  0.00  0.00    -0.052 C 
ATOM     11  C8  UNL     1     145.416 132.842  97.998  0.00  0.00    +0.000 C 
ATOM     12  N3  UNL     1     144.464 133.212  96.945  0.00  0.00    -0.302 N 
ATOM     13  C9  UNL     1     143.223 132.435  96.982  0.00  0.00    +0.043 C 
ATOM     14  C10 UNL     1     142.393 132.700  98.247  0.00  0.00    +0.091 C 
ATOM     15  O1  UNL     1     141.502 131.595  98.433  0.00  0.00    -0.272 OA
ATOM     16  N4  UNL     1     141.336 131.396  99.817  0.00  0.00    -0.262 N 
ATOM     17  C11 UNL     1     141.554 130.099 100.243  0.00  0.00    +0.111 C 
ATOM     18  C12 UNL     1     140.717 129.226 100.850  0.00  0.00    +0.095 C 
ATOM     19 CL2  UNL     1     139.109 129.515 101.305  0.00  0.00    -0.079 Cl
ATOM     20  H   UNL     1     144.109 130.904 100.207  0.00  0.00    +0.000 HD
ATOM     21  H   UNL     1     144.642 133.915  96.279  0.00  0.00    +0.000 HD
ATOM     22  H   UNL     1     141.086 132.123 100.432  0.00  0.00    +0.000 HD
ENDROOT
TORSDOF 0
ENDMDL
MODEL 6
REMARK VINA RESULT:    -3.614     14.349     16.645
REMARK INTER + INTRA:          -3.614
REMARK INTER:                  -3.614
REMARK INTRA:                   0.000
REMARK UNBOUND:                 0.000
REMARK  Name = /home/vital/Documents/PhD_2021/Malaria_codes/scripts/../data/pdbqt_ligands/ligand_341_temp.pdb
REMARK                            x       y       z     vdW  Elec       q    Type
REMARK                         _______ _______ _______ _____ _____    ______ ____
ROOT
ATOM      1 CL1  UNL     1     139.322 124.158  85.509  0.00  0.00    -0.073 Cl
ATOM      2  C1  UNL     1     138.085 124.024  86.658  0.00  0.00    +0.105 C 
ATOM      3  C2  UNL     1     137.252 123.031  86.640  0.00  0.00    -0.073 C 
ATOM      4  C3  UNL     1     136.051 123.285  87.070  0.00  0.00    +0.104 C 
ATOM      5  N1  UNL     1     134.936 122.606  86.661  0.00  0.00    -0.297 N 
ATOM      6  C4  UNL     1     134.823 121.279  86.343  0.00  0.00    +0.086 C 
ATOM      7  N2  UNL     1     133.910 120.600  85.729  0.00  0.00    -0.247 NA
ATOM      8  C5  UNL     1     132.859 121.240  85.135  0.00  0.00    +0.037 C 
ATOM      9  C6  UNL     1     131.784 121.799  85.705  0.00  0.00    +0.008 C 
ATOM     10  C7  UNL     1     131.608 121.951  87.104  0.00  0.00    -0.052 C 
ATOM     11  C8  UNL     1     131.530 122.218  88.270  0.00  0.00    +0.000 C 
ATOM     12  N3  UNL     1     131.566 122.698  89.655  0.00  0.00    -0.302 N 
ATOM     13  C9  UNL     1     132.860 123.265  90.043  0.00  0.00    +0.043 C 
ATOM     14  C10 UNL     1     133.203 124.547  89.270  0.00  0.00    +0.091 C 
ATOM     15  O1  UNL     1     134.619 124.743  89.341  0.00  0.00    -0.272 OA
ATOM     16  N4  UNL     1     135.039 125.335  88.135  0.00  0.00    -0.262 N 
ATOM     17  C11 UNL     1     136.091 124.690  87.512  0.00  0.00    +0.111 C 
ATOM     18  C12 UNL     1     137.332 125.135  87.206  0.00  0.00    +0.095 C 
ATOM     19 CL2  UNL     1     137.948 126.689  87.488  0.00  0.00    -0.079 Cl
ATOM     20  H   UNL     1     134.112 123.139  86.587  0.00  0.00    +0.000 HD
ATOM     21  H   UNL     1     130.795 122.644  90.265  0.00  0.00    +0.000 HD
ATOM     22  H   UNL     1     134.617 126.144  87.764  0.00  0.00    +0.000 HD
ENDROOT
TORSDOF 0
ENDMDL
MODEL 7
REMARK VINA RESULT:    -3.603     14.775     15.991
REMARK INTER + INTRA:          -3.603
REMARK INTER:                  -3.603
REMARK INTRA:                   0.000
REMARK UNBOUND:                 0.000
REMARK  Name = /home/vital/Documents/PhD_2021/Malaria_codes/scripts/../data/pdbqt_ligands/ligand_341_temp.pdb
REMARK                            x       y       z     vdW  Elec       q    Type
REMARK                         _______ _______ _______ _____ _____    ______ ____
ROOT
ATOM      1 CL1  UNL     1     130.351 124.273  87.251  0.00  0.00    -0.073 Cl
ATOM      2  C1  UNL     1     131.892 123.570  87.239  0.00  0.00    +0.105 C 
ATOM      3  C2  UNL     1     132.939 124.233  87.621  0.00  0.00    -0.073 C 
ATOM      4  C3  UNL     1     134.056 123.925  87.032  0.00  0.00    +0.104 C 
ATOM      5  N1  UNL     1     135.101 124.793  86.877  0.00  0.00    -0.297 N 
ATOM      6  C4  UNL     1     135.523 125.771  87.739  0.00  0.00    +0.086 C 
ATOM      7  N2  UNL     1     136.317 126.781  87.596  0.00  0.00    -0.247 NA
ATOM      8  C5  UNL     1     136.802 127.108  86.361  0.00  0.00    +0.037 C 
ATOM      9  C6  UNL     1     137.759 126.502  85.647  0.00  0.00    +0.008 C 
ATOM     10  C7  UNL     1     138.374 125.278  86.010  0.00  0.00    -0.052 C 
ATOM     11  C8  UNL     1     138.780 124.172  86.233  0.00  0.00    +0.000 C 
ATOM     12  N3  UNL     1     139.097 122.754  86.432  0.00  0.00    -0.302 N 
ATOM     13  C9  UNL     1     137.927 121.933  86.750  0.00  0.00    +0.043 C 
ATOM     14  C10 UNL     1     136.920 121.858  85.592  0.00  0.00    +0.091 C 
ATOM     15  O1  UNL     1     135.650 121.478  86.130  0.00  0.00    -0.272 OA
ATOM     16  N4  UNL     1     134.647 122.116  85.375  0.00  0.00    -0.262 N 
ATOM     17  C11 UNL     1     133.718 122.814  86.125  0.00  0.00    +0.111 C 
ATOM     18  C12 UNL     1     132.380 122.646  86.234  0.00  0.00    +0.095 C 
ATOM     19 CL2  UNL     1     131.432 121.503  85.416  0.00  0.00    -0.079 Cl
ATOM     20  H   UNL     1     135.614 124.705  86.042  0.00  0.00    +0.000 HD
ATOM     21  H   UNL     1     140.009 122.389  86.358  0.00  0.00    +0.000 HD
ATOM     22  H   UNL     1     134.611 122.069  84.393  0.00  0.00    +0.000 HD
ENDROOT
TORSDOF 0
ENDMDL
MODEL 8
REMARK VINA RESULT:    -3.538     14.807     16.787
REMARK INTER + INTRA:          -3.538
REMARK INTER:                  -3.538
REMARK INTRA:                   0.000
REMARK UNBOUND:                 0.000
REMARK  Name = /home/vital/Documents/PhD_2021/Malaria_codes/scripts/../data/pdbqt_ligands/ligand_341_temp.pdb
REMARK                            x       y       z     vdW  Elec       q    Type
REMARK                         _______ _______ _______ _____ _____    ______ ____
ROOT
ATOM      1 CL1  UNL     1     139.084 125.077  87.945  0.00  0.00    -0.073 Cl
ATOM      2  C1  UNL     1     137.788 124.341  87.140  0.00  0.00    +0.105 C 
ATOM      3  C2  UNL     1     136.560 124.606  87.456  0.00  0.00    -0.073 C 
ATOM      4  C3  UNL     1     135.707 123.637  87.298  0.00  0.00    +0.104 C 
ATOM      5  N1  UNL     1     134.557 123.508  88.025  0.00  0.00    -0.297 N 
ATOM      6  C4  UNL     1     133.737 124.499  88.495  0.00  0.00    +0.086 C 
ATOM      7  N2  UNL     1     132.788 124.509  89.373  0.00  0.00    -0.247 NA
ATOM      8  C5  UNL     1     132.539 123.398  90.130  0.00  0.00    +0.037 C 
ATOM      9  C6  UNL     1     131.934 122.258  89.774  0.00  0.00    +0.008 C 
ATOM     10  C7  UNL     1     131.548 121.937  88.449  0.00  0.00    -0.052 C 
ATOM     11  C8  UNL     1     131.363 121.601  87.312  0.00  0.00    +0.000 C 
ATOM     12  N3  UNL     1     131.340 121.154  85.916  0.00  0.00    -0.302 N 
ATOM     13  C9  UNL     1     132.562 121.483  85.178  0.00  0.00    +0.043 C 
ATOM     14  C10 UNL     1     133.797 120.742  85.712  0.00  0.00    +0.091 C 
ATOM     15  O1  UNL     1     134.962 121.457  85.290  0.00  0.00    -0.272 OA
ATOM     16  N4  UNL     1     135.939 121.333  86.296  0.00  0.00    -0.262 N 
ATOM     17  C11 UNL     1     136.489 122.531  86.717  0.00  0.00    +0.111 C 
ATOM     18  C12 UNL     1     137.768 122.968  86.674  0.00  0.00    +0.095 C 
ATOM     19 CL2  UNL     1     139.113 122.112  86.096  0.00  0.00    -0.079 Cl
ATOM     20  H   UNL     1     134.283 122.587  88.236  0.00  0.00    +0.000 HD
ATOM     21  H   UNL     1     130.578 120.679  85.513  0.00  0.00    +0.000 HD
ATOM     22  H   UNL     1     136.210 120.464  86.670  0.00  0.00    +0.000 HD
ENDROOT
TORSDOF 0
ENDMDL
