MODEL 1
REMARK VINA RESULT:    -5.425      0.000      0.000
REMARK INTER + INTRA:          -5.425
REMARK INTER:                  -5.425
REMARK INTRA:                   0.000
REMARK UNBOUND:                 0.000
REMARK  Name = /home/vital/Documents/PhD_2021/Malaria_codes/scripts/../data/pdbqt_ligands/ligand_263_temp.pdb
REMARK                            x       y       z     vdW  Elec       q    Type
REMARK                         _______ _______ _______ _____ _____    ______ ____
ROOT
ATOM      1  C1  UNL     1     142.308 126.300  93.057  0.00  0.00    -0.062 C 
ATOM      2  C2  UNL     1     141.929 126.172  94.526  0.00  0.00    -0.019 C 
ATOM      3  C3  UNL     1     141.276 127.444  95.076  0.00  0.00    +0.152 C 
ATOM      4  O1  UNL     1     142.208 128.518  94.951  0.00  0.00    -0.381 OA
ATOM      5  C4  UNL     1     140.793 127.214  96.520  0.00  0.00    +0.341 C 
ATOM      6  O2  UNL     1     140.391 126.147  96.968  0.00  0.00    -0.247 OA
ATOM      7  O3  UNL     1     140.847 128.429  97.199  0.00  0.00    -0.417 OA
ATOM      8  C5  UNL     1     140.318 128.324  98.486  0.00  0.00    +0.215 A 
ATOM      9  C6  UNL     1     138.959 128.578  98.685  0.00  0.00    +0.163 A 
ATOM     10  O4  UNL     1     138.180 128.899  97.610  0.00  0.00    -0.503 OA
ATOM     11  C7  UNL     1     138.415 128.499  99.964  0.00  0.00    -0.016 A 
ATOM     12  C8  UNL     1     139.241 128.175 101.043  0.00  0.00    -0.044 A 
ATOM     13  C9  UNL     1     140.609 127.936 100.838  0.00  0.00    +0.068 A 
ATOM     14  C10 UNL     1     141.488 127.602 101.973  0.00  0.00    +0.200 A 
ATOM     15  O5  UNL     1     141.035 127.540 103.110  0.00  0.00    -0.286 OA
ATOM     16  C11 UNL     1     142.925 127.362 101.658  0.00  0.00    +0.064 A 
ATOM     17  C12 UNL     1     143.910 126.989 102.691  0.00  0.00    -0.011 A 
ATOM     18  C13 UNL     1     145.133 127.673 102.805  0.00  0.00    -0.050 A 
ATOM     19  C14 UNL     1     146.068 127.310 103.779  0.00  0.00    -0.020 A 
ATOM     20  C15 UNL     1     145.780 126.262 104.645  0.00  0.00    +0.117 A 
ATOM     21  O6  UNL     1     146.662 125.875 105.610  0.00  0.00    -0.507 OA
ATOM     22  C16 UNL     1     144.576 125.577 104.556  0.00  0.00    -0.020 A 
ATOM     23  C17 UNL     1     143.642 125.941 103.583  0.00  0.00    -0.050 A 
ATOM     24  C18 UNL     1     143.291 127.471 100.371  0.00  0.00    +0.104 A 
ATOM     25  O7  UNL     1     142.485 127.798  99.309  0.00  0.00    -0.458 OA
ATOM     26  C19 UNL     1     141.155 128.014  99.559  0.00  0.00    +0.184 A 
ATOM     27  H   UNL     1     143.012 128.308  95.452  0.00  0.00    +0.000 HD
ATOM     28  H   UNL     1     138.560 128.948  96.755  0.00  0.00    +0.000 HD
ATOM     29  H   UNL     1     147.484 126.316 105.698  0.00  0.00    +0.000 HD
ENDROOT
TORSDOF 0
ENDMDL
MODEL 2
REMARK VINA RESULT:    -5.379      1.958      7.504
REMARK INTER + INTRA:          -5.379
REMARK INTER:                  -5.379
REMARK INTRA:                   0.000
REMARK UNBOUND:                 0.000
REMARK  Name = /home/vital/Documents/PhD_2021/Malaria_codes/scripts/../data/pdbqt_ligands/ligand_263_temp.pdb
REMARK                            x       y       z     vdW  Elec       q    Type
REMARK                         _______ _______ _______ _____ _____    ______ ____
ROOT
ATOM      1  C1  UNL     1     145.564 127.751 104.133  0.00  0.00    -0.062 C 
ATOM      2  C2  UNL     1     144.787 128.063 102.860  0.00  0.00    -0.019 C 
ATOM      3  C3  UNL     1     143.271 128.002 103.069  0.00  0.00    +0.152 C 
ATOM      4  O1  UNL     1     142.927 126.681 103.486  0.00  0.00    -0.381 OA
ATOM      5  C4  UNL     1     142.537 128.454 101.794  0.00  0.00    +0.341 C 
ATOM      6  O2  UNL     1     142.954 129.289 100.999  0.00  0.00    -0.247 OA
ATOM      7  O3  UNL     1     141.313 127.792 101.733  0.00  0.00    -0.417 OA
ATOM      8  C5  UNL     1     140.541 128.235 100.658  0.00  0.00    +0.215 A 
ATOM      9  C6  UNL     1     139.655 129.298 100.850  0.00  0.00    +0.163 A 
ATOM     10  O4  UNL     1     139.586 129.889 102.079  0.00  0.00    -0.503 OA
ATOM     11  C7  UNL     1     138.859 129.741  99.798  0.00  0.00    -0.016 A 
ATOM     12  C8  UNL     1     138.949 129.108  98.555  0.00  0.00    -0.044 A 
ATOM     13  C9  UNL     1     139.832 128.032  98.374  0.00  0.00    +0.068 A 
ATOM     14  C10 UNL     1     139.925 127.354  97.068  0.00  0.00    +0.200 A 
ATOM     15  O5  UNL     1     139.226 127.718  96.129  0.00  0.00    -0.286 OA
ATOM     16  C11 UNL     1     140.892 126.224  96.968  0.00  0.00    +0.064 A 
ATOM     17  C12 UNL     1     141.111 125.478  95.715  0.00  0.00    -0.011 A 
ATOM     18  C13 UNL     1     141.076 124.072  95.694  0.00  0.00    -0.050 A 
ATOM     19  C14 UNL     1     141.293 123.369  94.505  0.00  0.00    -0.020 A 
ATOM     20  C15 UNL     1     141.545 124.070  93.332  0.00  0.00    +0.117 A 
ATOM     21  O6  UNL     1     141.762 123.425  92.151  0.00  0.00    -0.507 OA
ATOM     22  C16 UNL     1     141.577 125.458  93.328  0.00  0.00    -0.020 A 
ATOM     23  C17 UNL     1     141.358 126.160  94.515  0.00  0.00    -0.050 A 
ATOM     24  C18 UNL     1     141.590 125.922  98.075  0.00  0.00    +0.104 A 
ATOM     25  O7  UNL     1     141.497 126.535  99.300  0.00  0.00    -0.458 OA
ATOM     26  C19 UNL     1     140.627 127.587  99.425  0.00  0.00    +0.184 A 
ATOM     27  H   UNL     1     143.199 126.046 102.805  0.00  0.00    +0.000 HD
ATOM     28  H   UNL     1     140.127 129.580 102.779  0.00  0.00    +0.000 HD
ATOM     29  H   UNL     1     141.747 122.489  92.119  0.00  0.00    +0.000 HD
ENDROOT
TORSDOF 0
ENDMDL
MODEL 3
REMARK VINA RESULT:    -5.263      4.985      7.551
REMARK INTER + INTRA:          -5.263
REMARK INTER:                  -5.263
REMARK INTRA:                   0.000
REMARK UNBOUND:                 0.000
REMARK  Name = /home/vital/Documents/PhD_2021/Malaria_codes/scripts/../data/pdbqt_ligands/ligand_263_temp.pdb
REMARK                            x       y       z     vdW  Elec       q    Type
REMARK                         _______ _______ _______ _____ _____    ______ ____
ROOT
ATOM      1  C1  UNL     1     145.999 125.367 103.245  0.00  0.00    -0.062 C 
ATOM      2  C2  UNL     1     145.354 126.716 102.953  0.00  0.00    -0.019 C 
ATOM      3  C3  UNL     1     144.064 126.585 102.138  0.00  0.00    +0.152 C 
ATOM      4  O1  UNL     1     144.380 125.966 100.892  0.00  0.00    -0.381 OA
ATOM      5  C4  UNL     1     143.386 127.959 101.988  0.00  0.00    +0.341 C 
ATOM      6  O2  UNL     1     143.429 128.861 102.816  0.00  0.00    -0.247 OA
ATOM      7  O3  UNL     1     142.684 127.973 100.784  0.00  0.00    -0.417 OA
ATOM      8  C5  UNL     1     141.950 129.149 100.630  0.00  0.00    +0.215 A 
ATOM      9  C6  UNL     1     140.632 129.194 101.091  0.00  0.00    +0.163 A 
ATOM     10  O4  UNL     1     140.106 128.092 101.702  0.00  0.00    -0.503 OA
ATOM     11  C7  UNL     1     139.875 130.350 100.928  0.00  0.00    -0.016 A 
ATOM     12  C8  UNL     1     140.442 131.458 100.290  0.00  0.00    -0.044 A 
ATOM     13  C9  UNL     1     141.762 131.400  99.817  0.00  0.00    +0.068 A 
ATOM     14  C10 UNL     1     142.363 132.562  99.136  0.00  0.00    +0.200 A 
ATOM     15  O5  UNL     1     141.712 133.587  98.969  0.00  0.00    -0.286 OA
ATOM     16  C11 UNL     1     143.770 132.410  98.670  0.00  0.00    +0.064 A 
ATOM     17  C12 UNL     1     144.505 133.501  98.004  0.00  0.00    -0.011 A 
ATOM     18  C13 UNL     1     145.187 133.281  96.794  0.00  0.00    -0.050 A 
ATOM     19  C14 UNL     1     145.890 134.315  96.170  0.00  0.00    -0.020 A 
ATOM     20  C15 UNL     1     145.912 135.576  96.754  0.00  0.00    +0.117 A 
ATOM     21  O6  UNL     1     146.585 136.614  96.180  0.00  0.00    -0.507 OA
ATOM     22  C16 UNL     1     145.240 135.819  97.945  0.00  0.00    -0.020 A 
ATOM     23  C17 UNL     1     144.536 134.785  98.567  0.00  0.00    -0.050 A 
ATOM     24  C18 UNL     1     144.365 131.230  98.910  0.00  0.00    +0.104 A 
ATOM     25  O7  UNL     1     143.809 130.137  99.527  0.00  0.00    -0.458 OA
ATOM     26  C19 UNL     1     142.520 130.245  99.979  0.00  0.00    +0.184 A 
ATOM     27  H   UNL     1     145.026 126.510 100.415  0.00  0.00    +0.000 HD
ATOM     28  H   UNL     1     140.628 127.320 101.806  0.00  0.00    +0.000 HD
ATOM     29  H   UNL     1     147.049 136.484  95.376  0.00  0.00    +0.000 HD
ENDROOT
TORSDOF 0
ENDMDL
MODEL 4
REMARK VINA RESULT:    -5.224      2.626      7.989
REMARK INTER + INTRA:          -5.224
REMARK INTER:                  -5.224
REMARK INTRA:                   0.000
REMARK UNBOUND:                 0.000
REMARK  Name = /home/vital/Documents/PhD_2021/Malaria_codes/scripts/../data/pdbqt_ligands/ligand_263_temp.pdb
REMARK                            x       y       z     vdW  Elec       q    Type
REMARK                         _______ _______ _______ _____ _____    ______ ____
ROOT
ATOM      1  C1  UNL     1     142.949 125.750 105.163  0.00  0.00    -0.062 C 
ATOM      2  C2  UNL     1     143.394 126.389 103.854  0.00  0.00    -0.019 C 
ATOM      3  C3  UNL     1     142.788 127.780 103.644  0.00  0.00    +0.152 C 
ATOM      4  O1  UNL     1     141.367 127.651 103.614  0.00  0.00    -0.381 OA
ATOM      5  C4  UNL     1     143.374 128.432 102.378  0.00  0.00    +0.341 C 
ATOM      6  O2  UNL     1     144.509 128.252 101.953  0.00  0.00    -0.247 OA
ATOM      7  O3  UNL     1     142.414 129.287 101.841  0.00  0.00    -0.417 OA
ATOM      8  C5  UNL     1     142.913 130.000 100.750  0.00  0.00    +0.215 A 
ATOM      9  C6  UNL     1     143.513 131.243 100.968  0.00  0.00    +0.163 A 
ATOM     10  O4  UNL     1     143.616 131.714 102.246  0.00  0.00    -0.503 OA
ATOM     11  C7  UNL     1     143.998 131.981  99.892  0.00  0.00    -0.016 A 
ATOM     12  C8  UNL     1     143.870 131.473  98.597  0.00  0.00    -0.044 A 
ATOM     13  C9  UNL     1     143.253 130.230  98.385  0.00  0.00    +0.068 A 
ATOM     14  C10 UNL     1     143.106 129.691  97.020  0.00  0.00    +0.200 A 
ATOM     15  O5  UNL     1     143.514 130.328  96.056  0.00  0.00    -0.286 OA
ATOM     16  C11 UNL     1     142.441 128.364  96.893  0.00  0.00    +0.064 A 
ATOM     17  C12 UNL     1     142.257 127.693  95.592  0.00  0.00    -0.011 A 
ATOM     18  C13 UNL     1     141.002 127.185  95.211  0.00  0.00    -0.050 A 
ATOM     19  C14 UNL     1     140.834 126.542  93.981  0.00  0.00    -0.020 A 
ATOM     20  C15 UNL     1     141.921 126.405  93.127  0.00  0.00    +0.117 A 
ATOM     21  O6  UNL     1     141.802 125.785  91.919  0.00  0.00    -0.507 OA
ATOM     22  C16 UNL     1     143.168 126.905  93.479  0.00  0.00    -0.020 A 
ATOM     23  C17 UNL     1     143.335 127.549  94.707  0.00  0.00    -0.050 A 
ATOM     24  C18 UNL     1     142.034 127.777  98.029  0.00  0.00    +0.104 A 
ATOM     25  O7  UNL     1     142.149 128.277  99.303  0.00  0.00    -0.458 OA
ATOM     26  C19 UNL     1     142.767 129.490  99.459  0.00  0.00    +0.184 A 
ATOM     27  H   UNL     1     141.111 127.059 102.889  0.00  0.00    +0.000 HD
ATOM     28  H   UNL     1     143.285 131.207 102.961  0.00  0.00    +0.000 HD
ATOM     29  H   UNL     1     140.975 125.437  91.650  0.00  0.00    +0.000 HD
ENDROOT
TORSDOF 0
ENDMDL
MODEL 5
REMARK VINA RESULT:    -5.194      9.409     14.914
REMARK INTER + INTRA:          -5.194
REMARK INTER:                  -5.194
REMARK INTRA:                   0.000
REMARK UNBOUND:                 0.000
REMARK  Name = /home/vital/Documents/PhD_2021/Malaria_codes/scripts/../data/pdbqt_ligands/ligand_263_temp.pdb
REMARK                            x       y       z     vdW  Elec       q    Type
REMARK                         _______ _______ _______ _____ _____    ______ ____
ROOT
ATOM      1  C1  UNL     1     141.380 127.210  92.194  0.00  0.00    -0.062 C 
ATOM      2  C2  UNL     1     140.525 126.254  91.372  0.00  0.00    -0.019 C 
ATOM      3  C3  UNL     1     140.202 126.806  89.980  0.00  0.00    +0.152 C 
ATOM      4  O1  UNL     1     139.478 128.026  90.136  0.00  0.00    -0.381 OA
ATOM      5  C4  UNL     1     139.453 125.750  89.147  0.00  0.00    +0.341 C 
ATOM      6  O2  UNL     1     139.609 124.538  89.240  0.00  0.00    -0.247 OA
ATOM      7  O3  UNL     1     138.617 126.410  88.249  0.00  0.00    -0.417 OA
ATOM      8  C5  UNL     1     137.986 125.518  87.382  0.00  0.00    +0.215 A 
ATOM      9  C6  UNL     1     138.599 125.202  86.167  0.00  0.00    +0.163 A 
ATOM     10  O4  UNL     1     139.811 125.757  85.872  0.00  0.00    -0.503 OA
ATOM     11  C7  UNL     1     137.977 124.331  85.277  0.00  0.00    -0.016 A 
ATOM     12  C8  UNL     1     136.732 123.787  85.606  0.00  0.00    -0.044 A 
ATOM     13  C9  UNL     1     136.116 124.120  86.822  0.00  0.00    +0.068 A 
ATOM     14  C10 UNL     1     134.800 123.556  87.172  0.00  0.00    +0.200 A 
ATOM     15  O5  UNL     1     134.226 122.797  86.400  0.00  0.00    -0.286 OA
ATOM     16  C11 UNL     1     134.224 123.964  88.485  0.00  0.00    +0.064 A 
ATOM     17  C12 UNL     1     132.931 123.452  88.976  0.00  0.00    -0.011 A 
ATOM     18  C13 UNL     1     131.941 124.328  89.455  0.00  0.00    -0.050 A 
ATOM     19  C14 UNL     1     130.720 123.838  89.928  0.00  0.00    -0.020 A 
ATOM     20  C15 UNL     1     130.484 122.468  89.921  0.00  0.00    +0.117 A 
ATOM     21  O6  UNL     1     129.308 121.946  90.373  0.00  0.00    -0.507 OA
ATOM     22  C16 UNL     1     131.445 121.585  89.445  0.00  0.00    -0.020 A 
ATOM     23  C17 UNL     1     132.664 122.075  88.971  0.00  0.00    -0.050 A 
ATOM     24  C18 UNL     1     134.953 124.809  89.232  0.00  0.00    +0.104 A 
ATOM     25  O7  UNL     1     136.171 125.353  88.908  0.00  0.00    -0.458 OA
ATOM     26  C19 UNL     1     136.737 124.991  87.713  0.00  0.00    +0.184 A 
ATOM     27  H   UNL     1     138.660 127.856  90.629  0.00  0.00    +0.000 HD
ATOM     28  H   UNL     1     140.219 126.342  86.481  0.00  0.00    +0.000 HD
ATOM     29  H   UNL     1     128.639 122.514  90.700  0.00  0.00    +0.000 HD
ENDROOT
TORSDOF 0
ENDMDL
MODEL 6
REMARK VINA RESULT:    -5.142      4.481      7.047
REMARK INTER + INTRA:          -5.142
REMARK INTER:                  -5.142
REMARK INTRA:                   0.000
REMARK UNBOUND:                 0.000
REMARK  Name = /home/vital/Documents/PhD_2021/Malaria_codes/scripts/../data/pdbqt_ligands/ligand_263_temp.pdb
REMARK                            x       y       z     vdW  Elec       q    Type
REMARK                         _______ _______ _______ _____ _____    ______ ____
ROOT
ATOM      1  C1  UNL     1     142.726 123.131  99.037  0.00  0.00    -0.062 C 
ATOM      2  C2  UNL     1     142.896 124.628  99.265  0.00  0.00    -0.019 C 
ATOM      3  C3  UNL     1     141.559 125.374  99.285  0.00  0.00    +0.152 C 
ATOM      4  O1  UNL     1     140.920 125.187  98.022  0.00  0.00    -0.381 OA
ATOM      5  C4  UNL     1     141.778 126.853  99.650  0.00  0.00    +0.341 C 
ATOM      6  O2  UNL     1     142.658 127.274 100.391  0.00  0.00    -0.247 OA
ATOM      7  O3  UNL     1     140.782 127.609  99.036  0.00  0.00    -0.417 OA
ATOM      8  C5  UNL     1     140.849 128.951  99.410  0.00  0.00    +0.215 A 
ATOM      9  C6  UNL     1     140.121 129.384 100.522  0.00  0.00    +0.163 A 
ATOM     10  O4  UNL     1     139.382 128.476 101.224  0.00  0.00    -0.503 OA
ATOM     11  C7  UNL     1     140.157 130.723 100.901  0.00  0.00    -0.016 A 
ATOM     12  C8  UNL     1     140.917 131.628 100.154  0.00  0.00    -0.044 A 
ATOM     13  C9  UNL     1     141.634 131.188  99.031  0.00  0.00    +0.068 A 
ATOM     14  C10 UNL     1     142.431 132.139  98.235  0.00  0.00    +0.200 A 
ATOM     15  O5  UNL     1     142.468 133.325  98.541  0.00  0.00    -0.286 OA
ATOM     16  C11 UNL     1     143.162 131.581  97.061  0.00  0.00    +0.064 A 
ATOM     17  C12 UNL     1     144.022 132.411  96.197  0.00  0.00    -0.011 A 
ATOM     18  C13 UNL     1     143.884 132.382  94.798  0.00  0.00    -0.050 A 
ATOM     19  C14 UNL     1     144.707 133.163  93.981  0.00  0.00    -0.020 A 
ATOM     20  C15 UNL     1     145.671 133.978  94.562  0.00  0.00    +0.117 A 
ATOM     21  O6  UNL     1     146.495 134.757  93.805  0.00  0.00    -0.507 OA
ATOM     22  C16 UNL     1     145.820 134.029  95.942  0.00  0.00    -0.020 A 
ATOM     23  C17 UNL     1     144.996 133.249  96.757  0.00  0.00    -0.050 A 
ATOM     24  C18 UNL     1     143.029 130.265  96.833  0.00  0.00    +0.104 A 
ATOM     25  O7  UNL     1     142.275 129.374  97.557  0.00  0.00    -0.458 OA
ATOM     26  C19 UNL     1     141.599 129.850  98.651  0.00  0.00    +0.184 A 
ATOM     27  H   UNL     1     141.489 125.534  97.317  0.00  0.00    +0.000 HD
ATOM     28  H   UNL     1     139.367 127.577 100.958  0.00  0.00    +0.000 HD
ATOM     29  H   UNL     1     146.420 134.747  92.871  0.00  0.00    +0.000 HD
ENDROOT
TORSDOF 0
ENDMDL
MODEL 7
REMARK VINA RESULT:    -4.912      4.543      6.748
REMARK INTER + INTRA:          -4.912
REMARK INTER:                  -4.912
REMARK INTRA:                   0.000
REMARK UNBOUND:                 0.000
REMARK  Name = /home/vital/Documents/PhD_2021/Malaria_codes/scripts/../data/pdbqt_ligands/ligand_263_temp.pdb
REMARK                            x       y       z     vdW  Elec       q    Type
REMARK                         _______ _______ _______ _____ _____    ______ ____
ROOT
ATOM      1  C1  UNL     1     138.340 128.538  98.288  0.00  0.00    -0.062 C 
ATOM      2  C2  UNL     1     138.819 128.297  99.713  0.00  0.00    -0.019 C 
ATOM      3  C3  UNL     1     140.208 127.653  99.764  0.00  0.00    +0.152 C 
ATOM      4  O1  UNL     1     140.145 126.393  99.098  0.00  0.00    -0.381 OA
ATOM      5  C4  UNL     1     140.699 127.556 101.220  0.00  0.00    +0.341 C 
ATOM      6  O2  UNL     1     140.424 128.349 102.112  0.00  0.00    -0.247 OA
ATOM      7  O3  UNL     1     141.539 126.449 101.326  0.00  0.00    -0.417 OA
ATOM      8  C5  UNL     1     142.113 126.359 102.595  0.00  0.00    +0.215 A 
ATOM      9  C6  UNL     1     143.342 126.980 102.831  0.00  0.00    +0.163 A 
ATOM     10  O4  UNL     1     143.936 127.679 101.820  0.00  0.00    -0.503 OA
ATOM     11  C7  UNL     1     143.942 126.885 104.083  0.00  0.00    -0.016 A 
ATOM     12  C8  UNL     1     143.311 126.154 105.094  0.00  0.00    -0.044 A 
ATOM     13  C9  UNL     1     142.083 125.521 104.845  0.00  0.00    +0.068 A 
ATOM     14  C10 UNL     1     141.416 124.742 105.903  0.00  0.00    +0.200 A 
ATOM     15  O5  UNL     1     141.931 124.633 107.010  0.00  0.00    -0.286 OA
ATOM     16  C11 UNL     1     140.115 124.107 105.548  0.00  0.00    +0.064 A 
ATOM     17  C12 UNL     1     139.324 123.327 106.519  0.00  0.00    -0.011 A 
ATOM     18  C13 UNL     1     138.840 122.048 106.195  0.00  0.00    -0.050 A 
ATOM     19  C14 UNL     1     138.082 121.315 107.114  0.00  0.00    -0.020 A 
ATOM     20  C15 UNL     1     137.808 121.861 108.362  0.00  0.00    +0.117 A 
ATOM     21  O6  UNL     1     137.074 121.182 109.289  0.00  0.00    -0.507 OA
ATOM     22  C16 UNL     1     138.282 123.120 108.706  0.00  0.00    -0.020 A 
ATOM     23  C17 UNL     1     139.040 123.850 107.788  0.00  0.00    -0.050 A 
ATOM     24  C18 UNL     1     139.667 124.300 104.297  0.00  0.00    +0.104 A 
ATOM     25  O7  UNL     1     140.289 125.008 103.299  0.00  0.00    -0.458 OA
ATOM     26  C19 UNL     1     141.481 125.615 103.593  0.00  0.00    +0.184 A 
ATOM     27  H   UNL     1     139.495 125.825  99.541  0.00  0.00    +0.000 HD
ATOM     28  H   UNL     1     143.520 127.736 100.982  0.00  0.00    +0.000 HD
ATOM     29  H   UNL     1     136.739 120.330 109.089  0.00  0.00    +0.000 HD
ENDROOT
TORSDOF 0
ENDMDL
MODEL 8
REMARK VINA RESULT:    -4.880      3.527      7.877
REMARK INTER + INTRA:          -4.880
REMARK INTER:                  -4.880
REMARK INTRA:                   0.000
REMARK UNBOUND:                 0.000
REMARK  Name = /home/vital/Documents/PhD_2021/Malaria_codes/scripts/../data/pdbqt_ligands/ligand_263_temp.pdb
REMARK                            x       y       z     vdW  Elec       q    Type
REMARK                         _______ _______ _______ _____ _____    ______ ____
ROOT
ATOM      1  C1  UNL     1     137.289 122.021 104.594  0.00  0.00    -0.062 C 
ATOM      2  C2  UNL     1     138.534 122.728 104.075  0.00  0.00    -0.019 C 
ATOM      3  C3  UNL     1     139.279 123.487 105.177  0.00  0.00    +0.152 C 
ATOM      4  O1  UNL     1     138.401 124.474 105.717  0.00  0.00    -0.381 OA
ATOM      5  C4  UNL     1     140.595 124.069 104.628  0.00  0.00    +0.341 C 
ATOM      6  O2  UNL     1     141.277 123.562 103.746  0.00  0.00    -0.247 OA
ATOM      7  O3  UNL     1     140.891 125.231 105.338  0.00  0.00    -0.417 OA
ATOM      8  C5  UNL     1     142.130 125.757 104.971  0.00  0.00    +0.215 A 
ATOM      9  C6  UNL     1     143.272 125.358 105.670  0.00  0.00    +0.163 A 
ATOM     10  O4  UNL     1     143.146 124.445 106.678  0.00  0.00    -0.503 OA
ATOM     11  C7  UNL     1     144.515 125.886 105.335  0.00  0.00    -0.016 A 
ATOM     12  C8  UNL     1     144.607 126.825 104.303  0.00  0.00    -0.044 A 
ATOM     13  C9  UNL     1     143.453 127.232 103.615  0.00  0.00    +0.068 A 
ATOM     14  C10 UNL     1     143.541 128.227 102.531  0.00  0.00    +0.200 A 
ATOM     15  O5  UNL     1     144.623 128.716 102.226  0.00  0.00    -0.286 OA
ATOM     16  C11 UNL     1     142.265 128.596 101.855  0.00  0.00    +0.064 A 
ATOM     17  C12 UNL     1     142.211 129.554 100.735  0.00  0.00    -0.011 A 
ATOM     18  C13 UNL     1     141.296 130.622 100.741  0.00  0.00    -0.050 A 
ATOM     19  C14 UNL     1     141.242 131.523  99.673  0.00  0.00    -0.020 A 
ATOM     20  C15 UNL     1     142.104 131.358  98.595  0.00  0.00    +0.117 A 
ATOM     21  O6  UNL     1     142.085 132.212  97.532  0.00  0.00    -0.507 OA
ATOM     22  C16 UNL     1     143.020 130.314  98.571  0.00  0.00    -0.020 A 
ATOM     23  C17 UNL     1     143.075 129.416  99.640  0.00  0.00    -0.050 A 
ATOM     24  C18 UNL     1     141.149 127.991 102.293  0.00  0.00    +0.104 A 
ATOM     25  O7  UNL     1     141.053 127.076 103.313  0.00  0.00    -0.458 OA
ATOM     26  C19 UNL     1     142.209 126.704 103.949  0.00  0.00    +0.184 A 
ATOM     27  H   UNL     1     138.128 125.084 105.014  0.00  0.00    +0.000 HD
ATOM     28  H   UNL     1     142.303 124.097 106.893  0.00  0.00    +0.000 HD
ATOM     29  H   UNL     1     141.479 132.927  97.517  0.00  0.00    +0.000 HD
ENDROOT
TORSDOF 0
ENDMDL
MODEL 9
REMARK VINA RESULT:    -4.809      5.555      8.744
REMARK INTER + INTRA:          -4.809
REMARK INTER:                  -4.809
REMARK INTRA:                   0.000
REMARK UNBOUND:                 0.000
REMARK  Name = /home/vital/Documents/PhD_2021/Malaria_codes/scripts/../data/pdbqt_ligands/ligand_263_temp.pdb
REMARK                            x       y       z     vdW  Elec       q    Type
REMARK                         _______ _______ _______ _____ _____    ______ ____
ROOT
ATOM      1  C1  UNL     1     138.280 128.005  98.857  0.00  0.00    -0.062 C 
ATOM      2  C2  UNL     1     139.739 128.398  98.670  0.00  0.00    -0.019 C 
ATOM      3  C3  UNL     1     140.143 129.585  99.549  0.00  0.00    +0.152 C 
ATOM      4  O1  UNL     1     139.333 130.705  99.194  0.00  0.00    -0.381 OA
ATOM      5  C4  UNL     1     141.654 129.854  99.422  0.00  0.00    +0.341 C 
ATOM      6  O2  UNL     1     142.508 129.000  99.218  0.00  0.00    -0.247 OA
ATOM      7  O3  UNL     1     141.877 131.214  99.626  0.00  0.00    -0.417 OA
ATOM      8  C5  UNL     1     143.238 131.518  99.636  0.00  0.00    +0.215 A 
ATOM      9  C6  UNL     1     143.932 131.494 100.848  0.00  0.00    +0.163 A 
ATOM     10  O4  UNL     1     143.262 131.151 101.988  0.00  0.00    -0.503 OA
ATOM     11  C7  UNL     1     145.286 131.814 100.884  0.00  0.00    -0.016 A 
ATOM     12  C8  UNL     1     145.939 132.168  99.700  0.00  0.00    -0.044 A 
ATOM     13  C9  UNL     1     145.233 132.203  98.488  0.00  0.00    +0.068 A 
ATOM     14  C10 UNL     1     145.913 132.583  97.237  0.00  0.00    +0.200 A 
ATOM     15  O5  UNL     1     147.102 132.882  97.244  0.00  0.00    -0.286 OA
ATOM     16  C11 UNL     1     145.084 132.590  95.999  0.00  0.00    +0.064 A 
ATOM     17  C12 UNL     1     145.642 132.920  94.674  0.00  0.00    -0.011 A 
ATOM     18  C13 UNL     1     145.017 133.864  93.840  0.00  0.00    -0.050 A 
ATOM     19  C14 UNL     1     145.544 134.167  92.581  0.00  0.00    -0.020 A 
ATOM     20  C15 UNL     1     146.701 133.527  92.152  0.00  0.00    +0.117 A 
ATOM     21  O6  UNL     1     147.249 133.791  90.932  0.00  0.00    -0.507 OA
ATOM     22  C16 UNL     1     147.339 132.596  92.962  0.00  0.00    -0.020 A 
ATOM     23  C17 UNL     1     146.812 132.295  94.220  0.00  0.00    -0.050 A 
ATOM     24  C18 UNL     1     143.792 132.251  96.132  0.00  0.00    +0.104 A 
ATOM     25  O7  UNL     1     143.144 131.912  97.294  0.00  0.00    -0.458 OA
ATOM     26  C19 UNL     1     143.878 131.883  98.451  0.00  0.00    +0.184 A 
ATOM     27  H   UNL     1     139.469 130.919  98.258  0.00  0.00    +0.000 HD
ATOM     28  H   UNL     1     142.350 130.938 101.949  0.00  0.00    +0.000 HD
ATOM     29  H   UNL     1     146.844 134.414  90.362  0.00  0.00    +0.000 HD
ENDROOT
TORSDOF 0
ENDMDL
