MODEL 1
REMARK VINA RESULT:    -4.601      0.000      0.000
REMARK INTER + INTRA:          -4.601
REMARK INTER:                  -4.601
REMARK INTRA:                   0.000
REMARK UNBOUND:                 0.000
REMARK  Name = /home/vital/Documents/PhD_2021/Malaria_codes/scripts/../data/pdbqt_ligands/ligand_362_temp.pdb
REMARK                            x       y       z     vdW  Elec       q    Type
REMARK                         _______ _______ _______ _____ _____    ______ ____
ROOT
ATOM      1  N   UNL     1     145.274 134.816  96.700  0.00  0.00    -0.327 N 
ATOM      2  C   UNL     1     145.018 134.694  98.124  0.00  0.00    +0.012 C 
ATOM      3  C   UNL     1     143.897 133.734  98.365  0.00  0.00    -0.073 C 
ATOM      4  C   UNL     1     144.024 132.586  99.055  0.00  0.00    -0.065 C 
ATOM      5  C   UNL     1     142.895 131.615  99.326  0.00  0.00    +0.062 C 
ATOM      6  C   UNL     1     142.712 131.492 100.854  0.00  0.00    +0.064 C 
ATOM      7  N   UNL     1     141.465 130.798 101.164  0.00  0.00    -0.267 N 
ATOM      8  C   UNL     1     141.406 129.539 100.905  0.00  0.00    +0.129 C 
ATOM      9  C   UNL     1     140.108 128.796 101.200  0.00  0.00    +0.026 C 
ATOM     10  C   UNL     1     139.216 128.873  99.995  0.00  0.00    -0.066 C 
ATOM     11  C   UNL     1     138.930 127.825  99.217  0.00  0.00    +0.001 C 
ATOM     12 CL   UNL     1     137.919 127.944  97.841  0.00  0.00    -0.092 Cl
ATOM     13  N   UNL     1     142.394 128.753 100.382  0.00  0.00    -0.225 NA
ATOM     14  C   UNL     1     143.104 129.135  99.380  0.00  0.00    +0.086 C 
ATOM     15  N   UNL     1     143.234 130.328  98.708  0.00  0.00    -0.311 N 
ATOM     16  C   UNL     1     143.447 130.304  97.249  0.00  0.00    +0.037 C 
ATOM     17  C   UNL     1     144.927 130.135  96.880  0.00  0.00    +0.060 C 
ATOM     18  O   UNL     1     145.345 128.782  97.049  0.00  0.00    -0.393 OA
ATOM     19  H   UNL     1     146.039 135.472  96.547  0.00  0.00    +0.000 HD
ATOM     20  H   UNL     1     144.435 135.158  96.232  0.00  0.00    +0.000 HD
ATOM     21  H   UNL     1     145.527 133.904  96.321  0.00  0.00    +0.000 HD
ATOM     22  H   UNL     1     140.698 131.276 101.556  0.00  0.00    +0.000 HD
ATOM     23  H   UNL     1     145.234 128.523  97.977  0.00  0.00    +0.000 HD
ENDROOT
TORSDOF 0
ENDMDL
MODEL 2
REMARK VINA RESULT:    -4.435      2.136      2.446
REMARK INTER + INTRA:          -4.435
REMARK INTER:                  -4.435
REMARK INTRA:                   0.000
REMARK UNBOUND:                 0.000
REMARK  Name = /home/vital/Documents/PhD_2021/Malaria_codes/scripts/../data/pdbqt_ligands/ligand_362_temp.pdb
REMARK                            x       y       z     vdW  Elec       q    Type
REMARK                         _______ _______ _______ _____ _____    ______ ____
ROOT
ATOM      1  N   UNL     1     145.767 134.459  97.932  0.00  0.00    -0.327 N 
ATOM      2  C   UNL     1     144.368 134.667  98.263  0.00  0.00    +0.012 C 
ATOM      3  C   UNL     1     143.628 133.368  98.204  0.00  0.00    -0.073 C 
ATOM      4  C   UNL     1     143.015 132.803  99.260  0.00  0.00    -0.065 C 
ATOM      5  C   UNL     1     142.243 131.502  99.212  0.00  0.00    +0.062 C 
ATOM      6  C   UNL     1     140.783 131.783  99.624  0.00  0.00    +0.064 C 
ATOM      7  N   UNL     1     139.937 130.632  99.324  0.00  0.00    -0.267 N 
ATOM      8  C   UNL     1     140.093 129.576 100.043  0.00  0.00    +0.129 C 
ATOM      9  C   UNL     1     139.238 128.353  99.735  0.00  0.00    +0.026 C 
ATOM     10  C   UNL     1     139.941 127.508  98.713  0.00  0.00    -0.066 C 
ATOM     11  C   UNL     1     140.476 126.314  98.982  0.00  0.00    +0.001 C 
ATOM     12 CL   UNL     1     141.284 125.376  97.799  0.00  0.00    -0.092 Cl
ATOM     13  N   UNL     1     140.959 129.405 101.086  0.00  0.00    -0.225 NA
ATOM     14  C   UNL     1     142.184 129.791 101.020  0.00  0.00    +0.086 C 
ATOM     15  N   UNL     1     142.895 130.546 100.115  0.00  0.00    -0.311 N 
ATOM     16  C   UNL     1     144.300 130.193  99.843  0.00  0.00    +0.037 C 
ATOM     17  C   UNL     1     145.264 130.820 100.859  0.00  0.00    +0.060 C 
ATOM     18  O   UNL     1     145.238 130.109 102.095  0.00  0.00    -0.393 OA
ATOM     19  H   UNL     1     146.262 135.350  97.975  0.00  0.00    +0.000 HD
ATOM     20  H   UNL     1     145.840 134.075  96.991  0.00  0.00    +0.000 HD
ATOM     21  H   UNL     1     146.181 133.808  98.599  0.00  0.00    +0.000 HD
ATOM     22  H   UNL     1     139.272 130.662  98.598  0.00  0.00    +0.000 HD
ATOM     23  H   UNL     1     144.343 130.142 102.468  0.00  0.00    +0.000 HD
ENDROOT
TORSDOF 0
ENDMDL
MODEL 3
REMARK VINA RESULT:    -4.336      3.783      4.904
REMARK INTER + INTRA:          -4.336
REMARK INTER:                  -4.336
REMARK INTRA:                   0.000
REMARK UNBOUND:                 0.000
REMARK  Name = /home/vital/Documents/PhD_2021/Malaria_codes/scripts/../data/pdbqt_ligands/ligand_362_temp.pdb
REMARK                            x       y       z     vdW  Elec       q    Type
REMARK                         _______ _______ _______ _____ _____    ______ ____
ROOT
ATOM      1  N   UNL     1     141.321 133.708  99.244  0.00  0.00    -0.327 N 
ATOM      2  C   UNL     1     142.511 132.883  99.124  0.00  0.00    +0.012 C 
ATOM      3  C   UNL     1     142.517 131.833 100.189  0.00  0.00    -0.073 C 
ATOM      4  C   UNL     1     142.491 130.510  99.942  0.00  0.00    -0.065 C 
ATOM      5  C   UNL     1     142.520 129.435 101.007  0.00  0.00    +0.062 C 
ATOM      6  C   UNL     1     143.776 128.565 100.790  0.00  0.00    +0.064 C 
ATOM      7  N   UNL     1     144.004 127.701 101.944  0.00  0.00    -0.267 N 
ATOM      8  C   UNL     1     143.181 126.729 102.131  0.00  0.00    +0.129 C 
ATOM      9  C   UNL     1     143.383 125.825 103.340  0.00  0.00    +0.026 C 
ATOM     10  C   UNL     1     142.642 126.402 104.512  0.00  0.00    -0.066 C 
ATOM     11  C   UNL     1     141.548 125.847 105.041  0.00  0.00    +0.001 C 
ATOM     12 CL   UNL     1     140.715 126.534 106.370  0.00  0.00    -0.092 Cl
ATOM     13  N   UNL     1     142.109 126.390 101.353  0.00  0.00    -0.225 NA
ATOM     14  C   UNL     1     141.286 127.275 100.912  0.00  0.00    +0.086 C 
ATOM     15  N   UNL     1     141.284 128.651 100.904  0.00  0.00    -0.311 N 
ATOM     16  C   UNL     1     140.004 129.362 101.081  0.00  0.00    +0.037 C 
ATOM     17  C   UNL     1     139.243 129.527  99.759  0.00  0.00    +0.060 C 
ATOM     18  O   UNL     1     138.610 128.308  99.377  0.00  0.00    -0.393 OA
ATOM     19  H   UNL     1     141.327 134.420  98.515  0.00  0.00    +0.000 HD
ATOM     20  H   UNL     1     141.311 134.159 100.159  0.00  0.00    +0.000 HD
ATOM     21  H   UNL     1     140.491 133.125  99.144  0.00  0.00    +0.000 HD
ATOM     22  H   UNL     1     144.759 127.855 102.558  0.00  0.00    +0.000 HD
ATOM     23  H   UNL     1     139.282 127.619  99.254  0.00  0.00    +0.000 HD
ENDROOT
TORSDOF 0
ENDMDL
MODEL 4
REMARK VINA RESULT:    -4.251      3.276      3.868
REMARK INTER + INTRA:          -4.251
REMARK INTER:                  -4.251
REMARK INTRA:                   0.000
REMARK UNBOUND:                 0.000
REMARK  Name = /home/vital/Documents/PhD_2021/Malaria_codes/scripts/../data/pdbqt_ligands/ligand_362_temp.pdb
REMARK                            x       y       z     vdW  Elec       q    Type
REMARK                         _______ _______ _______ _____ _____    ______ ____
ROOT
ATOM      1  N   UNL     1     147.300 130.769 101.526  0.00  0.00    -0.327 N 
ATOM      2  C   UNL     1     146.280 131.738 101.165  0.00  0.00    +0.012 C 
ATOM      3  C   UNL     1     145.124 131.049 100.513  0.00  0.00    -0.073 C 
ATOM      4  C   UNL     1     143.873 131.041 101.010  0.00  0.00    -0.065 C 
ATOM      5  C   UNL     1     142.689 130.368 100.350  0.00  0.00    +0.062 C 
ATOM      6  C   UNL     1     141.624 131.441 100.043  0.00  0.00    +0.064 C 
ATOM      7  N   UNL     1     140.595 130.901  99.159  0.00  0.00    -0.267 N 
ATOM      8  C   UNL     1     139.788 130.028  99.651  0.00  0.00    +0.129 C 
ATOM      9  C   UNL     1     138.718 129.433  98.744  0.00  0.00    +0.026 C 
ATOM     10  C   UNL     1     139.279 128.221  98.056  0.00  0.00    -0.066 C 
ATOM     11  C   UNL     1     138.887 126.972  98.323  0.00  0.00    +0.001 C 
ATOM     12 CL   UNL     1     139.552 125.607  97.532  0.00  0.00    -0.092 Cl
ATOM     13  N   UNL     1     139.765 129.549 100.931  0.00  0.00    -0.225 NA
ATOM     14  C   UNL     1     140.842 129.201 101.543  0.00  0.00    +0.086 C 
ATOM     15  N   UNL     1     142.181 129.333 101.258  0.00  0.00    -0.311 N 
ATOM     16  C   UNL     1     143.102 128.247 101.644  0.00  0.00    +0.037 C 
ATOM     17  C   UNL     1     143.576 128.376 103.098  0.00  0.00    +0.060 C 
ATOM     18  O   UNL     1     142.562 127.954 104.007  0.00  0.00    -0.393 OA
ATOM     19  H   UNL     1     148.083 131.249 101.969  0.00  0.00    +0.000 HD
ATOM     20  H   UNL     1     147.627 130.292 100.686  0.00  0.00    +0.000 HD
ATOM     21  H   UNL     1     146.908 130.087 102.174  0.00  0.00    +0.000 HD
ATOM     22  H   UNL     1     140.521 131.194  98.222  0.00  0.00    +0.000 HD
ATOM     23  H   UNL     1     141.775 128.511 103.896  0.00  0.00    +0.000 HD
ENDROOT
TORSDOF 0
ENDMDL
MODEL 5
REMARK VINA RESULT:    -4.106      3.087      3.572
REMARK INTER + INTRA:          -4.106
REMARK INTER:                  -4.106
REMARK INTRA:                   0.000
REMARK UNBOUND:                 0.000
REMARK  Name = /home/vital/Documents/PhD_2021/Malaria_codes/scripts/../data/pdbqt_ligands/ligand_362_temp.pdb
REMARK                            x       y       z     vdW  Elec       q    Type
REMARK                         _______ _______ _______ _____ _____    ______ ____
ROOT
ATOM      1  N   UNL     1     143.478 134.366  97.983  0.00  0.00    -0.327 N 
ATOM      2  C   UNL     1     142.280 133.983  98.709  0.00  0.00    +0.012 C 
ATOM      3  C   UNL     1     142.261 132.503  98.926  0.00  0.00    -0.073 C 
ATOM      4  C   UNL     1     142.273 131.920 100.139  0.00  0.00    -0.065 C 
ATOM      5  C   UNL     1     142.231 130.426 100.375  0.00  0.00    +0.062 C 
ATOM      6  C   UNL     1     140.966 130.096 101.194  0.00  0.00    +0.064 C 
ATOM      7  N   UNL     1     140.727 128.655 101.207  0.00  0.00    -0.267 N 
ATOM      8  C   UNL     1     141.540 127.924 101.887  0.00  0.00    +0.129 C 
ATOM      9  C   UNL     1     141.326 126.416 101.898  0.00  0.00    +0.026 C 
ATOM     10  C   UNL     1     142.073 125.807 100.747  0.00  0.00    -0.066 C 
ATOM     11  C   UNL     1     143.160 125.044 100.890  0.00  0.00    +0.001 C 
ATOM     12 CL   UNL     1     143.999 124.372  99.558  0.00  0.00    -0.092 Cl
ATOM     13  N   UNL     1     142.608 128.343 102.629  0.00  0.00    -0.225 NA
ATOM     14  C   UNL     1     143.441 129.216 102.184  0.00  0.00    +0.086 C 
ATOM     15  N   UNL     1     143.459 130.036 101.079  0.00  0.00    -0.311 N 
ATOM     16  C   UNL     1     144.746 130.305 100.412  0.00  0.00    +0.037 C 
ATOM     17  C   UNL     1     145.510 131.463 101.067  0.00  0.00    +0.060 C 
ATOM     18  O   UNL     1     146.130 131.045 102.282  0.00  0.00    -0.393 OA
ATOM     19  H   UNL     1     143.482 135.375  97.840  0.00  0.00    +0.000 HD
ATOM     20  H   UNL     1     143.493 133.895  97.078  0.00  0.00    +0.000 HD
ATOM     21  H   UNL     1     144.302 134.096  98.520  0.00  0.00    +0.000 HD
ATOM     22  H   UNL     1     139.974 128.257 100.713  0.00  0.00    +0.000 HD
ATOM     23  H   UNL     1     145.451 130.742 102.904  0.00  0.00    +0.000 HD
ENDROOT
TORSDOF 0
ENDMDL
MODEL 6
REMARK VINA RESULT:    -4.074      2.264      2.617
REMARK INTER + INTRA:          -4.074
REMARK INTER:                  -4.074
REMARK INTRA:                   0.000
REMARK UNBOUND:                 0.000
REMARK  Name = /home/vital/Documents/PhD_2021/Malaria_codes/scripts/../data/pdbqt_ligands/ligand_362_temp.pdb
REMARK                            x       y       z     vdW  Elec       q    Type
REMARK                         _______ _______ _______ _____ _____    ______ ____
ROOT
ATOM      1  N   UNL     1     147.233 133.810  95.663  0.00  0.00    -0.327 N 
ATOM      2  C   UNL     1     146.070 134.502  96.189  0.00  0.00    +0.012 C 
ATOM      3  C   UNL     1     145.078 133.515  96.716  0.00  0.00    -0.073 C 
ATOM      4  C   UNL     1     144.687 133.454  98.002  0.00  0.00    -0.065 C 
ATOM      5  C   UNL     1     143.669 132.476  98.547  0.00  0.00    +0.062 C 
ATOM      6  C   UNL     1     142.488 133.276  99.136  0.00  0.00    +0.064 C 
ATOM      7  N   UNL     1     141.360 132.392  99.414  0.00  0.00    -0.267 N 
ATOM      8  C   UNL     1     141.481 131.564 100.392  0.00  0.00    +0.129 C 
ATOM      9  C   UNL     1     140.327 130.615 100.689  0.00  0.00    +0.026 C 
ATOM     10  C   UNL     1     140.502 129.362  99.880  0.00  0.00    -0.066 C 
ATOM     11  C   UNL     1     140.816 128.177 100.411  0.00  0.00    +0.001 C 
ATOM     12 CL   UNL     1     141.023 126.766  99.463  0.00  0.00    -0.092 Cl
ATOM     13  N   UNL     1     142.551 131.422 101.230  0.00  0.00    -0.225 NA
ATOM     14  C   UNL     1     143.759 131.395 100.788  0.00  0.00    +0.086 C 
ATOM     15  N   UNL     1     144.326 131.641  99.559  0.00  0.00    -0.311 N 
ATOM     16  C   UNL     1     145.480 130.828  99.132  0.00  0.00    +0.037 C 
ATOM     17  C   UNL     1     146.809 131.383  99.662  0.00  0.00    +0.060 C 
ATOM     18  O   UNL     1     146.985 131.062 101.041  0.00  0.00    -0.393 OA
ATOM     19  H   UNL     1     147.902 134.491  95.306  0.00  0.00    +0.000 HD
ATOM     20  H   UNL     1     146.945 133.188  94.907  0.00  0.00    +0.000 HD
ATOM     21  H   UNL     1     147.668 133.263  96.405  0.00  0.00    +0.000 HD
ATOM     22  H   UNL     1     140.537 132.427  98.873  0.00  0.00    +0.000 HD
ATOM     23  H   UNL     1     146.266 131.456 101.559  0.00  0.00    +0.000 HD
ENDROOT
TORSDOF 0
ENDMDL
MODEL 7
REMARK VINA RESULT:    -3.916      3.928      5.168
REMARK INTER + INTRA:          -3.916
REMARK INTER:                  -3.916
REMARK INTRA:                   0.000
REMARK UNBOUND:                 0.000
REMARK  Name = /home/vital/Documents/PhD_2021/Malaria_codes/scripts/../data/pdbqt_ligands/ligand_362_temp.pdb
REMARK                            x       y       z     vdW  Elec       q    Type
REMARK                         _______ _______ _______ _____ _____    ______ ____
ROOT
ATOM      1  N   UNL     1     141.380 132.081  99.179  0.00  0.00    -0.327 N 
ATOM      2  C   UNL     1     142.380 131.743 100.177  0.00  0.00    +0.012 C 
ATOM      3  C   UNL     1     141.848 130.695 101.103  0.00  0.00    -0.073 C 
ATOM      4  C   UNL     1     142.385 129.469 101.241  0.00  0.00    -0.065 C 
ATOM      5  C   UNL     1     141.873 128.407 102.189  0.00  0.00    +0.062 C 
ATOM      6  C   UNL     1     142.998 128.057 103.186  0.00  0.00    +0.064 C 
ATOM      7  N   UNL     1     142.472 127.256 104.288  0.00  0.00    -0.267 N 
ATOM      8  C   UNL     1     142.122 126.045 104.028  0.00  0.00    +0.129 C 
ATOM      9  C   UNL     1     141.551 125.195 105.155  0.00  0.00    +0.026 C 
ATOM     10  C   UNL     1     140.063 125.392 105.211  0.00  0.00    -0.066 C 
ATOM     11  C   UNL     1     139.179 124.451 104.869  0.00  0.00    +0.001 C 
ATOM     12 CL   UNL     1     137.487 124.707 104.931  0.00  0.00    -0.092 Cl
ATOM     13  N   UNL     1     142.201 125.400 102.825  0.00  0.00    -0.225 NA
ATOM     14  C   UNL     1     141.828 125.961 101.730  0.00  0.00    +0.086 C 
ATOM     15  N   UNL     1     141.457 127.243 101.398  0.00  0.00    -0.311 N 
ATOM     16  C   UNL     1     140.393 127.440 100.396  0.00  0.00    +0.037 C 
ATOM     17  C   UNL     1     140.933 127.410  98.960  0.00  0.00    +0.060 C 
ATOM     18  O   UNL     1     141.198 126.073  98.540  0.00  0.00    -0.393 OA
ATOM     19  H   UNL     1     141.752 132.795  98.553  0.00  0.00    +0.000 HD
ATOM     20  H   UNL     1     140.545 132.438  99.642  0.00  0.00    +0.000 HD
ATOM     21  H   UNL     1     141.141 131.249  98.641  0.00  0.00    +0.000 HD
ATOM     22  H   UNL     1     142.389 127.628 105.196  0.00  0.00    +0.000 HD
ATOM     23  H   UNL     1     141.866 125.678  99.122  0.00  0.00    +0.000 HD
ENDROOT
TORSDOF 0
ENDMDL
MODEL 8
REMARK VINA RESULT:    -3.814      3.588      6.454
REMARK INTER + INTRA:          -3.814
REMARK INTER:                  -3.814
REMARK INTRA:                   0.000
REMARK UNBOUND:                 0.000
REMARK  Name = /home/vital/Documents/PhD_2021/Malaria_codes/scripts/../data/pdbqt_ligands/ligand_362_temp.pdb
REMARK                            x       y       z     vdW  Elec       q    Type
REMARK                         _______ _______ _______ _____ _____    ______ ____
ROOT
ATOM      1  N   UNL     1     141.033 123.194  98.360  0.00  0.00    -0.327 N 
ATOM      2  C   UNL     1     141.220 123.663  99.722  0.00  0.00    +0.012 C 
ATOM      3  C   UNL     1     141.863 125.014  99.716  0.00  0.00    -0.073 C 
ATOM      4  C   UNL     1     141.287 126.123 100.213  0.00  0.00    -0.065 C 
ATOM      5  C   UNL     1     141.932 127.492 100.236  0.00  0.00    +0.062 C 
ATOM      6  C   UNL     1     142.053 127.952 101.704  0.00  0.00    +0.064 C 
ATOM      7  N   UNL     1     142.917 129.125 101.802  0.00  0.00    -0.267 N 
ATOM      8  C   UNL     1     142.466 130.236 101.334  0.00  0.00    +0.129 C 
ATOM      9  C   UNL     1     143.357 131.470 101.405  0.00  0.00    +0.026 C 
ATOM     10  C   UNL     1     144.204 131.534 100.166  0.00  0.00    -0.066 C 
ATOM     11  C   UNL     1     144.044 132.449  99.207  0.00  0.00    +0.001 C 
ATOM     12 CL   UNL     1     145.016 132.491  97.798  0.00  0.00    -0.092 Cl
ATOM     13  N   UNL     1     141.245 130.460 100.763  0.00  0.00    -0.225 NA
ATOM     14  C   UNL     1     140.746 129.654  99.893  0.00  0.00    +0.086 C 
ATOM     15  N   UNL     1     141.105 128.406  99.439  0.00  0.00    -0.311 N 
ATOM     16  C   UNL     1     140.897 128.079  98.016  0.00  0.00    +0.037 C 
ATOM     17  C   UNL     1     139.474 127.581  97.736  0.00  0.00    +0.060 C 
ATOM     18  O   UNL     1     138.548 128.665  97.709  0.00  0.00    -0.393 OA
ATOM     19  H   UNL     1     140.595 122.273  98.375  0.00  0.00    +0.000 HD
ATOM     20  H   UNL     1     141.938 123.131  97.895  0.00  0.00    +0.000 HD
ATOM     21  H   UNL     1     140.435 123.847  97.855  0.00  0.00    +0.000 HD
ATOM     22  H   UNL     1     143.812 129.068 102.210  0.00  0.00    +0.000 HD
ATOM     23  H   UNL     1     138.547 129.111  98.570  0.00  0.00    +0.000 HD
ENDROOT
TORSDOF 0
ENDMDL
