MODEL 1
REMARK VINA RESULT:    -5.557      0.000      0.000
REMARK INTER + INTRA:          -5.557
REMARK INTER:                  -5.557
REMARK INTRA:                   0.000
REMARK UNBOUND:                 0.000
REMARK  Name = /home/vital/Documents/PhD_2021/Malaria_codes/scripts/../data/pdbqt_ligands/ligand_21_temp.pdb
REMARK                            x       y       z     vdW  Elec       q    Type
REMARK                         _______ _______ _______ _____ _____    ______ ____
ROOT
ATOM      1  C   UNL     1     137.542 121.635 106.469  0.00  0.00    +0.079 C 
ATOM      2  O   UNL     1     138.048 122.229 105.280  0.00  0.00    -0.495 OA
ATOM      3  C   UNL     1     138.926 123.270 105.429  0.00  0.00    +0.122 A 
ATOM      4  C   UNL     1     139.363 123.801 106.640  0.00  0.00    -0.019 A 
ATOM      5  C   UNL     1     140.267 124.872 106.674  0.00  0.00    -0.042 A 
ATOM      6  C   UNL     1     140.723 125.397 105.454  0.00  0.00    +0.041 A 
ATOM      7  S   UNL     1     141.808 126.693 105.164  0.00  0.00    -0.052 S 
ATOM      8  C   UNL     1     141.678 126.457 103.475  0.00  0.00    +0.169 A 
ATOM      9  N   UNL     1     142.332 127.274 102.536  0.00  0.00    -0.242 N 
ATOM     10  C   UNL     1     142.042 127.031 101.107  0.00  0.00    +0.048 C 
ATOM     11  C   UNL     1     141.001 127.944 100.512  0.00  0.00    -0.012 A 
ATOM     12  C   UNL     1     141.228 128.595  99.292  0.00  0.00    -0.054 A 
ATOM     13  C   UNL     1     140.251 129.425  98.751  0.00  0.00    -0.043 A 
ATOM     14  C   UNL     1     139.062 129.573  99.444  0.00  0.00    +0.028 A 
ATOM     15  N   UNL     1     138.796 128.950 100.611  0.00  0.00    -0.263 NA
ATOM     16  C   UNL     1     139.759 128.141 101.109  0.00  0.00    +0.032 A 
ATOM     17  C   UNL     1     143.345 128.154 102.935  0.00  0.00    +0.255 C 
ATOM     18  O   UNL     1     143.924 128.210 104.016  0.00  0.00    -0.269 OA
ATOM     19  C   UNL     1     143.810 129.178 101.980  0.00  0.00    +0.067 A 
ATOM     20  C   UNL     1     142.990 130.287 101.735  0.00  0.00    -0.047 A 
ATOM     21  C   UNL     1     143.448 131.326 100.920  0.00  0.00    -0.061 A 
ATOM     22  C   UNL     1     144.732 131.280 100.372  0.00  0.00    -0.060 A 
ATOM     23  C   UNL     1     145.569 130.195 100.637  0.00  0.00    -0.031 A 
ATOM     24  C   UNL     1     145.102 129.153 101.449  0.00  0.00    +0.138 A 
ATOM     25  N   UNL     1     145.976 128.020 101.689  0.00  0.00    +0.057 N 
ATOM     26  O   UNL     1     145.505 126.894 101.482  0.00  0.00    -0.126 OA
ATOM     27  O   UNL     1     147.147 128.264 102.009  0.00  0.00    -0.126 OA
ATOM     28  N   UNL     1     140.838 125.509 103.118  0.00  0.00    -0.224 NA
ATOM     29  C   UNL     1     140.303 124.883 104.231  0.00  0.00    +0.084 A 
ATOM     30  C   UNL     1     139.393 123.809 104.223  0.00  0.00    +0.007 A 
ENDROOT
TORSDOF 0
ENDMDL
MODEL 2
REMARK VINA RESULT:    -5.315      3.412      4.043
REMARK INTER + INTRA:          -5.315
REMARK INTER:                  -5.315
REMARK INTRA:                   0.000
REMARK UNBOUND:                 0.000
REMARK  Name = /home/vital/Documents/PhD_2021/Malaria_codes/scripts/../data/pdbqt_ligands/ligand_21_temp.pdb
REMARK                            x       y       z     vdW  Elec       q    Type
REMARK                         _______ _______ _______ _____ _____    ______ ____
ROOT
ATOM      1  C   UNL     1     145.054 122.486 106.069  0.00  0.00    +0.079 C 
ATOM      2  O   UNL     1     144.508 123.025 104.871  0.00  0.00    -0.495 OA
ATOM      3  C   UNL     1     144.688 124.364 104.652  0.00  0.00    +0.122 A 
ATOM      4  C   UNL     1     145.354 125.248 105.499  0.00  0.00    -0.019 A 
ATOM      5  C   UNL     1     145.478 126.605 105.172  0.00  0.00    -0.042 A 
ATOM      6  C   UNL     1     144.916 127.054 103.967  0.00  0.00    +0.041 A 
ATOM      7  S   UNL     1     144.891 128.633 103.298  0.00  0.00    -0.052 S 
ATOM      8  C   UNL     1     144.051 128.064 101.921  0.00  0.00    +0.169 A 
ATOM      9  N   UNL     1     143.628 128.908 100.880  0.00  0.00    -0.242 N 
ATOM     10  C   UNL     1     142.812 128.305  99.805  0.00  0.00    +0.048 C 
ATOM     11  C   UNL     1     141.325 128.492  99.962  0.00  0.00    -0.012 A 
ATOM     12  C   UNL     1     140.540 128.941  98.893  0.00  0.00    -0.054 A 
ATOM     13  C   UNL     1     139.166 129.096  99.053  0.00  0.00    -0.043 A 
ATOM     14  C   UNL     1     138.612 128.785 100.282  0.00  0.00    +0.028 A 
ATOM     15  N   UNL     1     139.329 128.332 101.331  0.00  0.00    -0.263 NA
ATOM     16  C   UNL     1     140.660 128.180 101.145  0.00  0.00    +0.032 A 
ATOM     17  C   UNL     1     144.110 130.219 100.780  0.00  0.00    +0.255 C 
ATOM     18  O   UNL     1     145.043 130.736 101.388  0.00  0.00    -0.269 OA
ATOM     19  C   UNL     1     143.443 131.150  99.850  0.00  0.00    +0.067 A 
ATOM     20  C   UNL     1     142.194 131.674 100.207  0.00  0.00    -0.047 A 
ATOM     21  C   UNL     1     141.587 132.640  99.400  0.00  0.00    -0.061 A 
ATOM     22  C   UNL     1     142.232 133.109  98.253  0.00  0.00    -0.060 A 
ATOM     23  C   UNL     1     143.492 132.619  97.907  0.00  0.00    -0.031 A 
ATOM     24  C   UNL     1     144.092 131.645  98.716  0.00  0.00    +0.138 A 
ATOM     25  N   UNL     1     145.389 131.126  98.323  0.00  0.00    +0.057 N 
ATOM     26  O   UNL     1     145.508 129.894  98.268  0.00  0.00    -0.126 OA
ATOM     27  O   UNL     1     146.256 131.948  98.000  0.00  0.00    -0.126 OA
ATOM     28  N   UNL     1     143.746 126.784 101.956  0.00  0.00    -0.224 NA
ATOM     29  C   UNL     1     144.249 126.192 103.102  0.00  0.00    +0.084 A 
ATOM     30  C   UNL     1     144.134 124.833 103.454  0.00  0.00    +0.007 A 
ENDROOT
TORSDOF 0
ENDMDL
MODEL 3
REMARK VINA RESULT:    -5.184      3.246      8.328
REMARK INTER + INTRA:          -5.184
REMARK INTER:                  -5.184
REMARK INTRA:                   0.000
REMARK UNBOUND:                 0.000
REMARK  Name = /home/vital/Documents/PhD_2021/Malaria_codes/scripts/../data/pdbqt_ligands/ligand_21_temp.pdb
REMARK                            x       y       z     vdW  Elec       q    Type
REMARK                         _______ _______ _______ _____ _____    ______ ____
ROOT
ATOM      1  C   UNL     1     146.341 135.578  95.920  0.00  0.00    +0.079 C 
ATOM      2  O   UNL     1     145.409 135.014  96.835  0.00  0.00    -0.495 OA
ATOM      3  C   UNL     1     145.619 133.716  97.217  0.00  0.00    +0.122 A 
ATOM      4  C   UNL     1     146.661 132.897  96.788  0.00  0.00    -0.019 A 
ATOM      5  C   UNL     1     146.778 131.578  97.247  0.00  0.00    -0.042 A 
ATOM      6  C   UNL     1     145.818 131.101  98.154  0.00  0.00    +0.041 A 
ATOM      7  S   UNL     1     145.682 129.554  98.882  0.00  0.00    -0.052 S 
ATOM      8  C   UNL     1     144.296 130.056  99.749  0.00  0.00    +0.169 A 
ATOM      9  N   UNL     1     143.571 129.199 100.595  0.00  0.00    -0.242 N 
ATOM     10  C   UNL     1     142.327 129.729 101.194  0.00  0.00    +0.048 C 
ATOM     11  C   UNL     1     141.065 129.350 100.463  0.00  0.00    -0.012 A 
ATOM     12  C   UNL     1     139.959 128.839 101.156  0.00  0.00    -0.054 A 
ATOM     13  C   UNL     1     138.797 128.506 100.467  0.00  0.00    -0.043 A 
ATOM     14  C   UNL     1     138.770 128.704  99.097  0.00  0.00    +0.028 A 
ATOM     15  N   UNL     1     139.805 129.209  98.396  0.00  0.00    -0.263 NA
ATOM     16  C   UNL     1     140.918 129.536  99.092  0.00  0.00    +0.032 A 
ATOM     17  C   UNL     1     144.100 127.964 100.988  0.00  0.00    +0.255 C 
ATOM     18  O   UNL     1     145.248 127.550 100.855  0.00  0.00    -0.269 OA
ATOM     19  C   UNL     1     143.209 126.987 101.642  0.00  0.00    +0.067 A 
ATOM     20  C   UNL     1     142.279 126.297 100.854  0.00  0.00    -0.047 A 
ATOM     21  C   UNL     1     141.496 125.289 101.422  0.00  0.00    -0.061 A 
ATOM     22  C   UNL     1     141.656 124.943 102.766  0.00  0.00    -0.060 A 
ATOM     23  C   UNL     1     142.603 125.601 103.551  0.00  0.00    -0.031 A 
ATOM     24  C   UNL     1     143.380 126.616 102.978  0.00  0.00    +0.138 A 
ATOM     25  N   UNL     1     144.339 127.309 103.818  0.00  0.00    +0.057 N 
ATOM     26  O   UNL     1     144.298 128.546 103.816  0.00  0.00    -0.126 OA
ATOM     27  O   UNL     1     145.075 126.614 104.531  0.00  0.00    -0.126 OA
ATOM     28  N   UNL     1     143.903 131.285  99.489  0.00  0.00    -0.224 NA
ATOM     29  C   UNL     1     144.769 131.899  98.600  0.00  0.00    +0.084 A 
ATOM     30  C   UNL     1     144.671 133.220  98.122  0.00  0.00    +0.007 A 
ENDROOT
TORSDOF 0
ENDMDL
MODEL 4
REMARK VINA RESULT:    -5.114      3.301      4.709
REMARK INTER + INTRA:          -5.114
REMARK INTER:                  -5.114
REMARK INTRA:                   0.000
REMARK UNBOUND:                 0.000
REMARK  Name = /home/vital/Documents/PhD_2021/Malaria_codes/scripts/../data/pdbqt_ligands/ligand_21_temp.pdb
REMARK                            x       y       z     vdW  Elec       q    Type
REMARK                         _______ _______ _______ _____ _____    ______ ____
ROOT
ATOM      1  C   UNL     1     141.907 124.984 108.685  0.00  0.00    +0.079 C 
ATOM      2  O   UNL     1     141.318 125.627 107.561  0.00  0.00    -0.495 OA
ATOM      3  C   UNL     1     141.872 125.370 106.336  0.00  0.00    +0.122 A 
ATOM      4  C   UNL     1     142.964 124.539 106.091  0.00  0.00    -0.019 A 
ATOM      5  C   UNL     1     143.449 124.349 104.791  0.00  0.00    -0.042 A 
ATOM      6  C   UNL     1     142.807 125.017 103.736  0.00  0.00    +0.041 A 
ATOM      7  S   UNL     1     143.162 124.998 102.058  0.00  0.00    -0.052 S 
ATOM      8  C   UNL     1     141.843 126.041 101.742  0.00  0.00    +0.169 A 
ATOM      9  N   UNL     1     141.538 126.520 100.457  0.00  0.00    -0.242 N 
ATOM     10  C   UNL     1     140.442 127.505 100.342  0.00  0.00    +0.048 C 
ATOM     11  C   UNL     1     140.890 128.943 100.286  0.00  0.00    -0.012 A 
ATOM     12  C   UNL     1     140.391 129.815  99.310  0.00  0.00    -0.054 A 
ATOM     13  C   UNL     1     140.806 131.143  99.281  0.00  0.00    -0.043 A 
ATOM     14  C   UNL     1     141.708 131.566 100.241  0.00  0.00    +0.028 A 
ATOM     15  N   UNL     1     142.199 130.765 101.208  0.00  0.00    -0.263 NA
ATOM     16  C   UNL     1     141.770 129.482 101.221  0.00  0.00    +0.032 A 
ATOM     17  C   UNL     1     142.129 125.953  99.321  0.00  0.00    +0.255 C 
ATOM     18  O   UNL     1     142.781 124.915  99.240  0.00  0.00    -0.269 OA
ATOM     19  C   UNL     1     141.998 126.652  98.029  0.00  0.00    +0.067 A 
ATOM     20  C   UNL     1     142.765 127.803  97.810  0.00  0.00    -0.047 A 
ATOM     21  C   UNL     1     142.745 128.426  96.559  0.00  0.00    -0.061 A 
ATOM     22  C   UNL     1     141.987 127.890  95.515  0.00  0.00    -0.060 A 
ATOM     23  C   UNL     1     141.246 126.725  95.713  0.00  0.00    -0.031 A 
ATOM     24  C   UNL     1     141.264 126.109  96.972  0.00  0.00    +0.138 A 
ATOM     25  N   UNL     1     140.464 124.914  97.167  0.00  0.00    +0.057 N 
ATOM     26  O   UNL     1     139.705 124.900  98.145  0.00  0.00    -0.126 OA
ATOM     27  O   UNL     1     140.542 124.031  96.303  0.00  0.00    -0.126 OA
ATOM     28  N   UNL     1     141.191 126.440 102.814  0.00  0.00    -0.224 NA
ATOM     29  C   UNL     1     141.713 125.850 103.953  0.00  0.00    +0.084 A 
ATOM     30  C   UNL     1     141.246 126.027 105.269  0.00  0.00    +0.007 A 
ENDROOT
TORSDOF 0
ENDMDL
MODEL 5
REMARK VINA RESULT:    -4.958      4.194      8.101
REMARK INTER + INTRA:          -4.958
REMARK INTER:                  -4.958
REMARK INTRA:                   0.000
REMARK UNBOUND:                 0.000
REMARK  Name = /home/vital/Documents/PhD_2021/Malaria_codes/scripts/../data/pdbqt_ligands/ligand_21_temp.pdb
REMARK                            x       y       z     vdW  Elec       q    Type
REMARK                         _______ _______ _______ _____ _____    ______ ____
ROOT
ATOM      1  C   UNL     1     144.010 130.130  91.058  0.00  0.00    +0.079 C 
ATOM      2  O   UNL     1     143.445 130.444  92.325  0.00  0.00    -0.495 OA
ATOM      3  C   UNL     1     143.757 129.614  93.369  0.00  0.00    +0.122 A 
ATOM      4  C   UNL     1     144.575 128.489  93.300  0.00  0.00    -0.019 A 
ATOM      5  C   UNL     1     144.827 127.709  94.437  0.00  0.00    -0.042 A 
ATOM      6  C   UNL     1     144.234 128.091  95.651  0.00  0.00    +0.041 A 
ATOM      7  S   UNL     1     144.339 127.351  97.195  0.00  0.00    -0.052 S 
ATOM      8  C   UNL     1     143.345 128.567  97.873  0.00  0.00    +0.169 A 
ATOM      9  N   UNL     1     142.946 128.566  99.221  0.00  0.00    -0.242 N 
ATOM     10  C   UNL     1     141.995 129.613  99.648  0.00  0.00    +0.048 C 
ATOM     11  C   UNL     1     140.552 129.177  99.684  0.00  0.00    -0.012 A 
ATOM     12  C   UNL     1     139.748 129.441 100.800  0.00  0.00    -0.054 A 
ATOM     13  C   UNL     1     138.415 129.042 100.810  0.00  0.00    -0.043 A 
ATOM     14  C   UNL     1     137.918 128.396  99.692  0.00  0.00    +0.028 A 
ATOM     15  N   UNL     1     138.652 128.139  98.591  0.00  0.00    -0.263 NA
ATOM     16  C   UNL     1     139.942 128.547  98.602  0.00  0.00    +0.032 A 
ATOM     17  C   UNL     1     143.563 127.719 100.150  0.00  0.00    +0.255 C 
ATOM     18  O   UNL     1     144.589 127.057 100.014  0.00  0.00    -0.269 OA
ATOM     19  C   UNL     1     142.940 127.549 101.476  0.00  0.00    +0.067 A 
ATOM     20  C   UNL     1     141.786 126.762 101.578  0.00  0.00    -0.047 A 
ATOM     21  C   UNL     1     141.235 126.493 102.834  0.00  0.00    -0.061 A 
ATOM     22  C   UNL     1     141.846 126.979 103.992  0.00  0.00    -0.060 A 
ATOM     23  C   UNL     1     143.015 127.735 103.904  0.00  0.00    -0.031 A 
ATOM     24  C   UNL     1     143.559 128.008 102.641  0.00  0.00    +0.138 A 
ATOM     25  N   UNL     1     144.759 128.821 102.568  0.00  0.00    +0.057 N 
ATOM     26  O   UNL     1     144.735 129.788 101.796  0.00  0.00    -0.126 OA
ATOM     27  O   UNL     1     145.687 128.534 103.336  0.00  0.00    -0.126 OA
ATOM     28  N   UNL     1     142.902 129.457  97.010  0.00  0.00    -0.224 NA
ATOM     29  C   UNL     1     143.415 129.212  95.747  0.00  0.00    +0.084 A 
ATOM     30  C   UNL     1     143.175 129.978  94.590  0.00  0.00    +0.007 A 
ENDROOT
TORSDOF 0
ENDMDL
MODEL 6
REMARK VINA RESULT:    -4.953      4.417      7.955
REMARK INTER + INTRA:          -4.953
REMARK INTER:                  -4.953
REMARK INTRA:                   0.000
REMARK UNBOUND:                 0.000
REMARK  Name = /home/vital/Documents/PhD_2021/Malaria_codes/scripts/../data/pdbqt_ligands/ligand_21_temp.pdb
REMARK                            x       y       z     vdW  Elec       q    Type
REMARK                         _______ _______ _______ _____ _____    ______ ____
ROOT
ATOM      1  C   UNL     1     142.181 128.054  90.208  0.00  0.00    +0.079 C 
ATOM      2  O   UNL     1     141.919 128.663  91.467  0.00  0.00    -0.495 OA
ATOM      3  C   UNL     1     142.434 128.047  92.576  0.00  0.00    +0.122 A 
ATOM      4  C   UNL     1     143.188 126.875  92.582  0.00  0.00    -0.019 A 
ATOM      5  C   UNL     1     143.665 126.331  93.782  0.00  0.00    -0.042 A 
ATOM      6  C   UNL     1     143.366 126.997  94.981  0.00  0.00    +0.041 A 
ATOM      7  S   UNL     1     143.791 126.586  96.591  0.00  0.00    -0.052 S 
ATOM      8  C   UNL     1     143.004 127.985  97.183  0.00  0.00    +0.169 A 
ATOM      9  N   UNL     1     142.914 128.291  98.551  0.00  0.00    -0.242 N 
ATOM     10  C   UNL     1     142.108 129.470  98.932  0.00  0.00    +0.048 C 
ATOM     11  C   UNL     1     140.699 129.156  99.365  0.00  0.00    -0.012 A 
ATOM     12  C   UNL     1     140.169 129.703 100.541  0.00  0.00    -0.054 A 
ATOM     13  C   UNL     1     138.862 129.412 100.919  0.00  0.00    -0.043 A 
ATOM     14  C   UNL     1     138.113 128.587 100.099  0.00  0.00    +0.028 A 
ATOM     15  N   UNL     1     138.578 128.055  98.950  0.00  0.00    -0.263 NA
ATOM     16  C   UNL     1     139.848 128.363  98.600  0.00  0.00    +0.032 A 
ATOM     17  C   UNL     1     143.700 127.611  99.491  0.00  0.00    +0.255 C 
ATOM     18  O   UNL     1     144.653 126.864  99.289  0.00  0.00    -0.269 OA
ATOM     19  C   UNL     1     143.382 127.765 100.923  0.00  0.00    +0.067 A 
ATOM     20  C   UNL     1     142.260 127.102 101.435  0.00  0.00    -0.047 A 
ATOM     21  C   UNL     1     141.994 127.138 102.807  0.00  0.00    -0.061 A 
ATOM     22  C   UNL     1     142.859 127.808 103.676  0.00  0.00    -0.060 A 
ATOM     23  C   UNL     1     143.998 128.443 103.181  0.00  0.00    -0.031 A 
ATOM     24  C   UNL     1     144.256 128.409 101.803  0.00  0.00    +0.138 A 
ATOM     25  N   UNL     1     145.430 129.100 101.304  0.00  0.00    +0.057 N 
ATOM     26  O   UNL     1     145.260 129.886 100.363  0.00  0.00    -0.126 OA
ATOM     27  O   UNL     1     146.497 128.910 101.901  0.00  0.00    -0.126 OA
ATOM     28  N   UNL     1     142.404 128.707  96.260  0.00  0.00    -0.224 NA
ATOM     29  C   UNL     1     142.618 128.170  95.002  0.00  0.00    +0.084 A 
ATOM     30  C   UNL     1     142.147 128.696  93.783  0.00  0.00    +0.007 A 
ENDROOT
TORSDOF 0
ENDMDL
MODEL 7
REMARK VINA RESULT:    -4.811     15.662     18.459
REMARK INTER + INTRA:          -4.811
REMARK INTER:                  -4.811
REMARK INTRA:                   0.000
REMARK UNBOUND:                 0.000
REMARK  Name = /home/vital/Documents/PhD_2021/Malaria_codes/scripts/../data/pdbqt_ligands/ligand_21_temp.pdb
REMARK                            x       y       z     vdW  Elec       q    Type
REMARK                         _______ _______ _______ _____ _____    ______ ____
ROOT
ATOM      1  C   UNL     1     145.045 138.493  87.953  0.00  0.00    +0.079 C 
ATOM      2  O   UNL     1     144.510 138.462  89.270  0.00  0.00    -0.495 OA
ATOM      3  C   UNL     1     144.073 139.649  89.794  0.00  0.00    +0.122 A 
ATOM      4  C   UNL     1     144.109 140.886  89.153  0.00  0.00    -0.019 A 
ATOM      5  C   UNL     1     143.632 142.041  89.787  0.00  0.00    -0.042 A 
ATOM      6  C   UNL     1     143.115 141.922  91.086  0.00  0.00    +0.041 A 
ATOM      7  S   UNL     1     142.472 143.132  92.118  0.00  0.00    -0.052 S 
ATOM      8  C   UNL     1     142.144 141.965  93.325  0.00  0.00    +0.169 A 
ATOM      9  N   UNL     1     141.601 142.293  94.579  0.00  0.00    -0.242 N 
ATOM     10  C   UNL     1     141.475 141.203  95.570  0.00  0.00    +0.048 C 
ATOM     11  C   UNL     1     142.597 141.131  96.573  0.00  0.00    -0.012 A 
ATOM     12  C   UNL     1     142.331 141.014  97.943  0.00  0.00    -0.054 A 
ATOM     13  C   UNL     1     143.380 140.936  98.854  0.00  0.00    -0.043 A 
ATOM     14  C   UNL     1     144.674 140.966  98.365  0.00  0.00    +0.028 A 
ATOM     15  N   UNL     1     144.973 141.059  97.053  0.00  0.00    -0.263 NA
ATOM     16  C   UNL     1     143.935 141.122  96.188  0.00  0.00    +0.032 A 
ATOM     17  C   UNL     1     141.042 143.556  94.809  0.00  0.00    +0.255 C 
ATOM     18  O   UNL     1     140.765 144.428  93.990  0.00  0.00    -0.269 OA
ATOM     19  C   UNL     1     140.736 143.952  96.197  0.00  0.00    +0.067 A 
ATOM     20  C   UNL     1     141.796 144.306  97.042  0.00  0.00    -0.047 A 
ATOM     21  C   UNL     1     141.532 144.790  98.326  0.00  0.00    -0.061 A 
ATOM     22  C   UNL     1     140.215 144.952  98.763  0.00  0.00    -0.060 A 
ATOM     23  C   UNL     1     139.151 144.634  97.917  0.00  0.00    -0.031 A 
ATOM     24  C   UNL     1     139.422 144.143  96.633  0.00  0.00    +0.138 A 
ATOM     25  N   UNL     1     138.303 143.791  95.778  0.00  0.00    +0.057 N 
ATOM     26  O   UNL     1     138.326 142.668  95.258  0.00  0.00    -0.126 OA
ATOM     27  O   UNL     1     137.376 144.606  95.693  0.00  0.00    -0.126 OA
ATOM     28  N   UNL     1     142.531 140.743  93.025  0.00  0.00    -0.224 NA
ATOM     29  C   UNL     1     143.065 140.698  91.747  0.00  0.00    +0.084 A 
ATOM     30  C   UNL     1     143.553 139.552  91.090  0.00  0.00    +0.007 A 
ENDROOT
TORSDOF 0
ENDMDL
MODEL 8
REMARK VINA RESULT:    -4.742     11.431     15.632
REMARK INTER + INTRA:          -4.742
REMARK INTER:                  -4.742
REMARK INTRA:                   0.000
REMARK UNBOUND:                 0.000
REMARK  Name = /home/vital/Documents/PhD_2021/Malaria_codes/scripts/../data/pdbqt_ligands/ligand_21_temp.pdb
REMARK                            x       y       z     vdW  Elec       q    Type
REMARK                         _______ _______ _______ _____ _____    ______ ____
ROOT
ATOM      1  C   UNL     1     142.237 140.234  87.228  0.00  0.00    +0.079 C 
ATOM      2  O   UNL     1     141.506 139.103  87.686  0.00  0.00    -0.495 OA
ATOM      3  C   UNL     1     142.232 138.026  88.119  0.00  0.00    +0.122 A 
ATOM      4  C   UNL     1     143.622 137.937  88.147  0.00  0.00    -0.019 A 
ATOM      5  C   UNL     1     144.261 136.780  88.613  0.00  0.00    -0.042 A 
ATOM      6  C   UNL     1     143.466 135.711  89.053  0.00  0.00    +0.041 A 
ATOM      7  S   UNL     1     143.940 134.179  89.662  0.00  0.00    -0.052 S 
ATOM      8  C   UNL     1     142.303 133.737  89.895  0.00  0.00    +0.169 A 
ATOM      9  N   UNL     1     141.913 132.475  90.373  0.00  0.00    -0.242 N 
ATOM     10  C   UNL     1     140.464 132.184  90.418  0.00  0.00    +0.048 C 
ATOM     11  C   UNL     1     139.940 131.405  89.239  0.00  0.00    -0.012 A 
ATOM     12  C   UNL     1     139.122 130.283  89.425  0.00  0.00    -0.054 A 
ATOM     13  C   UNL     1     138.638 129.583  88.324  0.00  0.00    -0.043 A 
ATOM     14  C   UNL     1     138.978 130.035  87.061  0.00  0.00    +0.028 A 
ATOM     15  N   UNL     1     139.747 131.120  86.839  0.00  0.00    -0.263 NA
ATOM     16  C   UNL     1     140.196 131.789  87.926  0.00  0.00    +0.032 A 
ATOM     17  C   UNL     1     142.848 131.604  90.946  0.00  0.00    +0.255 C 
ATOM     18  O   UNL     1     144.003 131.845  91.288  0.00  0.00    -0.269 OA
ATOM     19  C   UNL     1     142.459 130.201  91.182  0.00  0.00    +0.067 A 
ATOM     20  C   UNL     1     142.378 129.335  90.084  0.00  0.00    -0.047 A 
ATOM     21  C   UNL     1     142.119 127.977  90.285  0.00  0.00    -0.061 A 
ATOM     22  C   UNL     1     141.969 127.470  91.578  0.00  0.00    -0.060 A 
ATOM     23  C   UNL     1     142.081 128.318  92.681  0.00  0.00    -0.031 A 
ATOM     24  C   UNL     1     142.334 129.681  92.472  0.00  0.00    +0.138 A 
ATOM     25  N   UNL     1     142.418 130.552  93.630  0.00  0.00    +0.057 N 
ATOM     26  O   UNL     1     141.725 131.578  93.612  0.00  0.00    -0.126 OA
ATOM     27  O   UNL     1     143.115 130.170  94.579  0.00  0.00    -0.126 OA
ATOM     28  N   UNL     1     141.431 134.639  89.499  0.00  0.00    -0.224 NA
ATOM     29  C   UNL     1     142.076 135.775  89.037  0.00  0.00    +0.084 A 
ATOM     30  C   UNL     1     141.456 136.947  88.562  0.00  0.00    +0.007 A 
ENDROOT
TORSDOF 0
ENDMDL
MODEL 9
REMARK VINA RESULT:    -4.632      2.644      4.561
REMARK INTER + INTRA:          -4.632
REMARK INTER:                  -4.632
REMARK INTRA:                   0.000
REMARK UNBOUND:                 0.000
REMARK  Name = /home/vital/Documents/PhD_2021/Malaria_codes/scripts/../data/pdbqt_ligands/ligand_21_temp.pdb
REMARK                            x       y       z     vdW  Elec       q    Type
REMARK                         _______ _______ _______ _____ _____    ______ ____
ROOT
ATOM      1  C   UNL     1     140.411 123.634 109.482  0.00  0.00    +0.079 C 
ATOM      2  O   UNL     1     140.916 124.733 108.733  0.00  0.00    -0.495 OA
ATOM      3  C   UNL     1     140.902 124.616 107.368  0.00  0.00    +0.122 A 
ATOM      4  C   UNL     1     140.442 123.515 106.648  0.00  0.00    -0.019 A 
ATOM      5  C   UNL     1     140.476 123.504 105.248  0.00  0.00    -0.042 A 
ATOM      6  C   UNL     1     140.984 124.632 104.585  0.00  0.00    +0.041 A 
ATOM      7  S   UNL     1     141.165 124.918 102.903  0.00  0.00    -0.052 S 
ATOM      8  C   UNL     1     141.792 126.479 103.211  0.00  0.00    +0.169 A 
ATOM      9  N   UNL     1     142.232 127.341 102.191  0.00  0.00    -0.242 N 
ATOM     10  C   UNL     1     142.858 128.615 102.603  0.00  0.00    +0.048 C 
ATOM     11  C   UNL     1     144.365 128.598 102.627  0.00  0.00    -0.012 A 
ATOM     12  C   UNL     1     145.105 129.622 102.022  0.00  0.00    -0.054 A 
ATOM     13  C   UNL     1     146.496 129.596 102.065  0.00  0.00    -0.043 A 
ATOM     14  C   UNL     1     147.111 128.547 102.725  0.00  0.00    +0.028 A 
ATOM     15  N   UNL     1     146.435 127.552 103.336  0.00  0.00    -0.263 NA
ATOM     16  C   UNL     1     145.084 127.607 103.289  0.00  0.00    +0.032 A 
ATOM     17  C   UNL     1     141.927 127.079 100.850  0.00  0.00    +0.255 C 
ATOM     18  O   UNL     1     141.132 126.261 100.395  0.00  0.00    -0.269 OA
ATOM     19  C   UNL     1     142.629 127.843  99.801  0.00  0.00    +0.067 A 
ATOM     20  C   UNL     1     143.965 127.527  99.523  0.00  0.00    -0.047 A 
ATOM     21  C   UNL     1     144.624 128.157  98.464  0.00  0.00    -0.061 A 
ATOM     22  C   UNL     1     143.949 129.079  97.661  0.00  0.00    -0.060 A 
ATOM     23  C   UNL     1     142.609 129.376  97.909  0.00  0.00    -0.031 A 
ATOM     24  C   UNL     1     141.955 128.747  98.977  0.00  0.00    +0.138 A 
ATOM     25  N   UNL     1     140.569 129.090  99.237  0.00  0.00    +0.057 N 
ATOM     26  O   UNL     1     140.279 129.412 100.396  0.00  0.00    -0.126 OA
ATOM     27  O   UNL     1     139.798 129.110  98.269  0.00  0.00    -0.126 OA
ATOM     28  N   UNL     1     141.922 126.776 104.486  0.00  0.00    -0.224 NA
ATOM     29  C   UNL     1     141.447 125.745 105.280  0.00  0.00    +0.084 A 
ATOM     30  C   UNL     1     141.405 125.731 106.688  0.00  0.00    +0.007 A 
ENDROOT
TORSDOF 0
ENDMDL
