MODEL 1
REMARK VINA RESULT:    -4.407      0.000      0.000
REMARK INTER + INTRA:          -4.407
REMARK INTER:                  -4.407
REMARK INTRA:                   0.000
REMARK UNBOUND:                 0.000
REMARK  Name = /home/vital/Documents/PhD_2021/Malaria_codes/scripts/../data/pdbqt_ligands/ligand_285_temp.pdb
REMARK                            x       y       z     vdW  Elec       q    Type
REMARK                         _______ _______ _______ _____ _____    ______ ____
ROOT
ATOM      1  C1  UNL     1     139.020 124.536  90.085  0.00  0.00    -0.061 C 
ATOM      2  C2  UNL     1     138.700 124.758  88.602  0.00  0.00    -0.020 C 
ATOM      3  C3  UNL     1     139.986 125.092  87.838  0.00  0.00    -0.061 C 
ATOM      4  C4  UNL     1     137.624 125.840  88.361  0.00  0.00    +0.103 C 
ATOM      5  N1  UNL     1     137.973 127.125  88.962  0.00  0.00    -0.288 N 
ATOM      6  C5  UNL     1     137.598 128.276  88.333  0.00  0.00    +0.298 C 
ATOM      7  N2  UNL     1     137.836 129.372  89.093  0.00  0.00    -0.313 N 
ATOM      8  O1  UNL     1     137.112 128.353  87.215  0.00  0.00    -0.253 OA
ATOM      9  C6  UNL     1     136.253 125.390  88.927  0.00  0.00    +0.238 C 
ATOM     10  O2  UNL     1     135.872 125.774  90.032  0.00  0.00    -0.273 OA
ATOM     11  N3  UNL     1     135.592 124.497  88.097  0.00  0.00    -0.284 N 
ATOM     12  C7  UNL     1     134.359 123.854  88.336  0.00  0.00    +0.035 A 
ATOM     13  C8  UNL     1     133.622 123.989  89.513  0.00  0.00    -0.039 A 
ATOM     14  C9  UNL     1     132.406 123.313  89.674  0.00  0.00    -0.040 A 
ATOM     15  C10 UNL     1     131.916 122.493  88.658  0.00  0.00    +0.059 A 
ATOM     16 CL1  UNL     1     130.412 121.687  88.924  0.00  0.00    -0.082 Cl
ATOM     17  C11 UNL     1     132.646 122.351  87.476  0.00  0.00    +0.061 A 
ATOM     18 CL2  UNL     1     132.111 121.353  86.169  0.00  0.00    -0.082 Cl
ATOM     19  C12 UNL     1     133.862 123.030  87.319  0.00  0.00    -0.021 A 
ATOM     20  H   UNL     1     138.473 127.159  89.809  0.00  0.00    +0.000 HD
ATOM     21  H   UNL     1     138.229 129.272  89.991  0.00  0.00    +0.000 HD
ATOM     22  H   UNL     1     137.617 130.268  88.749  0.00  0.00    +0.000 HD
ATOM     23  H   UNL     1     136.034 124.287  87.243  0.00  0.00    +0.000 HD
ENDROOT
TORSDOF 0
ENDMDL
MODEL 2
REMARK VINA RESULT:    -4.384     15.086     16.807
REMARK INTER + INTRA:          -4.384
REMARK INTER:                  -4.384
REMARK INTRA:                   0.000
REMARK UNBOUND:                 0.000
REMARK  Name = /home/vital/Documents/PhD_2021/Malaria_codes/scripts/../data/pdbqt_ligands/ligand_285_temp.pdb
REMARK                            x       y       z     vdW  Elec       q    Type
REMARK                         _______ _______ _______ _____ _____    ______ ____
ROOT
ATOM      1  C1  UNL     1     143.766 126.496 101.288  0.00  0.00    -0.061 C 
ATOM      2  C2  UNL     1     142.302 126.128 101.016  0.00  0.00    -0.020 C 
ATOM      3  C3  UNL     1     142.050 126.089  99.505  0.00  0.00    -0.061 C 
ATOM      4  C4  UNL     1     141.292 127.065 101.715  0.00  0.00    +0.103 C 
ATOM      5  N1  UNL     1     141.494 128.469 101.367  0.00  0.00    -0.288 N 
ATOM      6  C5  UNL     1     140.410 129.293 101.274  0.00  0.00    +0.298 C 
ATOM      7  N2  UNL     1     140.770 130.591 101.120  0.00  0.00    -0.313 N 
ATOM      8  O1  UNL     1     139.242 128.941 101.309  0.00  0.00    -0.253 OA
ATOM      9  C6  UNL     1     141.383 126.923 103.256  0.00  0.00    +0.238 C 
ATOM     10  O2  UNL     1     142.036 127.724 103.924  0.00  0.00    -0.273 OA
ATOM     11  N3  UNL     1     140.726 125.799 103.735  0.00  0.00    -0.284 N 
ATOM     12  C7  UNL     1     140.661 125.347 105.069  0.00  0.00    +0.035 A 
ATOM     13  C8  UNL     1     141.319 125.959 106.136  0.00  0.00    -0.039 A 
ATOM     14  C9  UNL     1     141.206 125.445 107.433  0.00  0.00    -0.040 A 
ATOM     15  C10 UNL     1     140.434 124.309 107.677  0.00  0.00    +0.059 A 
ATOM     16 CL1  UNL     1     140.342 123.727 109.299  0.00  0.00    -0.082 Cl
ATOM     17  C11 UNL     1     139.772 123.688 106.616  0.00  0.00    +0.061 A 
ATOM     18 CL2  UNL     1     138.797 122.276 106.830  0.00  0.00    -0.082 Cl
ATOM     19  C12 UNL     1     139.886 124.207 105.319  0.00  0.00    -0.021 A 
ATOM     20  H   UNL     1     142.401 128.817 101.203  0.00  0.00    +0.000 HD
ATOM     21  H   UNL     1     141.722 130.838 101.096  0.00  0.00    +0.000 HD
ATOM     22  H   UNL     1     140.078 131.286 101.031  0.00  0.00    +0.000 HD
ATOM     23  H   UNL     1     140.251 125.255 103.066  0.00  0.00    +0.000 HD
ENDROOT
TORSDOF 0
ENDMDL
MODEL 3
REMARK VINA RESULT:    -4.308     13.734     15.762
REMARK INTER + INTRA:          -4.308
REMARK INTER:                  -4.308
REMARK INTRA:                   0.000
REMARK UNBOUND:                 0.000
REMARK  Name = /home/vital/Documents/PhD_2021/Malaria_codes/scripts/../data/pdbqt_ligands/ligand_285_temp.pdb
REMARK                            x       y       z     vdW  Elec       q    Type
REMARK                         _______ _______ _______ _____ _____    ______ ____
ROOT
ATOM      1  C1  UNL     1     140.196 126.913  98.291  0.00  0.00    -0.061 C 
ATOM      2  C2  UNL     1     139.593 127.829  99.361  0.00  0.00    -0.020 C 
ATOM      3  C3  UNL     1     138.370 128.557  98.793  0.00  0.00    -0.061 C 
ATOM      4  C4  UNL     1     140.606 128.838  99.949  0.00  0.00    +0.103 C 
ATOM      5  N1  UNL     1     141.233 129.667  98.922  0.00  0.00    -0.288 N 
ATOM      6  C5  UNL     1     141.553 130.961  99.217  0.00  0.00    +0.298 C 
ATOM      7  N2  UNL     1     142.281 131.541  98.233  0.00  0.00    -0.313 N 
ATOM      8  O1  UNL     1     141.231 131.562 100.230  0.00  0.00    -0.253 OA
ATOM      9  C6  UNL     1     141.721 128.105 100.737  0.00  0.00    +0.238 C 
ATOM     10  O2  UNL     1     142.810 127.870 100.215  0.00  0.00    -0.273 OA
ATOM     11  N3  UNL     1     141.319 127.715 102.006  0.00  0.00    -0.284 N 
ATOM     12  C7  UNL     1     142.063 126.985 102.955  0.00  0.00    +0.035 A 
ATOM     13  C8  UNL     1     143.345 126.482 102.726  0.00  0.00    -0.039 A 
ATOM     14  C9  UNL     1     144.017 125.762 103.721  0.00  0.00    -0.040 A 
ATOM     15  C10 UNL     1     143.412 125.536 104.958  0.00  0.00    +0.059 A 
ATOM     16 CL1  UNL     1     144.297 124.638 106.138  0.00  0.00    -0.082 Cl
ATOM     17  C11 UNL     1     142.130 126.034 105.197  0.00  0.00    +0.061 A 
ATOM     18 CL2  UNL     1     141.309 125.798 106.701  0.00  0.00    -0.082 Cl
ATOM     19  C12 UNL     1     141.461 126.756 104.199  0.00  0.00    -0.021 A 
ATOM     20  H   UNL     1     141.423 129.297  98.030  0.00  0.00    +0.000 HD
ATOM     21  H   UNL     1     142.523 131.025  97.430  0.00  0.00    +0.000 HD
ATOM     22  H   UNL     1     142.568 132.479  98.320  0.00  0.00    +0.000 HD
ATOM     23  H   UNL     1     140.409 127.979 102.275  0.00  0.00    +0.000 HD
ENDROOT
TORSDOF 0
ENDMDL
MODEL 4
REMARK VINA RESULT:    -4.118      3.945      7.006
REMARK INTER + INTRA:          -4.118
REMARK INTER:                  -4.118
REMARK INTRA:                   0.000
REMARK UNBOUND:                 0.000
REMARK  Name = /home/vital/Documents/PhD_2021/Malaria_codes/scripts/../data/pdbqt_ligands/ligand_285_temp.pdb
REMARK                            x       y       z     vdW  Elec       q    Type
REMARK                         _______ _______ _______ _____ _____    ______ ____
ROOT
ATOM      1  C1  UNL     1     130.971 124.138  87.259  0.00  0.00    -0.061 C 
ATOM      2  C2  UNL     1     131.903 122.923  87.183  0.00  0.00    -0.020 C 
ATOM      3  C3  UNL     1     131.107 121.685  86.754  0.00  0.00    -0.061 C 
ATOM      4  C4  UNL     1     132.670 122.652  88.496  0.00  0.00    +0.103 C 
ATOM      5  N1  UNL     1     131.780 122.488  89.643  0.00  0.00    -0.288 N 
ATOM      6  C5  UNL     1     132.126 121.614  90.633  0.00  0.00    +0.298 C 
ATOM      7  N2  UNL     1     131.298 121.703  91.702  0.00  0.00    -0.313 N 
ATOM      8  O1  UNL     1     133.056 120.823  90.593  0.00  0.00    -0.253 OA
ATOM      9  C6  UNL     1     133.661 123.803  88.804  0.00  0.00    +0.238 C 
ATOM     10  O2  UNL     1     133.359 124.700  89.590  0.00  0.00    -0.273 OA
ATOM     11  N3  UNL     1     134.831 123.723  88.062  0.00  0.00    -0.284 N 
ATOM     12  C7  UNL     1     135.908 124.632  88.058  0.00  0.00    +0.035 A 
ATOM     13  C8  UNL     1     135.931 125.822  88.788  0.00  0.00    -0.039 A 
ATOM     14  C9  UNL     1     137.040 126.674  88.726  0.00  0.00    -0.040 A 
ATOM     15  C10 UNL     1     138.138 126.347  87.931  0.00  0.00    +0.059 A 
ATOM     16 CL1  UNL     1     139.470 127.446  87.899  0.00  0.00    -0.082 Cl
ATOM     17  C11 UNL     1     138.124 125.160  87.195  0.00  0.00    +0.061 A 
ATOM     18 CL2  UNL     1     139.443 124.681  86.184  0.00  0.00    -0.082 Cl
ATOM     19  C12 UNL     1     137.014 124.309  87.261  0.00  0.00    -0.021 A 
ATOM     20  H   UNL     1     130.943 123.002  89.702  0.00  0.00    +0.000 HD
ATOM     21  H   UNL     1     130.559 122.353  91.699  0.00  0.00    +0.000 HD
ATOM     22  H   UNL     1     131.437 121.117  92.481  0.00  0.00    +0.000 HD
ATOM     23  H   UNL     1     134.918 122.941  87.471  0.00  0.00    +0.000 HD
ENDROOT
TORSDOF 0
ENDMDL
MODEL 5
REMARK VINA RESULT:    -4.083      4.028      6.712
REMARK INTER + INTRA:          -4.083
REMARK INTER:                  -4.083
REMARK INTRA:                   0.000
REMARK UNBOUND:                 0.000
REMARK  Name = /home/vital/Documents/PhD_2021/Malaria_codes/scripts/../data/pdbqt_ligands/ligand_285_temp.pdb
REMARK                            x       y       z     vdW  Elec       q    Type
REMARK                         _______ _______ _______ _____ _____    ______ ____
ROOT
ATOM      1  C1  UNL     1     133.607 122.742  85.131  0.00  0.00    -0.061 C 
ATOM      2  C2  UNL     1     133.339 122.228  86.550  0.00  0.00    -0.020 C 
ATOM      3  C3  UNL     1     132.313 121.091  86.504  0.00  0.00    -0.061 C 
ATOM      4  C4  UNL     1     132.885 123.334  87.529  0.00  0.00    +0.103 C 
ATOM      5  N1  UNL     1     131.702 124.051  87.059  0.00  0.00    -0.288 N 
ATOM      6  C5  UNL     1     130.791 124.499  87.971  0.00  0.00    +0.298 C 
ATOM      7  N2  UNL     1     129.849 125.290  87.403  0.00  0.00    -0.313 N 
ATOM      8  O1  UNL     1     130.784 124.232  89.163  0.00  0.00    -0.253 OA
ATOM      9  C6  UNL     1     134.021 124.363  87.764  0.00  0.00    +0.238 C 
ATOM     10  O2  UNL     1     134.045 125.426  87.145  0.00  0.00    -0.273 OA
ATOM     11  N3  UNL     1     134.980 123.914  88.660  0.00  0.00    -0.284 N 
ATOM     12  C7  UNL     1     136.164 124.572  89.051  0.00  0.00    +0.035 A 
ATOM     13  C8  UNL     1     136.586 125.797  88.532  0.00  0.00    -0.039 A 
ATOM     14  C9  UNL     1     137.779 126.384  88.971  0.00  0.00    -0.040 A 
ATOM     15  C10 UNL     1     138.564 125.751  89.934  0.00  0.00    +0.059 A 
ATOM     16 CL1  UNL     1     140.024 126.530  90.427  0.00  0.00    -0.082 Cl
ATOM     17  C11 UNL     1     138.151 124.524  90.459  0.00  0.00    +0.061 A 
ATOM     18 CL2  UNL     1     139.066 123.672  91.654  0.00  0.00    -0.082 Cl
ATOM     19  C12 UNL     1     136.957 123.940  90.018  0.00  0.00    -0.021 A 
ATOM     20  H   UNL     1     131.564 124.208  86.097  0.00  0.00    +0.000 HD
ATOM     21  H   UNL     1     129.887 125.484  86.438  0.00  0.00    +0.000 HD
ATOM     22  H   UNL     1     129.128 125.671  87.954  0.00  0.00    +0.000 HD
ATOM     23  H   UNL     1     134.815 123.034  89.069  0.00  0.00    +0.000 HD
ENDROOT
TORSDOF 0
ENDMDL
MODEL 6
REMARK VINA RESULT:    -4.025     13.262     15.386
REMARK INTER + INTRA:          -4.025
REMARK INTER:                  -4.025
REMARK INTRA:                   0.000
REMARK UNBOUND:                 0.000
REMARK  Name = /home/vital/Documents/PhD_2021/Malaria_codes/scripts/../data/pdbqt_ligands/ligand_285_temp.pdb
REMARK                            x       y       z     vdW  Elec       q    Type
REMARK                         _______ _______ _______ _____ _____    ______ ____
ROOT
ATOM      1  C1  UNL     1     139.196 130.336 101.178  0.00  0.00    -0.061 C 
ATOM      2  C2  UNL     1     139.521 129.432  99.983  0.00  0.00    -0.020 C 
ATOM      3  C3  UNL     1     138.428 128.370  99.825  0.00  0.00    -0.061 C 
ATOM      4  C4  UNL     1     140.916 128.773 100.072  0.00  0.00    +0.103 C 
ATOM      5  N1  UNL     1     141.098 128.007 101.302  0.00  0.00    -0.288 N 
ATOM      6  C5  UNL     1     141.856 126.872 101.271  0.00  0.00    +0.298 C 
ATOM      7  N2  UNL     1     142.076 126.375 102.512  0.00  0.00    -0.313 N 
ATOM      8  O1  UNL     1     142.293 126.333 100.266  0.00  0.00    -0.253 OA
ATOM      9  C6  UNL     1     142.036 129.841  99.988  0.00  0.00    +0.238 C 
ATOM     10  O2  UNL     1     142.574 130.270 101.007  0.00  0.00    -0.273 OA
ATOM     11  N3  UNL     1     142.281 130.267  98.690  0.00  0.00    -0.284 N 
ATOM     12  C7  UNL     1     143.188 131.261  98.270  0.00  0.00    +0.035 A 
ATOM     13  C8  UNL     1     143.965 132.029  99.139  0.00  0.00    -0.039 A 
ATOM     14  C9  UNL     1     144.842 133.000  98.641  0.00  0.00    -0.040 A 
ATOM     15  C10 UNL     1     144.949 133.216  97.267  0.00  0.00    +0.059 A 
ATOM     16 CL1  UNL     1     146.048 134.432  96.723  0.00  0.00    -0.082 Cl
ATOM     17  C11 UNL     1     144.175 132.454  96.390  0.00  0.00    +0.061 A 
ATOM     18 CL2  UNL     1     144.246 132.659  94.674  0.00  0.00    -0.082 Cl
ATOM     19  C12 UNL     1     143.300 131.482  96.891  0.00  0.00    -0.021 A 
ATOM     20  H   UNL     1     140.680 128.305 102.142  0.00  0.00    +0.000 HD
ATOM     21  H   UNL     1     141.709 126.837 103.300  0.00  0.00    +0.000 HD
ATOM     22  H   UNL     1     142.604 125.551 102.626  0.00  0.00    +0.000 HD
ATOM     23  H   UNL     1     141.760 129.825  97.982  0.00  0.00    +0.000 HD
ENDROOT
TORSDOF 0
ENDMDL
MODEL 7
REMARK VINA RESULT:    -3.991     14.191     16.040
REMARK INTER + INTRA:          -3.991
REMARK INTER:                  -3.991
REMARK INTRA:                   0.000
REMARK UNBOUND:                 0.000
REMARK  Name = /home/vital/Documents/PhD_2021/Malaria_codes/scripts/../data/pdbqt_ligands/ligand_285_temp.pdb
REMARK                            x       y       z     vdW  Elec       q    Type
REMARK                         _______ _______ _______ _____ _____    ______ ____
ROOT
ATOM      1  C1  UNL     1     138.898 128.449 100.080  0.00  0.00    -0.061 C 
ATOM      2  C2  UNL     1     139.833 129.190 101.043  0.00  0.00    -0.020 C 
ATOM      3  C3  UNL     1     139.796 130.693 100.749  0.00  0.00    -0.061 C 
ATOM      4  C4  UNL     1     141.285 128.663 101.018  0.00  0.00    +0.103 C 
ATOM      5  N1  UNL     1     141.871 128.695  99.680  0.00  0.00    -0.288 N 
ATOM      6  C5  UNL     1     143.204 128.956  99.545  0.00  0.00    +0.298 C 
ATOM      7  N2  UNL     1     143.630 128.778  98.271  0.00  0.00    -0.313 N 
ATOM      8  O1  UNL     1     143.954 129.319 100.437  0.00  0.00    -0.253 OA
ATOM      9  C6  UNL     1     141.354 127.210 101.550  0.00  0.00    +0.238 C 
ATOM     10  O2  UNL     1     141.379 126.256 100.773  0.00  0.00    -0.273 OA
ATOM     11  N3  UNL     1     141.315 127.138 102.935  0.00  0.00    -0.284 N 
ATOM     12  C7  UNL     1     141.303 125.976 103.734  0.00  0.00    +0.035 A 
ATOM     13  C8  UNL     1     141.274 124.677 103.225  0.00  0.00    -0.039 A 
ATOM     14  C9  UNL     1     141.261 123.574 104.088  0.00  0.00    -0.040 A 
ATOM     15  C10 UNL     1     141.273 123.759 105.470  0.00  0.00    +0.059 A 
ATOM     16 CL1  UNL     1     141.252 122.355 106.475  0.00  0.00    -0.082 Cl
ATOM     17  C11 UNL     1     141.301 125.056 105.989  0.00  0.00    +0.061 A 
ATOM     18 CL2  UNL     1     141.317 125.374 107.689  0.00  0.00    -0.082 Cl
ATOM     19  C12 UNL     1     141.316 126.157 105.123  0.00  0.00    -0.021 A 
ATOM     20  H   UNL     1     141.312 128.530  98.887  0.00  0.00    +0.000 HD
ATOM     21  H   UNL     1     142.997 128.484  97.577  0.00  0.00    +0.000 HD
ATOM     22  H   UNL     1     144.573 128.943  98.039  0.00  0.00    +0.000 HD
ATOM     23  H   UNL     1     141.292 127.997 103.414  0.00  0.00    +0.000 HD
ENDROOT
TORSDOF 0
ENDMDL
MODEL 8
REMARK VINA RESULT:    -3.884     12.827     15.195
REMARK INTER + INTRA:          -3.884
REMARK INTER:                  -3.884
REMARK INTRA:                   0.000
REMARK UNBOUND:                 0.000
REMARK  Name = /home/vital/Documents/PhD_2021/Malaria_codes/scripts/../data/pdbqt_ligands/ligand_285_temp.pdb
REMARK                            x       y       z     vdW  Elec       q    Type
REMARK                         _______ _______ _______ _____ _____    ______ ____
ROOT
ATOM      1  C1  UNL     1     139.192 129.162 100.641  0.00  0.00    -0.061 C 
ATOM      2  C2  UNL     1     139.459 129.129  99.131  0.00  0.00    -0.020 C 
ATOM      3  C3  UNL     1     138.209 128.637  98.394  0.00  0.00    -0.061 C 
ATOM      4  C4  UNL     1     140.692 128.281  98.743  0.00  0.00    +0.103 C 
ATOM      5  N1  UNL     1     140.606 126.908  99.233  0.00  0.00    -0.288 N 
ATOM      6  C5  UNL     1     141.139 125.900  98.482  0.00  0.00    +0.298 C 
ATOM      7  N2  UNL     1     141.140 124.718  99.144  0.00  0.00    -0.313 N 
ATOM      8  O1  UNL     1     141.564 126.009  97.342  0.00  0.00    -0.253 OA
ATOM      9  C6  UNL     1     141.994 128.918  99.290  0.00  0.00    +0.238 C 
ATOM     10  O2  UNL     1     142.500 128.515 100.337  0.00  0.00    -0.273 OA
ATOM     11  N3  UNL     1     142.439 129.984  98.522  0.00  0.00    -0.284 N 
ATOM     12  C7  UNL     1     143.553 130.813  98.768  0.00  0.00    +0.035 A 
ATOM     13  C8  UNL     1     144.370 130.712  99.894  0.00  0.00    -0.039 A 
ATOM     14  C9  UNL     1     145.457 131.577 100.067  0.00  0.00    -0.040 A 
ATOM     15  C10 UNL     1     145.737 132.557  99.114  0.00  0.00    +0.059 A 
ATOM     16 CL1  UNL     1     147.091 133.592  99.392  0.00  0.00    -0.082 Cl
ATOM     17  C11 UNL     1     144.925 132.667  97.983  0.00  0.00    +0.061 A 
ATOM     18 CL2  UNL     1     145.201 133.853  96.756  0.00  0.00    -0.082 Cl
ATOM     19  C12 UNL     1     143.839 131.798  97.813  0.00  0.00    -0.021 A 
ATOM     20  H   UNL     1     140.171 126.712 100.094  0.00  0.00    +0.000 HD
ATOM     21  H   UNL     1     140.789 124.669 100.063  0.00  0.00    +0.000 HD
ATOM     22  H   UNL     1     141.491 123.909  98.707  0.00  0.00    +0.000 HD
ATOM     23  H   UNL     1     141.918 130.184  97.711  0.00  0.00    +0.000 HD
ENDROOT
TORSDOF 0
ENDMDL
MODEL 9
REMARK VINA RESULT:    -3.755     10.370     11.430
REMARK INTER + INTRA:          -3.755
REMARK INTER:                  -3.755
REMARK INTRA:                   0.000
REMARK UNBOUND:                 0.000
REMARK  Name = /home/vital/Documents/PhD_2021/Malaria_codes/scripts/../data/pdbqt_ligands/ligand_285_temp.pdb
REMARK                            x       y       z     vdW  Elec       q    Type
REMARK                         _______ _______ _______ _____ _____    ______ ____
ROOT
ATOM      1  C1  UNL     1     130.572 130.601  89.506  0.00  0.00    -0.061 C 
ATOM      2  C2  UNL     1     129.330 129.789  89.121  0.00  0.00    -0.020 C 
ATOM      3  C3  UNL     1     129.353 128.434  89.837  0.00  0.00    -0.061 C 
ATOM      4  C4  UNL     1     129.168 129.598  87.596  0.00  0.00    +0.103 C 
ATOM      5  N1  UNL     1     130.340 128.982  86.979  0.00  0.00    -0.288 N 
ATOM      6  C5  UNL     1     130.166 128.138  85.921  0.00  0.00    +0.298 C 
ATOM      7  N2  UNL     1     131.345 127.789  85.350  0.00  0.00    -0.313 N 
ATOM      8  O1  UNL     1     129.095 127.715  85.514  0.00  0.00    -0.253 OA
ATOM      9  C6  UNL     1     128.900 130.955  86.896  0.00  0.00    +0.238 C 
ATOM     10  O2  UNL     1     129.815 131.575  86.355  0.00  0.00    -0.273 OA
ATOM     11  N3  UNL     1     127.584 131.377  87.019  0.00  0.00    -0.284 N 
ATOM     12  C7  UNL     1     127.023 132.583  86.552  0.00  0.00    +0.035 A 
ATOM     13  C8  UNL     1     127.750 133.592  85.919  0.00  0.00    -0.039 A 
ATOM     14  C9  UNL     1     127.117 134.763  85.487  0.00  0.00    -0.040 A 
ATOM     15  C10 UNL     1     125.748 134.940  85.685  0.00  0.00    +0.059 A 
ATOM     16 CL1  UNL     1     125.033 136.410  85.130  0.00  0.00    -0.082 Cl
ATOM     17  C11 UNL     1     125.011 133.937  86.318  0.00  0.00    +0.061 A 
ATOM     18 CL2  UNL     1     123.311 134.076  86.605  0.00  0.00    -0.082 Cl
ATOM     19  C12 UNL     1     125.648 132.765  86.748  0.00  0.00    -0.021 A 
ATOM     20  H   UNL     1     131.242 129.174  87.321  0.00  0.00    +0.000 HD
ATOM     21  H   UNL     1     132.189 128.150  85.706  0.00  0.00    +0.000 HD
ATOM     22  H   UNL     1     131.357 127.175  84.581  0.00  0.00    +0.000 HD
ATOM     23  H   UNL     1     126.973 130.764  87.487  0.00  0.00    +0.000 HD
ENDROOT
TORSDOF 0
ENDMDL
