MODEL 1
REMARK VINA RESULT:    -5.812      0.000      0.000
REMARK INTER + INTRA:          -5.812
REMARK INTER:                  -5.812
REMARK INTRA:                   0.000
REMARK UNBOUND:                 0.000
REMARK  Name = /home/vital/Documents/PhD_2021/Malaria_codes/scripts/../data/pdbqt_ligands/ligand_375_temp.pdb
REMARK                            x       y       z     vdW  Elec       q    Type
REMARK                         _______ _______ _______ _____ _____    ______ ____
ROOT
ATOM      1  C   UNL     1     141.354 124.438 105.449  0.00  0.00    -0.064 C 
ATOM      2  C   UNL     1     142.737 124.385 104.819  0.00  0.00    -0.040 C 
ATOM      3  C   UNL     1     142.692 124.515 103.297  0.00  0.00    +0.008 C 
ATOM      4  N   UNL     1     142.279 125.859 102.892  0.00  0.00    -0.350 N 
ATOM      5  C   UNL     1     141.996 126.169 101.577  0.00  0.00    -0.011 C 
ATOM      6  C   UNL     1     141.899 127.370 100.991  0.00  0.00    -0.048 C 
ATOM      7  C   UNL     1     141.973 128.651 101.666  0.00  0.00    -0.052 C 
ATOM      8  C   UNL     1     142.051 129.852 101.071  0.00  0.00    -0.009 C 
ATOM      9  C   UNL     1     142.135 130.042  99.663  0.00  0.00    -0.040 C 
ATOM     10  C   UNL     1     142.217 130.164  98.470  0.00  0.00    +0.110 C 
ATOM     11  O   UNL     1     142.323 130.249  97.144  0.00  0.00    -0.093 OA
ATOM     12  O   UNL     1     142.562 131.661  96.865  0.00  0.00    -0.320 OA
ATOM     13  C   UNL     1     143.862 131.775  96.424  0.00  0.00    +0.193 A 
ATOM     14  C   UNL     1     144.634 132.762  97.048  0.00  0.00    -0.014 A 
ATOM     15  C   UNL     1     145.961 132.955  96.662  0.00  0.00    -0.058 A 
ATOM     16  C   UNL     1     146.517 132.165  95.659  0.00  0.00    -0.060 A 
ATOM     17  C   UNL     1     145.731 131.197  95.020  0.00  0.00    -0.033 A 
ATOM     18  C   UNL     1     144.386 131.014  95.368  0.00  0.00    +0.111 A 
ATOM     19  N   UNL     1     143.609 130.068  94.681  0.00  0.00    -0.231 N 
ATOM     20  C   UNL     1     143.203 130.292  93.466  0.00  0.00    +0.117 C 
ATOM     21  C   UNL     1     142.444 129.116  92.792  0.00  0.00    +0.065 C 
ATOM     22  N   UNL     1     141.325 129.664  92.021  0.00  0.00    -0.343 N 
ATOM     23  C   UNL     1     141.028 129.397  90.709  0.00  0.00    -0.010 C 
ATOM     24  C   UNL     1     139.898 129.743  90.085  0.00  0.00    -0.040 C 
ATOM     25  C   UNL     1     139.653 129.485  88.685  0.00  0.00    -0.009 C 
ATOM     26  C   UNL     1     138.545 129.850  88.105  0.00  0.00    -0.050 C 
ATOM     27  C   UNL     1     137.525 130.204  87.575  0.00  0.00    +0.031 C 
ATOM     28  N   UNL     1     136.532 130.555  87.060  0.00  0.00    -0.250 NA
ATOM     29  N   UNL     1     143.373 131.390  92.632  0.00  0.00    -0.308 N 
ATOM     30  C   UNL     1     143.396 132.731  92.941  0.00  0.00    -0.005 C 
ATOM     31  C   UNL     1     143.704 133.764  92.144  0.00  0.00    -0.044 C 
ATOM     32  C   UNL     1     144.237 133.639  90.799  0.00  0.00    -0.007 C 
ATOM     33  C   UNL     1     144.592 134.662  90.003  0.00  0.00    +0.188 C 
ATOM     34 CL   UNL     1     145.184 134.321  88.406  0.00  0.00    -0.044 Cl
ATOM     35  O   UNL     1     144.399 135.982  90.349  0.00  0.00    -0.480 OA
ATOM     36  C   UNL     1     145.572 136.536  90.944  0.00  0.00    +0.103 C 
ATOM     37  C   UNL     1     145.380 138.055  91.050  0.00  0.00    +0.030 C 
ATOM     38  N   UNL     1     146.427 138.695  91.853  0.00  0.00    -0.316 N 
ATOM     39  C   UNL     1     146.186 140.131  91.962  0.00  0.00    -0.016 C 
ATOM     40  H   UNL     1     142.202 126.562 103.577  0.00  0.00    +0.000 HD
ATOM     41  H   UNL     1     143.369 129.223  95.126  0.00  0.00    +0.000 HD
ATOM     42  H   UNL     1     140.726 130.287  92.492  0.00  0.00    +0.000 HD
ATOM     43  H   UNL     1     135.686 130.547  87.565  0.00  0.00    +0.000 HD
ATOM     44  H   UNL     1     143.494 131.177  91.678  0.00  0.00    +0.000 HD
ATOM     45  H   UNL     1     147.332 138.540  91.410  0.00  0.00    +0.000 HD
ATOM     46  H   UNL     1     146.417 138.289  92.789  0.00  0.00    +0.000 HD
ENDROOT
TORSDOF 0
ENDMDL
MODEL 2
REMARK VINA RESULT:    -5.514      4.455     13.236
REMARK INTER + INTRA:          -5.514
REMARK INTER:                  -5.514
REMARK INTRA:                   0.000
REMARK UNBOUND:                 0.000
REMARK  Name = /home/vital/Documents/PhD_2021/Malaria_codes/scripts/../data/pdbqt_ligands/ligand_375_temp.pdb
REMARK                            x       y       z     vdW  Elec       q    Type
REMARK                         _______ _______ _______ _____ _____    ______ ____
ROOT
ATOM      1  C   UNL     1     144.084 143.744  85.708  0.00  0.00    -0.064 C 
ATOM      2  C   UNL     1     145.007 142.616  85.271  0.00  0.00    -0.040 C 
ATOM      3  C   UNL     1     145.247 141.594  86.381  0.00  0.00    +0.008 C 
ATOM      4  N   UNL     1     144.034 140.832  86.672  0.00  0.00    -0.350 N 
ATOM      5  C   UNL     1     143.951 139.975  87.751  0.00  0.00    -0.011 C 
ATOM      6  C   UNL     1     143.064 139.002  87.995  0.00  0.00    -0.048 C 
ATOM      7  C   UNL     1     141.893 138.701  87.195  0.00  0.00    -0.052 C 
ATOM      8  C   UNL     1     141.099 137.627  87.331  0.00  0.00    -0.009 C 
ATOM      9  C   UNL     1     141.331 136.576  88.262  0.00  0.00    -0.040 C 
ATOM     10  C   UNL     1     141.565 135.700  89.051  0.00  0.00    +0.110 C 
ATOM     11  O   UNL     1     141.874 134.746  89.929  0.00  0.00    -0.093 OA
ATOM     12  O   UNL     1     140.915 133.673  89.687  0.00  0.00    -0.320 OA
ATOM     13  C   UNL     1     141.611 132.621  89.133  0.00  0.00    +0.193 A 
ATOM     14  C   UNL     1     141.060 132.068  87.972  0.00  0.00    -0.014 A 
ATOM     15  C   UNL     1     141.692 130.993  87.345  0.00  0.00    -0.058 A 
ATOM     16  C   UNL     1     142.873 130.476  87.872  0.00  0.00    -0.060 A 
ATOM     17  C   UNL     1     143.405 131.017  89.049  0.00  0.00    -0.033 A 
ATOM     18  C   UNL     1     142.764 132.071  89.714  0.00  0.00    +0.111 A 
ATOM     19  N   UNL     1     143.296 132.565  90.915  0.00  0.00    -0.231 N 
ATOM     20  C   UNL     1     143.195 131.885  92.020  0.00  0.00    +0.117 C 
ATOM     21  C   UNL     1     143.921 132.501  93.248  0.00  0.00    +0.065 C 
ATOM     22  N   UNL     1     143.074 132.319  94.430  0.00  0.00    -0.343 N 
ATOM     23  C   UNL     1     143.456 131.784  95.633  0.00  0.00    -0.010 C 
ATOM     24  C   UNL     1     142.733 131.811  96.757  0.00  0.00    -0.040 C 
ATOM     25  C   UNL     1     143.154 131.186  97.988  0.00  0.00    -0.009 C 
ATOM     26  C   UNL     1     142.417 131.219  99.062  0.00  0.00    -0.050 C 
ATOM     27  C   UNL     1     141.722 131.242 100.043  0.00  0.00    +0.031 C 
ATOM     28  N   UNL     1     141.040 131.262 100.997  0.00  0.00    -0.250 NA
ATOM     29  N   UNL     1     142.591 130.663  92.292  0.00  0.00    -0.308 N 
ATOM     30  C   UNL     1     141.435 130.124  91.777  0.00  0.00    -0.005 C 
ATOM     31  C   UNL     1     140.947 128.886  91.945  0.00  0.00    -0.044 C 
ATOM     32  C   UNL     1     141.657 127.801  92.600  0.00  0.00    -0.007 C 
ATOM     33  C   UNL     1     141.202 126.543  92.738  0.00  0.00    +0.188 C 
ATOM     34 CL   UNL     1     142.179 125.381  93.582  0.00  0.00    -0.044 Cl
ATOM     35  O   UNL     1     139.940 126.156  92.343  0.00  0.00    -0.480 OA
ATOM     36  C   UNL     1     139.958 125.600  91.028  0.00  0.00    +0.103 C 
ATOM     37  C   UNL     1     138.593 124.950  90.768  0.00  0.00    +0.030 C 
ATOM     38  N   UNL     1     138.424 124.550  89.367  0.00  0.00    -0.316 N 
ATOM     39  C   UNL     1     137.100 123.974  89.152  0.00  0.00    -0.016 C 
ATOM     40  H   UNL     1     143.253 140.933  86.081  0.00  0.00    +0.000 HD
ATOM     41  H   UNL     1     143.751 133.438  90.922  0.00  0.00    +0.000 HD
ATOM     42  H   UNL     1     142.137 132.611  94.352  0.00  0.00    +0.000 HD
ATOM     43  H   UNL     1     140.479 132.050 101.185  0.00  0.00    +0.000 HD
ATOM     44  H   UNL     1     143.061 130.101  92.950  0.00  0.00    +0.000 HD
ATOM     45  H   UNL     1     139.134 123.858  89.128  0.00  0.00    +0.000 HD
ATOM     46  H   UNL     1     138.522 125.376  88.776  0.00  0.00    +0.000 HD
ENDROOT
TORSDOF 0
ENDMDL
MODEL 3
REMARK VINA RESULT:    -5.069      6.401     10.442
REMARK INTER + INTRA:          -5.069
REMARK INTER:                  -5.069
REMARK INTRA:                   0.000
REMARK UNBOUND:                 0.000
REMARK  Name = /home/vital/Documents/PhD_2021/Malaria_codes/scripts/../data/pdbqt_ligands/ligand_375_temp.pdb
REMARK                            x       y       z     vdW  Elec       q    Type
REMARK                         _______ _______ _______ _____ _____    ______ ____
ROOT
ATOM      1  C   UNL     1     132.830 120.753  85.966  0.00  0.00    -0.064 C 
ATOM      2  C   UNL     1     134.282 120.650  85.525  0.00  0.00    -0.040 C 
ATOM      3  C   UNL     1     134.871 122.004  85.130  0.00  0.00    +0.008 C 
ATOM      4  N   UNL     1     135.020 122.876  86.294  0.00  0.00    -0.350 N 
ATOM      5  C   UNL     1     135.365 124.207  86.168  0.00  0.00    -0.011 C 
ATOM      6  C   UNL     1     135.826 125.055  87.097  0.00  0.00    -0.048 C 
ATOM      7  C   UNL     1     135.966 124.769  88.512  0.00  0.00    -0.052 C 
ATOM      8  C   UNL     1     136.585 125.546  89.415  0.00  0.00    -0.009 C 
ATOM      9  C   UNL     1     137.259 126.758  89.099  0.00  0.00    -0.040 C 
ATOM     10  C   UNL     1     137.829 127.771  88.793  0.00  0.00    +0.110 C 
ATOM     11  O   UNL     1     138.463 128.877  88.404  0.00  0.00    -0.093 OA
ATOM     12  O   UNL     1     139.155 129.364  89.592  0.00  0.00    -0.320 OA
ATOM     13  C   UNL     1     140.504 129.180  89.382  0.00  0.00    +0.193 A 
ATOM     14  C   UNL     1     141.202 128.546  90.416  0.00  0.00    -0.014 A 
ATOM     15  C   UNL     1     142.575 128.322  90.295  0.00  0.00    -0.058 A 
ATOM     16  C   UNL     1     143.247 128.726  89.145  0.00  0.00    -0.060 A 
ATOM     17  C   UNL     1     142.547 129.385  88.126  0.00  0.00    -0.033 A 
ATOM     18  C   UNL     1     141.177 129.652  88.245  0.00  0.00    +0.111 A 
ATOM     19  N   UNL     1     140.511 130.352  87.228  0.00  0.00    -0.231 N 
ATOM     20  C   UNL     1     140.686 131.631  87.071  0.00  0.00    +0.117 C 
ATOM     21  C   UNL     1     139.970 132.255  85.842  0.00  0.00    +0.065 C 
ATOM     22  N   UNL     1     139.428 133.560  86.230  0.00  0.00    -0.343 N 
ATOM     23  C   UNL     1     139.608 134.748  85.569  0.00  0.00    -0.010 C 
ATOM     24  C   UNL     1     138.946 135.881  85.820  0.00  0.00    -0.040 C 
ATOM     25  C   UNL     1     139.209 137.124  85.132  0.00  0.00    -0.009 C 
ATOM     26  C   UNL     1     138.554 138.215  85.413  0.00  0.00    -0.050 C 
ATOM     27  C   UNL     1     137.956 139.220  85.691  0.00  0.00    +0.031 C 
ATOM     28  N   UNL     1     137.373 140.200  85.967  0.00  0.00    -0.250 NA
ATOM     29  N   UNL     1     141.452 132.545  87.786  0.00  0.00    -0.308 N 
ATOM     30  C   UNL     1     141.706 132.608  89.137  0.00  0.00    -0.005 C 
ATOM     31  C   UNL     1     142.561 133.411  89.786  0.00  0.00    -0.044 C 
ATOM     32  C   UNL     1     143.524 134.287  89.140  0.00  0.00    -0.007 C 
ATOM     33  C   UNL     1     144.418 135.065  89.775  0.00  0.00    +0.188 C 
ATOM     34 CL   UNL     1     145.474 136.074  88.834  0.00  0.00    -0.044 Cl
ATOM     35  O   UNL     1     144.461 135.190  91.146  0.00  0.00    -0.480 OA
ATOM     36  C   UNL     1     145.410 134.289  91.717  0.00  0.00    +0.103 C 
ATOM     37  C   UNL     1     145.601 134.670  93.191  0.00  0.00    +0.030 C 
ATOM     38  N   UNL     1     146.379 133.670  93.930  0.00  0.00    -0.316 N 
ATOM     39  C   UNL     1     146.503 134.049  95.334  0.00  0.00    -0.016 C 
ATOM     40  H   UNL     1     134.870 122.505  87.193  0.00  0.00    +0.000 HD
ATOM     41  H   UNL     1     139.902 129.868  86.624  0.00  0.00    +0.000 HD
ATOM     42  H   UNL     1     138.880 133.587  87.047  0.00  0.00    +0.000 HD
ATOM     43  H   UNL     1     136.428 140.150  86.241  0.00  0.00    +0.000 HD
ATOM     44  H   UNL     1     141.875 133.251  87.245  0.00  0.00    +0.000 HD
ATOM     45  H   UNL     1     147.309 133.598  93.518  0.00  0.00    +0.000 HD
ATOM     46  H   UNL     1     145.897 132.773  93.874  0.00  0.00    +0.000 HD
ENDROOT
TORSDOF 0
ENDMDL
MODEL 4
REMARK VINA RESULT:    -5.063      5.031      8.834
REMARK INTER + INTRA:          -5.063
REMARK INTER:                  -5.063
REMARK INTRA:                   0.000
REMARK UNBOUND:                 0.000
REMARK  Name = /home/vital/Documents/PhD_2021/Malaria_codes/scripts/../data/pdbqt_ligands/ligand_375_temp.pdb
REMARK                            x       y       z     vdW  Elec       q    Type
REMARK                         _______ _______ _______ _____ _____    ______ ____
ROOT
ATOM      1  C   UNL     1     139.348 121.515 110.130  0.00  0.00    -0.064 C 
ATOM      2  C   UNL     1     138.266 121.456 109.062  0.00  0.00    -0.040 C 
ATOM      3  C   UNL     1     138.285 122.676 108.142  0.00  0.00    +0.008 C 
ATOM      4  N   UNL     1     139.477 122.682 107.295  0.00  0.00    -0.350 N 
ATOM      5  C   UNL     1     139.807 123.767 106.508  0.00  0.00    -0.011 C 
ATOM      6  C   UNL     1     140.660 123.839 105.478  0.00  0.00    -0.048 C 
ATOM      7  C   UNL     1     141.530 122.773 105.021  0.00  0.00    -0.052 C 
ATOM      8  C   UNL     1     142.256 122.778 103.891  0.00  0.00    -0.009 C 
ATOM      9  C   UNL     1     142.230 123.826 102.929  0.00  0.00    -0.040 C 
ATOM     10  C   UNL     1     142.174 124.723 102.132  0.00  0.00    +0.110 C 
ATOM     11  O   UNL     1     142.065 125.734 101.270  0.00  0.00    -0.093 OA
ATOM     12  O   UNL     1     142.841 125.331 100.102  0.00  0.00    -0.320 OA
ATOM     13  C   UNL     1     141.946 125.090  99.082  0.00  0.00    +0.193 A 
ATOM     14  C   UNL     1     142.105 123.875  98.406  0.00  0.00    -0.014 A 
ATOM     15  C   UNL     1     141.249 123.548  97.353  0.00  0.00    -0.058 A 
ATOM     16  C   UNL     1     140.236 124.427  96.979  0.00  0.00    -0.060 A 
ATOM     17  C   UNL     1     140.101 125.653  97.643  0.00  0.00    -0.033 A 
ATOM     18  C   UNL     1     140.974 126.016  98.678  0.00  0.00    +0.111 A 
ATOM     19  N   UNL     1     140.842 127.269  99.295  0.00  0.00    -0.231 N 
ATOM     20  C   UNL     1     141.208 128.358  98.685  0.00  0.00    +0.117 C 
ATOM     21  C   UNL     1     140.907 129.679  99.443  0.00  0.00    +0.065 C 
ATOM     22  N   UNL     1     142.041 130.589  99.265  0.00  0.00    -0.343 N 
ATOM     23  C   UNL     1     141.985 131.894  98.847  0.00  0.00    -0.010 C 
ATOM     24  C   UNL     1     142.999 132.763  98.884  0.00  0.00    -0.040 C 
ATOM     25  C   UNL     1     142.906 134.114  98.382  0.00  0.00    -0.009 C 
ATOM     26  C   UNL     1     143.921 134.931  98.421  0.00  0.00    -0.050 C 
ATOM     27  C   UNL     1     144.867 135.673  98.446  0.00  0.00    +0.031 C 
ATOM     28  N   UNL     1     145.793 136.392  98.469  0.00  0.00    -0.250 NA
ATOM     29  N   UNL     1     141.781 128.558  97.434  0.00  0.00    -0.308 N 
ATOM     30  C   UNL     1     142.704 127.790  96.760  0.00  0.00    -0.005 C 
ATOM     31  C   UNL     1     143.135 127.925  95.497  0.00  0.00    -0.044 C 
ATOM     32  C   UNL     1     142.571 128.846  94.526  0.00  0.00    -0.007 C 
ATOM     33  C   UNL     1     142.961 128.963  93.245  0.00  0.00    +0.188 C 
ATOM     34 CL   UNL     1     142.190 130.146  92.234  0.00  0.00    -0.044 Cl
ATOM     35  O   UNL     1     144.029 128.267  92.722  0.00  0.00    -0.480 OA
ATOM     36  C   UNL     1     143.598 127.065  92.083  0.00  0.00    +0.103 C 
ATOM     37  C   UNL     1     144.785 126.492  91.297  0.00  0.00    +0.030 C 
ATOM     38  N   UNL     1     144.520 125.141  90.792  0.00  0.00    -0.316 N 
ATOM     39  C   UNL     1     145.685 124.617  90.086  0.00  0.00    -0.016 C 
ATOM     40  H   UNL     1     140.062 121.890 107.286  0.00  0.00    +0.000 HD
ATOM     41  H   UNL     1     140.467 127.325 100.204  0.00  0.00    +0.000 HD
ATOM     42  H   UNL     1     142.935 130.227  99.466  0.00  0.00    +0.000 HD
ATOM     43  H   UNL     1     146.435 136.345  99.214  0.00  0.00    +0.000 HD
ATOM     44  H   UNL     1     141.483 129.368  96.961  0.00  0.00    +0.000 HD
ATOM     45  H   UNL     1     143.726 125.173  90.151  0.00  0.00    +0.000 HD
ATOM     46  H   UNL     1     144.312 124.530  91.582  0.00  0.00    +0.000 HD
ENDROOT
TORSDOF 0
ENDMDL
MODEL 5
REMARK VINA RESULT:    -4.861      3.081      3.493
REMARK INTER + INTRA:          -4.861
REMARK INTER:                  -4.861
REMARK INTRA:                   0.000
REMARK UNBOUND:                 0.000
REMARK  Name = /home/vital/Documents/PhD_2021/Malaria_codes/scripts/../data/pdbqt_ligands/ligand_375_temp.pdb
REMARK                            x       y       z     vdW  Elec       q    Type
REMARK                         _______ _______ _______ _____ _____    ______ ____
ROOT
ATOM      1  C   UNL     1     145.714 125.592 106.250  0.00  0.00    -0.064 C 
ATOM      2  C   UNL     1     146.855 125.706 105.251  0.00  0.00    -0.040 C 
ATOM      3  C   UNL     1     146.414 125.401 103.820  0.00  0.00    +0.008 C 
ATOM      4  N   UNL     1     145.523 126.441 103.307  0.00  0.00    -0.350 N 
ATOM      5  C   UNL     1     144.855 126.302 102.107  0.00  0.00    -0.011 C 
ATOM      6  C   UNL     1     144.255 127.236 101.357  0.00  0.00    -0.048 C 
ATOM      7  C   UNL     1     144.086 128.631 101.715  0.00  0.00    -0.052 C 
ATOM      8  C   UNL     1     143.646 129.605 100.903  0.00  0.00    -0.009 C 
ATOM      9  C   UNL     1     143.332 129.417  99.528  0.00  0.00    -0.040 C 
ATOM     10  C   UNL     1     143.088 129.226  98.367  0.00  0.00    +0.110 C 
ATOM     11  O   UNL     1     142.846 128.968  97.081  0.00  0.00    -0.093 OA
ATOM     12  O   UNL     1     142.563 130.264  96.474  0.00  0.00    -0.320 OA
ATOM     13  C   UNL     1     143.621 130.566  95.645  0.00  0.00    +0.193 A 
ATOM     14  C   UNL     1     144.174 131.842  95.801  0.00  0.00    -0.014 A 
ATOM     15  C   UNL     1     145.245 132.240  94.999  0.00  0.00    -0.058 A 
ATOM     16  C   UNL     1     145.765 131.365  94.048  0.00  0.00    -0.060 A 
ATOM     17  C   UNL     1     145.190 130.099  93.880  0.00  0.00    -0.033 A 
ATOM     18  C   UNL     1     144.090 129.696  94.649  0.00  0.00    +0.111 A 
ATOM     19  N   UNL     1     143.506 128.440  94.428  0.00  0.00    -0.231 N 
ATOM     20  C   UNL     1     142.775 128.217  93.375  0.00  0.00    +0.117 C 
ATOM     21  C   UNL     1     142.281 126.755  93.205  0.00  0.00    +0.065 C 
ATOM     22  N   UNL     1     140.899 126.782  92.720  0.00  0.00    -0.343 N 
ATOM     23  C   UNL     1     140.399 126.103  91.639  0.00  0.00    -0.010 C 
ATOM     24  C   UNL     1     139.104 125.980  91.334  0.00  0.00    -0.040 C 
ATOM     25  C   UNL     1     138.627 125.298  90.153  0.00  0.00    -0.009 C 
ATOM     26  C   UNL     1     137.356 125.210  89.878  0.00  0.00    -0.050 C 
ATOM     27  C   UNL     1     136.183 125.147  89.625  0.00  0.00    +0.031 C 
ATOM     28  N   UNL     1     135.037 125.091  89.379  0.00  0.00    -0.250 NA
ATOM     29  N   UNL     1     142.395 129.053  92.332  0.00  0.00    -0.308 N 
ATOM     30  C   UNL     1     142.074 130.392  92.353  0.00  0.00    -0.005 C 
ATOM     31  C   UNL     1     141.849 131.210  91.315  0.00  0.00    -0.044 C 
ATOM     32  C   UNL     1     142.062 130.856  89.923  0.00  0.00    -0.007 C 
ATOM     33  C   UNL     1     141.883 131.677  88.874  0.00  0.00    +0.188 C 
ATOM     34 CL   UNL     1     142.158 131.068  87.271  0.00  0.00    -0.044 Cl
ATOM     35  O   UNL     1     141.379 132.953  89.000  0.00  0.00    -0.480 OA
ATOM     36  C   UNL     1     142.428 133.917  89.090  0.00  0.00    +0.103 C 
ATOM     37  C   UNL     1     141.806 135.312  88.952  0.00  0.00    +0.030 C 
ATOM     38  N   UNL     1     142.761 136.382  89.259  0.00  0.00    -0.316 N 
ATOM     39  C   UNL     1     142.120 137.690  89.154  0.00  0.00    -0.016 C 
ATOM     40  H   UNL     1     145.395 127.263 103.833  0.00  0.00    +0.000 HD
ATOM     41  H   UNL     1     143.651 127.716  95.080  0.00  0.00    +0.000 HD
ATOM     42  H   UNL     1     140.265 127.344  93.222  0.00  0.00    +0.000 HD
ATOM     43  H   UNL     1     134.380 125.017  90.109  0.00  0.00    +0.000 HD
ATOM     44  H   UNL     1     142.347 128.624  91.447  0.00  0.00    +0.000 HD
ATOM     45  H   UNL     1     143.538 136.336  88.600  0.00  0.00    +0.000 HD
ATOM     46  H   UNL     1     143.098 136.257  90.213  0.00  0.00    +0.000 HD
ENDROOT
TORSDOF 0
ENDMDL
MODEL 6
REMARK VINA RESULT:    -4.671      2.574      3.024
REMARK INTER + INTRA:          -4.671
REMARK INTER:                  -4.671
REMARK INTRA:                   0.000
REMARK UNBOUND:                 0.000
REMARK  Name = /home/vital/Documents/PhD_2021/Malaria_codes/scripts/../data/pdbqt_ligands/ligand_375_temp.pdb
REMARK                            x       y       z     vdW  Elec       q    Type
REMARK                         _______ _______ _______ _____ _____    ______ ____
ROOT
ATOM      1  C   UNL     1     142.893 124.611 107.039  0.00  0.00    -0.064 C 
ATOM      2  C   UNL     1     144.196 124.552 106.256  0.00  0.00    -0.040 C 
ATOM      3  C   UNL     1     143.971 124.321 104.763  0.00  0.00    +0.008 C 
ATOM      4  N   UNL     1     143.349 125.486 104.134  0.00  0.00    -0.350 N 
ATOM      5  C   UNL     1     142.888 125.454 102.833  0.00  0.00    -0.011 C 
ATOM      6  C   UNL     1     142.577 126.470 102.019  0.00  0.00    -0.048 C 
ATOM      7  C   UNL     1     142.559 127.874 102.382  0.00  0.00    -0.052 C 
ATOM      8  C   UNL     1     142.419 128.906 101.535  0.00  0.00    -0.009 C 
ATOM      9  C   UNL     1     142.325 128.772 100.122  0.00  0.00    -0.040 C 
ATOM     10  C   UNL     1     142.262 128.622  98.931  0.00  0.00    +0.110 C 
ATOM     11  O   UNL     1     142.213 128.408  97.616  0.00  0.00    -0.093 OA
ATOM     12  O   UNL     1     142.238 129.733  97.007  0.00  0.00    -0.320 OA
ATOM     13  C   UNL     1     143.458 129.872  96.382  0.00  0.00    +0.193 A 
ATOM     14  C   UNL     1     144.160 131.048  96.667  0.00  0.00    -0.014 A 
ATOM     15  C   UNL     1     145.403 131.278  96.073  0.00  0.00    -0.058 A 
ATOM     16  C   UNL     1     145.944 130.337  95.202  0.00  0.00    -0.060 A 
ATOM     17  C   UNL     1     145.223 129.174  94.900  0.00  0.00    -0.033 A 
ATOM     18  C   UNL     1     143.958 128.942  95.456  0.00  0.00    +0.111 A 
ATOM     19  N   UNL     1     143.239 127.791  95.102  0.00  0.00    -0.231 N 
ATOM     20  C   UNL     1     142.679 127.685  93.933  0.00  0.00    +0.117 C 
ATOM     21  C   UNL     1     142.008 126.316  93.638  0.00  0.00    +0.065 C 
ATOM     22  N   UNL     1     140.752 126.555  92.923  0.00  0.00    -0.343 N 
ATOM     23  C   UNL     1     140.352 125.963  91.753  0.00  0.00    -0.010 C 
ATOM     24  C   UNL     1     139.126 126.040  91.226  0.00  0.00    -0.040 C 
ATOM     25  C   UNL     1     138.766 125.443  89.961  0.00  0.00    -0.009 C 
ATOM     26  C   UNL     1     137.565 125.550  89.469  0.00  0.00    -0.050 C 
ATOM     27  C   UNL     1     136.457 125.669  89.016  0.00  0.00    +0.031 C 
ATOM     28  N   UNL     1     135.377 125.789  88.574  0.00  0.00    -0.250 NA
ATOM     29  N   UNL     1     142.616 128.572  92.864  0.00  0.00    -0.308 N 
ATOM     30  C   UNL     1     142.502 129.943  92.869  0.00  0.00    -0.005 C 
ATOM     31  C   UNL     1     142.587 130.789  91.832  0.00  0.00    -0.044 C 
ATOM     32  C   UNL     1     142.984 130.409  90.487  0.00  0.00    -0.007 C 
ATOM     33  C   UNL     1     143.117 131.251  89.447  0.00  0.00    +0.188 C 
ATOM     34 CL   UNL     1     143.573 130.610  87.898  0.00  0.00    -0.044 Cl
ATOM     35  O   UNL     1     142.796 132.588  89.521  0.00  0.00    -0.480 OA
ATOM     36  C   UNL     1     143.946 133.380  89.819  0.00  0.00    +0.103 C 
ATOM     37  C   UNL     1     143.575 134.855  89.616  0.00  0.00    +0.030 C 
ATOM     38  N   UNL     1     144.611 135.765  90.114  0.00  0.00    -0.316 N 
ATOM     39  C   UNL     1     144.202 137.155  89.938  0.00  0.00    -0.016 C 
ATOM     40  H   UNL     1     143.257 126.317 104.653  0.00  0.00    +0.000 HD
ATOM     41  H   UNL     1     143.158 127.052  95.748  0.00  0.00    +0.000 HD
ATOM     42  H   UNL     1     140.132 127.207  93.324  0.00  0.00    +0.000 HD
ATOM     43  H   UNL     1     134.599 125.815  89.177  0.00  0.00    +0.000 HD
ATOM     44  H   UNL     1     142.660 128.157  91.972  0.00  0.00    +0.000 HD
ATOM     45  H   UNL     1     145.476 135.602  89.597  0.00  0.00    +0.000 HD
ATOM     46  H   UNL     1     144.754 135.588  91.108  0.00  0.00    +0.000 HD
ENDROOT
TORSDOF 0
ENDMDL
MODEL 7
REMARK VINA RESULT:    -4.667      4.058      5.333
REMARK INTER + INTRA:          -4.667
REMARK INTER:                  -4.667
REMARK INTRA:                   0.000
REMARK UNBOUND:                 0.000
REMARK  Name = /home/vital/Documents/PhD_2021/Malaria_codes/scripts/../data/pdbqt_ligands/ligand_375_temp.pdb
REMARK                            x       y       z     vdW  Elec       q    Type
REMARK                         _______ _______ _______ _____ _____    ______ ____
ROOT
ATOM      1  C   UNL     1     145.194 123.505 103.970  0.00  0.00    -0.064 C 
ATOM      2  C   UNL     1     146.205 123.458 102.834  0.00  0.00    -0.040 C 
ATOM      3  C   UNL     1     145.546 123.234 101.474  0.00  0.00    +0.008 C 
ATOM      4  N   UNL     1     144.761 124.399 101.067  0.00  0.00    -0.350 N 
ATOM      5  C   UNL     1     143.934 124.372  99.962  0.00  0.00    -0.011 C 
ATOM      6  C   UNL     1     143.390 125.391  99.284  0.00  0.00    -0.048 C 
ATOM      7  C   UNL     1     143.476 126.793  99.647  0.00  0.00    -0.052 C 
ATOM      8  C   UNL     1     143.087 127.829  98.887  0.00  0.00    -0.009 C 
ATOM      9  C   UNL     1     142.577 127.702  97.565  0.00  0.00    -0.040 C 
ATOM     10  C   UNL     1     142.163 127.559  96.446  0.00  0.00    +0.110 C 
ATOM     11  O   UNL     1     141.725 127.352  95.204  0.00  0.00    -0.093 OA
ATOM     12  O   UNL     1     141.563 128.681  94.624  0.00  0.00    -0.320 OA
ATOM     13  C   UNL     1     142.541 128.829  93.665  0.00  0.00    +0.193 A 
ATOM     14  C   UNL     1     143.292 130.008  93.736  0.00  0.00    -0.014 A 
ATOM     15  C   UNL     1     144.301 130.248  92.802  0.00  0.00    -0.058 A 
ATOM     16  C   UNL     1     144.561 129.315  91.802  0.00  0.00    -0.060 A 
ATOM     17  C   UNL     1     143.787 128.150  91.720  0.00  0.00    -0.033 A 
ATOM     18  C   UNL     1     142.745 127.908  92.626  0.00  0.00    +0.111 A 
ATOM     19  N   UNL     1     141.958 126.755  92.494  0.00  0.00    -0.231 N 
ATOM     20  C   UNL     1     141.075 126.653  91.544  0.00  0.00    +0.117 C 
ATOM     21  C   UNL     1     140.352 125.281  91.452  0.00  0.00    +0.065 C 
ATOM     22  N   UNL     1     138.939 125.518  91.146  0.00  0.00    -0.343 N 
ATOM     23  C   UNL     1     138.210 124.930  90.143  0.00  0.00    -0.010 C 
ATOM     24  C   UNL     1     136.883 125.004  90.006  0.00  0.00    -0.040 C 
ATOM     25  C   UNL     1     136.165 124.412  88.901  0.00  0.00    -0.009 C 
ATOM     26  C   UNL     1     134.871 124.516  88.790  0.00  0.00    -0.050 C 
ATOM     27  C   UNL     1     133.679 124.631  88.688  0.00  0.00    +0.031 C 
ATOM     28  N   UNL     1     132.516 124.748  88.589  0.00  0.00    -0.250 NA
ATOM     29  N   UNL     1     140.694 127.545  90.549  0.00  0.00    -0.308 N 
ATOM     30  C   UNL     1     140.581 128.916  90.597  0.00  0.00    -0.005 C 
ATOM     31  C   UNL     1     140.351 129.768  89.587  0.00  0.00    -0.044 C 
ATOM     32  C   UNL     1     140.331 129.398  88.183  0.00  0.00    -0.007 C 
ATOM     33  C   UNL     1     140.146 130.246  87.157  0.00  0.00    +0.188 C 
ATOM     34 CL   UNL     1     140.121 129.617  85.538  0.00  0.00    -0.044 Cl
ATOM     35  O   UNL     1     139.857 131.582  87.332  0.00  0.00    -0.480 OA
ATOM     36  C   UNL     1     141.040 132.378  87.280  0.00  0.00    +0.103 C 
ATOM     37  C   UNL     1     140.620 133.852  87.207  0.00  0.00    +0.030 C 
ATOM     38  N   UNL     1     141.754 134.765  87.380  0.00  0.00    -0.316 N 
ATOM     39  C   UNL     1     141.307 136.154  87.344  0.00  0.00    -0.016 C 
ATOM     40  H   UNL     1     144.824 125.227 101.596  0.00  0.00    +0.000 HD
ATOM     41  H   UNL     1     142.075 126.012  93.129  0.00  0.00    +0.000 HD
ATOM     42  H   UNL     1     138.464 126.164  91.717  0.00  0.00    +0.000 HD
ATOM     43  H   UNL     1     131.952 124.765  89.397  0.00  0.00    +0.000 HD
ATOM     44  H   UNL     1     140.472 127.136  89.681  0.00  0.00    +0.000 HD
ATOM     45  H   UNL     1     142.427 134.610  86.628  0.00  0.00    +0.000 HD
ATOM     46  H   UNL     1     142.187 134.583  88.285  0.00  0.00    +0.000 HD
ENDROOT
TORSDOF 0
ENDMDL
MODEL 8
REMARK VINA RESULT:    -4.609      5.018     12.995
REMARK INTER + INTRA:          -4.609
REMARK INTER:                  -4.609
REMARK INTRA:                   0.000
REMARK UNBOUND:                 0.000
REMARK  Name = /home/vital/Documents/PhD_2021/Malaria_codes/scripts/../data/pdbqt_ligands/ligand_375_temp.pdb
REMARK                            x       y       z     vdW  Elec       q    Type
REMARK                         _______ _______ _______ _____ _____    ______ ____
ROOT
ATOM      1  C   UNL     1     145.687 142.567  88.794  0.00  0.00    -0.064 C 
ATOM      2  C   UNL     1     146.299 141.543  87.851  0.00  0.00    -0.040 C 
ATOM      3  C   UNL     1     146.310 140.134  88.443  0.00  0.00    +0.008 C 
ATOM      4  N   UNL     1     144.955 139.597  88.557  0.00  0.00    -0.350 N 
ATOM      5  C   UNL     1     144.692 138.417  89.223  0.00  0.00    -0.011 C 
ATOM      6  C   UNL     1     143.600 137.641  89.175  0.00  0.00    -0.048 C 
ATOM      7  C   UNL     1     142.374 137.945  88.464  0.00  0.00    -0.052 C 
ATOM      8  C   UNL     1     141.347 137.103  88.267  0.00  0.00    -0.009 C 
ATOM      9  C   UNL     1     141.338 135.743  88.685  0.00  0.00    -0.040 C 
ATOM     10  C   UNL     1     141.371 134.596  89.041  0.00  0.00    +0.110 C 
ATOM     11  O   UNL     1     141.459 133.327  89.440  0.00  0.00    -0.093 OA
ATOM     12  O   UNL     1     140.264 132.673  88.917  0.00  0.00    -0.320 OA
ATOM     13  C   UNL     1     140.672 131.812  87.922  0.00  0.00    +0.193 A 
ATOM     14  C   UNL     1     139.977 131.905  86.711  0.00  0.00    -0.014 A 
ATOM     15  C   UNL     1     140.316 131.067  85.647  0.00  0.00    -0.058 A 
ATOM     16  C   UNL     1     141.348 130.143  85.791  0.00  0.00    -0.060 A 
ATOM     17  C   UNL     1     142.022 130.037  87.014  0.00  0.00    -0.033 A 
ATOM     18  C   UNL     1     141.671 130.843  88.105  0.00  0.00    +0.111 A 
ATOM     19  N   UNL     1     142.333 130.685  89.332  0.00  0.00    -0.231 N 
ATOM     20  C   UNL     1     142.096 129.656  90.092  0.00  0.00    +0.117 C 
ATOM     21  C   UNL     1     142.976 129.555  91.368  0.00  0.00    +0.065 C 
ATOM     22  N   UNL     1     142.138 129.096  92.478  0.00  0.00    -0.343 N 
ATOM     23  C   UNL     1     142.405 128.053  93.328  0.00  0.00    -0.010 C 
ATOM     24  C   UNL     1     141.736 127.779  94.451  0.00  0.00    -0.040 C 
ATOM     25  C   UNL     1     142.021 126.636  95.287  0.00  0.00    -0.009 C 
ATOM     26  C   UNL     1     141.338 126.390  96.369  0.00  0.00    -0.050 C 
ATOM     27  C   UNL     1     140.692 126.162  97.357  0.00  0.00    +0.031 C 
ATOM     28  N   UNL     1     140.057 125.941  98.317  0.00  0.00    -0.250 NA
ATOM     29  N   UNL     1     141.220 128.587  89.940  0.00  0.00    -0.308 N 
ATOM     30  C   UNL     1     139.956 128.561  89.397  0.00  0.00    -0.005 C 
ATOM     31  C   UNL     1     139.187 127.495  89.130  0.00  0.00    -0.044 C 
ATOM     32  C   UNL     1     139.628 126.114  89.226  0.00  0.00    -0.007 C 
ATOM     33  C   UNL     1     138.885 125.036  88.920  0.00  0.00    +0.188 C 
ATOM     34 CL   UNL     1     139.571 123.454  89.128  0.00  0.00    -0.044 Cl
ATOM     35  O   UNL     1     137.558 125.120  88.558  0.00  0.00    -0.480 OA
ATOM     36  C   UNL     1     137.412 125.151  87.138  0.00  0.00    +0.103 C 
ATOM     37  C   UNL     1     135.924 124.968  86.809  0.00  0.00    +0.030 C 
ATOM     38  N   UNL     1     135.632 125.213  85.393  0.00  0.00    -0.316 N 
ATOM     39  C   UNL     1     134.203 125.068  85.130  0.00  0.00    -0.016 C 
ATOM     40  H   UNL     1     144.208 140.091  88.148  0.00  0.00    +0.000 HD
ATOM     41  H   UNL     1     142.986 131.362  89.622  0.00  0.00    +0.000 HD
ATOM     42  H   UNL     1     141.298 129.586  92.631  0.00  0.00    +0.000 HD
ATOM     43  H   UNL     1     139.708 126.685  98.860  0.00  0.00    +0.000 HD
ATOM     44  H   UNL     1     141.554 127.721  90.269  0.00  0.00    +0.000 HD
ATOM     45  H   UNL     1     136.147 124.542  84.824  0.00  0.00    +0.000 HD
ATOM     46  H   UNL     1     135.914 126.165  85.159  0.00  0.00    +0.000 HD
ENDROOT
TORSDOF 0
ENDMDL
MODEL 9
REMARK VINA RESULT:    -4.542      5.693     13.154
REMARK INTER + INTRA:          -4.542
REMARK INTER:                  -4.542
REMARK INTRA:                   0.000
REMARK UNBOUND:                 0.000
REMARK  Name = /home/vital/Documents/PhD_2021/Malaria_codes/scripts/../data/pdbqt_ligands/ligand_375_temp.pdb
REMARK                            x       y       z     vdW  Elec       q    Type
REMARK                         _______ _______ _______ _____ _____    ______ ____
ROOT
ATOM      1  C   UNL     1     146.400 139.874  88.920  0.00  0.00    -0.064 C 
ATOM      2  C   UNL     1     146.755 138.830  87.872  0.00  0.00    -0.040 C 
ATOM      3  C   UNL     1     146.666 137.404  88.412  0.00  0.00    +0.008 C 
ATOM      4  N   UNL     1     145.280 137.027  88.687  0.00  0.00    -0.350 N 
ATOM      5  C   UNL     1     144.959 135.855  89.343  0.00  0.00    -0.011 C 
ATOM      6  C   UNL     1     143.783 135.218  89.414  0.00  0.00    -0.048 C 
ATOM      7  C   UNL     1     142.524 135.700  88.881  0.00  0.00    -0.052 C 
ATOM      8  C   UNL     1     141.384 134.996  88.794  0.00  0.00    -0.009 C 
ATOM      9  C   UNL     1     141.259 133.628  89.165  0.00  0.00    -0.040 C 
ATOM     10  C   UNL     1     141.194 132.469  89.477  0.00  0.00    +0.110 C 
ATOM     11  O   UNL     1     141.174 131.181  89.819  0.00  0.00    -0.093 OA
ATOM     12  O   UNL     1     139.850 130.700  89.438  0.00  0.00    -0.320 OA
ATOM     13  C   UNL     1     140.019 129.845  88.370  0.00  0.00    +0.193 A 
ATOM     14  C   UNL     1     139.193 130.078  87.265  0.00  0.00    -0.014 A 
ATOM     15  C   UNL     1     139.288 129.258  86.139  0.00  0.00    -0.058 A 
ATOM     16  C   UNL     1     140.207 128.212  86.116  0.00  0.00    -0.060 A 
ATOM     17  C   UNL     1     141.012 127.968  87.236  0.00  0.00    -0.033 A 
ATOM     18  C   UNL     1     140.905 128.757  88.389  0.00  0.00    +0.111 A 
ATOM     19  N   UNL     1     141.692 128.462  89.513  0.00  0.00    -0.231 N 
ATOM     20  C   UNL     1     141.427 127.434  90.264  0.00  0.00    +0.117 C 
ATOM     21  C   UNL     1     142.443 127.168  91.409  0.00  0.00    +0.065 C 
ATOM     22  N   UNL     1     141.701 126.759  92.604  0.00  0.00    -0.343 N 
ATOM     23  C   UNL     1     141.943 125.652  93.377  0.00  0.00    -0.010 C 
ATOM     24  C   UNL     1     141.392 125.406  94.569  0.00  0.00    -0.040 C 
ATOM     25  C   UNL     1     141.637 124.198  95.323  0.00  0.00    -0.009 C 
ATOM     26  C   UNL     1     141.071 123.983  96.477  0.00  0.00    -0.050 C 
ATOM     27  C   UNL     1     140.532 123.787  97.533  0.00  0.00    +0.031 C 
ATOM     28  N   UNL     1     140.001 123.597  98.562  0.00  0.00    -0.250 NA
ATOM     29  N   UNL     1     140.414 126.485  90.193  0.00  0.00    -0.308 N 
ATOM     30  C   UNL     1     139.097 126.635  89.821  0.00  0.00    -0.005 C 
ATOM     31  C   UNL     1     138.175 125.682  89.623  0.00  0.00    -0.044 C 
ATOM     32  C   UNL     1     138.449 124.256  89.616  0.00  0.00    -0.007 C 
ATOM     33  C   UNL     1     137.545 123.290  89.376  0.00  0.00    +0.188 C 
ATOM     34 CL   UNL     1     138.051 121.629  89.441  0.00  0.00    -0.044 Cl
ATOM     35  O   UNL     1     136.204 123.548  89.194  0.00  0.00    -0.480 OA
ATOM     36  C   UNL     1     135.884 123.665  87.808  0.00  0.00    +0.103 C 
ATOM     37  C   UNL     1     134.356 123.676  87.671  0.00  0.00    +0.030 C 
ATOM     38  N   UNL     1     133.919 124.022  86.315  0.00  0.00    -0.316 N 
ATOM     39  C   UNL     1     132.462 124.060  86.238  0.00  0.00    -0.016 C 
ATOM     40  H   UNL     1     144.555 137.625  88.395  0.00  0.00    +0.000 HD
ATOM     41  H   UNL     1     142.455 129.043  89.736  0.00  0.00    +0.000 HD
ATOM     42  H   UNL     1     140.954 127.338  92.881  0.00  0.00    +0.000 HD
ATOM     43  H   UNL     1     139.819 124.351  99.169  0.00  0.00    +0.000 HD
ATOM     44  H   UNL     1     140.677 125.571  90.448  0.00  0.00    +0.000 HD
ATOM     45  H   UNL     1     134.271 123.322  85.661  0.00  0.00    +0.000 HD
ATOM     46  H   UNL     1     134.285 124.943  86.077  0.00  0.00    +0.000 HD
ENDROOT
TORSDOF 0
ENDMDL
