MODEL 1
REMARK VINA RESULT:    -2.749      0.000      0.000
REMARK INTER + INTRA:          -2.749
REMARK INTER:                  -2.749
REMARK INTRA:                   0.000
REMARK UNBOUND:                 0.000
REMARK  Name = /home/vital/Documents/PhD_2021/Malaria_codes/scripts/../data/pdbqt_ligands/ligand_142_temp.pdb
REMARK                            x       y       z     vdW  Elec       q    Type
REMARK                         _______ _______ _______ _____ _____    ______ ____
ROOT
ATOM      1 CL1  UNL     1     123.184 135.067  87.061  0.00  0.00    -0.125 Cl
ATOM      2  C1  UNL     1     123.914 136.666  86.794  0.00  0.00    +0.024 C 
ATOM      3  C2  UNL     1     125.423 136.646  86.989  0.00  0.00    -0.026 C 
ATOM      4  C3  UNL     1     126.139 135.776  85.962  0.00  0.00    +0.024 C 
ATOM      5 CL2  UNL     1     127.903 135.919  86.160  0.00  0.00    -0.125 Cl
ENDROOT
TORSDOF 0
ENDMDL
MODEL 2
REMARK VINA RESULT:    -2.537      1.128      3.494
REMARK INTER + INTRA:          -2.537
REMARK INTER:                  -2.537
REMARK INTRA:                   0.000
REMARK UNBOUND:                 0.000
REMARK  Name = /home/vital/Documents/PhD_2021/Malaria_codes/scripts/../data/pdbqt_ligands/ligand_142_temp.pdb
REMARK                            x       y       z     vdW  Elec       q    Type
REMARK                         _______ _______ _______ _____ _____    ______ ____
ROOT
ATOM      1 CL1  UNL     1     128.218 135.960  85.873  0.00  0.00    -0.125 Cl
ATOM      2  C1  UNL     1     127.143 136.219  87.266  0.00  0.00    +0.024 C 
ATOM      3  C2  UNL     1     125.687 136.360  86.846  0.00  0.00    -0.026 C 
ATOM      4  C3  UNL     1     125.127 135.087  86.224  0.00  0.00    +0.024 C 
ATOM      5 CL2  UNL     1     123.386 135.279  85.896  0.00  0.00    -0.125 Cl
ENDROOT
TORSDOF 0
ENDMDL
MODEL 3
REMARK VINA RESULT:    -2.468      2.802      3.597
REMARK INTER + INTRA:          -2.468
REMARK INTER:                  -2.468
REMARK INTRA:                   0.000
REMARK UNBOUND:                 0.000
REMARK  Name = /home/vital/Documents/PhD_2021/Malaria_codes/scripts/../data/pdbqt_ligands/ligand_142_temp.pdb
REMARK                            x       y       z     vdW  Elec       q    Type
REMARK                         _______ _______ _______ _____ _____    ______ ____
ROOT
ATOM      1 CL1  UNL     1     123.223 131.725  87.288  0.00  0.00    -0.125 Cl
ATOM      2  C1  UNL     1     124.749 132.443  86.725  0.00  0.00    +0.024 C 
ATOM      3  C2  UNL     1     124.517 133.675  85.861  0.00  0.00    -0.026 C 
ATOM      4  C3  UNL     1     123.872 134.821  86.631  0.00  0.00    +0.024 C 
ATOM      5 CL2  UNL     1     123.768 136.270  85.600  0.00  0.00    -0.125 Cl
ENDROOT
TORSDOF 0
ENDMDL
MODEL 4
REMARK VINA RESULT:    -2.354     20.199     20.516
REMARK INTER + INTRA:          -2.354
REMARK INTER:                  -2.354
REMARK INTRA:                   0.000
REMARK UNBOUND:                 0.000
REMARK  Name = /home/vital/Documents/PhD_2021/Malaria_codes/scripts/../data/pdbqt_ligands/ligand_142_temp.pdb
REMARK                            x       y       z     vdW  Elec       q    Type
REMARK                         _______ _______ _______ _____ _____    ______ ____
ROOT
ATOM      1 CL1  UNL     1     138.228 128.683 100.989  0.00  0.00    -0.125 Cl
ATOM      2  C1  UNL     1     139.054 128.809  99.420  0.00  0.00    +0.024 C 
ATOM      3  C2  UNL     1     139.522 130.229  99.133  0.00  0.00    -0.026 C 
ATOM      4  C3  UNL     1     140.588 130.707 100.111  0.00  0.00    +0.024 C 
ATOM      5 CL2  UNL     1     141.191 132.312  99.625  0.00  0.00    -0.125 Cl
ENDROOT
TORSDOF 0
ENDMDL
MODEL 5
REMARK VINA RESULT:    -2.188      2.355      3.148
REMARK INTER + INTRA:          -2.188
REMARK INTER:                  -2.188
REMARK INTRA:                   0.000
REMARK UNBOUND:                 0.000
REMARK  Name = /home/vital/Documents/PhD_2021/Malaria_codes/scripts/../data/pdbqt_ligands/ligand_142_temp.pdb
REMARK                            x       y       z     vdW  Elec       q    Type
REMARK                         _______ _______ _______ _____ _____    ______ ____
ROOT
ATOM      1 CL1  UNL     1     126.017 136.564  87.072  0.00  0.00    -0.125 Cl
ATOM      2  C1  UNL     1     124.518 136.391  86.131  0.00  0.00    +0.024 C 
ATOM      3  C2  UNL     1     124.508 135.114  85.302  0.00  0.00    -0.026 C 
ATOM      4  C3  UNL     1     124.511 133.855  86.160  0.00  0.00    +0.024 C 
ATOM      5 CL2  UNL     1     124.349 132.411  85.130  0.00  0.00    -0.125 Cl
ENDROOT
TORSDOF 0
ENDMDL
MODEL 6
REMARK VINA RESULT:    -2.167     19.862     20.310
REMARK INTER + INTRA:          -2.167
REMARK INTER:                  -2.167
REMARK INTRA:                   0.000
REMARK UNBOUND:                 0.000
REMARK  Name = /home/vital/Documents/PhD_2021/Malaria_codes/scripts/../data/pdbqt_ligands/ligand_142_temp.pdb
REMARK                            x       y       z     vdW  Elec       q    Type
REMARK                         _______ _______ _______ _____ _____    ______ ____
ROOT
ATOM      1 CL1  UNL     1     139.571 126.504  98.074  0.00  0.00    -0.125 Cl
ATOM      2  C1  UNL     1     138.272 127.718  98.110  0.00  0.00    +0.024 C 
ATOM      3  C2  UNL     1     138.186 128.423  99.457  0.00  0.00    -0.026 C 
ATOM      4  C3  UNL     1     139.426 129.250  99.770  0.00  0.00    +0.024 C 
ATOM      5 CL2  UNL     1     139.191 130.159 101.284  0.00  0.00    -0.125 Cl
ENDROOT
TORSDOF 0
ENDMDL
MODEL 7
REMARK VINA RESULT:    -2.117      2.031      2.123
REMARK INTER + INTRA:          -2.117
REMARK INTER:                  -2.117
REMARK INTRA:                   0.000
REMARK UNBOUND:                 0.000
REMARK  Name = /home/vital/Documents/PhD_2021/Malaria_codes/scripts/../data/pdbqt_ligands/ligand_142_temp.pdb
REMARK                            x       y       z     vdW  Elec       q    Type
REMARK                         _______ _______ _______ _____ _____    ______ ____
ROOT
ATOM      1 CL1  UNL     1     124.418 132.660  85.821  0.00  0.00    -0.125 Cl
ATOM      2  C1  UNL     1     124.201 134.350  85.310  0.00  0.00    +0.024 C 
ATOM      3  C2  UNL     1     124.806 135.330  86.304  0.00  0.00    -0.026 C 
ATOM      4  C3  UNL     1     126.321 135.204  86.408  0.00  0.00    +0.024 C 
ATOM      5 CL2  UNL     1     126.971 136.476  87.473  0.00  0.00    -0.125 Cl
ENDROOT
TORSDOF 0
ENDMDL
MODEL 8
REMARK VINA RESULT:    -2.102      2.235      3.675
REMARK INTER + INTRA:          -2.102
REMARK INTER:                  -2.102
REMARK INTRA:                   0.000
REMARK UNBOUND:                 0.000
REMARK  Name = /home/vital/Documents/PhD_2021/Malaria_codes/scripts/../data/pdbqt_ligands/ligand_142_temp.pdb
REMARK                            x       y       z     vdW  Elec       q    Type
REMARK                         _______ _______ _______ _____ _____    ______ ____
ROOT
ATOM      1 CL1  UNL     1     126.514 136.424  87.285  0.00  0.00    -0.125 Cl
ATOM      2  C1  UNL     1     126.868 135.161  86.084  0.00  0.00    +0.024 C 
ATOM      3  C2  UNL     1     126.127 133.865  86.383  0.00  0.00    -0.026 C 
ATOM      4  C3  UNL     1     124.614 134.013  86.277  0.00  0.00    +0.024 C 
ATOM      5 CL2  UNL     1     123.827 132.429  86.492  0.00  0.00    -0.125 Cl
ENDROOT
TORSDOF 0
ENDMDL
MODEL 9
REMARK VINA RESULT:    -1.976      2.349      3.527
REMARK INTER + INTRA:          -1.976
REMARK INTER:                  -1.976
REMARK INTRA:                   0.000
REMARK UNBOUND:                 0.000
REMARK  Name = /home/vital/Documents/PhD_2021/Malaria_codes/scripts/../data/pdbqt_ligands/ligand_142_temp.pdb
REMARK                            x       y       z     vdW  Elec       q    Type
REMARK                         _______ _______ _______ _____ _____    ______ ____
ROOT
ATOM      1 CL1  UNL     1     127.315 132.916  87.156  0.00  0.00    -0.125 Cl
ATOM      2  C1  UNL     1     126.002 132.943  85.957  0.00  0.00    +0.024 C 
ATOM      3  C2  UNL     1     124.984 134.038  86.249  0.00  0.00    -0.026 C 
ATOM      4  C3  UNL     1     125.575 135.438  86.131  0.00  0.00    +0.024 C 
ATOM      5 CL2  UNL     1     124.297 136.661  86.339  0.00  0.00    -0.125 Cl
ENDROOT
TORSDOF 0
ENDMDL
