MODEL 1
REMARK VINA RESULT:    -5.405      0.000      0.000
REMARK INTER + INTRA:          -5.405
REMARK INTER:                  -5.405
REMARK INTRA:                   0.000
REMARK UNBOUND:                 0.000
REMARK  Name = /home/vital/Documents/PhD_2021/Malaria_codes/scripts/../data/pdbqt_ligands/ligand_16_temp.pdb
REMARK                            x       y       z     vdW  Elec       q    Type
REMARK                         _______ _______ _______ _____ _____    ______ ____
ROOT
ATOM      1  O   UNL     1     143.258 125.100 105.343  0.00  0.00    -0.388 OA
ATOM      2  C   UNL     1     142.428 125.236 104.178  0.00  0.00    +0.072 C 
ATOM      3  C   UNL     1     141.491 124.001 104.080  0.00  0.00    +0.001 C 
ATOM      4  C   UNL     1     140.545 123.784 105.244  0.00  0.00    -0.044 A 
ATOM      5  C   UNL     1     140.997 123.158 106.416  0.00  0.00    -0.056 A 
ATOM      6  C   UNL     1     140.128 122.956 107.490  0.00  0.00    -0.026 A 
ATOM      7  C   UNL     1     138.807 123.375 107.390  0.00  0.00    +0.123 A 
ATOM      8  F   UNL     1     137.974 123.181 108.421  0.00  0.00    -0.205 F 
ATOM      9  C   UNL     1     138.338 123.989 106.236  0.00  0.00    -0.026 A 
ATOM     10  C   UNL     1     139.205 124.191 105.161  0.00  0.00    -0.056 A 
ATOM     11  C   UNL     1     141.685 126.584 104.272  0.00  0.00    -0.011 C 
ATOM     12  C   UNL     1     141.415 127.158 102.884  0.00  0.00    +0.002 C 
ATOM     13  N   UNL     1     142.664 127.493 102.179  0.00  0.00    -0.298 N 
ATOM     14  C   UNL     1     142.478 127.541 100.720  0.00  0.00    +0.024 C 
ATOM     15  C   UNL     1     141.487 128.598 100.266  0.00  0.00    -0.028 A 
ATOM     16  C   UNL     1     140.349 128.192  99.544  0.00  0.00    -0.057 A 
ATOM     17  C   UNL     1     139.411 129.124  99.098  0.00  0.00    -0.061 A 
ATOM     18  C   UNL     1     139.596 130.475  99.364  0.00  0.00    -0.061 A 
ATOM     19  C   UNL     1     140.718 130.897 100.075  0.00  0.00    -0.056 A 
ATOM     20  C   UNL     1     141.678 129.975 100.526  0.00  0.00    -0.013 A 
ATOM     21  C   UNL     1     142.861 130.479 101.318  0.00  0.00    +0.116 C 
ATOM     22  F   UNL     1     143.052 131.828 101.196  0.00  0.00    -0.244 F 
ATOM     23  C   UNL     1     143.797 126.633 102.560  0.00  0.00    +0.002 C 
ATOM     24  C   UNL     1     143.374 125.220 102.954  0.00  0.00    -0.011 C 
ATOM     25  H   UNL     1     142.702 125.105 106.138  0.00  0.00    +0.000 HD
ATOM     26  H   UNL     1     142.912 128.434 102.485  0.00  0.00    +0.000 HD
ENDROOT
TORSDOF 0
ENDMDL
MODEL 2
REMARK VINA RESULT:    -5.337      1.745      1.964
REMARK INTER + INTRA:          -5.337
REMARK INTER:                  -5.337
REMARK INTRA:                   0.000
REMARK UNBOUND:                 0.000
REMARK  Name = /home/vital/Documents/PhD_2021/Malaria_codes/scripts/../data/pdbqt_ligands/ligand_16_temp.pdb
REMARK                            x       y       z     vdW  Elec       q    Type
REMARK                         _______ _______ _______ _____ _____    ______ ____
ROOT
ATOM      1  O   UNL     1     145.010 126.615 104.926  0.00  0.00    -0.388 OA
ATOM      2  C   UNL     1     143.916 126.415 104.016  0.00  0.00    +0.072 C 
ATOM      3  C   UNL     1     143.168 125.111 104.406  0.00  0.00    +0.001 C 
ATOM      4  C   UNL     1     142.568 125.072 105.796  0.00  0.00    -0.044 A 
ATOM      5  C   UNL     1     143.371 124.762 106.906  0.00  0.00    -0.056 A 
ATOM      6  C   UNL     1     142.821 124.726 108.188  0.00  0.00    -0.026 A 
ATOM      7  C   UNL     1     141.469 124.993 108.362  0.00  0.00    +0.123 A 
ATOM      8  F   UNL     1     140.942 124.957 109.593  0.00  0.00    -0.205 F 
ATOM      9  C   UNL     1     140.655 125.293 107.277  0.00  0.00    -0.026 A 
ATOM     10  C   UNL     1     141.203 125.330 105.993  0.00  0.00    -0.056 A 
ATOM     11  C   UNL     1     143.032 127.679 104.044  0.00  0.00    -0.011 C 
ATOM     12  C   UNL     1     142.360 127.906 102.694  0.00  0.00    +0.002 C 
ATOM     13  N   UNL     1     143.344 128.188 101.634  0.00  0.00    -0.298 N 
ATOM     14  C   UNL     1     142.811 127.895 100.294  0.00  0.00    +0.024 C 
ATOM     15  C   UNL     1     141.599 128.734  99.924  0.00  0.00    -0.028 A 
ATOM     16  C   UNL     1     140.392 128.078  99.618  0.00  0.00    -0.057 A 
ATOM     17  C   UNL     1     139.252 128.802  99.265  0.00  0.00    -0.061 A 
ATOM     18  C   UNL     1     139.301 130.190  99.211  0.00  0.00    -0.061 A 
ATOM     19  C   UNL     1     140.488 130.856  99.507  0.00  0.00    -0.056 A 
ATOM     20  C   UNL     1     141.649 130.146  99.857  0.00  0.00    -0.013 A 
ATOM     21  C   UNL     1     142.902 130.915 100.198  0.00  0.00    +0.116 C 
ATOM     22  F   UNL     1     142.865 132.216  99.776  0.00  0.00    -0.244 F 
ATOM     23  C   UNL     1     144.646 127.538 101.860  0.00  0.00    +0.002 C 
ATOM     24  C   UNL     1     144.535 126.214 102.614  0.00  0.00    -0.011 C 
ATOM     25  H   UNL     1     144.666 126.745 105.823  0.00  0.00    +0.000 HD
ATOM     26  H   UNL     1     143.522 129.191 101.679  0.00  0.00    +0.000 HD
ENDROOT
TORSDOF 0
ENDMDL
MODEL 3
REMARK VINA RESULT:    -5.306     13.844     16.948
REMARK INTER + INTRA:          -5.306
REMARK INTER:                  -5.306
REMARK INTRA:                   0.000
REMARK UNBOUND:                 0.000
REMARK  Name = /home/vital/Documents/PhD_2021/Malaria_codes/scripts/../data/pdbqt_ligands/ligand_16_temp.pdb
REMARK                            x       y       z     vdW  Elec       q    Type
REMARK                         _______ _______ _______ _____ _____    ______ ____
ROOT
ATOM      1  O   UNL     1     137.323 127.305  88.912  0.00  0.00    -0.388 OA
ATOM      2  C   UNL     1     137.107 126.014  88.320  0.00  0.00    +0.072 C 
ATOM      3  C   UNL     1     138.425 125.195  88.399  0.00  0.00    +0.001 C 
ATOM      4  C   UNL     1     138.968 124.933  89.790  0.00  0.00    -0.044 A 
ATOM      5  C   UNL     1     139.717 125.917  90.455  0.00  0.00    -0.056 A 
ATOM      6  C   UNL     1     140.219 125.679  91.735  0.00  0.00    -0.026 A 
ATOM      7  C   UNL     1     139.978 124.456  92.349  0.00  0.00    +0.123 A 
ATOM      8  F   UNL     1     140.460 124.227  93.577  0.00  0.00    -0.205 F 
ATOM      9  C   UNL     1     139.246 123.466  91.705  0.00  0.00    -0.026 A 
ATOM     10  C   UNL     1     138.744 123.702  90.424  0.00  0.00    -0.056 A 
ATOM     11  C   UNL     1     135.912 125.351  89.037  0.00  0.00    -0.011 C 
ATOM     12  C   UNL     1     135.152 124.426  88.091  0.00  0.00    +0.002 C 
ATOM     13  N   UNL     1     134.530 125.169  86.982  0.00  0.00    -0.298 N 
ATOM     14  C   UNL     1     134.259 124.305  85.822  0.00  0.00    +0.024 C 
ATOM     15  C   UNL     1     133.288 123.175  86.118  0.00  0.00    -0.028 A 
ATOM     16  C   UNL     1     133.719 121.848  85.932  0.00  0.00    -0.057 A 
ATOM     17  C   UNL     1     132.864 120.773  86.183  0.00  0.00    -0.061 A 
ATOM     18  C   UNL     1     131.566 121.008  86.620  0.00  0.00    -0.061 A 
ATOM     19  C   UNL     1     131.120 122.315  86.806  0.00  0.00    -0.056 A 
ATOM     20  C   UNL     1     131.963 123.410  86.552  0.00  0.00    -0.013 A 
ATOM     21  C   UNL     1     131.443 124.806  86.798  0.00  0.00    +0.116 C 
ATOM     22  F   UNL     1     130.080 124.861  86.898  0.00  0.00    -0.244 F 
ATOM     23  C   UNL     1     135.276 126.381  86.601  0.00  0.00    +0.002 C 
ATOM     24  C   UNL     1     136.781 126.257  86.828  0.00  0.00    -0.011 C 
ATOM     25  H   UNL     1     137.533 127.199  89.853  0.00  0.00    +0.000 HD
ATOM     26  H   UNL     1     133.630 125.495  87.335  0.00  0.00    +0.000 HD
ENDROOT
TORSDOF 0
ENDMDL
MODEL 4
REMARK VINA RESULT:    -5.147      2.650      3.373
REMARK INTER + INTRA:          -5.147
REMARK INTER:                  -5.147
REMARK INTRA:                   0.000
REMARK UNBOUND:                 0.000
REMARK  Name = /home/vital/Documents/PhD_2021/Malaria_codes/scripts/../data/pdbqt_ligands/ligand_16_temp.pdb
REMARK                            x       y       z     vdW  Elec       q    Type
REMARK                         _______ _______ _______ _____ _____    ______ ____
ROOT
ATOM      1  O   UNL     1     145.760 128.235 104.162  0.00  0.00    -0.388 OA
ATOM      2  C   UNL     1     144.858 127.604 103.239  0.00  0.00    +0.072 C 
ATOM      3  C   UNL     1     144.879 126.070 103.482  0.00  0.00    +0.001 C 
ATOM      4  C   UNL     1     144.459 125.604 104.861  0.00  0.00    -0.044 A 
ATOM      5  C   UNL     1     145.372 125.632 105.927  0.00  0.00    -0.056 A 
ATOM      6  C   UNL     1     144.988 125.204 107.199  0.00  0.00    -0.026 A 
ATOM      7  C   UNL     1     143.694 124.742 107.404  0.00  0.00    +0.123 A 
ATOM      8  F   UNL     1     143.327 124.331 108.625  0.00  0.00    -0.205 F 
ATOM      9  C   UNL     1     142.777 124.698 106.361  0.00  0.00    -0.026 A 
ATOM     10  C   UNL     1     143.159 125.125 105.089  0.00  0.00    -0.056 A 
ATOM     11  C   UNL     1     143.467 128.248 103.410  0.00  0.00    -0.011 C 
ATOM     12  C   UNL     1     142.694 128.237 102.095  0.00  0.00    +0.002 C 
ATOM     13  N   UNL     1     143.346 129.072 101.071  0.00  0.00    -0.298 N 
ATOM     14  C   UNL     1     142.950 128.682  99.708  0.00  0.00    +0.024 C 
ATOM     15  C   UNL     1     141.464 128.835  99.436  0.00  0.00    -0.028 A 
ATOM     16  C   UNL     1     140.725 127.697  99.063  0.00  0.00    -0.057 A 
ATOM     17  C   UNL     1     139.358 127.784  98.795  0.00  0.00    -0.061 A 
ATOM     18  C   UNL     1     138.709 129.009  98.896  0.00  0.00    -0.061 A 
ATOM     19  C   UNL     1     139.425 130.148  99.262  0.00  0.00    -0.056 A 
ATOM     20  C   UNL     1     140.803 130.082  99.528  0.00  0.00    -0.013 A 
ATOM     21  C   UNL     1     141.527 131.338  99.950  0.00  0.00    +0.116 C 
ATOM     22  F   UNL     1     140.825 132.479  99.675  0.00  0.00    -0.244 F 
ATOM     23  C   UNL     1     144.809 129.141 101.220  0.00  0.00    +0.002 C 
ATOM     24  C   UNL     1     145.413 127.874 101.821  0.00  0.00    -0.011 C 
ATOM     25  H   UNL     1     145.448 128.089 105.069  0.00  0.00    +0.000 HD
ATOM     26  H   UNL     1     143.004 130.021 101.227  0.00  0.00    +0.000 HD
ENDROOT
TORSDOF 0
ENDMDL
MODEL 5
REMARK VINA RESULT:    -4.811      5.791      8.555
REMARK INTER + INTRA:          -4.811
REMARK INTER:                  -4.811
REMARK INTRA:                   0.000
REMARK UNBOUND:                 0.000
REMARK  Name = /home/vital/Documents/PhD_2021/Malaria_codes/scripts/../data/pdbqt_ligands/ligand_16_temp.pdb
REMARK                            x       y       z     vdW  Elec       q    Type
REMARK                         _______ _______ _______ _____ _____    ______ ____
ROOT
ATOM      1  O   UNL     1     143.076 126.339  98.787  0.00  0.00    -0.388 OA
ATOM      2  C   UNL     1     141.777 125.796  99.073  0.00  0.00    +0.072 C 
ATOM      3  C   UNL     1     141.136 126.606 100.233  0.00  0.00    +0.001 C 
ATOM      4  C   UNL     1     140.925 128.085  99.979  0.00  0.00    -0.044 A 
ATOM      5  C   UNL     1     141.987 128.990 100.137  0.00  0.00    -0.056 A 
ATOM      6  C   UNL     1     141.795 130.353  99.905  0.00  0.00    -0.026 A 
ATOM      7  C   UNL     1     140.542 130.813  99.521  0.00  0.00    +0.123 A 
ATOM      8  F   UNL     1     140.358 132.121  99.298  0.00  0.00    -0.205 F 
ATOM      9  C   UNL     1     139.475 129.935  99.368  0.00  0.00    -0.026 A 
ATOM     10  C   UNL     1     139.664 128.572  99.600  0.00  0.00    -0.056 A 
ATOM     11  C   UNL     1     140.953 125.806  97.769  0.00  0.00    -0.011 C 
ATOM     12  C   UNL     1     139.952 124.656  97.745  0.00  0.00    +0.002 C 
ATOM     13  N   UNL     1     140.626 123.345  97.726  0.00  0.00    -0.298 N 
ATOM     14  C   UNL     1     139.752 122.269  98.219  0.00  0.00    +0.024 C 
ATOM     15  C   UNL     1     138.500 122.067  97.382  0.00  0.00    -0.028 A 
ATOM     16  C   UNL     1     137.244 122.214  98.000  0.00  0.00    -0.057 A 
ATOM     17  C   UNL     1     136.063 122.032  97.278  0.00  0.00    -0.061 A 
ATOM     18  C   UNL     1     136.120 121.702  95.929  0.00  0.00    -0.061 A 
ATOM     19  C   UNL     1     137.355 121.551  95.301  0.00  0.00    -0.056 A 
ATOM     20  C   UNL     1     138.554 121.721  96.012  0.00  0.00    -0.013 A 
ATOM     21  C   UNL     1     139.866 121.576  95.279  0.00  0.00    +0.116 C 
ATOM     22  F   UNL     1     139.741 120.935  94.077  0.00  0.00    -0.244 F 
ATOM     23  C   UNL     1     141.930 123.351  98.410  0.00  0.00    +0.002 C 
ATOM     24  C   UNL     1     141.999 124.347  99.565  0.00  0.00    -0.011 C 
ATOM     25  H   UNL     1     142.983 127.252  98.474  0.00  0.00    +0.000 HD
ATOM     26  H   UNL     1     140.826 123.150  96.745  0.00  0.00    +0.000 HD
ENDROOT
TORSDOF 0
ENDMDL
MODEL 6
REMARK VINA RESULT:    -4.733      6.075      8.540
REMARK INTER + INTRA:          -4.733
REMARK INTER:                  -4.733
REMARK INTRA:                   0.000
REMARK UNBOUND:                 0.000
REMARK  Name = /home/vital/Documents/PhD_2021/Malaria_codes/scripts/../data/pdbqt_ligands/ligand_16_temp.pdb
REMARK                            x       y       z     vdW  Elec       q    Type
REMARK                         _______ _______ _______ _____ _____    ______ ____
ROOT
ATOM      1  O   UNL     1     142.501 132.609 100.059  0.00  0.00    -0.388 OA
ATOM      2  C   UNL     1     143.158 131.702  99.159  0.00  0.00    +0.072 C 
ATOM      3  C   UNL     1     142.960 130.250  99.673  0.00  0.00    +0.001 C 
ATOM      4  C   UNL     1     141.527 129.768  99.782  0.00  0.00    -0.044 A 
ATOM      5  C   UNL     1     140.748 130.107 100.899  0.00  0.00    -0.056 A 
ATOM      6  C   UNL     1     139.428 129.664 101.002  0.00  0.00    -0.026 A 
ATOM      7  C   UNL     1     138.889 128.877  99.992  0.00  0.00    +0.123 A 
ATOM      8  F   UNL     1     137.623 128.452 100.092  0.00  0.00    -0.205 F 
ATOM      9  C   UNL     1     139.646 128.522  98.882  0.00  0.00    -0.026 A 
ATOM     10  C   UNL     1     140.966 128.964  98.777  0.00  0.00    -0.056 A 
ATOM     11  C   UNL     1     142.604 131.948  97.741  0.00  0.00    -0.011 C 
ATOM     12  C   UNL     1     143.661 131.649  96.682  0.00  0.00    +0.002 C 
ATOM     13  N   UNL     1     144.807 132.570  96.778  0.00  0.00    -0.298 N 
ATOM     14  C   UNL     1     146.019 132.008  96.161  0.00  0.00    +0.024 C 
ATOM     15  C   UNL     1     145.875 131.731  94.675  0.00  0.00    -0.028 A 
ATOM     16  C   UNL     1     146.057 130.413  94.213  0.00  0.00    -0.057 A 
ATOM     17  C   UNL     1     145.943 130.106  92.857  0.00  0.00    -0.061 A 
ATOM     18  C   UNL     1     145.647 131.109  91.941  0.00  0.00    -0.061 A 
ATOM     19  C   UNL     1     145.466 132.419  92.379  0.00  0.00    -0.056 A 
ATOM     20  C   UNL     1     145.584 132.750  93.740  0.00  0.00    -0.013 A 
ATOM     21  C   UNL     1     145.349 134.179  94.167  0.00  0.00    +0.116 C 
ATOM     22  F   UNL     1     145.402 135.066  93.128  0.00  0.00    -0.244 F 
ATOM     23  C   UNL     1     145.058 133.047  98.148  0.00  0.00    +0.002 C 
ATOM     24  C   UNL     1     144.668 132.032  99.220  0.00  0.00    -0.011 C 
ATOM     25  H   UNL     1     141.546 132.436 100.053  0.00  0.00    +0.000 HD
ATOM     26  H   UNL     1     144.546 133.396  96.238  0.00  0.00    +0.000 HD
ENDROOT
TORSDOF 0
ENDMDL
MODEL 7
REMARK VINA RESULT:    -4.704      5.705     10.739
REMARK INTER + INTRA:          -4.704
REMARK INTER:                  -4.704
REMARK INTRA:                   0.000
REMARK UNBOUND:                 0.000
REMARK  Name = /home/vital/Documents/PhD_2021/Malaria_codes/scripts/../data/pdbqt_ligands/ligand_16_temp.pdb
REMARK                            x       y       z     vdW  Elec       q    Type
REMARK                         _______ _______ _______ _____ _____    ______ ____
ROOT
ATOM      1  O   UNL     1     145.774 130.738  95.656  0.00  0.00    -0.388 OA
ATOM      2  C   UNL     1     144.659 131.205  96.432  0.00  0.00    +0.072 C 
ATOM      3  C   UNL     1     144.193 132.577  95.872  0.00  0.00    +0.001 C 
ATOM      4  C   UNL     1     143.733 132.589  94.428  0.00  0.00    -0.044 A 
ATOM      5  C   UNL     1     144.671 132.653  93.386  0.00  0.00    -0.056 A 
ATOM      6  C   UNL     1     144.251 132.666  92.055  0.00  0.00    -0.026 A 
ATOM      7  C   UNL     1     142.893 132.620  91.766  0.00  0.00    +0.123 A 
ATOM      8  F   UNL     1     142.490 132.631  90.489  0.00  0.00    -0.205 F 
ATOM      9  C   UNL     1     141.947 132.564  92.782  0.00  0.00    -0.026 A 
ATOM     10  C   UNL     1     142.366 132.553  94.114  0.00  0.00    -0.056 A 
ATOM     11  C   UNL     1     143.568 130.114  96.410  0.00  0.00    -0.011 C 
ATOM     12  C   UNL     1     142.752 130.131  97.698  0.00  0.00    +0.002 C 
ATOM     13  N   UNL     1     143.574 129.783  98.871  0.00  0.00    -0.298 N 
ATOM     14  C   UNL     1     142.987 130.285 100.124  0.00  0.00    +0.024 C 
ATOM     15  C   UNL     1     141.617 129.703 100.431  0.00  0.00    -0.028 A 
ATOM     16  C   UNL     1     140.525 130.582 100.562  0.00  0.00    -0.057 A 
ATOM     17  C   UNL     1     139.248 130.100 100.851  0.00  0.00    -0.061 A 
ATOM     18  C   UNL     1     139.042 128.735 101.014  0.00  0.00    -0.061 A 
ATOM     19  C   UNL     1     140.112 127.851 100.891  0.00  0.00    -0.056 A 
ATOM     20  C   UNL     1     141.407 128.317 100.609  0.00  0.00    -0.013 A 
ATOM     21  C   UNL     1     142.527 127.315 100.455  0.00  0.00    +0.116 C 
ATOM     22  F   UNL     1     142.221 126.085 100.968  0.00  0.00    -0.244 F 
ATOM     23  C   UNL     1     144.986 130.177  98.730  0.00  0.00    +0.002 C 
ATOM     24  C   UNL     1     145.180 131.425  97.871  0.00  0.00    -0.011 C 
ATOM     25  H   UNL     1     145.491 130.587  94.741  0.00  0.00    +0.000 HD
ATOM     26  H   UNL     1     143.571 128.764  98.920  0.00  0.00    +0.000 HD
ENDROOT
TORSDOF 0
ENDMDL
MODEL 8
REMARK VINA RESULT:    -4.497      3.801      9.375
REMARK INTER + INTRA:          -4.497
REMARK INTER:                  -4.497
REMARK INTRA:                   0.000
REMARK UNBOUND:                 0.000
REMARK  Name = /home/vital/Documents/PhD_2021/Malaria_codes/scripts/../data/pdbqt_ligands/ligand_16_temp.pdb
REMARK                            x       y       z     vdW  Elec       q    Type
REMARK                         _______ _______ _______ _____ _____    ______ ____
ROOT
ATOM      1  O   UNL     1     141.339 132.649 100.204  0.00  0.00    -0.388 OA
ATOM      2  C   UNL     1     141.684 131.418  99.548  0.00  0.00    +0.072 C 
ATOM      3  C   UNL     1     142.300 131.741  98.160  0.00  0.00    +0.001 C 
ATOM      4  C   UNL     1     143.563 132.579  98.166  0.00  0.00    -0.044 A 
ATOM      5  C   UNL     1     143.486 133.976  98.288  0.00  0.00    -0.056 A 
ATOM      6  C   UNL     1     144.646 134.751  98.294  0.00  0.00    -0.026 A 
ATOM      7  C   UNL     1     145.884 134.131  98.172  0.00  0.00    +0.123 A 
ATOM      8  F   UNL     1     146.997 134.875  98.178  0.00  0.00    -0.205 F 
ATOM      9  C   UNL     1     145.982 132.751  98.043  0.00  0.00    -0.026 A 
ATOM     10  C   UNL     1     144.822 131.975  98.036  0.00  0.00    -0.056 A 
ATOM     11  C   UNL     1     142.619 130.622 100.481  0.00  0.00    -0.011 C 
ATOM     12  C   UNL     1     142.442 129.120 100.283  0.00  0.00    +0.002 C 
ATOM     13  N   UNL     1     141.093 128.673 100.671  0.00  0.00    -0.298 N 
ATOM     14  C   UNL     1     140.726 127.402 100.026  0.00  0.00    +0.024 C 
ATOM     15  C   UNL     1     141.635 126.244 100.399  0.00  0.00    -0.028 A 
ATOM     16  C   UNL     1     142.338 125.580  99.375  0.00  0.00    -0.057 A 
ATOM     17  C   UNL     1     143.180 124.506  99.663  0.00  0.00    -0.061 A 
ATOM     18  C   UNL     1     143.333 124.077 100.977  0.00  0.00    -0.061 A 
ATOM     19  C   UNL     1     142.643 124.720 102.003  0.00  0.00    -0.056 A 
ATOM     20  C   UNL     1     141.784 125.798 101.733  0.00  0.00    -0.013 A 
ATOM     21  C   UNL     1     141.082 126.480 102.883  0.00  0.00    +0.116 C 
ATOM     22  F   UNL     1     141.084 125.735 104.030  0.00  0.00    -0.244 F 
ATOM     23  C   UNL     1     140.060 129.704 100.481  0.00  0.00    +0.002 C 
ATOM     24  C   UNL     1     140.361 130.650  99.320  0.00  0.00    -0.011 C 
ATOM     25  H   UNL     1     142.144 133.165 100.367  0.00  0.00    +0.000 HD
ATOM     26  H   UNL     1     141.135 128.503 101.676  0.00  0.00    +0.000 HD
ENDROOT
TORSDOF 0
ENDMDL
MODEL 9
REMARK VINA RESULT:    -4.196     16.122     17.797
REMARK INTER + INTRA:          -4.196
REMARK INTER:                  -4.196
REMARK INTRA:                   0.000
REMARK UNBOUND:                 0.000
REMARK  Name = /home/vital/Documents/PhD_2021/Malaria_codes/scripts/../data/pdbqt_ligands/ligand_16_temp.pdb
REMARK                            x       y       z     vdW  Elec       q    Type
REMARK                         _______ _______ _______ _____ _____    ______ ____
ROOT
ATOM      1  O   UNL     1     136.527 122.171  86.664  0.00  0.00    -0.388 OA
ATOM      2  C   UNL     1     136.168 123.435  86.083  0.00  0.00    +0.072 C 
ATOM      3  C   UNL     1     134.880 123.253  85.234  0.00  0.00    +0.001 C 
ATOM      4  C   UNL     1     133.651 122.769  85.977  0.00  0.00    -0.044 A 
ATOM      5  C   UNL     1     133.480 121.403  86.252  0.00  0.00    -0.056 A 
ATOM      6  C   UNL     1     132.350 120.955  86.936  0.00  0.00    -0.026 A 
ATOM      7  C   UNL     1     131.386 121.870  87.340  0.00  0.00    +0.123 A 
ATOM      8  F   UNL     1     130.300 121.439  87.996  0.00  0.00    -0.205 F 
ATOM      9  C   UNL     1     131.531 123.225  87.070  0.00  0.00    -0.026 A 
ATOM     10  C   UNL     1     132.661 123.676  86.386  0.00  0.00    -0.056 A 
ATOM     11  C   UNL     1     136.028 124.465  87.223  0.00  0.00    -0.011 C 
ATOM     12  C   UNL     1     136.394 125.866  86.742  0.00  0.00    +0.002 C 
ATOM     13  N   UNL     1     137.813 125.958  86.356  0.00  0.00    -0.298 N 
ATOM     14  C   UNL     1     138.062 127.077  85.433  0.00  0.00    +0.024 C 
ATOM     15  C   UNL     1     137.738 128.438  86.023  0.00  0.00    -0.028 A 
ATOM     16  C   UNL     1     136.772 129.239  85.384  0.00  0.00    -0.057 A 
ATOM     17  C   UNL     1     136.442 130.500  85.881  0.00  0.00    -0.061 A 
ATOM     18  C   UNL     1     137.072 130.982  87.023  0.00  0.00    -0.061 A 
ATOM     19  C   UNL     1     138.033 130.204  87.667  0.00  0.00    -0.056 A 
ATOM     20  C   UNL     1     138.384 128.935  87.178  0.00  0.00    -0.013 A 
ATOM     21  C   UNL     1     139.409 128.120  87.930  0.00  0.00    +0.116 C 
ATOM     22  F   UNL     1     140.148 128.864  88.808  0.00  0.00    -0.244 F 
ATOM     23  C   UNL     1     138.361 124.691  85.843  0.00  0.00    +0.002 C 
ATOM     24  C   UNL     1     137.320 123.830  85.130  0.00  0.00    -0.011 C 
ATOM     25  H   UNL     1     135.827 121.884  87.272  0.00  0.00    +0.000 HD
ATOM     26  H   UNL     1     138.324 126.155  87.217  0.00  0.00    +0.000 HD
ENDROOT
TORSDOF 0
ENDMDL
