MODEL 1
REMARK VINA RESULT:    -5.408      0.000      0.000
REMARK INTER + INTRA:          -5.408
REMARK INTER:                  -5.408
REMARK INTRA:                   0.000
REMARK UNBOUND:                 0.000
REMARK  Name = /home/vital/Documents/PhD_2021/Malaria_codes/scripts/../data/pdbqt_ligands/ligand_293_temp.pdb
REMARK                            x       y       z     vdW  Elec       q    Type
REMARK                         _______ _______ _______ _____ _____    ______ ____
ROOT
ATOM      1  O   UNL     1     139.130 127.896  99.402  0.00  0.00    -0.393 OA
ATOM      2  C   UNL     1     138.568 128.569 100.530  0.00  0.00    +0.060 C 
ATOM      3  C   UNL     1     139.623 129.449 101.199  0.00  0.00    +0.034 C 
ATOM      4  N   UNL     1     140.155 130.366 100.206  0.00  0.00    -0.326 N 
ATOM      5  C   UNL     1     141.318 131.082 100.451  0.00  0.00    +0.139 C 
ATOM      6  N   UNL     1     142.073 130.641 101.418  0.00  0.00    -0.142 N 
ATOM      7  N   UNL     1     143.177 131.383 101.687  0.00  0.00    -0.081 NA
ATOM      8  C   UNL     1     144.295 130.640 101.746  0.00  0.00    +0.224 C 
ATOM      9  N   UNL     1     144.077 129.475 102.434  0.00  0.00    -0.311 N 
ATOM     10  C   UNL     1     144.542 128.254 101.820  0.00  0.00    +0.030 C 
ATOM     11  C   UNL     1     144.446 127.149 102.835  0.00  0.00    -0.071 C 
ATOM     12  C   UNL     1     143.496 126.212 102.964  0.00  0.00    -0.085 C 
ATOM     13  C   UNL     1     142.226 126.102 102.163  0.00  0.00    -0.021 C 
ATOM     14  C   UNL     1     140.980 126.328 103.026  0.00  0.00    +0.026 C 
ATOM     15 CL   UNL     1     140.613 124.925 104.076  0.00  0.00    -0.125 Cl
ATOM     16  N   UNL     1     145.430 130.952 101.183  0.00  0.00    -0.216 N 
ATOM     17  C   UNL     1     145.468 132.058 100.368  0.00  0.00    +0.073 C 
ATOM     18  C   UNL     1     144.675 132.106  99.339  0.00  0.00    -0.100 C 
ATOM     19  C   UNL     1     143.724 132.080  98.452  0.00  0.00    -0.018 C 
ATOM     20  C   UNL     1     142.445 132.692  98.727  0.00  0.00    -0.051 C 
ATOM     21  C   UNL     1     141.491 132.323  99.595  0.00  0.00    -0.020 C 
ATOM     22  H   UNL     1     138.452 127.340  98.987  0.00  0.00    +0.000 HD
ATOM     23  H   UNL     1     139.686 130.480  99.349  0.00  0.00    +0.000 HD
ATOM     24  H   UNL     1     141.856 129.823 101.921  0.00  0.00    +0.000 HD
ATOM     25  H   UNL     1     143.161 132.357 101.824  0.00  0.00    +0.000 HD
ATOM     26  H   UNL     1     143.300 132.357 101.611  0.00  0.00    +0.000 HD
ATOM     27  H   UNL     1     143.624 129.471 103.308  0.00  0.00    +0.000 HD
ATOM     28  H   UNL     1     146.237 130.411 101.339  0.00  0.00    +0.000 HD
ENDROOT
TORSDOF 0
ENDMDL
MODEL 2
REMARK VINA RESULT:    -5.363      4.145      6.723
REMARK INTER + INTRA:          -5.363
REMARK INTER:                  -5.363
REMARK INTRA:                   0.000
REMARK UNBOUND:                 0.000
REMARK  Name = /home/vital/Documents/PhD_2021/Malaria_codes/scripts/../data/pdbqt_ligands/ligand_293_temp.pdb
REMARK                            x       y       z     vdW  Elec       q    Type
REMARK                         _______ _______ _______ _____ _____    ______ ____
ROOT
ATOM      1  O   UNL     1     142.505 129.388  94.191  0.00  0.00    -0.393 OA
ATOM      2  C   UNL     1     143.478 128.527  94.785  0.00  0.00    +0.060 C 
ATOM      3  C   UNL     1     143.158 128.309  96.263  0.00  0.00    +0.034 C 
ATOM      4  N   UNL     1     141.807 127.787  96.370  0.00  0.00    -0.326 N 
ATOM      5  C   UNL     1     141.148 127.763  97.590  0.00  0.00    +0.139 C 
ATOM      6  N   UNL     1     141.637 128.531  98.524  0.00  0.00    -0.142 N 
ATOM      7  N   UNL     1     141.020 128.456  99.730  0.00  0.00    -0.081 NA
ATOM      8  C   UNL     1     140.698 129.664 100.220  0.00  0.00    +0.224 C 
ATOM      9  N   UNL     1     141.720 130.559 100.036  0.00  0.00    -0.311 N 
ATOM     10  C   UNL     1     141.373 131.843  99.478  0.00  0.00    +0.030 C 
ATOM     11  C   UNL     1     142.566 132.750  99.603  0.00  0.00    -0.071 C 
ATOM     12  C   UNL     1     143.472 133.075  98.670  0.00  0.00    -0.085 C 
ATOM     13  C   UNL     1     143.563 132.519  97.274  0.00  0.00    -0.021 C 
ATOM     14  C   UNL     1     144.838 131.695  97.064  0.00  0.00    +0.026 C 
ATOM     15 CL   UNL     1     146.296 132.720  96.910  0.00  0.00    -0.125 Cl
ATOM     16  N   UNL     1     139.549 129.970 100.758  0.00  0.00    -0.216 N 
ATOM     17  C   UNL     1     138.544 129.034 100.718  0.00  0.00    +0.073 C 
ATOM     18  C   UNL     1     138.151 128.585  99.563  0.00  0.00    -0.100 C 
ATOM     19  C   UNL     1     137.976 128.120  98.361  0.00  0.00    -0.018 C 
ATOM     20  C   UNL     1     138.687 126.944  97.918  0.00  0.00    -0.051 C 
ATOM     21  C   UNL     1     139.995 126.780  97.670  0.00  0.00    -0.020 C 
ATOM     22  H   UNL     1     142.719 129.520  93.254  0.00  0.00    +0.000 HD
ATOM     23  H   UNL     1     141.353 127.447  95.565  0.00  0.00    +0.000 HD
ATOM     24  H   UNL     1     142.404 129.127  98.363  0.00  0.00    +0.000 HD
ATOM     25  H   UNL     1     140.830 127.609 100.194  0.00  0.00    +0.000 HD
ATOM     26  H   UNL     1     140.589 127.679 100.155  0.00  0.00    +0.000 HD
ATOM     27  H   UNL     1     142.649 130.335 100.275  0.00  0.00    +0.000 HD
ATOM     28  H   UNL     1     139.407 130.848 101.181  0.00  0.00    +0.000 HD
ENDROOT
TORSDOF 0
ENDMDL
MODEL 3
REMARK VINA RESULT:    -4.826      2.877      3.092
REMARK INTER + INTRA:          -4.826
REMARK INTER:                  -4.826
REMARK INTRA:                   0.000
REMARK UNBOUND:                 0.000
REMARK  Name = /home/vital/Documents/PhD_2021/Malaria_codes/scripts/../data/pdbqt_ligands/ligand_293_temp.pdb
REMARK                            x       y       z     vdW  Elec       q    Type
REMARK                         _______ _______ _______ _____ _____    ______ ____
ROOT
ATOM      1  O   UNL     1     138.189 128.495  96.977  0.00  0.00    -0.393 OA
ATOM      2  C   UNL     1     137.808 128.211  98.325  0.00  0.00    +0.060 C 
ATOM      3  C   UNL     1     138.974 128.491  99.272  0.00  0.00    +0.034 C 
ATOM      4  N   UNL     1     139.399 129.866  99.087  0.00  0.00    -0.326 N 
ATOM      5  C   UNL     1     140.609 130.313  99.600  0.00  0.00    +0.139 C 
ATOM      6  N   UNL     1     141.472 129.391  99.923  0.00  0.00    -0.142 N 
ATOM      7  N   UNL     1     142.628 129.835 100.478  0.00  0.00    -0.081 NA
ATOM      8  C   UNL     1     143.716 129.315  99.887  0.00  0.00    +0.224 C 
ATOM      9  N   UNL     1     143.553 127.976  99.645  0.00  0.00    -0.311 N 
ATOM     10  C   UNL     1     143.887 127.505  98.322  0.00  0.00    +0.030 C 
ATOM     11  C   UNL     1     143.891 126.001  98.344  0.00  0.00    -0.071 C 
ATOM     12  C   UNL     1     142.935 125.156  97.932  0.00  0.00    -0.085 C 
ATOM     13  C   UNL     1     141.565 125.525  97.428  0.00  0.00    -0.021 C 
ATOM     14  C   UNL     1     140.456 125.039  98.368  0.00  0.00    +0.026 C 
ATOM     15 CL   UNL     1     140.186 123.274  98.250  0.00  0.00    -0.125 Cl
ATOM     16  N   UNL     1     144.775 129.994  99.541  0.00  0.00    -0.216 N 
ATOM     17  C   UNL     1     144.741 131.362  99.674  0.00  0.00    +0.073 C 
ATOM     18  C   UNL     1     143.818 132.030  99.047  0.00  0.00    -0.100 C 
ATOM     19  C   UNL     1     142.755 132.538  98.495  0.00  0.00    -0.018 C 
ATOM     20  C   UNL     1     141.548 132.729  99.264  0.00  0.00    -0.051 C 
ATOM     21  C   UNL     1     140.708 131.817  99.775  0.00  0.00    -0.020 C 
ATOM     22  H   UNL     1     137.441 128.313  96.386  0.00  0.00    +0.000 HD
ATOM     23  H   UNL     1     138.822 130.490  98.590  0.00  0.00    +0.000 HD
ATOM     24  H   UNL     1     141.297 128.433  99.775  0.00  0.00    +0.000 HD
ATOM     25  H   UNL     1     142.664 130.469 101.230  0.00  0.00    +0.000 HD
ATOM     26  H   UNL     1     142.773 130.619 101.056  0.00  0.00    +0.000 HD
ATOM     27  H   UNL     1     143.222 127.364 100.341  0.00  0.00    +0.000 HD
ATOM     28  H   UNL     1     145.577 129.539  99.195  0.00  0.00    +0.000 HD
ENDROOT
TORSDOF 0
ENDMDL
MODEL 4
REMARK VINA RESULT:    -4.709      9.945     11.244
REMARK INTER + INTRA:          -4.709
REMARK INTER:                  -4.709
REMARK INTRA:                   0.000
REMARK UNBOUND:                 0.000
REMARK  Name = /home/vital/Documents/PhD_2021/Malaria_codes/scripts/../data/pdbqt_ligands/ligand_293_temp.pdb
REMARK                            x       y       z     vdW  Elec       q    Type
REMARK                         _______ _______ _______ _____ _____    ______ ____
ROOT
ATOM      1  O   UNL     1     139.135 128.732  86.489  0.00  0.00    -0.393 OA
ATOM      2  C   UNL     1     137.946 129.285  87.054  0.00  0.00    +0.060 C 
ATOM      3  C   UNL     1     138.169 129.621  88.528  0.00  0.00    +0.034 C 
ATOM      4  N   UNL     1     139.307 130.517  88.629  0.00  0.00    -0.326 N 
ATOM      5  C   UNL     1     139.914 130.762  89.852  0.00  0.00    +0.139 C 
ATOM      6  N   UNL     1     139.659 129.906  90.803  0.00  0.00    -0.142 N 
ATOM      7  N   UNL     1     140.211 130.187  92.010  0.00  0.00    -0.081 NA
ATOM      8  C   UNL     1     140.865 129.137  92.533  0.00  0.00    +0.224 C 
ATOM      9  N   UNL     1     140.151 127.978  92.367  0.00  0.00    -0.311 N 
ATOM     10  C   UNL     1     140.866 126.839  91.844  0.00  0.00    +0.030 C 
ATOM     11  C   UNL     1     139.988 125.626  91.986  0.00  0.00    -0.071 C 
ATOM     12  C   UNL     1     139.228 125.029  91.057  0.00  0.00    -0.085 C 
ATOM     13  C   UNL     1     138.998 125.501  89.646  0.00  0.00    -0.021 C 
ATOM     14  C   UNL     1     137.541 125.912  89.407  0.00  0.00    +0.026 C 
ATOM     15 CL   UNL     1     136.447 124.502  89.271  0.00  0.00    -0.125 Cl
ATOM     16  N   UNL     1     142.046 129.192  93.086  0.00  0.00    -0.216 N 
ATOM     17  C   UNL     1     142.735 130.380  93.027  0.00  0.00    +0.073 C 
ATOM     18  C   UNL     1     142.995 130.898  91.863  0.00  0.00    -0.100 C 
ATOM     19  C   UNL     1     143.041 131.365  90.650  0.00  0.00    -0.018 C 
ATOM     20  C   UNL     1     142.024 132.272  90.173  0.00  0.00    -0.051 C 
ATOM     21  C   UNL     1     140.729 132.041  89.913  0.00  0.00    -0.020 C 
ATOM     22  H   UNL     1     138.981 128.522  85.554  0.00  0.00    +0.000 HD
ATOM     23  H   UNL     1     139.652 130.957  87.819  0.00  0.00    +0.000 HD
ATOM     24  H   UNL     1     139.102 129.108  90.653  0.00  0.00    +0.000 HD
ATOM     25  H   UNL     1     140.139 131.062  92.453  0.00  0.00    +0.000 HD
ATOM     26  H   UNL     1     140.391 131.065  92.417  0.00  0.00    +0.000 HD
ATOM     27  H   UNL     1     139.195 127.926  92.594  0.00  0.00    +0.000 HD
ATOM     28  H   UNL     1     142.432 128.404  93.532  0.00  0.00    +0.000 HD
ENDROOT
TORSDOF 0
ENDMDL
MODEL 5
REMARK VINA RESULT:    -4.576      4.388      6.979
REMARK INTER + INTRA:          -4.576
REMARK INTER:                  -4.576
REMARK INTRA:                   0.000
REMARK UNBOUND:                 0.000
REMARK  Name = /home/vital/Documents/PhD_2021/Malaria_codes/scripts/../data/pdbqt_ligands/ligand_293_temp.pdb
REMARK                            x       y       z     vdW  Elec       q    Type
REMARK                         _______ _______ _______ _____ _____    ______ ____
ROOT
ATOM      1  O   UNL     1     141.817 128.681  93.381  0.00  0.00    -0.393 OA
ATOM      2  C   UNL     1     142.822 127.790  93.868  0.00  0.00    +0.060 C 
ATOM      3  C   UNL     1     142.772 127.722  95.394  0.00  0.00    +0.034 C 
ATOM      4  N   UNL     1     141.433 127.330  95.795  0.00  0.00    -0.326 N 
ATOM      5  C   UNL     1     141.017 127.463  97.112  0.00  0.00    +0.139 C 
ATOM      6  N   UNL     1     141.727 128.259  97.862  0.00  0.00    -0.142 N 
ATOM      7  N   UNL     1     141.346 128.337  99.162  0.00  0.00    -0.081 NA
ATOM      8  C   UNL     1     141.208 129.604  99.584  0.00  0.00    +0.224 C 
ATOM      9  N   UNL     1     142.237 130.389  99.131  0.00  0.00    -0.311 N 
ATOM     10  C   UNL     1     141.881 131.649  98.524  0.00  0.00    +0.030 C 
ATOM     11  C   UNL     1     143.136 132.456  98.342  0.00  0.00    -0.071 C 
ATOM     12  C   UNL     1     143.870 132.623  97.232  0.00  0.00    -0.085 C 
ATOM     13  C   UNL     1     143.655 131.950  95.903  0.00  0.00    -0.021 C 
ATOM     14  C   UNL     1     144.807 131.004  95.545  0.00  0.00    +0.026 C 
ATOM     15 CL   UNL     1     146.278 131.882  95.029  0.00  0.00    -0.125 Cl
ATOM     16  N   UNL     1     140.206 130.052 100.290  0.00  0.00    -0.216 N 
ATOM     17  C   UNL     1     139.148 129.207 100.525  0.00  0.00    +0.073 C 
ATOM     18  C   UNL     1     138.513 128.700  99.510  0.00  0.00    -0.100 C 
ATOM     19  C   UNL     1     138.082 128.156  98.410  0.00  0.00    -0.018 C 
ATOM     20  C   UNL     1     138.612 126.890  97.960  0.00  0.00    -0.051 C 
ATOM     21  C   UNL     1     139.834 126.593  97.495  0.00  0.00    -0.020 C 
ATOM     22  H   UNL     1     141.858 128.716  92.413  0.00  0.00    +0.000 HD
ATOM     23  H   UNL     1     140.813 126.965  95.124  0.00  0.00    +0.000 HD
ATOM     24  H   UNL     1     142.489 128.772  97.508  0.00  0.00    +0.000 HD
ATOM     25  H   UNL     1     141.189 127.551  99.733  0.00  0.00    +0.000 HD
ATOM     26  H   UNL     1     140.950 127.638  99.731  0.00  0.00    +0.000 HD
ATOM     27  H   UNL     1     143.176 130.106  99.217  0.00  0.00    +0.000 HD
ATOM     28  H   UNL     1     140.209 130.971 100.645  0.00  0.00    +0.000 HD
ENDROOT
TORSDOF 0
ENDMDL
MODEL 6
REMARK VINA RESULT:    -4.535      4.027      6.653
REMARK INTER + INTRA:          -4.535
REMARK INTER:                  -4.535
REMARK INTRA:                   0.000
REMARK UNBOUND:                 0.000
REMARK  Name = /home/vital/Documents/PhD_2021/Malaria_codes/scripts/../data/pdbqt_ligands/ligand_293_temp.pdb
REMARK                            x       y       z     vdW  Elec       q    Type
REMARK                         _______ _______ _______ _____ _____    ______ ____
ROOT
ATOM      1  O   UNL     1     144.096 128.663  95.261  0.00  0.00    -0.393 OA
ATOM      2  C   UNL     1     145.013 128.190  96.249  0.00  0.00    +0.060 C 
ATOM      3  C   UNL     1     144.392 128.301  97.641  0.00  0.00    +0.034 C 
ATOM      4  N   UNL     1     143.137 127.571  97.645  0.00  0.00    -0.326 N 
ATOM      5  C   UNL     1     142.223 127.732  98.677  0.00  0.00    +0.139 C 
ATOM      6  N   UNL     1     142.374 128.795  99.418  0.00  0.00    -0.142 N 
ATOM      7  N   UNL     1     141.511 128.913 100.459  0.00  0.00    -0.081 NA
ATOM      8  C   UNL     1     140.924 130.119 100.506  0.00  0.00    +0.224 C 
ATOM      9  N   UNL     1     141.829 131.119 100.259  0.00  0.00    -0.311 N 
ATOM     10  C   UNL     1     141.449 132.124  99.296  0.00  0.00    +0.030 C 
ATOM     11  C   UNL     1     142.446 133.247  99.367  0.00  0.00    -0.071 C 
ATOM     12  C   UNL     1     143.490 133.491  98.563  0.00  0.00    -0.085 C 
ATOM     13  C   UNL     1     143.976 132.625  97.432  0.00  0.00    -0.021 C 
ATOM     14  C   UNL     1     145.365 132.039  97.711  0.00  0.00    +0.026 C 
ATOM     15 CL   UNL     1     146.666 133.255  97.534  0.00  0.00    -0.125 Cl
ATOM     16  N   UNL     1     139.651 130.324 100.710  0.00  0.00    -0.216 N 
ATOM     17  C   UNL     1     138.819 129.231 100.761  0.00  0.00    +0.073 C 
ATOM     18  C   UNL     1     138.768 128.432  99.737  0.00  0.00    -0.100 C 
ATOM     19  C   UNL     1     138.941 127.649  98.712  0.00  0.00    -0.018 C 
ATOM     20  C   UNL     1     139.889 126.561  98.772  0.00  0.00    -0.051 C 
ATOM     21  C   UNL     1     141.228 126.597  98.827  0.00  0.00    -0.020 C 
ATOM     22  H   UNL     1     144.501 128.588  94.383  0.00  0.00    +0.000 HD
ATOM     23  H   UNL     1     142.932 126.953  96.907  0.00  0.00    +0.000 HD
ATOM     24  H   UNL     1     143.069 129.468  99.234  0.00  0.00    +0.000 HD
ATOM     25  H   UNL     1     141.336 128.194 101.107  0.00  0.00    +0.000 HD
ATOM     26  H   UNL     1     141.103 128.203 101.005  0.00  0.00    +0.000 HD
ATOM     27  H   UNL     1     142.699 131.150 100.719  0.00  0.00    +0.000 HD
ATOM     28  H   UNL     1     139.297 131.235 100.824  0.00  0.00    +0.000 HD
ENDROOT
TORSDOF 0
ENDMDL
MODEL 7
REMARK VINA RESULT:    -4.480      3.176      6.512
REMARK INTER + INTRA:          -4.480
REMARK INTER:                  -4.480
REMARK INTRA:                   0.000
REMARK UNBOUND:                 0.000
REMARK  Name = /home/vital/Documents/PhD_2021/Malaria_codes/scripts/../data/pdbqt_ligands/ligand_293_temp.pdb
REMARK                            x       y       z     vdW  Elec       q    Type
REMARK                         _______ _______ _______ _____ _____    ______ ____
ROOT
ATOM      1  O   UNL     1     146.054 130.193  98.848  0.00  0.00    -0.393 OA
ATOM      2  C   UNL     1     146.218 131.055  99.975  0.00  0.00    +0.060 C 
ATOM      3  C   UNL     1     145.380 130.552 101.150  0.00  0.00    +0.034 C 
ATOM      4  N   UNL     1     145.759 129.180 101.433  0.00  0.00    -0.326 N 
ATOM      5  C   UNL     1     144.976 128.379 102.252  0.00  0.00    +0.139 C 
ATOM      6  N   UNL     1     143.751 128.782 102.449  0.00  0.00    -0.142 N 
ATOM      7  N   UNL     1     143.012 128.023 103.297  0.00  0.00    -0.081 NA
ATOM      8  C   UNL     1     141.817 127.691 102.782  0.00  0.00    +0.224 C 
ATOM      9  N   UNL     1     141.238 128.761 102.150  0.00  0.00    -0.311 N 
ATOM     10  C   UNL     1     140.708 128.531 100.827  0.00  0.00    +0.030 C 
ATOM     11  C   UNL     1     139.898 129.734 100.428  0.00  0.00    -0.071 C 
ATOM     12  C   UNL     1     140.254 130.757  99.638  0.00  0.00    -0.085 C 
ATOM     13  C   UNL     1     141.610 130.992  99.027  0.00  0.00    -0.021 C 
ATOM     14  C   UNL     1     142.282 132.251  99.587  0.00  0.00    +0.026 C 
ATOM     15 CL   UNL     1     141.564 133.756  98.936  0.00  0.00    -0.125 Cl
ATOM     16  N   UNL     1     141.289 126.499 102.828  0.00  0.00    -0.216 N 
ATOM     17  C   UNL     1     142.050 125.470 103.330  0.00  0.00    +0.073 C 
ATOM     18  C   UNL     1     143.190 125.201 102.766  0.00  0.00    -0.100 C 
ATOM     19  C   UNL     1     144.362 125.154 102.203  0.00  0.00    -0.018 C 
ATOM     20  C   UNL     1     145.480 125.868 102.773  0.00  0.00    -0.051 C 
ATOM     21  C   UNL     1     145.698 127.189 102.855  0.00  0.00    -0.020 C 
ATOM     22  H   UNL     1     146.590 130.522  98.109  0.00  0.00    +0.000 HD
ATOM     23  H   UNL     1     146.583 128.813 101.039  0.00  0.00    +0.000 HD
ATOM     24  H   UNL     1     143.387 129.584 102.010  0.00  0.00    +0.000 HD
ATOM     25  H   UNL     1     143.318 127.748 104.191  0.00  0.00    +0.000 HD
ATOM     26  H   UNL     1     143.307 127.515 104.087  0.00  0.00    +0.000 HD
ATOM     27  H   UNL     1     141.185 129.645 102.579  0.00  0.00    +0.000 HD
ATOM     28  H   UNL     1     140.370 126.340 102.513  0.00  0.00    +0.000 HD
ENDROOT
TORSDOF 0
ENDMDL
MODEL 8
REMARK VINA RESULT:    -4.437      3.401      5.576
REMARK INTER + INTRA:          -4.437
REMARK INTER:                  -4.437
REMARK INTRA:                   0.000
REMARK UNBOUND:                 0.000
REMARK  Name = /home/vital/Documents/PhD_2021/Malaria_codes/scripts/../data/pdbqt_ligands/ligand_293_temp.pdb
REMARK                            x       y       z     vdW  Elec       q    Type
REMARK                         _______ _______ _______ _____ _____    ______ ____
ROOT
ATOM      1  O   UNL     1     144.031 127.739 103.542  0.00  0.00    -0.393 OA
ATOM      2  C   UNL     1     144.772 128.621 102.696  0.00  0.00    +0.060 C 
ATOM      3  C   UNL     1     144.033 128.828 101.375  0.00  0.00    +0.034 C 
ATOM      4  N   UNL     1     142.698 129.319 101.665  0.00  0.00    -0.326 N 
ATOM      5  C   UNL     1     141.714 129.326 100.687  0.00  0.00    +0.139 C 
ATOM      6  N   UNL     1     141.929 128.567  99.649  0.00  0.00    -0.142 N 
ATOM      7  N   UNL     1     140.989 128.625  98.672  0.00  0.00    -0.081 NA
ATOM      8  C   UNL     1     140.566 127.409  98.291  0.00  0.00    +0.224 C 
ATOM      9  N   UNL     1     141.617 126.538  98.168  0.00  0.00    -0.311 N 
ATOM     10  C   UNL     1     141.475 125.247  98.798  0.00  0.00    +0.030 C 
ATOM     11  C   UNL     1     142.600 124.367  98.329  0.00  0.00    -0.071 C 
ATOM     12  C   UNL     1     143.745 124.065  98.959  0.00  0.00    -0.085 C 
ATOM     13  C   UNL     1     144.222 124.626 100.272  0.00  0.00    -0.021 C 
ATOM     14  C   UNL     1     145.485 125.479 100.108  0.00  0.00    +0.026 C 
ATOM     15 CL   UNL     1     146.949 124.488  99.830  0.00  0.00    -0.125 Cl
ATOM     16  N   UNL     1     139.318 127.075  98.107  0.00  0.00    -0.216 N 
ATOM     17  C   UNL     1     138.346 127.989  98.439  0.00  0.00    +0.073 C 
ATOM     18  C   UNL     1     138.293 128.432  99.660  0.00  0.00    -0.100 C 
ATOM     19  C   UNL     1     138.464 128.896 100.864  0.00  0.00    -0.018 C 
ATOM     20  C   UNL     1     139.246 130.089 101.088  0.00  0.00    -0.051 C 
ATOM     21  C   UNL     1     140.566 130.283 100.948  0.00  0.00    -0.020 C 
ATOM     22  H   UNL     1     144.510 127.615 104.377  0.00  0.00    +0.000 HD
ATOM     23  H   UNL     1     142.488 129.651 102.568  0.00  0.00    +0.000 HD
ATOM     24  H   UNL     1     142.723 127.988  99.578  0.00  0.00    +0.000 HD
ATOM     25  H   UNL     1     140.654 129.466  98.286  0.00  0.00    +0.000 HD
ATOM     26  H   UNL     1     140.436 129.391  98.394  0.00  0.00    +0.000 HD
ATOM     27  H   UNL     1     142.432 126.782  97.673  0.00  0.00    +0.000 HD
ATOM     28  H   UNL     1     139.079 126.194  97.739  0.00  0.00    +0.000 HD
ENDROOT
TORSDOF 0
ENDMDL
MODEL 9
REMARK VINA RESULT:    -4.324      3.486      5.345
REMARK INTER + INTRA:          -4.324
REMARK INTER:                  -4.324
REMARK INTRA:                   0.000
REMARK UNBOUND:                 0.000
REMARK  Name = /home/vital/Documents/PhD_2021/Malaria_codes/scripts/../data/pdbqt_ligands/ligand_293_temp.pdb
REMARK                            x       y       z     vdW  Elec       q    Type
REMARK                         _______ _______ _______ _____ _____    ______ ____
ROOT
ATOM      1  O   UNL     1     141.387 126.966 104.514  0.00  0.00    -0.393 OA
ATOM      2  C   UNL     1     142.614 127.596 104.142  0.00  0.00    +0.060 C 
ATOM      3  C   UNL     1     142.695 127.737 102.622  0.00  0.00    +0.034 C 
ATOM      4  N   UNL     1     141.528 128.469 102.164  0.00  0.00    -0.326 N 
ATOM      5  C   UNL     1     141.189 128.499 100.819  0.00  0.00    +0.139 C 
ATOM      6  N   UNL     1     141.733 127.582 100.068  0.00  0.00    -0.142 N 
ATOM      7  N   UNL     1     141.441 127.657  98.745  0.00  0.00    -0.081 NA
ATOM      8  C   UNL     1     141.025 126.483  98.243  0.00  0.00    +0.224 C 
ATOM      9  N   UNL     1     141.791 125.447  98.710  0.00  0.00    -0.311 N 
ATOM     10  C   UNL     1     141.091 124.292  99.220  0.00  0.00    +0.030 C 
ATOM     11  C   UNL     1     142.091 123.189  99.430  0.00  0.00    -0.071 C 
ATOM     12  C   UNL     1     142.677 122.798 100.571  0.00  0.00    -0.085 C 
ATOM     13  C   UNL     1     142.539 123.448 101.922  0.00  0.00    -0.021 C 
ATOM     14  C   UNL     1     143.860 124.060 102.403  0.00  0.00    +0.026 C 
ATOM     15 CL   UNL     1     145.026 122.819 102.956  0.00  0.00    -0.125 Cl
ATOM     16  N   UNL     1     139.998 126.330  97.452  0.00  0.00    -0.216 N 
ATOM     17  C   UNL     1     139.202 127.423  97.203  0.00  0.00    +0.073 C 
ATOM     18  C   UNL     1     138.639 128.030  98.206  0.00  0.00    -0.100 C 
ATOM     19  C   UNL     1     138.277 128.619  99.308  0.00  0.00    -0.018 C 
ATOM     20  C   UNL     1     139.070 129.692  99.862  0.00  0.00    -0.051 C 
ATOM     21  C   UNL     1     140.290 129.653 100.417  0.00  0.00    -0.020 C 
ATOM     22  H   UNL     1     141.348 126.882 105.479  0.00  0.00    +0.000 HD
ATOM     23  H   UNL     1     140.969 128.949 102.817  0.00  0.00    +0.000 HD
ATOM     24  H   UNL     1     142.317 126.881 100.438  0.00  0.00    +0.000 HD
ATOM     25  H   UNL     1     141.525 128.480  98.213  0.00  0.00    +0.000 HD
ATOM     26  H   UNL     1     141.273 128.455  98.195  0.00  0.00    +0.000 HD
ATOM     27  H   UNL     1     142.775 125.489  98.698  0.00  0.00    +0.000 HD
ATOM     28  H   UNL     1     139.799 125.456  97.045  0.00  0.00    +0.000 HD
ENDROOT
TORSDOF 0
ENDMDL
