MODEL 1
REMARK VINA RESULT:    -5.062      0.000      0.000
REMARK INTER + INTRA:          -5.062
REMARK INTER:                  -5.062
REMARK INTRA:                   0.000
REMARK UNBOUND:                 0.000
REMARK  Name = /home/vital/Documents/PhD_2021/Malaria_codes/scripts/../data/pdbqt_ligands/ligand_161_temp.pdb
REMARK                            x       y       z     vdW  Elec       q    Type
REMARK                         _______ _______ _______ _____ _____    ______ ____
ROOT
ATOM      1  C1  UNL     1     143.910 128.641 101.605  0.00  0.00    -0.038 C 
ATOM      2  C2  UNL     1     142.526 129.122 101.246  0.00  0.00    -0.024 A 
ATOM      3  C3  UNL     1     142.409 130.432 100.553  0.00  0.00    +0.002 A 
ATOM      4  C4  UNL     1     143.516 131.224 100.211  0.00  0.00    -0.052 A 
ATOM      5  C5  UNL     1     143.355 132.453  99.563  0.00  0.00    -0.061 A 
ATOM      6  C6  UNL     1     142.080 132.913  99.243  0.00  0.00    -0.060 A 
ATOM      7  C7  UNL     1     140.967 132.143  99.572  0.00  0.00    -0.038 A 
ATOM      8  C8  UNL     1     141.136 130.915 100.220  0.00  0.00    +0.049 A 
ATOM      9  N1  UNL     1     140.006 130.161 100.531  0.00  0.00    -0.321 N 
ATOM     10  C9  UNL     1     140.048 128.939 101.153  0.00  0.00    +0.262 A 
ATOM     11  O1  UNL     1     138.991 128.341 101.342  0.00  0.00    -0.267 OA
ATOM     12  C10 UNL     1     141.398 128.428 101.537  0.00  0.00    +0.108 A 
ATOM     13  C11 UNL     1     141.525 127.112 102.228  0.00  0.00    +0.294 C 
ATOM     14  O2  UNL     1     141.844 126.116 101.580  0.00  0.00    -0.266 OA
ATOM     15  N2  UNL     1     141.295 127.252 103.541  0.00  0.00    -0.058 NA
ATOM     16  O3  UNL     1     141.679 126.092 104.311  0.00  0.00    -0.257 OA
ATOM     17  C12 UNL     1     140.535 125.247 104.451  0.00  0.00    +0.078 C 
ATOM     18  C13 UNL     1     140.910 124.035 105.316  0.00  0.00    -0.021 C 
ATOM     19  C14 UNL     1     139.748 123.045 105.379  0.00  0.00    -0.061 C 
ATOM     20  C15 UNL     1     141.320 124.463 106.726  0.00  0.00    -0.061 C 
ATOM     21  H   UNL     1     139.125 130.527 100.290  0.00  0.00    +0.000 HD
ENDROOT
TORSDOF 0
ENDMDL
MODEL 2
REMARK VINA RESULT:    -4.794      4.750      8.742
REMARK INTER + INTRA:          -4.794
REMARK INTER:                  -4.794
REMARK INTRA:                   0.000
REMARK UNBOUND:                 0.000
REMARK  Name = /home/vital/Documents/PhD_2021/Malaria_codes/scripts/../data/pdbqt_ligands/ligand_161_temp.pdb
REMARK                            x       y       z     vdW  Elec       q    Type
REMARK                         _______ _______ _______ _____ _____    ______ ____
ROOT
ATOM      1  C1  UNL     1     142.934 129.027  97.367  0.00  0.00    -0.038 C 
ATOM      2  C2  UNL     1     142.328 130.033  98.315  0.00  0.00    -0.024 A 
ATOM      3  C3  UNL     1     141.155 129.603  99.120  0.00  0.00    +0.002 A 
ATOM      4  C4  UNL     1     140.601 128.316  99.047  0.00  0.00    -0.052 A 
ATOM      5  C5  UNL     1     139.491 127.960  99.822  0.00  0.00    -0.061 A 
ATOM      6  C6  UNL     1     138.916 128.887 100.687  0.00  0.00    -0.060 A 
ATOM      7  C7  UNL     1     139.450 130.170 100.777  0.00  0.00    -0.038 A 
ATOM      8  C8  UNL     1     140.559 130.519  99.999  0.00  0.00    +0.049 A 
ATOM      9  N1  UNL     1     141.079 131.807 100.113  0.00  0.00    -0.321 N 
ATOM     10  C9  UNL     1     142.168 132.259  99.412  0.00  0.00    +0.262 A 
ATOM     11  O1  UNL     1     142.567 133.403  99.621  0.00  0.00    -0.267 OA
ATOM     12  C10 UNL     1     142.793 131.300  98.452  0.00  0.00    +0.108 A 
ATOM     13  C11 UNL     1     143.974 131.721  97.644  0.00  0.00    +0.294 C 
ATOM     14  O2  UNL     1     145.103 131.382  97.999  0.00  0.00    -0.266 OA
ATOM     15  N2  UNL     1     143.578 132.413  96.567  0.00  0.00    -0.058 NA
ATOM     16  O3  UNL     1     144.630 132.603  95.596  0.00  0.00    -0.257 OA
ATOM     17  C12 UNL     1     145.266 133.855  95.862  0.00  0.00    +0.078 C 
ATOM     18  C13 UNL     1     146.350 134.101  94.804  0.00  0.00    -0.021 C 
ATOM     19  C14 UNL     1     147.138 135.369  95.132  0.00  0.00    -0.061 C 
ATOM     20  C15 UNL     1     145.749 134.198  93.401  0.00  0.00    -0.061 C 
ATOM     21  H   UNL     1     140.637 132.431 100.733  0.00  0.00    +0.000 HD
ENDROOT
TORSDOF 0
ENDMDL
MODEL 3
REMARK VINA RESULT:    -4.653      1.935      2.888
REMARK INTER + INTRA:          -4.653
REMARK INTER:                  -4.653
REMARK INTRA:                   0.000
REMARK UNBOUND:                 0.000
REMARK  Name = /home/vital/Documents/PhD_2021/Malaria_codes/scripts/../data/pdbqt_ligands/ligand_161_temp.pdb
REMARK                            x       y       z     vdW  Elec       q    Type
REMARK                         _______ _______ _______ _____ _____    ______ ____
ROOT
ATOM      1  C1  UNL     1     139.821 128.029 100.624  0.00  0.00    -0.038 C 
ATOM      2  C2  UNL     1     141.094 128.587 101.212  0.00  0.00    -0.024 A 
ATOM      3  C3  UNL     1     141.563 129.906 100.715  0.00  0.00    +0.002 A 
ATOM      4  C4  UNL     1     140.878 130.651  99.743  0.00  0.00    -0.052 A 
ATOM      5  C5  UNL     1     141.363 131.887  99.302  0.00  0.00    -0.061 A 
ATOM      6  C6  UNL     1     142.546 132.401  99.827  0.00  0.00    -0.060 A 
ATOM      7  C7  UNL     1     143.243 131.680 100.793  0.00  0.00    -0.038 A 
ATOM      8  C8  UNL     1     142.751 130.445 101.229  0.00  0.00    +0.049 A 
ATOM      9  N1  UNL     1     143.464 129.746 102.201  0.00  0.00    -0.321 N 
ATOM     10  C9  UNL     1     143.075 128.534 102.715  0.00  0.00    +0.262 A 
ATOM     11  O1  UNL     1     143.758 128.026 103.600  0.00  0.00    -0.267 OA
ATOM     12  C10 UNL     1     141.825 127.938 102.153  0.00  0.00    +0.108 A 
ATOM     13  C11 UNL     1     141.344 126.618 102.651  0.00  0.00    +0.294 C 
ATOM     14  O2  UNL     1     140.436 126.577 103.481  0.00  0.00    -0.266 OA
ATOM     15  N2  UNL     1     141.997 125.622 102.036  0.00  0.00    -0.058 NA
ATOM     16  O3  UNL     1     141.391 124.328 102.249  0.00  0.00    -0.257 OA
ATOM     17  C12 UNL     1     142.024 123.718 103.376  0.00  0.00    +0.078 C 
ATOM     18  C13 UNL     1     141.432 122.316 103.584  0.00  0.00    -0.021 C 
ATOM     19  C14 UNL     1     141.992 121.684 104.857  0.00  0.00    -0.061 C 
ATOM     20  C15 UNL     1     141.702 121.413 102.379  0.00  0.00    -0.061 C 
ATOM     21  H   UNL     1     144.297 130.145 102.541  0.00  0.00    +0.000 HD
ENDROOT
TORSDOF 0
ENDMDL
MODEL 4
REMARK VINA RESULT:    -4.584      5.540      7.857
REMARK INTER + INTRA:          -4.584
REMARK INTER:                  -4.584
REMARK INTRA:                   0.000
REMARK UNBOUND:                 0.000
REMARK  Name = /home/vital/Documents/PhD_2021/Malaria_codes/scripts/../data/pdbqt_ligands/ligand_161_temp.pdb
REMARK                            x       y       z     vdW  Elec       q    Type
REMARK                         _______ _______ _______ _____ _____    ______ ____
ROOT
ATOM      1  C1  UNL     1     139.133 126.578  97.898  0.00  0.00    -0.038 C 
ATOM      2  C2  UNL     1     140.088 127.705  98.205  0.00  0.00    -0.024 A 
ATOM      3  C3  UNL     1     139.751 128.605  99.339  0.00  0.00    +0.002 A 
ATOM      4  C4  UNL     1     138.605 128.447 100.134  0.00  0.00    -0.052 A 
ATOM      5  C5  UNL     1     138.328 129.324 101.189  0.00  0.00    -0.061 A 
ATOM      6  C6  UNL     1     139.195 130.377 101.468  0.00  0.00    -0.060 A 
ATOM      7  C7  UNL     1     140.339 130.553 100.693  0.00  0.00    -0.038 A 
ATOM      8  C8  UNL     1     140.610 129.672  99.641  0.00  0.00    +0.049 A 
ATOM      9  N1  UNL     1     141.764 129.865  98.885  0.00  0.00    -0.321 N 
ATOM     10  C9  UNL     1     142.140 129.061  97.839  0.00  0.00    +0.262 A 
ATOM     11  O1  UNL     1     143.202 129.299  97.267  0.00  0.00    -0.267 OA
ATOM     12  C10 UNL     1     141.218 127.938  97.492  0.00  0.00    +0.108 A 
ATOM     13  C11 UNL     1     141.551 127.027  96.359  0.00  0.00    +0.294 C 
ATOM     14  O2  UNL     1     142.052 125.927  96.593  0.00  0.00    -0.266 OA
ATOM     15  N2  UNL     1     141.184 127.579  95.194  0.00  0.00    -0.058 NA
ATOM     16  O3  UNL     1     141.207 126.647  94.092  0.00  0.00    -0.257 OA
ATOM     17  C12 UNL     1     142.483 126.740  93.453  0.00  0.00    +0.078 C 
ATOM     18  C13 UNL     1     142.507 125.797  92.242  0.00  0.00    -0.021 C 
ATOM     19  C14 UNL     1     143.898 125.774  91.611  0.00  0.00    -0.061 C 
ATOM     20  C15 UNL     1     141.458 126.198  91.202  0.00  0.00    -0.061 C 
ATOM     21  H   UNL     1     142.346 130.625  99.116  0.00  0.00    +0.000 HD
ENDROOT
TORSDOF 0
ENDMDL
MODEL 5
REMARK VINA RESULT:    -4.547     13.845     14.980
REMARK INTER + INTRA:          -4.547
REMARK INTER:                  -4.547
REMARK INTRA:                   0.000
REMARK UNBOUND:                 0.000
REMARK  Name = /home/vital/Documents/PhD_2021/Malaria_codes/scripts/../data/pdbqt_ligands/ligand_161_temp.pdb
REMARK                            x       y       z     vdW  Elec       q    Type
REMARK                         _______ _______ _______ _____ _____    ______ ____
ROOT
ATOM      1  C1  UNL     1     140.376 144.273  98.034  0.00  0.00    -0.038 C 
ATOM      2  C2  UNL     1     141.229 143.052  97.796  0.00  0.00    -0.024 A 
ATOM      3  C3  UNL     1     141.228 142.465  96.430  0.00  0.00    +0.002 A 
ATOM      4  C4  UNL     1     140.486 142.997  95.364  0.00  0.00    -0.052 A 
ATOM      5  C5  UNL     1     140.513 142.405  94.096  0.00  0.00    -0.061 A 
ATOM      6  C6  UNL     1     141.285 141.268  93.872  0.00  0.00    -0.060 A 
ATOM      7  C7  UNL     1     142.029 140.723  94.915  0.00  0.00    -0.038 A 
ATOM      8  C8  UNL     1     141.998 141.320  96.180  0.00  0.00    +0.049 A 
ATOM      9  N1  UNL     1     142.757 140.760  97.205  0.00  0.00    -0.321 N 
ATOM     10  C9  UNL     1     142.815 141.263  98.480  0.00  0.00    +0.262 A 
ATOM     11  O1  UNL     1     143.552 140.711  99.295  0.00  0.00    -0.267 OA
ATOM     12  C10 UNL     1     141.976 142.466  98.764  0.00  0.00    +0.108 A 
ATOM     13  C11 UNL     1     141.976 143.065 100.130  0.00  0.00    +0.294 C 
ATOM     14  O2  UNL     1     142.661 144.063 100.354  0.00  0.00    -0.266 OA
ATOM     15  N2  UNL     1     141.139 142.393 100.933  0.00  0.00    -0.058 NA
ATOM     16  O3  UNL     1     140.868 143.080 102.173  0.00  0.00    -0.257 OA
ATOM     17  C12 UNL     1     141.794 142.612 103.157  0.00  0.00    +0.078 C 
ATOM     18  C13 UNL     1     141.484 143.291 104.499  0.00  0.00    -0.021 C 
ATOM     19  C14 UNL     1     142.534 142.913 105.542  0.00  0.00    -0.061 C 
ATOM     20  C15 UNL     1     140.085 142.926 104.998  0.00  0.00    -0.061 C 
ATOM     21  H   UNL     1     143.284 139.953  97.002  0.00  0.00    +0.000 HD
ENDROOT
TORSDOF 0
ENDMDL
MODEL 6
REMARK VINA RESULT:    -4.500      8.150     10.643
REMARK INTER + INTRA:          -4.500
REMARK INTER:                  -4.500
REMARK INTRA:                   0.000
REMARK UNBOUND:                 0.000
REMARK  Name = /home/vital/Documents/PhD_2021/Malaria_codes/scripts/../data/pdbqt_ligands/ligand_161_temp.pdb
REMARK                            x       y       z     vdW  Elec       q    Type
REMARK                         _______ _______ _______ _____ _____    ______ ____
ROOT
ATOM      1  C1  UNL     1     143.065 133.209  91.185  0.00  0.00    -0.038 C 
ATOM      2  C2  UNL     1     141.994 132.147  91.243  0.00  0.00    -0.024 A 
ATOM      3  C3  UNL     1     141.072 132.032  90.083  0.00  0.00    +0.002 A 
ATOM      4  C4  UNL     1     141.159 132.851  88.947  0.00  0.00    -0.052 A 
ATOM      5  C5  UNL     1     140.263 132.709  87.881  0.00  0.00    -0.061 A 
ATOM      6  C6  UNL     1     139.262 131.743  87.934  0.00  0.00    -0.060 A 
ATOM      7  C7  UNL     1     139.157 130.918  89.052  0.00  0.00    -0.038 A 
ATOM      8  C8  UNL     1     140.057 131.066  90.113  0.00  0.00    +0.049 A 
ATOM      9  N1  UNL     1     139.935 130.224  91.216  0.00  0.00    -0.321 N 
ATOM     10  C9  UNL     1     140.764 130.267  92.309  0.00  0.00    +0.262 A 
ATOM     11  O1  UNL     1     140.591 129.448  93.209  0.00  0.00    -0.267 OA
ATOM     12  C10 UNL     1     141.832 131.312  92.300  0.00  0.00    +0.108 A 
ATOM     13  C11 UNL     1     142.766 131.430  93.456  0.00  0.00    +0.294 C 
ATOM     14  O2  UNL     1     143.892 130.939  93.378  0.00  0.00    -0.266 OA
ATOM     15  N2  UNL     1     142.197 132.136  94.443  0.00  0.00    -0.058 NA
ATOM     16  O3  UNL     1     143.133 132.536  95.468  0.00  0.00    -0.257 OA
ATOM     17  C12 UNL     1     143.118 131.547  96.500  0.00  0.00    +0.078 C 
ATOM     18  C13 UNL     1     144.066 131.983  97.626  0.00  0.00    -0.021 C 
ATOM     19  C14 UNL     1     144.174 130.889  98.686  0.00  0.00    -0.061 C 
ATOM     20  C15 UNL     1     143.607 133.297  98.262  0.00  0.00    -0.061 C 
ATOM     21  H   UNL     1     139.210 129.558  91.212  0.00  0.00    +0.000 HD
ENDROOT
TORSDOF 0
ENDMDL
MODEL 7
REMARK VINA RESULT:    -4.265     15.121     16.770
REMARK INTER + INTRA:          -4.265
REMARK INTER:                  -4.265
REMARK INTRA:                   0.000
REMARK UNBOUND:                 0.000
REMARK  Name = /home/vital/Documents/PhD_2021/Malaria_codes/scripts/../data/pdbqt_ligands/ligand_161_temp.pdb
REMARK                            x       y       z     vdW  Elec       q    Type
REMARK                         _______ _______ _______ _____ _____    ______ ____
ROOT
ATOM      1  C1  UNL     1     133.481 124.508  89.335  0.00  0.00    -0.038 C 
ATOM      2  C2  UNL     1     134.049 123.981  88.040  0.00  0.00    -0.024 A 
ATOM      3  C3  UNL     1     133.158 123.160  87.180  0.00  0.00    +0.002 A 
ATOM      4  C4  UNL     1     131.826 122.866  87.510  0.00  0.00    -0.052 A 
ATOM      5  C5  UNL     1     131.027 122.082  86.669  0.00  0.00    -0.061 A 
ATOM      6  C6  UNL     1     131.548 121.578  85.480  0.00  0.00    -0.060 A 
ATOM      7  C7  UNL     1     132.868 121.857  85.132  0.00  0.00    -0.038 A 
ATOM      8  C8  UNL     1     133.660 122.641  85.977  0.00  0.00    +0.049 A 
ATOM      9  N1  UNL     1     134.974 122.912  85.603  0.00  0.00    -0.321 N 
ATOM     10  C9  UNL     1     135.841 123.677  86.343  0.00  0.00    +0.262 A 
ATOM     11  O1  UNL     1     136.966 123.886  85.896  0.00  0.00    -0.267 OA
ATOM     12  C10 UNL     1     135.324 124.211  87.639  0.00  0.00    +0.108 A 
ATOM     13  C11 UNL     1     136.209 125.041  88.506  0.00  0.00    +0.294 C 
ATOM     14  O2  UNL     1     136.096 126.267  88.489  0.00  0.00    -0.266 OA
ATOM     15  N2  UNL     1     137.009 124.257  89.241  0.00  0.00    -0.058 NA
ATOM     16  O3  UNL     1     137.682 124.968  90.303  0.00  0.00    -0.257 OA
ATOM     17  C12 UNL     1     138.957 125.395  89.817  0.00  0.00    +0.078 C 
ATOM     18  C13 UNL     1     139.712 126.105  90.951  0.00  0.00    -0.021 C 
ATOM     19  C14 UNL     1     141.026 126.688  90.433  0.00  0.00    -0.061 C 
ATOM     20  C15 UNL     1     139.977 125.158  92.123  0.00  0.00    -0.061 C 
ATOM     21  H   UNL     1     135.302 122.532  84.756  0.00  0.00    +0.000 HD
ENDROOT
TORSDOF 0
ENDMDL
MODEL 8
REMARK VINA RESULT:    -4.097      3.702      7.858
REMARK INTER + INTRA:          -4.097
REMARK INTER:                  -4.097
REMARK INTRA:                   0.000
REMARK UNBOUND:                 0.000
REMARK  Name = /home/vital/Documents/PhD_2021/Malaria_codes/scripts/../data/pdbqt_ligands/ligand_161_temp.pdb
REMARK                            x       y       z     vdW  Elec       q    Type
REMARK                         _______ _______ _______ _____ _____    ______ ____
ROOT
ATOM      1  C1  UNL     1     144.329 130.721 100.763  0.00  0.00    -0.038 C 
ATOM      2  C2  UNL     1     143.088 129.905 100.495  0.00  0.00    -0.024 A 
ATOM      3  C3  UNL     1     142.661 128.936 101.538  0.00  0.00    +0.002 A 
ATOM      4  C4  UNL     1     143.346 128.757 102.750  0.00  0.00    -0.052 A 
ATOM      5  C5  UNL     1     142.907 127.827 103.700  0.00  0.00    -0.061 A 
ATOM      6  C6  UNL     1     141.773 127.058 103.453  0.00  0.00    -0.060 A 
ATOM      7  C7  UNL     1     141.077 127.219 102.257  0.00  0.00    -0.038 A 
ATOM      8  C8  UNL     1     141.521 128.150 101.313  0.00  0.00    +0.049 A 
ATOM      9  N1  UNL     1     140.803 128.297 100.128  0.00  0.00    -0.321 N 
ATOM     10  C9  UNL     1     141.135 129.185  99.135  0.00  0.00    +0.262 A 
ATOM     11  O1  UNL     1     140.405 129.260  98.149  0.00  0.00    -0.267 OA
ATOM     12  C10 UNL     1     142.363 130.006  99.353  0.00  0.00    +0.108 A 
ATOM     13  C11 UNL     1     142.796 130.985  98.315  0.00  0.00    +0.294 C 
ATOM     14  O2  UNL     1     142.534 132.179  98.461  0.00  0.00    -0.266 OA
ATOM     15  N2  UNL     1     143.483 130.364  97.346  0.00  0.00    -0.058 NA
ATOM     16  O3  UNL     1     144.175 131.276  96.466  0.00  0.00    -0.257 OA
ATOM     17  C12 UNL     1     143.327 131.551  95.349  0.00  0.00    +0.078 C 
ATOM     18  C13 UNL     1     144.069 132.475  94.373  0.00  0.00    -0.021 C 
ATOM     19  C14 UNL     1     143.146 132.895  93.230  0.00  0.00    -0.061 C 
ATOM     20  C15 UNL     1     145.328 131.806  93.820  0.00  0.00    -0.061 C 
ATOM     21  H   UNL     1     140.010 127.730  99.994  0.00  0.00    +0.000 HD
ENDROOT
TORSDOF 0
ENDMDL
MODEL 9
REMARK VINA RESULT:    -4.047     15.018     17.354
REMARK INTER + INTRA:          -4.047
REMARK INTER:                  -4.047
REMARK INTRA:                   0.000
REMARK UNBOUND:                 0.000
REMARK  Name = /home/vital/Documents/PhD_2021/Malaria_codes/scripts/../data/pdbqt_ligands/ligand_161_temp.pdb
REMARK                            x       y       z     vdW  Elec       q    Type
REMARK                         _______ _______ _______ _____ _____    ______ ____
ROOT
ATOM      1  C1  UNL     1     135.152 124.799  85.166  0.00  0.00    -0.038 C 
ATOM      2  C2  UNL     1     134.711 124.623  86.599  0.00  0.00    -0.024 A 
ATOM      3  C3  UNL     1     133.556 123.725  86.860  0.00  0.00    +0.002 A 
ATOM      4  C4  UNL     1     132.873 123.035  85.847  0.00  0.00    -0.052 A 
ATOM      5  C5  UNL     1     131.786 122.204  86.142  0.00  0.00    -0.061 A 
ATOM      6  C6  UNL     1     131.363 122.049  87.459  0.00  0.00    -0.060 A 
ATOM      7  C7  UNL     1     132.027 122.724  88.482  0.00  0.00    -0.038 A 
ATOM      8  C8  UNL     1     133.112 123.552  88.179  0.00  0.00    +0.049 A 
ATOM      9  N1  UNL     1     133.764 124.211  89.220  0.00  0.00    -0.321 N 
ATOM     10  C9  UNL     1     134.845 125.037  89.047  0.00  0.00    +0.262 A 
ATOM     11  O1  UNL     1     135.368 125.534  90.042  0.00  0.00    -0.267 OA
ATOM     12  C10 UNL     1     135.308 125.251  87.643  0.00  0.00    +0.108 A 
ATOM     13  C11 UNL     1     136.470 126.145  87.372  0.00  0.00    +0.294 C 
ATOM     14  O2  UNL     1     137.580 125.652  87.171  0.00  0.00    -0.266 OA
ATOM     15  N2  UNL     1     136.076 127.426  87.349  0.00  0.00    -0.058 NA
ATOM     16  O3  UNL     1     137.077 128.318  86.812  0.00  0.00    -0.257 OA
ATOM     17  C12 UNL     1     137.850 128.831  87.900  0.00  0.00    +0.078 C 
ATOM     18  C13 UNL     1     138.883 129.827  87.354  0.00  0.00    -0.021 C 
ATOM     19  C14 UNL     1     139.812 130.298  88.471  0.00  0.00    -0.061 C 
ATOM     20  C15 UNL     1     138.204 131.025  86.687  0.00  0.00    -0.061 C 
ATOM     21  H   UNL     1     133.427 124.075  90.135  0.00  0.00    +0.000 HD
ENDROOT
TORSDOF 0
ENDMDL
