MODEL 1
REMARK VINA RESULT:    -5.612      0.000      0.000
REMARK INTER + INTRA:          -5.612
REMARK INTER:                  -5.612
REMARK INTRA:                   0.000
REMARK UNBOUND:                 0.000
REMARK  Name = /home/vital/Documents/PhD_2021/Malaria_codes/scripts/../data/pdbqt_ligands/ligand_134_temp.pdb
REMARK                            x       y       z     vdW  Elec       q    Type
REMARK                         _______ _______ _______ _____ _____    ______ ____
ROOT
ATOM      1  C   UNL     1     143.477 129.445  98.307  0.00  0.00    -0.039 C 
ATOM      2  C   UNL     1     142.922 130.816  98.591  0.00  0.00    -0.037 A 
ATOM      3  C   UNL     1     143.615 131.932  98.089  0.00  0.00    -0.023 A 
ATOM      4  C   UNL     1     143.139 133.218  98.316  0.00  0.00    +0.124 A 
ATOM      5  F   UNL     1     143.811 134.267  97.825  0.00  0.00    -0.205 F 
ATOM      6  C   UNL     1     141.977 133.429  99.042  0.00  0.00    -0.026 A 
ATOM      7  C   UNL     1     141.284 132.332  99.556  0.00  0.00    -0.048 A 
ATOM      8  C   UNL     1     141.744 131.016  99.351  0.00  0.00    +0.020 A 
ATOM      9  C   UNL     1     140.973 129.920  99.929  0.00  0.00    +0.135 A 
ATOM     10  C   UNL     1     139.622 129.674 100.076  0.00  0.00    -0.016 A 
ATOM     11  C   UNL     1     139.504 128.440 100.761  0.00  0.00    -0.019 A 
ATOM     12  C   UNL     1     140.789 128.007 101.001  0.00  0.00    +0.119 A 
ATOM     13  C   UNL     1     141.355 126.810 101.679  0.00  0.00    +0.055 C 
ATOM     14  N   UNL     1     141.353 127.009 103.129  0.00  0.00    -0.309 N 
ATOM     15  C   UNL     1     141.965 125.870 103.814  0.00  0.00    -0.004 C 
ATOM     16  C   UNL     1     141.981 126.083 105.331  0.00  0.00    -0.039 C 
ATOM     17  C   UNL     1     140.603 126.283 105.976  0.00  0.00    -0.039 C 
ATOM     18  C   UNL     1     139.585 125.168 105.696  0.00  0.00    -0.002 C 
ATOM     19  N   UNL     1     140.062 123.814 106.030  0.00  0.00    -0.308 N 
ATOM     20  C   UNL     1     140.225 123.634 107.474  0.00  0.00    -0.013 C 
ATOM     21  C   UNL     1     139.125 122.813 105.511  0.00  0.00    -0.013 C 
ATOM     22  O   UNL     1     141.686 128.907 100.503  0.00  0.00    -0.458 OA
ATOM     23  H   UNL     1     140.390 127.114 103.451  0.00  0.00    +0.000 HD
ATOM     24  H   UNL     1     141.894 127.847 103.344  0.00  0.00    +0.000 HD
ATOM     25  H   UNL     1     140.976 123.692 105.594  0.00  0.00    +0.000 HD
ENDROOT
TORSDOF 0
ENDMDL
MODEL 2
REMARK VINA RESULT:    -4.984      4.146      9.332
REMARK INTER + INTRA:          -4.984
REMARK INTER:                  -4.984
REMARK INTRA:                   0.000
REMARK UNBOUND:                 0.000
REMARK  Name = /home/vital/Documents/PhD_2021/Malaria_codes/scripts/../data/pdbqt_ligands/ligand_134_temp.pdb
REMARK                            x       y       z     vdW  Elec       q    Type
REMARK                         _______ _______ _______ _____ _____    ______ ____
ROOT
ATOM      1  C   UNL     1     141.231 122.995 102.950  0.00  0.00    -0.039 C 
ATOM      2  C   UNL     1     140.157 123.285 103.965  0.00  0.00    -0.037 A 
ATOM      3  C   UNL     1     139.260 122.254 104.297  0.00  0.00    -0.023 A 
ATOM      4  C   UNL     1     138.257 122.467 105.235  0.00  0.00    +0.124 A 
ATOM      5  F   UNL     1     137.416 121.471 105.541  0.00  0.00    -0.205 F 
ATOM      6  C   UNL     1     138.116 123.697 105.858  0.00  0.00    -0.026 A 
ATOM      7  C   UNL     1     138.992 124.733 105.531  0.00  0.00    -0.048 A 
ATOM      8  C   UNL     1     140.014 124.552 104.579  0.00  0.00    +0.020 A 
ATOM      9  C   UNL     1     140.884 125.686 104.280  0.00  0.00    +0.135 A 
ATOM     10  C   UNL     1     141.453 126.683 105.047  0.00  0.00    -0.016 A 
ATOM     11  C   UNL     1     142.171 127.520 104.159  0.00  0.00    -0.019 A 
ATOM     12  C   UNL     1     141.993 126.992 102.899  0.00  0.00    +0.119 A 
ATOM     13  C   UNL     1     142.463 127.393 101.546  0.00  0.00    +0.055 C 
ATOM     14  N   UNL     1     141.608 128.456 101.015  0.00  0.00    -0.309 N 
ATOM     15  C   UNL     1     142.013 128.822  99.657  0.00  0.00    -0.004 C 
ATOM     16  C   UNL     1     141.110 129.922  99.091  0.00  0.00    -0.039 C 
ATOM     17  C   UNL     1     141.086 131.227  99.899  0.00  0.00    -0.039 C 
ATOM     18  C   UNL     1     142.461 131.865 100.145  0.00  0.00    -0.002 C 
ATOM     19  N   UNL     1     143.252 132.091  98.922  0.00  0.00    -0.308 N 
ATOM     20  C   UNL     1     142.656 133.123  98.070  0.00  0.00    -0.013 C 
ATOM     21  C   UNL     1     144.621 132.475  99.278  0.00  0.00    -0.013 C 
ATOM     22  O   UNL     1     141.205 125.880 102.967  0.00  0.00    -0.458 OA
ATOM     23  H   UNL     1     141.682 129.276 101.618  0.00  0.00    +0.000 HD
ATOM     24  H   UNL     1     140.646 128.119 100.989  0.00  0.00    +0.000 HD
ATOM     25  H   UNL     1     143.262 131.217  98.396  0.00  0.00    +0.000 HD
ENDROOT
TORSDOF 0
ENDMDL
MODEL 3
REMARK VINA RESULT:    -4.911     13.874     16.620
REMARK INTER + INTRA:          -4.911
REMARK INTER:                  -4.911
REMARK INTRA:                   0.000
REMARK UNBOUND:                 0.000
REMARK  Name = /home/vital/Documents/PhD_2021/Malaria_codes/scripts/../data/pdbqt_ligands/ligand_134_temp.pdb
REMARK                            x       y       z     vdW  Elec       q    Type
REMARK                         _______ _______ _______ _____ _____    ______ ____
ROOT
ATOM      1  C   UNL     1     134.385 124.375  86.217  0.00  0.00    -0.039 C 
ATOM      2  C   UNL     1     133.556 124.316  87.473  0.00  0.00    -0.037 A 
ATOM      3  C   UNL     1     132.242 123.823  87.381  0.00  0.00    -0.023 A 
ATOM      4  C   UNL     1     131.440 123.740  88.513  0.00  0.00    +0.124 A 
ATOM      5  F   UNL     1     130.193 123.262  88.405  0.00  0.00    -0.205 F 
ATOM      6  C   UNL     1     131.914 124.142  89.752  0.00  0.00    -0.026 A 
ATOM      7  C   UNL     1     133.212 124.643  89.857  0.00  0.00    -0.048 A 
ATOM      8  C   UNL     1     134.047 124.749  88.728  0.00  0.00    +0.020 A 
ATOM      9  C   UNL     1     135.389 125.293  88.914  0.00  0.00    +0.135 A 
ATOM     10  C   UNL     1     136.346 125.164  89.901  0.00  0.00    -0.016 A 
ATOM     11  C   UNL     1     137.438 125.982  89.521  0.00  0.00    -0.019 A 
ATOM     12  C   UNL     1     137.082 126.571  88.327  0.00  0.00    +0.119 A 
ATOM     13  C   UNL     1     137.763 127.532  87.418  0.00  0.00    +0.055 C 
ATOM     14  N   UNL     1     137.601 128.897  87.923  0.00  0.00    -0.309 N 
ATOM     15  C   UNL     1     138.207 129.866  87.010  0.00  0.00    -0.004 C 
ATOM     16  C   UNL     1     138.025 131.297  87.525  0.00  0.00    -0.039 C 
ATOM     17  C   UNL     1     138.628 131.574  88.909  0.00  0.00    -0.039 C 
ATOM     18  C   UNL     1     140.120 131.240  89.047  0.00  0.00    -0.002 C 
ATOM     19  N   UNL     1     140.980 131.874  88.032  0.00  0.00    -0.308 N 
ATOM     20  C   UNL     1     141.041 133.328  88.200  0.00  0.00    -0.013 C 
ATOM     21  C   UNL     1     142.332 131.312  88.102  0.00  0.00    -0.013 C 
ATOM     22  O   UNL     1     135.834 126.160  87.958  0.00  0.00    -0.458 OA
ATOM     23  H   UNL     1     138.051 128.971  88.836  0.00  0.00    +0.000 HD
ATOM     24  H   UNL     1     136.604 129.101  87.999  0.00  0.00    +0.000 HD
ATOM     25  H   UNL     1     140.571 131.681  87.117  0.00  0.00    +0.000 HD
ENDROOT
TORSDOF 0
ENDMDL
MODEL 4
REMARK VINA RESULT:    -4.787      5.780     10.769
REMARK INTER + INTRA:          -4.787
REMARK INTER:                  -4.787
REMARK INTRA:                   0.000
REMARK UNBOUND:                 0.000
REMARK  Name = /home/vital/Documents/PhD_2021/Malaria_codes/scripts/../data/pdbqt_ligands/ligand_134_temp.pdb
REMARK                            x       y       z     vdW  Elec       q    Type
REMARK                         _______ _______ _______ _____ _____    ______ ____
ROOT
ATOM      1  C   UNL     1     141.096 127.371  97.847  0.00  0.00    -0.039 C 
ATOM      2  C   UNL     1     140.566 128.382  98.829  0.00  0.00    -0.037 A 
ATOM      3  C   UNL     1     139.418 128.050  99.571  0.00  0.00    -0.023 A 
ATOM      4  C   UNL     1     138.893 128.945 100.497  0.00  0.00    +0.124 A 
ATOM      5  F   UNL     1     137.803 128.607 101.196  0.00  0.00    -0.205 F 
ATOM      6  C   UNL     1     139.486 130.180 100.707  0.00  0.00    -0.026 A 
ATOM      7  C   UNL     1     140.620 130.528  99.971  0.00  0.00    -0.048 A 
ATOM      8  C   UNL     1     141.171 129.648  99.019  0.00  0.00    +0.020 A 
ATOM      9  C   UNL     1     142.351 130.086  98.279  0.00  0.00    +0.135 A 
ATOM     10  C   UNL     1     143.482 130.800  98.619  0.00  0.00    -0.016 A 
ATOM     11  C   UNL     1     144.249 130.937  97.436  0.00  0.00    -0.019 A 
ATOM     12  C   UNL     1     143.538 130.306  96.439  0.00  0.00    +0.119 A 
ATOM     13  C   UNL     1     143.777 130.101  94.985  0.00  0.00    +0.055 C 
ATOM     14  N   UNL     1     143.391 131.301  94.241  0.00  0.00    -0.309 N 
ATOM     15  C   UNL     1     143.557 131.098  92.802  0.00  0.00    -0.004 C 
ATOM     16  C   UNL     1     143.137 132.346  92.018  0.00  0.00    -0.039 C 
ATOM     17  C   UNL     1     143.910 133.625  92.364  0.00  0.00    -0.039 C 
ATOM     18  C   UNL     1     145.437 133.516  92.239  0.00  0.00    -0.002 C 
ATOM     19  N   UNL     1     145.905 133.032  90.929  0.00  0.00    -0.308 N 
ATOM     20  C   UNL     1     145.644 134.004  89.864  0.00  0.00    -0.013 C 
ATOM     21  C   UNL     1     147.340 132.739  90.988  0.00  0.00    -0.013 C 
ATOM     22  O   UNL     1     142.379 129.793  96.946  0.00  0.00    -0.458 OA
ATOM     23  H   UNL     1     143.977 132.081  94.538  0.00  0.00    +0.000 HD
ATOM     24  H   UNL     1     142.408 131.500  94.431  0.00  0.00    +0.000 HD
ATOM     25  H   UNL     1     145.386 132.182  90.711  0.00  0.00    +0.000 HD
ENDROOT
TORSDOF 0
ENDMDL
MODEL 5
REMARK VINA RESULT:    -4.667      4.108      9.542
REMARK INTER + INTRA:          -4.667
REMARK INTER:                  -4.667
REMARK INTRA:                   0.000
REMARK UNBOUND:                 0.000
REMARK  Name = /home/vital/Documents/PhD_2021/Malaria_codes/scripts/../data/pdbqt_ligands/ligand_134_temp.pdb
REMARK                            x       y       z     vdW  Elec       q    Type
REMARK                         _______ _______ _______ _____ _____    ______ ____
ROOT
ATOM      1  C   UNL     1     139.347 123.637 104.799  0.00  0.00    -0.039 C 
ATOM      2  C   UNL     1     139.857 124.052 106.153  0.00  0.00    -0.037 A 
ATOM      3  C   UNL     1     139.150 123.623 107.291  0.00  0.00    -0.023 A 
ATOM      4  C   UNL     1     139.585 123.972 108.564  0.00  0.00    +0.124 A 
ATOM      5  F   UNL     1     138.901 123.549 109.635  0.00  0.00    -0.205 F 
ATOM      6  C   UNL     1     140.719 124.750 108.741  0.00  0.00    -0.026 A 
ATOM      7  C   UNL     1     141.425 125.192 107.621  0.00  0.00    -0.048 A 
ATOM      8  C   UNL     1     141.006 124.864 106.317  0.00  0.00    +0.020 A 
ATOM      9  C   UNL     1     141.789 125.372 105.194  0.00  0.00    +0.135 A 
ATOM     10  C   UNL     1     143.140 125.541 104.969  0.00  0.00    -0.016 A 
ATOM     11  C   UNL     1     143.271 126.125 103.686  0.00  0.00    -0.019 A 
ATOM     12  C   UNL     1     141.990 126.287 103.203  0.00  0.00    +0.119 A 
ATOM     13  C   UNL     1     141.437 126.844 101.940  0.00  0.00    +0.055 C 
ATOM     14  N   UNL     1     141.390 128.305 102.017  0.00  0.00    -0.309 N 
ATOM     15  C   UNL     1     140.788 128.872 100.810  0.00  0.00    -0.004 C 
ATOM     16  C   UNL     1     140.722 130.400 100.893  0.00  0.00    -0.039 C 
ATOM     17  C   UNL     1     142.073 131.104 101.071  0.00  0.00    -0.039 C 
ATOM     18  C   UNL     1     143.128 130.764 100.008  0.00  0.00    -0.002 C 
ATOM     19  N   UNL     1     142.678 130.969  98.620  0.00  0.00    -0.308 N 
ATOM     20  C   UNL     1     142.477 132.387  98.316  0.00  0.00    -0.013 C 
ATOM     21  C   UNL     1     143.656 130.398  97.689  0.00  0.00    -0.013 C 
ATOM     22  O   UNL     1     141.086 125.836 104.120  0.00  0.00    -0.458 OA
ATOM     23  H   UNL     1     142.340 128.665 102.117  0.00  0.00    +0.000 HD
ATOM     24  H   UNL     1     140.821 128.572 102.821  0.00  0.00    +0.000 HD
ATOM     25  H   UNL     1     141.781 130.495  98.514  0.00  0.00    +0.000 HD
ENDROOT
TORSDOF 0
ENDMDL
MODEL 6
REMARK VINA RESULT:    -4.667      5.999     10.245
REMARK INTER + INTRA:          -4.667
REMARK INTER:                  -4.667
REMARK INTRA:                   0.000
REMARK UNBOUND:                 0.000
REMARK  Name = /home/vital/Documents/PhD_2021/Malaria_codes/scripts/../data/pdbqt_ligands/ligand_134_temp.pdb
REMARK                            x       y       z     vdW  Elec       q    Type
REMARK                         _______ _______ _______ _____ _____    ______ ____
ROOT
ATOM      1  C   UNL     1     139.123 127.443  98.418  0.00  0.00    -0.039 C 
ATOM      2  C   UNL     1     139.657 128.577  99.253  0.00  0.00    -0.037 A 
ATOM      3  C   UNL     1     138.838 129.096 100.271  0.00  0.00    -0.023 A 
ATOM      4  C   UNL     1     139.287 130.137 101.076  0.00  0.00    +0.124 A 
ATOM      5  F   UNL     1     138.493 130.613 102.044  0.00  0.00    -0.205 F 
ATOM      6  C   UNL     1     140.546 130.686 100.891  0.00  0.00    -0.026 A 
ATOM      7  C   UNL     1     141.366 130.188  99.878  0.00  0.00    -0.048 A 
ATOM      8  C   UNL     1     140.938 129.141  99.040  0.00  0.00    +0.020 A 
ATOM      9  C   UNL     1     141.847 128.681  97.994  0.00  0.00    +0.135 A 
ATOM     10  C   UNL     1     143.212 128.486  97.930  0.00  0.00    -0.016 A 
ATOM     11  C   UNL     1     143.503 128.060  96.612  0.00  0.00    -0.019 A 
ATOM     12  C   UNL     1     142.299 128.026  95.942  0.00  0.00    +0.119 A 
ATOM     13  C   UNL     1     141.914 127.680  94.548  0.00  0.00    +0.055 C 
ATOM     14  N   UNL     1     142.158 128.822  93.664  0.00  0.00    -0.309 N 
ATOM     15  C   UNL     1     141.726 128.526  92.298  0.00  0.00    -0.004 C 
ATOM     16  C   UNL     1     141.964 129.725  91.374  0.00  0.00    -0.039 C 
ATOM     17  C   UNL     1     143.422 130.192  91.272  0.00  0.00    -0.039 C 
ATOM     18  C   UNL     1     144.425 129.107  90.857  0.00  0.00    -0.002 C 
ATOM     19  N   UNL     1     144.076 128.404  89.610  0.00  0.00    -0.308 N 
ATOM     20  C   UNL     1     144.174 129.283  88.442  0.00  0.00    -0.013 C 
ATOM     21  C   UNL     1     144.953 127.244  89.428  0.00  0.00    -0.013 C 
ATOM     22  O   UNL     1     141.290 128.409  96.777  0.00  0.00    -0.458 OA
ATOM     23  H   UNL     1     143.156 129.034  93.660  0.00  0.00    +0.000 HD
ATOM     24  H   UNL     1     141.625 129.621  94.009  0.00  0.00    +0.000 HD
ATOM     25  H   UNL     1     143.106 128.097  89.690  0.00  0.00    +0.000 HD
ENDROOT
TORSDOF 0
ENDMDL
MODEL 7
REMARK VINA RESULT:    -4.418     15.207     17.936
REMARK INTER + INTRA:          -4.418
REMARK INTER:                  -4.418
REMARK INTRA:                   0.000
REMARK UNBOUND:                 0.000
REMARK  Name = /home/vital/Documents/PhD_2021/Malaria_codes/scripts/../data/pdbqt_ligands/ligand_134_temp.pdb
REMARK                            x       y       z     vdW  Elec       q    Type
REMARK                         _______ _______ _______ _____ _____    ______ ____
ROOT
ATOM      1  C   UNL     1     135.582 121.858  85.870  0.00  0.00    -0.039 C 
ATOM      2  C   UNL     1     134.120 122.068  86.167  0.00  0.00    -0.037 A 
ATOM      3  C   UNL     1     133.184 121.248  85.513  0.00  0.00    -0.023 A 
ATOM      4  C   UNL     1     131.824 121.395  85.759  0.00  0.00    +0.124 A 
ATOM      5  F   UNL     1     130.949 120.600  85.130  0.00  0.00    -0.205 F 
ATOM      6  C   UNL     1     131.362 122.352  86.649  0.00  0.00    -0.026 A 
ATOM      7  C   UNL     1     132.278 123.181  87.297  0.00  0.00    -0.048 A 
ATOM      8  C   UNL     1     133.662 123.063  87.063  0.00  0.00    +0.020 A 
ATOM      9  C   UNL     1     134.559 123.973  87.770  0.00  0.00    +0.135 A 
ATOM     10  C   UNL     1     134.582 124.492  89.049  0.00  0.00    -0.016 A 
ATOM     11  C   UNL     1     135.699 125.360  89.117  0.00  0.00    -0.019 A 
ATOM     12  C   UNL     1     136.290 125.328  87.873  0.00  0.00    +0.119 A 
ATOM     13  C   UNL     1     137.475 126.010  87.285  0.00  0.00    +0.055 C 
ATOM     14  N   UNL     1     137.115 127.367  86.871  0.00  0.00    -0.309 N 
ATOM     15  C   UNL     1     138.249 128.035  86.231  0.00  0.00    -0.004 C 
ATOM     16  C   UNL     1     137.872 129.450  85.781  0.00  0.00    -0.039 C 
ATOM     17  C   UNL     1     137.397 130.387  86.900  0.00  0.00    -0.039 C 
ATOM     18  C   UNL     1     138.372 130.541  88.076  0.00  0.00    -0.002 C 
ATOM     19  N   UNL     1     139.735 130.940  87.685  0.00  0.00    -0.308 N 
ATOM     20  C   UNL     1     139.774 132.306  87.158  0.00  0.00    -0.013 C 
ATOM     21  C   UNL     1     140.637 130.830  88.836  0.00  0.00    -0.013 C 
ATOM     22  O   UNL     1     135.596 124.491  87.048  0.00  0.00    -0.458 OA
ATOM     23  H   UNL     1     136.832 127.903  87.693  0.00  0.00    +0.000 HD
ATOM     24  H   UNL     1     136.349 127.312  86.201  0.00  0.00    +0.000 HD
ATOM     25  H   UNL     1     140.040 130.310  86.943  0.00  0.00    +0.000 HD
ENDROOT
TORSDOF 0
ENDMDL
MODEL 8
REMARK VINA RESULT:    -4.237     14.496     16.754
REMARK INTER + INTRA:          -4.237
REMARK INTER:                  -4.237
REMARK INTRA:                   0.000
REMARK UNBOUND:                 0.000
REMARK  Name = /home/vital/Documents/PhD_2021/Malaria_codes/scripts/../data/pdbqt_ligands/ligand_134_temp.pdb
REMARK                            x       y       z     vdW  Elec       q    Type
REMARK                         _______ _______ _______ _____ _____    ______ ____
ROOT
ATOM      1  C   UNL     1     132.070 124.276  88.518  0.00  0.00    -0.039 C 
ATOM      2  C   UNL     1     132.236 123.367  87.330  0.00  0.00    -0.037 A 
ATOM      3  C   UNL     1     131.253 122.387  87.100  0.00  0.00    -0.023 A 
ATOM      4  C   UNL     1     131.355 121.528  86.011  0.00  0.00    +0.124 A 
ATOM      5  F   UNL     1     130.406 120.606  85.807  0.00  0.00    -0.205 F 
ATOM      6  C   UNL     1     132.424 121.616  85.134  0.00  0.00    -0.026 A 
ATOM      7  C   UNL     1     133.413 122.576  85.355  0.00  0.00    -0.048 A 
ATOM      8  C   UNL     1     133.344 123.455  86.453  0.00  0.00    +0.020 A 
ATOM      9  C   UNL     1     134.421 124.426  86.626  0.00  0.00    +0.135 A 
ATOM     10  C   UNL     1     135.161 125.199  85.754  0.00  0.00    -0.016 A 
ATOM     11  C   UNL     1     136.096 125.917  86.538  0.00  0.00    -0.019 A 
ATOM     12  C   UNL     1     135.880 125.534  87.844  0.00  0.00    +0.119 A 
ATOM     13  C   UNL     1     136.521 125.900  89.136  0.00  0.00    +0.055 C 
ATOM     14  N   UNL     1     137.757 125.135  89.315  0.00  0.00    -0.309 N 
ATOM     15  C   UNL     1     138.370 125.431  90.610  0.00  0.00    -0.004 C 
ATOM     16  C   UNL     1     139.654 124.620  90.808  0.00  0.00    -0.039 C 
ATOM     17  C   UNL     1     140.744 124.853  89.753  0.00  0.00    -0.039 C 
ATOM     18  C   UNL     1     141.168 126.317  89.569  0.00  0.00    -0.002 C 
ATOM     19  N   UNL     1     141.578 126.991  90.813  0.00  0.00    -0.308 N 
ATOM     20  C   UNL     1     142.827 126.442  91.345  0.00  0.00    -0.013 C 
ATOM     21  C   UNL     1     141.733 128.429  90.575  0.00  0.00    -0.013 C 
ATOM     22  O   UNL     1     134.867 124.622  87.901  0.00  0.00    -0.458 OA
ATOM     23  H   UNL     1     138.411 125.380  88.571  0.00  0.00    +0.000 HD
ATOM     24  H   UNL     1     137.533 124.140  89.280  0.00  0.00    +0.000 HD
ATOM     25  H   UNL     1     140.846 126.831  91.506  0.00  0.00    +0.000 HD
ENDROOT
TORSDOF 0
ENDMDL
MODEL 9
REMARK VINA RESULT:    -3.954      3.471      4.807
REMARK INTER + INTRA:          -3.954
REMARK INTER:                  -3.954
REMARK INTRA:                   0.000
REMARK UNBOUND:                 0.000
REMARK  Name = /home/vital/Documents/PhD_2021/Malaria_codes/scripts/../data/pdbqt_ligands/ligand_134_temp.pdb
REMARK                            x       y       z     vdW  Elec       q    Type
REMARK                         _______ _______ _______ _____ _____    ______ ____
ROOT
ATOM      1  C   UNL     1     139.667 128.960 101.053  0.00  0.00    -0.039 C 
ATOM      2  C   UNL     1     140.024 128.041  99.915  0.00  0.00    -0.037 A 
ATOM      3  C   UNL     1     139.350 128.203  98.691  0.00  0.00    -0.023 A 
ATOM      4  C   UNL     1     139.650 127.387  97.607  0.00  0.00    +0.124 A 
ATOM      5  F   UNL     1     139.000 127.562  96.449  0.00  0.00    -0.205 F 
ATOM      6  C   UNL     1     140.613 126.396  97.709  0.00  0.00    -0.026 A 
ATOM      7  C   UNL     1     141.283 126.215  98.919  0.00  0.00    -0.048 A 
ATOM      8  C   UNL     1     140.997 127.020 100.039  0.00  0.00    +0.020 A 
ATOM      9  C   UNL     1     141.730 126.765 101.276  0.00  0.00    +0.135 A 
ATOM     10  C   UNL     1     143.039 126.427 101.559  0.00  0.00    -0.016 A 
ATOM     11  C   UNL     1     143.126 126.276 102.965  0.00  0.00    -0.019 A 
ATOM     12  C   UNL     1     141.863 126.523 103.459  0.00  0.00    +0.119 A 
ATOM     13  C   UNL     1     141.282 126.518 104.828  0.00  0.00    +0.055 C 
ATOM     14  N   UNL     1     140.968 125.147 105.233  0.00  0.00    -0.309 N 
ATOM     15  C   UNL     1     140.335 125.124 106.552  0.00  0.00    -0.004 C 
ATOM     16  C   UNL     1     139.989 123.693 106.972  0.00  0.00    -0.039 C 
ATOM     17  C   UNL     1     141.180 122.728 107.050  0.00  0.00    -0.039 C 
ATOM     18  C   UNL     1     142.331 123.190 107.955  0.00  0.00    -0.002 C 
ATOM     19  N   UNL     1     141.922 123.533 109.329  0.00  0.00    -0.308 N 
ATOM     20  C   UNL     1     141.483 122.354 110.078  0.00  0.00    -0.013 C 
ATOM     21  C   UNL     1     143.033 124.180 110.034  0.00  0.00    -0.013 C 
ATOM     22  O   UNL     1     141.010 126.813 102.434  0.00  0.00    -0.458 OA
ATOM     23  H   UNL     1     141.830 124.603 105.267  0.00  0.00    +0.000 HD
ATOM     24  H   UNL     1     140.320 124.746 104.554  0.00  0.00    +0.000 HD
ATOM     25  H   UNL     1     141.132 124.175 109.264  0.00  0.00    +0.000 HD
ENDROOT
TORSDOF 0
ENDMDL
