MODEL 1
REMARK VINA RESULT:    -5.135      0.000      0.000
REMARK INTER + INTRA:          -7.718
REMARK INTER:                  -6.937
REMARK INTRA:                  -0.781
REMARK UNBOUND:                -0.781
REMARK  Name = /home/vital/Documents/PhD_2021/Malaria_codes/data/pdb_ligands_mmv/ligand_377.pdb
REMARK  9 active torsions:
REMARK  status: ('A' for Active; 'I' for Inactive)
REMARK    1  A    between atoms: C1_1  and  O1_2
REMARK    2  A    between atoms: O1_2  and  C2_3
REMARK    3  A    between atoms: C4_5  and  C10_13
REMARK    4  A    between atoms: C6_7  and  O2_8
REMARK    5  A    between atoms: O2_8  and  C7_9
REMARK    6  A    between atoms: C8_10  and  O3_11
REMARK    7  A    between atoms: O3_11  and  C9_12
REMARK    8  A    between atoms: N1_15  and  C11_16
REMARK    9  A    between atoms: C14_19  and  C17_22
REMARK                            x       y       z     vdW  Elec       q    Type
REMARK                         _______ _______ _______ _____ _____    ______ ____
ROOT
ATOM      1  C10 UNL     1     151.951 156.929 162.495  0.00  0.00    +0.248 C 
ATOM      2  O4  UNL     1     152.718 157.854 162.257  0.00  0.00    -0.270 OA
ATOM      3  N1  UNL     1     151.380 156.057 161.587  0.00  0.00    -0.281 N 
ATOM      4  H12 UNL     1     150.880 155.262 161.966  0.00  0.00    +0.155 HD
ENDROOT
BRANCH   1   7
ATOM      5  C2  UNL     1     152.020 157.124 166.257  0.00  0.00    +0.166 A 
ATOM      6  C3  UNL     1     152.305 157.354 164.912  0.00  0.00    +0.062 A 
ATOM      7  C4  UNL     1     151.606 156.657 163.917  0.00  0.00    +0.044 A 
ATOM      8  C5  UNL     1     150.592 155.748 164.253  0.00  0.00    +0.062 A 
ATOM      9  C6  UNL     1     150.291 155.509 165.594  0.00  0.00    +0.166 A 
ATOM     10  C8  UNL     1     151.006 156.207 166.587  0.00  0.00    +0.204 A 
BRANCH   5  12
ATOM     11  C1  UNL     1     152.321 159.090 167.578  0.00  0.00    +0.277 C 
ATOM     12  O1  UNL     1     152.654 157.734 167.308  0.00  0.00    -0.491 OA
ENDBRANCH   5  12
BRANCH   9  13
ATOM     13  O2  UNL     1     149.330 154.639 166.040  0.00  0.00    -0.491 OA
ATOM     14  C7  UNL     1     148.560 153.947 165.067  0.00  0.00    +0.277 C 
ENDBRANCH   9  13
BRANCH  10  15
ATOM     15  O3  UNL     1     150.747 155.934 167.913  0.00  0.00    -0.488 OA
ATOM     16  C9  UNL     1     151.505 154.799 168.331  0.00  0.00    +0.277 C 
ENDBRANCH  10  15
ENDBRANCH   1   7
BRANCH   3  17
ATOM     17  C11 UNL     1     151.492 156.094 160.182  0.00  0.00    +0.034 A 
ATOM     18  C12 UNL     1     151.740 154.884 159.526  0.00  0.00    +0.024 A 
ATOM     19  C13 UNL     1     151.858 154.830 158.129  0.00  0.00    +0.013 A 
ATOM     20  C14 UNL     1     151.725 155.991 157.357  0.00  0.00    +0.017 A 
ATOM     21  C15 UNL     1     151.480 157.199 158.023  0.00  0.00    +0.013 A 
ATOM     22  C16 UNL     1     151.361 157.252 159.419  0.00  0.00    +0.024 A 
BRANCH  20  23
ATOM     23  C17 UNL     1     151.837 155.990 155.893  0.00  0.00    +0.139 A 
ATOM     24  N2  UNL     1     151.407 155.032 155.087  0.00  0.00    -0.228 NA
ATOM     25  C18 UNL     1     151.720 155.430 153.812  0.00  0.00    +0.089 A 
ATOM     26  C19 UNL     1     151.486 154.789 152.587  0.00  0.00    +0.030 A 
ATOM     27  C20 UNL     1     151.915 155.416 151.410  0.00  0.00    +0.002 A 
ATOM     28  C21 UNL     1     152.565 156.652 151.452  0.00  0.00    +0.002 A 
ATOM     29  C22 UNL     1     152.807 157.306 152.667  0.00  0.00    +0.028 A 
ATOM     30  C23 UNL     1     152.367 156.658 153.823  0.00  0.00    +0.066 A 
ATOM     31  N3  UNL     1     152.429 156.989 155.152  0.00  0.00    -0.338 N 
ATOM     32  H21 UNL     1     152.855 157.822 155.523  0.00  0.00    +0.167 HD
ENDBRANCH  20  23
ENDBRANCH   3  17
TORSDOF 6
ENDMDL
MODEL 2
REMARK VINA RESULT:    -5.026      1.453      2.241
REMARK INTER + INTRA:          -7.570
REMARK INTER:                  -6.650
REMARK INTRA:                  -0.920
REMARK UNBOUND:                -0.781
REMARK  Name = /home/vital/Documents/PhD_2021/Malaria_codes/data/pdb_ligands_mmv/ligand_377.pdb
REMARK  9 active torsions:
REMARK  status: ('A' for Active; 'I' for Inactive)
REMARK    1  A    between atoms: C1_1  and  O1_2
REMARK    2  A    between atoms: O1_2  and  C2_3
REMARK    3  A    between atoms: C4_5  and  C10_13
REMARK    4  A    between atoms: C6_7  and  O2_8
REMARK    5  A    between atoms: O2_8  and  C7_9
REMARK    6  A    between atoms: C8_10  and  O3_11
REMARK    7  A    between atoms: O3_11  and  C9_12
REMARK    8  A    between atoms: N1_15  and  C11_16
REMARK    9  A    between atoms: C14_19  and  C17_22
REMARK                            x       y       z     vdW  Elec       q    Type
REMARK                         _______ _______ _______ _____ _____    ______ ____
ROOT
ATOM      1  C10 UNL     1     152.451 157.581 163.057  0.00  0.00    +0.248 C 
ATOM      2  O4  UNL     1     153.640 157.408 162.820  0.00  0.00    -0.270 OA
ATOM      3  N1  UNL     1     151.393 157.467 162.174  0.00  0.00    -0.281 N 
ATOM      4  H12 UNL     1     150.461 157.506 162.567  0.00  0.00    +0.155 HD
ENDROOT
BRANCH   1   7
ATOM      5  C2  UNL     1     151.585 159.619 166.106  0.00  0.00    +0.166 A 
ATOM      6  C3  UNL     1     151.942 159.263 164.806  0.00  0.00    +0.062 A 
ATOM      7  C4  UNL     1     152.058 157.911 164.454  0.00  0.00    +0.044 A 
ATOM      8  C5  UNL     1     151.786 156.900 165.387  0.00  0.00    +0.062 A 
ATOM      9  C6  UNL     1     151.423 157.238 166.690  0.00  0.00    +0.166 A 
ATOM     10  C8  UNL     1     151.319 158.598 167.037  0.00  0.00    +0.204 A 
BRANCH   5  12
ATOM     11  C1  UNL     1     152.653 161.669 166.701  0.00  0.00    +0.277 C 
ATOM     12  O1  UNL     1     151.462 160.906 166.561  0.00  0.00    -0.491 OA
ENDBRANCH   5  12
BRANCH   9  13
ATOM     13  O2  UNL     1     151.144 156.336 167.685  0.00  0.00    -0.491 OA
ATOM     14  C7  UNL     1     152.002 155.213 167.823  0.00  0.00    +0.277 C 
ENDBRANCH   9  13
BRANCH  10  15
ATOM     15  O3  UNL     1     151.011 158.934 168.338  0.00  0.00    -0.488 OA
ATOM     16  C9  UNL     1     149.609 159.172 168.459  0.00  0.00    +0.277 C 
ENDBRANCH  10  15
ENDBRANCH   1   7
BRANCH   3  17
ATOM     17  C11 UNL     1     151.461 157.206 160.790  0.00  0.00    +0.034 A 
ATOM     18  C12 UNL     1     151.628 158.302 159.937  0.00  0.00    +0.024 A 
ATOM     19  C13 UNL     1     151.714 158.130 158.548  0.00  0.00    +0.013 A 
ATOM     20  C14 UNL     1     151.638 156.852 157.981  0.00  0.00    +0.017 A 
ATOM     21  C15 UNL     1     151.468 155.760 158.843  0.00  0.00    +0.013 A 
ATOM     22  C16 UNL     1     151.384 155.932 160.231  0.00  0.00    +0.024 A 
BRANCH  20  23
ATOM     23  C17 UNL     1     151.724 156.616 156.534  0.00  0.00    +0.139 A 
ATOM     24  N2  UNL     1     151.475 155.469 155.924  0.00  0.00    -0.228 NA
ATOM     25  C18 UNL     1     151.685 155.688 154.586  0.00  0.00    +0.089 A 
ATOM     26  C19 UNL     1     151.560 154.811 153.500  0.00  0.00    +0.030 A 
ATOM     27  C20 UNL     1     151.841 155.291 152.214  0.00  0.00    +0.002 A 
ATOM     28  C21 UNL     1     152.239 156.616 152.016  0.00  0.00    +0.002 A 
ATOM     29  C22 UNL     1     152.370 157.505 153.089  0.00  0.00    +0.028 A 
ATOM     30  C23 UNL     1     152.082 156.999 154.358  0.00  0.00    +0.066 A 
ATOM     31  N3  UNL     1     152.100 157.563 155.607  0.00  0.00    -0.338 N 
ATOM     32  H21 UNL     1     152.362 158.513 155.811  0.00  0.00    +0.167 HD
ENDBRANCH  20  23
ENDBRANCH   3  17
TORSDOF 6
ENDMDL
MODEL 3
REMARK VINA RESULT:    -4.989      1.375      2.925
REMARK INTER + INTRA:          -7.520
REMARK INTER:                  -6.598
REMARK INTRA:                  -0.922
REMARK UNBOUND:                -0.781
REMARK  Name = /home/vital/Documents/PhD_2021/Malaria_codes/data/pdb_ligands_mmv/ligand_377.pdb
REMARK  9 active torsions:
REMARK  status: ('A' for Active; 'I' for Inactive)
REMARK    1  A    between atoms: C1_1  and  O1_2
REMARK    2  A    between atoms: O1_2  and  C2_3
REMARK    3  A    between atoms: C4_5  and  C10_13
REMARK    4  A    between atoms: C6_7  and  O2_8
REMARK    5  A    between atoms: O2_8  and  C7_9
REMARK    6  A    between atoms: C8_10  and  O3_11
REMARK    7  A    between atoms: O3_11  and  C9_12
REMARK    8  A    between atoms: N1_15  and  C11_16
REMARK    9  A    between atoms: C14_19  and  C17_22
REMARK                            x       y       z     vdW  Elec       q    Type
REMARK                         _______ _______ _______ _____ _____    ______ ____
ROOT
ATOM      1  C10 UNL     1     152.413 157.611 162.793  0.00  0.00    +0.248 C 
ATOM      2  O4  UNL     1     153.598 157.402 162.565  0.00  0.00    -0.270 OA
ATOM      3  N1  UNL     1     151.359 157.523 161.903  0.00  0.00    -0.281 N 
ATOM      4  H12 UNL     1     150.425 157.591 162.288  0.00  0.00    +0.155 HD
ENDROOT
BRANCH   1   7
ATOM      5  C2  UNL     1     151.221 157.208 166.344  0.00  0.00    +0.166 A 
ATOM      6  C3  UNL     1     151.605 156.926 165.034  0.00  0.00    +0.062 A 
ATOM      7  C4  UNL     1     152.020 157.961 164.185  0.00  0.00    +0.044 A 
ATOM      8  C5  UNL     1     152.088 159.284 164.644  0.00  0.00    +0.062 A 
ATOM      9  C6  UNL     1     151.711 159.584 165.953  0.00  0.00    +0.166 A 
ATOM     10  C8  UNL     1     151.286 158.540 166.796  0.00  0.00    +0.204 A 
BRANCH   5  12
ATOM     11  C1  UNL     1     151.605 155.143 167.477  0.00  0.00    +0.277 C 
ATOM     12  O1  UNL     1     150.781 156.279 167.250  0.00  0.00    -0.491 OA
ENDBRANCH   5  12
BRANCH   9  13
ATOM     13  O2  UNL     1     151.727 160.839 166.506  0.00  0.00    -0.491 OA
ATOM     14  C7  UNL     1     152.989 161.451 166.725  0.00  0.00    +0.277 C 
ENDBRANCH   9  13
BRANCH  10  15
ATOM     15  O3  UNL     1     150.863 158.841 168.073  0.00  0.00    -0.488 OA
ATOM     16  C9  UNL     1     149.484 159.210 168.052  0.00  0.00    +0.277 C 
ENDBRANCH  10  15
ENDBRANCH   1   7
BRANCH   3  17
ATOM     17  C11 UNL     1     151.430 157.252 160.520  0.00  0.00    +0.034 A 
ATOM     18  C12 UNL     1     151.606 158.341 159.660  0.00  0.00    +0.024 A 
ATOM     19  C13 UNL     1     151.695 158.158 158.273  0.00  0.00    +0.013 A 
ATOM     20  C14 UNL     1     151.612 156.877 157.714  0.00  0.00    +0.017 A 
ATOM     21  C15 UNL     1     151.432 155.792 158.583  0.00  0.00    +0.013 A 
ATOM     22  C16 UNL     1     151.345 155.975 159.970  0.00  0.00    +0.024 A 
BRANCH  20  23
ATOM     23  C17 UNL     1     151.701 156.630 156.270  0.00  0.00    +0.139 A 
ATOM     24  N2  UNL     1     151.453 155.479 155.667  0.00  0.00    -0.228 NA
ATOM     25  C18 UNL     1     151.665 155.689 154.328  0.00  0.00    +0.089 A 
ATOM     26  C19 UNL     1     151.542 154.804 153.248  0.00  0.00    +0.030 A 
ATOM     27  C20 UNL     1     151.826 155.275 151.959  0.00  0.00    +0.002 A 
ATOM     28  C21 UNL     1     152.225 156.598 151.752  0.00  0.00    +0.002 A 
ATOM     29  C22 UNL     1     152.354 157.495 152.820  0.00  0.00    +0.028 A 
ATOM     30  C23 UNL     1     152.063 156.998 154.092  0.00  0.00    +0.066 A 
ATOM     31  N3  UNL     1     152.079 157.571 155.337  0.00  0.00    -0.338 N 
ATOM     32  H21 UNL     1     152.342 158.523 155.535  0.00  0.00    +0.167 HD
ENDBRANCH  20  23
ENDBRANCH   3  17
TORSDOF 6
ENDMDL
MODEL 4
REMARK VINA RESULT:    -4.661      2.711      3.592
REMARK INTER + INTRA:          -7.077
REMARK INTER:                  -6.285
REMARK INTRA:                  -0.792
REMARK UNBOUND:                -0.781
REMARK  Name = /home/vital/Documents/PhD_2021/Malaria_codes/data/pdb_ligands_mmv/ligand_377.pdb
REMARK  9 active torsions:
REMARK  status: ('A' for Active; 'I' for Inactive)
REMARK    1  A    between atoms: C1_1  and  O1_2
REMARK    2  A    between atoms: O1_2  and  C2_3
REMARK    3  A    between atoms: C4_5  and  C10_13
REMARK    4  A    between atoms: C6_7  and  O2_8
REMARK    5  A    between atoms: O2_8  and  C7_9
REMARK    6  A    between atoms: C8_10  and  O3_11
REMARK    7  A    between atoms: O3_11  and  C9_12
REMARK    8  A    between atoms: N1_15  and  C11_16
REMARK    9  A    between atoms: C14_19  and  C17_22
REMARK                            x       y       z     vdW  Elec       q    Type
REMARK                         _______ _______ _______ _____ _____    ______ ____
ROOT
ATOM      1  C10 UNL     1     151.597 159.989 162.333  0.00  0.00    +0.248 C 
ATOM      2  O4  UNL     1     152.524 160.685 161.938  0.00  0.00    -0.270 OA
ATOM      3  N1  UNL     1     150.942 158.990 161.638  0.00  0.00    -0.281 N 
ATOM      4  H12 UNL     1     150.291 158.417 162.162  0.00  0.00    +0.155 HD
ENDROOT
BRANCH   1   7
ATOM      5  C2  UNL     1     151.019 159.345 166.000  0.00  0.00    +0.166 A 
ATOM      6  C3  UNL     1     151.449 159.207 164.681  0.00  0.00    +0.062 A 
ATOM      7  C4  UNL     1     151.123 160.184 163.731  0.00  0.00    +0.044 A 
ATOM      8  C5  UNL     1     150.395 161.326 164.094  0.00  0.00    +0.062 A 
ATOM      9  C6  UNL     1     149.961 161.482 165.411  0.00  0.00    +0.166 A 
ATOM     10  C8  UNL     1     150.284 160.491 166.356  0.00  0.00    +0.204 A 
BRANCH   5  12
ATOM     11  C1  UNL     1     150.871 157.094 166.782  0.00  0.00    +0.277 C 
ATOM     12  O1  UNL     1     151.263 158.443 167.003  0.00  0.00    -0.491 OA
ENDBRANCH   5  12
BRANCH   9  13
ATOM     13  O2  UNL     1     149.236 162.549 165.876  0.00  0.00    -0.491 OA
ATOM     14  C7  UNL     1     148.280 163.133 165.003  0.00  0.00    +0.277 C 
ENDBRANCH   9  13
BRANCH  10  15
ATOM     15  O3  UNL     1     149.811 160.617 167.645  0.00  0.00    -0.488 OA
ATOM     16  C9  UNL     1     148.519 160.019 167.747  0.00  0.00    +0.277 C 
ENDBRANCH  10  15
ENDBRANCH   1   7
BRANCH   3  17
ATOM     17  C11 UNL     1     151.145 158.610 160.295  0.00  0.00    +0.034 A 
ATOM     18  C12 UNL     1     151.234 157.241 160.021  0.00  0.00    +0.024 A 
ATOM     19  C13 UNL     1     151.427 156.778 158.712  0.00  0.00    +0.013 A 
ATOM     20  C14 UNL     1     151.533 157.678 157.644  0.00  0.00    +0.017 A 
ATOM     21  C15 UNL     1     151.447 159.047 157.929  0.00  0.00    +0.013 A 
ATOM     22  C16 UNL     1     151.252 159.510 159.237  0.00  0.00    +0.024 A 
BRANCH  20  23
ATOM     23  C17 UNL     1     151.734 157.246 156.255  0.00  0.00    +0.139 A 
ATOM     24  N2  UNL     1     151.512 156.029 155.787  0.00  0.00    -0.228 NA
ATOM     25  C18 UNL     1     151.835 156.062 154.454  0.00  0.00    +0.089 A 
ATOM     26  C19 UNL     1     151.782 155.046 153.490  0.00  0.00    +0.030 A 
ATOM     27  C20 UNL     1     152.178 155.343 152.179  0.00  0.00    +0.002 A 
ATOM     28  C21 UNL     1     152.619 156.625 151.838  0.00  0.00    +0.002 A 
ATOM     29  C22 UNL     1     152.679 157.651 152.789  0.00  0.00    +0.028 A 
ATOM     30  C23 UNL     1     152.277 157.325 154.086  0.00  0.00    +0.066 A 
ATOM     31  N3  UNL     1     152.204 158.054 155.244  0.00  0.00    -0.338 N 
ATOM     32  H21 UNL     1     152.469 159.021 155.339  0.00  0.00    +0.167 HD
ENDBRANCH  20  23
ENDBRANCH   3  17
TORSDOF 6
ENDMDL
MODEL 5
REMARK VINA RESULT:    -4.562      2.798      4.095
REMARK INTER + INTRA:          -6.943
REMARK INTER:                  -6.076
REMARK INTRA:                  -0.867
REMARK UNBOUND:                -0.781
REMARK  Name = /home/vital/Documents/PhD_2021/Malaria_codes/data/pdb_ligands_mmv/ligand_377.pdb
REMARK  9 active torsions:
REMARK  status: ('A' for Active; 'I' for Inactive)
REMARK    1  A    between atoms: C1_1  and  O1_2
REMARK    2  A    between atoms: O1_2  and  C2_3
REMARK    3  A    between atoms: C4_5  and  C10_13
REMARK    4  A    between atoms: C6_7  and  O2_8
REMARK    5  A    between atoms: O2_8  and  C7_9
REMARK    6  A    between atoms: C8_10  and  O3_11
REMARK    7  A    between atoms: O3_11  and  C9_12
REMARK    8  A    between atoms: N1_15  and  C11_16
REMARK    9  A    between atoms: C14_19  and  C17_22
REMARK                            x       y       z     vdW  Elec       q    Type
REMARK                         _______ _______ _______ _____ _____    ______ ____
ROOT
ATOM      1  C10 UNL     1     151.732 159.254 162.779  0.00  0.00    +0.248 C 
ATOM      2  O4  UNL     1     152.730 158.549 162.859  0.00  0.00    -0.270 OA
ATOM      3  N1  UNL     1     150.933 159.455 161.669  0.00  0.00    -0.281 N 
ATOM      4  H12 UNL     1     150.066 159.959 161.813  0.00  0.00    +0.155 HD
ENDROOT
BRANCH   1   7
ATOM      5  C2  UNL     1     151.054 159.947 166.420  0.00  0.00    +0.166 A 
ATOM      6  C3  UNL     1     151.474 159.328 165.244  0.00  0.00    +0.062 A 
ATOM      7  C4  UNL     1     151.275 159.958 164.008  0.00  0.00    +0.044 A 
ATOM      8  C5  UNL     1     150.684 161.228 163.936  0.00  0.00    +0.062 A 
ATOM      9  C6  UNL     1     150.261 161.864 165.103  0.00  0.00    +0.166 A 
ATOM     10  C8  UNL     1     150.457 161.219 166.339  0.00  0.00    +0.204 A 
BRANCH   5  12
ATOM     11  C1  UNL     1     152.424 158.809 168.009  0.00  0.00    +0.277 C 
ATOM     12  O1  UNL     1     151.181 159.413 167.676  0.00  0.00    -0.491 OA
ENDBRANCH   5  12
BRANCH   9  13
ATOM     13  O2  UNL     1     149.665 163.098 165.153  0.00  0.00    -0.491 OA
ATOM     14  C7  UNL     1     148.248 163.152 165.084  0.00  0.00    +0.277 C 
ENDBRANCH   9  13
BRANCH  10  15
ATOM     15  O3  UNL     1     149.993 161.822 167.488  0.00  0.00    -0.488 OA
ATOM     16  C9  UNL     1     151.005 162.667 168.034  0.00  0.00    +0.277 C 
ENDBRANCH  10  15
ENDBRANCH   1   7
BRANCH   3  17
ATOM     17  C11 UNL     1     151.139 158.954 160.367  0.00  0.00    +0.034 A 
ATOM     18  C12 UNL     1     151.741 159.809 159.438  0.00  0.00    +0.024 A 
ATOM     19  C13 UNL     1     151.990 159.387 158.124  0.00  0.00    +0.013 A 
ATOM     20  C14 UNL     1     151.642 158.095 157.711  0.00  0.00    +0.017 A 
ATOM     21  C15 UNL     1     151.036 157.247 158.648  0.00  0.00    +0.013 A 
ATOM     22  C16 UNL     1     150.789 157.668 159.961  0.00  0.00    +0.024 A 
BRANCH  20  23
ATOM     23  C17 UNL     1     151.882 157.603 156.349  0.00  0.00    +0.139 A 
ATOM     24  N2  UNL     1     152.350 158.321 155.341  0.00  0.00    -0.228 NA
ATOM     25  C18 UNL     1     152.409 157.478 154.260  0.00  0.00    +0.089 A 
ATOM     26  C19 UNL     1     152.833 157.727 152.947  0.00  0.00    +0.030 A 
ATOM     27  C20 UNL     1     152.790 156.680 152.018  0.00  0.00    +0.002 A 
ATOM     28  C21 UNL     1     152.332 155.413 152.388  0.00  0.00    +0.002 A 
ATOM     29  C22 UNL     1     151.904 155.147 153.695  0.00  0.00    +0.028 A 
ATOM     30  C23 UNL     1     151.960 156.209 154.599  0.00  0.00    +0.066 A 
ATOM     31  N3  UNL     1     151.632 156.316 155.926  0.00  0.00    -0.338 N 
ATOM     32  H21 UNL     1     151.254 155.574 156.492  0.00  0.00    +0.167 HD
ENDBRANCH  20  23
ENDBRANCH   3  17
TORSDOF 6
ENDMDL
MODEL 6
REMARK VINA RESULT:    -4.389      2.643      3.429
REMARK INTER + INTRA:          -6.710
REMARK INTER:                  -5.999
REMARK INTRA:                  -0.711
REMARK UNBOUND:                -0.781
REMARK  Name = /home/vital/Documents/PhD_2021/Malaria_codes/data/pdb_ligands_mmv/ligand_377.pdb
REMARK  9 active torsions:
REMARK  status: ('A' for Active; 'I' for Inactive)
REMARK    1  A    between atoms: C1_1  and  O1_2
REMARK    2  A    between atoms: O1_2  and  C2_3
REMARK    3  A    between atoms: C4_5  and  C10_13
REMARK    4  A    between atoms: C6_7  and  O2_8
REMARK    5  A    between atoms: O2_8  and  C7_9
REMARK    6  A    between atoms: C8_10  and  O3_11
REMARK    7  A    between atoms: O3_11  and  C9_12
REMARK    8  A    between atoms: N1_15  and  C11_16
REMARK    9  A    between atoms: C14_19  and  C17_22
REMARK                            x       y       z     vdW  Elec       q    Type
REMARK                         _______ _______ _______ _____ _____    ______ ____
ROOT
ATOM      1  C10 UNL     1     151.601 159.775 162.319  0.00  0.00    +0.248 C 
ATOM      2  O4  UNL     1     152.480 160.490 161.855  0.00  0.00    -0.270 OA
ATOM      3  N1  UNL     1     150.965 158.716 161.698  0.00  0.00    -0.281 N 
ATOM      4  H12 UNL     1     150.361 158.142 162.273  0.00  0.00    +0.155 HD
ENDROOT
BRANCH   1   7
ATOM      5  C2  UNL     1     150.098 161.485 165.321  0.00  0.00    +0.166 A 
ATOM      6  C3  UNL     1     150.509 161.215 164.016  0.00  0.00    +0.062 A 
ATOM      7  C4  UNL     1     151.173 160.016 163.724  0.00  0.00    +0.044 A 
ATOM      8  C5  UNL     1     151.404 159.059 164.724  0.00  0.00    +0.062 A 
ATOM      9  C6  UNL     1     150.995 159.312 166.033  0.00  0.00    +0.166 A 
ATOM     10  C8  UNL     1     150.338 160.523 166.319  0.00  0.00    +0.204 A 
BRANCH   5  12
ATOM     11  C1  UNL     1     148.320 163.040 164.976  0.00  0.00    +0.277 C 
ATOM     12  O1  UNL     1     149.460 162.631 165.720  0.00  0.00    -0.491 OA
ENDBRANCH   5  12
BRANCH   9  13
ATOM     13  O2  UNL     1     151.176 158.457 167.090  0.00  0.00    -0.491 OA
ATOM     14  C7  UNL     1     151.379 157.081 166.803  0.00  0.00    +0.277 C 
ENDBRANCH   9  13
BRANCH  10  15
ATOM     15  O3  UNL     1     149.980 160.798 167.622  0.00  0.00    -0.488 OA
ATOM     16  C9  UNL     1     148.679 160.274 167.887  0.00  0.00    +0.277 C 
ENDBRANCH  10  15
ENDBRANCH   1   7
BRANCH   3  17
ATOM     17  C11 UNL     1     151.133 158.282 160.366  0.00  0.00    +0.034 A 
ATOM     18  C12 UNL     1     151.126 159.260 159.366  0.00  0.00    +0.024 A 
ATOM     19  C13 UNL     1     151.295 158.915 158.017  0.00  0.00    +0.013 A 
ATOM     20  C14 UNL     1     151.479 157.579 157.640  0.00  0.00    +0.017 A 
ATOM     21  C15 UNL     1     151.481 156.606 158.648  0.00  0.00    +0.013 A 
ATOM     22  C16 UNL     1     151.313 156.952 159.996  0.00  0.00    +0.024 A 
BRANCH  20  23
ATOM     23  C17 UNL     1     151.662 157.165 156.243  0.00  0.00    +0.139 A 
ATOM     24  N2  UNL     1     151.486 155.941 155.773  0.00  0.00    -0.228 NA
ATOM     25  C18 UNL     1     151.772 155.996 154.432  0.00  0.00    +0.089 A 
ATOM     26  C19 UNL     1     151.741 154.984 153.463  0.00  0.00    +0.030 A 
ATOM     27  C20 UNL     1     152.088 155.307 152.145  0.00  0.00    +0.002 A 
ATOM     28  C21 UNL     1     152.458 156.609 151.800  0.00  0.00    +0.002 A 
ATOM     29  C22 UNL     1     152.495 157.632 152.756  0.00  0.00    +0.028 A 
ATOM     30  C23 UNL     1     152.143 157.281 154.061  0.00  0.00    +0.066 A 
ATOM     31  N3  UNL     1     152.067 157.999 155.225  0.00  0.00    -0.338 N 
ATOM     32  H21 UNL     1     152.288 158.977 155.320  0.00  0.00    +0.167 HD
ENDBRANCH  20  23
ENDBRANCH   3  17
TORSDOF 6
ENDMDL
MODEL 7
REMARK VINA RESULT:    -4.166      3.532      4.684
REMARK INTER + INTRA:          -6.409
REMARK INTER:                  -5.504
REMARK INTRA:                  -0.905
REMARK UNBOUND:                -0.781
REMARK  Name = /home/vital/Documents/PhD_2021/Malaria_codes/data/pdb_ligands_mmv/ligand_377.pdb
REMARK  9 active torsions:
REMARK  status: ('A' for Active; 'I' for Inactive)
REMARK    1  A    between atoms: C1_1  and  O1_2
REMARK    2  A    between atoms: O1_2  and  C2_3
REMARK    3  A    between atoms: C4_5  and  C10_13
REMARK    4  A    between atoms: C6_7  and  O2_8
REMARK    5  A    between atoms: O2_8  and  C7_9
REMARK    6  A    between atoms: C8_10  and  O3_11
REMARK    7  A    between atoms: O3_11  and  C9_12
REMARK    8  A    between atoms: N1_15  and  C11_16
REMARK    9  A    between atoms: C14_19  and  C17_22
REMARK                            x       y       z     vdW  Elec       q    Type
REMARK                         _______ _______ _______ _____ _____    ______ ____
ROOT
ATOM      1  C10 UNL     1     151.741 160.129 163.774  0.00  0.00    +0.248 C 
ATOM      2  O4  UNL     1     152.448 159.150 163.974  0.00  0.00    -0.270 OA
ATOM      3  N1  UNL     1     151.114 160.485 162.593  0.00  0.00    -0.281 N 
ATOM      4  H12 UNL     1     150.453 161.249 162.638  0.00  0.00    +0.155 HD
ENDROOT
BRANCH   1   7
ATOM      5  C2  UNL     1     152.328 162.245 166.835  0.00  0.00    +0.166 A 
ATOM      6  C3  UNL     1     152.540 161.400 165.747  0.00  0.00    +0.062 A 
ATOM      7  C4  UNL     1     151.468 161.039 164.919  0.00  0.00    +0.044 A 
ATOM      8  C5  UNL     1     150.180 161.545 165.148  0.00  0.00    +0.062 A 
ATOM      9  C6  UNL     1     149.951 162.395 166.231  0.00  0.00    +0.166 A 
ATOM     10  C8  UNL     1     151.032 162.743 167.063  0.00  0.00    +0.204 A 
BRANCH   5  12
ATOM     11  C1  UNL     1     154.189 161.650 168.208  0.00  0.00    +0.277 C 
ATOM     12  O1  UNL     1     153.297 162.644 167.718  0.00  0.00    -0.491 OA
ENDBRANCH   5  12
BRANCH   9  13
ATOM     13  O2  UNL     1     148.736 162.940 166.557  0.00  0.00    -0.491 OA
ATOM     14  C7  UNL     1     147.695 162.055 166.944  0.00  0.00    +0.277 C 
ENDBRANCH   9  13
BRANCH  10  15
ATOM     15  O3  UNL     1     150.798 163.540 168.163  0.00  0.00    -0.488 OA
ATOM     16  C9  UNL     1     150.582 162.724 169.314  0.00  0.00    +0.277 C 
ENDBRANCH  10  15
ENDBRANCH   1   7
BRANCH   3  17
ATOM     17  C11 UNL     1     151.220 159.840 161.344  0.00  0.00    +0.034 A 
ATOM     18  C12 UNL     1     152.279 160.221 160.512  0.00  0.00    +0.024 A 
ATOM     19  C13 UNL     1     152.461 159.624 159.256  0.00  0.00    +0.013 A 
ATOM     20  C14 UNL     1     151.587 158.627 158.805  0.00  0.00    +0.017 A 
ATOM     21  C15 UNL     1     150.527 158.255 159.644  0.00  0.00    +0.013 A 
ATOM     22  C16 UNL     1     150.346 158.851 160.899  0.00  0.00    +0.024 A 
BRANCH  20  23
ATOM     23  C17 UNL     1     151.734 157.969 157.501  0.00  0.00    +0.139 A 
ATOM     24  N2  UNL     1     151.526 156.686 157.258  0.00  0.00    -0.228 NA
ATOM     25  C18 UNL     1     151.785 156.498 155.923  0.00  0.00    +0.089 A 
ATOM     26  C19 UNL     1     151.716 155.331 155.149  0.00  0.00    +0.030 A 
ATOM     27  C20 UNL     1     152.041 155.409 153.788  0.00  0.00    +0.002 A 
ATOM     28  C21 UNL     1     152.427 156.622 153.213  0.00  0.00    +0.002 A 
ATOM     29  C22 UNL     1     152.502 157.797 153.972  0.00  0.00    +0.028 A 
ATOM     30  C23 UNL     1     152.171 157.689 155.324  0.00  0.00    +0.066 A 
ATOM     31  N3  UNL     1     152.132 158.603 156.345  0.00  0.00    -0.338 N 
ATOM     32  H21 UNL     1     152.372 159.577 156.261  0.00  0.00    +0.167 HD
ENDBRANCH  20  23
ENDBRANCH   3  17
TORSDOF 6
ENDMDL
MODEL 8
REMARK VINA RESULT:    -4.135      3.503      5.475
REMARK INTER + INTRA:          -6.366
REMARK INTER:                  -5.465
REMARK INTRA:                  -0.901
REMARK UNBOUND:                -0.781
REMARK  Name = /home/vital/Documents/PhD_2021/Malaria_codes/data/pdb_ligands_mmv/ligand_377.pdb
REMARK  9 active torsions:
REMARK  status: ('A' for Active; 'I' for Inactive)
REMARK    1  A    between atoms: C1_1  and  O1_2
REMARK    2  A    between atoms: O1_2  and  C2_3
REMARK    3  A    between atoms: C4_5  and  C10_13
REMARK    4  A    between atoms: C6_7  and  O2_8
REMARK    5  A    between atoms: O2_8  and  C7_9
REMARK    6  A    between atoms: C8_10  and  O3_11
REMARK    7  A    between atoms: O3_11  and  C9_12
REMARK    8  A    between atoms: N1_15  and  C11_16
REMARK    9  A    between atoms: C14_19  and  C17_22
REMARK                            x       y       z     vdW  Elec       q    Type
REMARK                         _______ _______ _______ _____ _____    ______ ____
ROOT
ATOM      1  C10 UNL     1     152.551 160.588 164.851  0.00  0.00    +0.248 C 
ATOM      2  O4  UNL     1     153.654 160.061 164.780  0.00  0.00    -0.270 OA
ATOM      3  N1  UNL     1     151.532 160.532 163.918  0.00  0.00    -0.281 N 
ATOM      4  H12 UNL     1     150.634 160.908 164.196  0.00  0.00    +0.155 HD
ENDROOT
BRANCH   1   7
ATOM      5  C2  UNL     1     150.661 162.788 167.255  0.00  0.00    +0.166 A 
ATOM      6  C3  UNL     1     151.009 162.056 166.121  0.00  0.00    +0.062 A 
ATOM      7  C4  UNL     1     152.219 161.348 166.086  0.00  0.00    +0.044 A 
ATOM      8  C5  UNL     1     153.078 161.337 167.195  0.00  0.00    +0.062 A 
ATOM      9  C6  UNL     1     152.742 162.061 168.339  0.00  0.00    +0.166 A 
ATOM     10  C8  UNL     1     151.531 162.776 168.361  0.00  0.00    +0.204 A 
BRANCH   5  12
ATOM     11  C1  UNL     1     148.279 162.878 167.134  0.00  0.00    +0.277 C 
ATOM     12  O1  UNL     1     149.516 163.530 167.389  0.00  0.00    -0.491 OA
ENDBRANCH   5  12
BRANCH   9  13
ATOM     13  O2  UNL     1     153.507 162.130 169.475  0.00  0.00    -0.491 OA
ATOM     14  C7  UNL     1     154.434 161.081 169.716  0.00  0.00    +0.277 C 
ENDBRANCH   9  13
BRANCH  10  15
ATOM     15  O3  UNL     1     151.223 163.535 169.471  0.00  0.00    -0.488 OA
ATOM     16  C9  UNL     1     150.603 162.715 170.461  0.00  0.00    +0.277 C 
ENDBRANCH  10  15
ENDBRANCH   1   7
BRANCH   3  17
ATOM     17  C11 UNL     1     151.572 159.923 162.646  0.00  0.00    +0.034 A 
ATOM     18  C12 UNL     1     151.546 158.525 162.603  0.00  0.00    +0.024 A 
ATOM     19  C13 UNL     1     151.574 157.840 161.380  0.00  0.00    +0.013 A 
ATOM     20  C14 UNL     1     151.625 158.542 160.169  0.00  0.00    +0.017 A 
ATOM     21  C15 UNL     1     151.653 159.942 160.223  0.00  0.00    +0.013 A 
ATOM     22  C16 UNL     1     151.624 160.627 161.445  0.00  0.00    +0.024 A 
BRANCH  20  23
ATOM     23  C17 UNL     1     151.653 157.874 158.862  0.00  0.00    +0.139 A 
ATOM     24  N2  UNL     1     151.056 156.732 158.567  0.00  0.00    -0.228 NA
ATOM     25  C18 UNL     1     151.347 156.471 157.252  0.00  0.00    +0.089 A 
ATOM     26  C19 UNL     1     150.962 155.394 156.442  0.00  0.00    +0.030 A 
ATOM     27  C20 UNL     1     151.404 155.362 155.112  0.00  0.00    +0.002 A 
ATOM     28  C21 UNL     1     152.212 156.381 154.603  0.00  0.00    +0.002 A 
ATOM     29  C22 UNL     1     152.607 157.464 155.398  0.00  0.00    +0.028 A 
ATOM     30  C23 UNL     1     152.150 157.469 156.718  0.00  0.00    +0.066 A 
ATOM     31  N3  UNL     1     152.330 158.343 157.758  0.00  0.00    -0.338 N 
ATOM     32  H21 UNL     1     152.883 159.184 157.720  0.00  0.00    +0.167 HD
ENDBRANCH  20  23
ENDBRANCH   3  17
TORSDOF 6
ENDMDL
MODEL 9
REMARK VINA RESULT:    -4.108      7.088     11.432
REMARK INTER + INTRA:          -6.330
REMARK INTER:                  -5.423
REMARK INTRA:                  -0.907
REMARK UNBOUND:                -0.781
REMARK  Name = /home/vital/Documents/PhD_2021/Malaria_codes/data/pdb_ligands_mmv/ligand_377.pdb
REMARK  9 active torsions:
REMARK  status: ('A' for Active; 'I' for Inactive)
REMARK    1  A    between atoms: C1_1  and  O1_2
REMARK    2  A    between atoms: O1_2  and  C2_3
REMARK    3  A    between atoms: C4_5  and  C10_13
REMARK    4  A    between atoms: C6_7  and  O2_8
REMARK    5  A    between atoms: O2_8  and  C7_9
REMARK    6  A    between atoms: C8_10  and  O3_11
REMARK    7  A    between atoms: O3_11  and  C9_12
REMARK    8  A    between atoms: N1_15  and  C11_16
REMARK    9  A    between atoms: C14_19  and  C17_22
REMARK                            x       y       z     vdW  Elec       q    Type
REMARK                         _______ _______ _______ _____ _____    ______ ____
ROOT
ATOM      1  C10 UNL     1     146.580 148.264 163.801  0.00  0.00    +0.248 C 
ATOM      2  O4  UNL     1     147.736 147.872 163.709  0.00  0.00    -0.270 OA
ATOM      3  N1  UNL     1     146.136 149.574 163.820  0.00  0.00    -0.281 N 
ATOM      4  H12 UNL     1     145.136 149.720 163.758  0.00  0.00    +0.155 HD
ENDROOT
BRANCH   1   7
ATOM      5  C2  UNL     1     144.882 144.901 163.835  0.00  0.00    +0.166 A 
ATOM      6  C3  UNL     1     145.862 145.891 163.793  0.00  0.00    +0.062 A 
ATOM      7  C4  UNL     1     145.498 147.243 163.857  0.00  0.00    +0.044 A 
ATOM      8  C5  UNL     1     144.155 147.621 163.996  0.00  0.00    +0.062 A 
ATOM      9  C6  UNL     1     143.161 146.643 164.043  0.00  0.00    +0.166 A 
ATOM     10  C8  UNL     1     143.535 145.288 163.968  0.00  0.00    +0.204 A 
BRANCH   5  12
ATOM     11  C1  UNL     1     146.015 143.102 162.749  0.00  0.00    +0.277 C 
ATOM     12  O1  UNL     1     145.124 143.554 163.760  0.00  0.00    -0.491 OA
ENDBRANCH   5  12
BRANCH   9  13
ATOM     13  O2  UNL     1     141.819 146.894 164.167  0.00  0.00    -0.491 OA
ATOM     14  C7  UNL     1     141.179 147.611 163.121  0.00  0.00    +0.277 C 
ENDBRANCH   9  13
BRANCH  10  15
ATOM     15  O3  UNL     1     142.551 144.322 163.962  0.00  0.00    -0.488 OA
ATOM     16  C9  UNL     1     142.289 143.889 165.296  0.00  0.00    +0.277 C 
ENDBRANCH  10  15
ENDBRANCH   1   7
BRANCH   3  17
ATOM     17  C11 UNL     1     146.926 150.742 163.820  0.00  0.00    +0.034 A 
ATOM     18  C12 UNL     1     147.669 151.015 164.973  0.00  0.00    +0.024 A 
ATOM     19  C13 UNL     1     148.487 152.152 165.053  0.00  0.00    +0.013 A 
ATOM     20  C14 UNL     1     148.581 153.041 163.975  0.00  0.00    +0.017 A 
ATOM     21  C15 UNL     1     147.830 152.761 162.825  0.00  0.00    +0.013 A 
ATOM     22  C16 UNL     1     147.014 151.624 162.745  0.00  0.00    +0.024 A 
BRANCH  20  23
ATOM     23  C17 UNL     1     149.423 154.243 164.006  0.00  0.00    +0.139 A 
ATOM     24  N2  UNL     1     149.700 155.017 162.969  0.00  0.00    -0.228 NA
ATOM     25  C18 UNL     1     150.520 156.012 163.437  0.00  0.00    +0.089 A 
ATOM     26  C19 UNL     1     151.102 157.092 162.759  0.00  0.00    +0.030 A 
ATOM     27  C20 UNL     1     151.915 157.977 163.479  0.00  0.00    +0.002 A 
ATOM     28  C21 UNL     1     152.146 157.788 164.844  0.00  0.00    +0.002 A 
ATOM     29  C22 UNL     1     151.573 156.714 165.537  0.00  0.00    +0.028 A 
ATOM     30  C23 UNL     1     150.767 155.850 164.794  0.00  0.00    +0.066 A 
ATOM     31  N3  UNL     1     150.062 154.723 165.128  0.00  0.00    -0.338 N 
ATOM     32  H21 UNL     1     150.032 154.308 166.044  0.00  0.00    +0.167 HD
ENDBRANCH  20  23
ENDBRANCH   3  17
TORSDOF 6
ENDMDL
