MODEL 1
REMARK VINA RESULT:    -5.407      0.000      0.000
REMARK INTER + INTRA:          -7.622
REMARK INTER:                  -6.355
REMARK INTRA:                  -1.267
REMARK UNBOUND:                -1.267
REMARK  Name = /home/vital/Documents/PhD_2021/Malaria_codes/data/pdb_ligands_mmv/ligand_12.pdb
REMARK  4 active torsions:
REMARK  status: ('A' for Active; 'I' for Inactive)
REMARK    1  A    between atoms: C1_1  and  O1_2
REMARK    2  A    between atoms: O1_2  and  C2_3
REMARK    3  A    between atoms: C7_9  and  C8_10
REMARK    4  A    between atoms: C23_27  and  C25_29
REMARK                            x       y       z     vdW  Elec       q    Type
REMARK                         _______ _______ _______ _____ _____    ______ ____
ROOT
ATOM      1  C8  UNL     1     150.878 159.996 165.070  0.00  0.00    +0.138 C 
ATOM      2  N1  UNL     1     151.555 160.123 163.770  0.00  0.00    -0.332 N 
ATOM      3  C9  UNL     1     151.447 159.050 162.874  0.00  0.00    +0.036 A 
ATOM      4  C10 UNL     1     151.670 159.316 161.522  0.00  0.00    +0.024 A 
ATOM      5  C11 UNL     1     151.615 158.300 160.578  0.00  0.00    +0.010 A 
ATOM      6  C12 UNL     1     151.309 156.994 160.959  0.00  0.00    -0.017 A 
ATOM      7  C13 UNL     1     151.203 156.014 159.957  0.00  0.00    +0.008 A 
ATOM      8  C14 UNL     1     150.854 154.704 160.264  0.00  0.00    +0.001 A 
ATOM      9  C15 UNL     1     150.588 154.367 161.579  0.00  0.00    +0.001 A 
ATOM     10  C16 UNL     1     150.700 155.335 162.584  0.00  0.00    +0.009 A 
ATOM     11  C17 UNL     1     151.099 156.674 162.330  0.00  0.00    -0.009 A 
ATOM     12  C18 UNL     1     151.265 157.715 163.315  0.00  0.00    +0.007 A 
ATOM     13  C19 UNL     1     151.282 157.516 164.805  0.00  0.00    -0.029 C 
ATOM     14  C20 UNL     1     151.031 158.588 165.593  0.00  0.00    +0.023 C 
ATOM     15  C21 UNL     1     150.845 158.373 167.061  0.00  0.00    +0.162 C 
ATOM     16  O2  UNL     1     150.188 159.169 167.733  0.00  0.00    -0.292 OA
ATOM     17  C22 UNL     1     151.391 157.120 167.706  0.00  0.00    +0.088 C 
ATOM     18  C23 UNL     1     152.353 156.384 166.778  0.00  0.00    +0.031 C 
ATOM     19  C24 UNL     1     151.682 156.190 165.408  0.00  0.00    +0.045 C 
ATOM     20  H8  UNL     1     151.343 161.018 163.338  0.00  0.00    +0.147 HD
ENDROOT
BRANCH   1  27
ATOM     21  C2  UNL     1     150.796 162.221 166.333  0.00  0.00    +0.125 A 
ATOM     22  C3  UNL     1     151.403 163.206 167.122  0.00  0.00    +0.047 A 
ATOM     23  C4  UNL     1     152.717 163.044 167.563  0.00  0.00    +0.019 A 
ATOM     24  C5  UNL     1     153.430 161.907 167.198  0.00  0.00    +0.018 A 
ATOM     25 BR1  UNL     1     155.213 161.687 167.787  0.00  0.00    -0.050 Br
ATOM     26  C6  UNL     1     152.843 160.931 166.395  0.00  0.00    +0.024 A 
ATOM     27  C7  UNL     1     151.512 161.075 165.947  0.00  0.00    +0.020 A 
BRANCH  21  29
ATOM     28  C1  UNL     1     148.563 162.570 166.902  0.00  0.00    +0.277 C 
ATOM     29  O1  UNL     1     149.519 162.374 165.860  0.00  0.00    -0.495 OA
ENDBRANCH  21  29
ENDBRANCH   1  27
BRANCH  18  30
ATOM     30  C25 UNL     1     152.830 155.071 167.374  0.00  0.00    -0.044 A 
ATOM     31  C26 UNL     1     152.006 153.937 167.303  0.00  0.00    +0.004 A 
ATOM     32  C27 UNL     1     152.421 152.719 167.846  0.00  0.00    +0.000 A 
ATOM     33  C28 UNL     1     153.663 152.617 168.467  0.00  0.00    +0.000 A 
ATOM     34  C29 UNL     1     154.491 153.734 168.546  0.00  0.00    +0.000 A 
ATOM     35  C30 UNL     1     154.078 154.953 168.005  0.00  0.00    +0.004 A 
ENDBRANCH  18  30
TORSDOF 3
ENDMDL
MODEL 2
REMARK VINA RESULT:    -4.862      3.804      7.099
REMARK INTER + INTRA:          -6.982
REMARK INTER:                  -5.839
REMARK INTRA:                  -1.143
REMARK UNBOUND:                -1.267
REMARK  Name = /home/vital/Documents/PhD_2021/Malaria_codes/data/pdb_ligands_mmv/ligand_12.pdb
REMARK  4 active torsions:
REMARK  status: ('A' for Active; 'I' for Inactive)
REMARK    1  A    between atoms: C1_1  and  O1_2
REMARK    2  A    between atoms: O1_2  and  C2_3
REMARK    3  A    between atoms: C7_9  and  C8_10
REMARK    4  A    between atoms: C23_27  and  C25_29
REMARK                            x       y       z     vdW  Elec       q    Type
REMARK                         _______ _______ _______ _____ _____    ______ ____
ROOT
ATOM      1  C8  UNL     1     151.993 157.663 160.655  0.00  0.00    +0.138 C 
ATOM      2  N1  UNL     1     151.729 158.840 161.497  0.00  0.00    -0.332 N 
ATOM      3  C9  UNL     1     151.880 158.693 162.883  0.00  0.00    +0.036 A 
ATOM      4  C10 UNL     1     152.085 159.852 163.635  0.00  0.00    +0.024 A 
ATOM      5  C11 UNL     1     152.209 159.792 165.016  0.00  0.00    +0.010 A 
ATOM      6  C12 UNL     1     152.157 158.567 165.680  0.00  0.00    -0.017 A 
ATOM      7  C13 UNL     1     152.351 158.555 167.072  0.00  0.00    +0.008 A 
ATOM      8  C14 UNL     1     152.360 157.363 167.788  0.00  0.00    +0.001 A 
ATOM      9  C15 UNL     1     152.193 156.169 167.111  0.00  0.00    +0.001 A 
ATOM     10  C16 UNL     1     151.990 156.173 165.726  0.00  0.00    +0.009 A 
ATOM     11  C17 UNL     1     151.925 157.365 164.956  0.00  0.00    -0.009 A 
ATOM     12  C18 UNL     1     151.689 157.448 163.535  0.00  0.00    +0.007 A 
ATOM     13  C19 UNL     1     151.233 156.319 162.655  0.00  0.00    -0.029 C 
ATOM     14  C20 UNL     1     151.450 156.422 161.323  0.00  0.00    +0.023 C 
ATOM     15  C21 UNL     1     151.188 155.231 160.457  0.00  0.00    +0.162 C 
ATOM     16  O2  UNL     1     151.772 155.098 159.381  0.00  0.00    -0.292 OA
ATOM     17  C22 UNL     1     150.269 154.138 160.951  0.00  0.00    +0.088 C 
ATOM     18  C23 UNL     1     149.479 154.581 162.179  0.00  0.00    +0.031 C 
ATOM     19  C24 UNL     1     150.450 155.159 163.223  0.00  0.00    +0.045 C 
ATOM     20  H8  UNL     1     152.209 159.659 161.135  0.00  0.00    +0.147 HD
ENDROOT
BRANCH   1  27
ATOM     21  C2  UNL     1     150.055 158.532 159.227  0.00  0.00    +0.125 A 
ATOM     22  C3  UNL     1     149.479 158.813 157.981  0.00  0.00    +0.047 A 
ATOM     23  C4  UNL     1     150.201 158.594 156.807  0.00  0.00    +0.019 A 
ATOM     24  C5  UNL     1     151.490 158.076 156.877  0.00  0.00    +0.018 A 
ATOM     25 BR1  UNL     1     152.468 157.771 155.289  0.00  0.00    -0.050 Br
ATOM     26  C6  UNL     1     152.063 157.773 158.110  0.00  0.00    +0.024 A 
ATOM     27  C7  UNL     1     151.351 157.996 159.309  0.00  0.00    +0.020 A 
BRANCH  21  29
ATOM     28  C1  UNL     1     149.025 160.074 160.639  0.00  0.00    +0.277 C 
ATOM     29  O1  UNL     1     149.354 158.707 160.391  0.00  0.00    -0.495 OA
ENDBRANCH  21  29
ENDBRANCH   1  27
BRANCH  18  30
ATOM     30  C25 UNL     1     148.627 153.459 162.746  0.00  0.00    -0.044 A 
ATOM     31  C26 UNL     1     148.857 153.008 164.055  0.00  0.00    +0.004 A 
ATOM     32  C27 UNL     1     148.090 151.975 164.599  0.00  0.00    +0.000 A 
ATOM     33  C28 UNL     1     147.083 151.380 163.843  0.00  0.00    +0.000 A 
ATOM     34  C29 UNL     1     146.844 151.817 162.543  0.00  0.00    +0.000 A 
ATOM     35  C30 UNL     1     147.610 152.848 161.997  0.00  0.00    +0.004 A 
ENDBRANCH  18  30
TORSDOF 3
ENDMDL
MODEL 3
REMARK VINA RESULT:    -4.469      2.908      6.439
REMARK INTER + INTRA:          -6.520
REMARK INTER:                  -6.140
REMARK INTRA:                  -0.381
REMARK UNBOUND:                -1.267
REMARK  Name = /home/vital/Documents/PhD_2021/Malaria_codes/data/pdb_ligands_mmv/ligand_12.pdb
REMARK  4 active torsions:
REMARK  status: ('A' for Active; 'I' for Inactive)
REMARK    1  A    between atoms: C1_1  and  O1_2
REMARK    2  A    between atoms: O1_2  and  C2_3
REMARK    3  A    between atoms: C7_9  and  C8_10
REMARK    4  A    between atoms: C23_27  and  C25_29
REMARK                            x       y       z     vdW  Elec       q    Type
REMARK                         _______ _______ _______ _____ _____    ______ ____
ROOT
ATOM      1  C8  UNL     1     151.327 160.132 162.461  0.00  0.00    +0.138 C 
ATOM      2  N1  UNL     1     150.116 160.888 162.821  0.00  0.00    -0.332 N 
ATOM      3  C9  UNL     1     150.046 161.425 164.113  0.00  0.00    +0.036 A 
ATOM      4  C10 UNL     1     149.168 162.490 164.322  0.00  0.00    +0.024 A 
ATOM      5  C11 UNL     1     149.017 163.052 165.581  0.00  0.00    +0.010 A 
ATOM      6  C12 UNL     1     149.761 162.581 166.663  0.00  0.00    -0.017 A 
ATOM      7  C13 UNL     1     149.618 163.226 167.903  0.00  0.00    +0.008 A 
ATOM      8  C14 UNL     1     150.366 162.837 169.008  0.00  0.00    +0.001 A 
ATOM      9  C15 UNL     1     151.280 161.808 168.876  0.00  0.00    +0.001 A 
ATOM     10  C16 UNL     1     151.422 161.155 167.646  0.00  0.00    +0.009 A 
ATOM     11  C17 UNL     1     150.649 161.481 166.500  0.00  0.00    -0.009 A 
ATOM     12  C18 UNL     1     150.719 160.833 165.213  0.00  0.00    +0.007 A 
ATOM     13  C19 UNL     1     151.441 159.548 164.917  0.00  0.00    -0.029 C 
ATOM     14  C20 UNL     1     151.768 159.285 163.631  0.00  0.00    +0.023 C 
ATOM     15  C21 UNL     1     152.656 158.117 163.340  0.00  0.00    +0.162 C 
ATOM     16  O2  UNL     1     153.342 158.091 162.317  0.00  0.00    -0.292 OA
ATOM     17  C22 UNL     1     152.781 157.005 164.355  0.00  0.00    +0.088 C 
ATOM     18  C23 UNL     1     151.703 157.101 165.430  0.00  0.00    +0.031 C 
ATOM     19  C24 UNL     1     151.688 158.528 166.003  0.00  0.00    +0.045 C 
ATOM     20  H8  UNL     1     149.888 161.568 162.100  0.00  0.00    +0.147 HD
ENDROOT
BRANCH   1  27
ATOM     21  C2  UNL     1     150.928 159.942 159.941  0.00  0.00    +0.125 A 
ATOM     22  C3  UNL     1     150.550 159.205 158.811  0.00  0.00    +0.047 A 
ATOM     23  C4  UNL     1     150.210 157.857 158.931  0.00  0.00    +0.019 A 
ATOM     24  C5  UNL     1     150.228 157.251 160.183  0.00  0.00    +0.018 A 
ATOM     25 BR1  UNL     1     149.761 155.427 160.352  0.00  0.00    -0.050 Br
ATOM     26  C6  UNL     1     150.582 157.981 161.317  0.00  0.00    +0.024 A 
ATOM     27  C7  UNL     1     150.937 159.343 161.212  0.00  0.00    +0.020 A 
BRANCH  21  29
ATOM     28  C1  UNL     1     151.755 161.639 158.574  0.00  0.00    +0.277 C 
ATOM     29  O1  UNL     1     151.233 161.275 159.852  0.00  0.00    -0.495 OA
ENDBRANCH  21  29
ENDBRANCH   1  27
BRANCH  18  30
ATOM     30  C25 UNL     1     151.878 156.050 166.511  0.00  0.00    -0.044 A 
ATOM     31  C26 UNL     1     153.151 155.823 167.058  0.00  0.00    +0.004 A 
ATOM     32  C27 UNL     1     153.340 154.860 168.052  0.00  0.00    +0.000 A 
ATOM     33  C28 UNL     1     152.260 154.111 168.513  0.00  0.00    +0.000 A 
ATOM     34  C29 UNL     1     150.991 154.324 167.980  0.00  0.00    +0.000 A 
ATOM     35  C30 UNL     1     150.801 155.286 166.986  0.00  0.00    +0.004 A 
ENDBRANCH  18  30
TORSDOF 3
ENDMDL
MODEL 4
REMARK VINA RESULT:    -3.830      2.842      6.357
REMARK INTER + INTRA:          -5.769
REMARK INTER:                  -5.014
REMARK INTRA:                  -0.754
REMARK UNBOUND:                -1.267
REMARK  Name = /home/vital/Documents/PhD_2021/Malaria_codes/data/pdb_ligands_mmv/ligand_12.pdb
REMARK  4 active torsions:
REMARK  status: ('A' for Active; 'I' for Inactive)
REMARK    1  A    between atoms: C1_1  and  O1_2
REMARK    2  A    between atoms: O1_2  and  C2_3
REMARK    3  A    between atoms: C7_9  and  C8_10
REMARK    4  A    between atoms: C23_27  and  C25_29
REMARK                            x       y       z     vdW  Elec       q    Type
REMARK                         _______ _______ _______ _____ _____    ______ ____
ROOT
ATOM      1  C8  UNL     1     151.569 159.787 162.252  0.00  0.00    +0.138 C 
ATOM      2  N1  UNL     1     150.325 160.507 162.568  0.00  0.00    -0.332 N 
ATOM      3  C9  UNL     1     150.199 161.053 163.853  0.00  0.00    +0.036 A 
ATOM      4  C10 UNL     1     149.281 162.091 164.025  0.00  0.00    +0.024 A 
ATOM      5  C11 UNL     1     149.075 162.660 165.273  0.00  0.00    +0.010 A 
ATOM      6  C12 UNL     1     149.801 162.222 166.381  0.00  0.00    -0.017 A 
ATOM      7  C13 UNL     1     149.601 162.874 167.610  0.00  0.00    +0.008 A 
ATOM      8  C14 UNL     1     150.327 162.519 168.740  0.00  0.00    +0.001 A 
ATOM      9  C15 UNL     1     151.278 161.519 168.645  0.00  0.00    +0.001 A 
ATOM     10  C16 UNL     1     151.477 160.859 167.427  0.00  0.00    +0.009 A 
ATOM     11  C17 UNL     1     150.728 161.150 166.256  0.00  0.00    -0.009 A 
ATOM     12  C18 UNL     1     150.857 160.493 164.978  0.00  0.00    +0.007 A 
ATOM     13  C19 UNL     1     151.628 159.229 164.716  0.00  0.00    -0.029 C 
ATOM     14  C20 UNL     1     152.001 158.965 163.442  0.00  0.00    +0.023 C 
ATOM     15  C21 UNL     1     152.935 157.824 163.189  0.00  0.00    +0.162 C 
ATOM     16  O2  UNL     1     153.652 157.810 162.188  0.00  0.00    -0.292 OA
ATOM     17  C22 UNL     1     153.065 156.725 164.219  0.00  0.00    +0.088 C 
ATOM     18  C23 UNL     1     151.952 156.797 165.261  0.00  0.00    +0.031 C 
ATOM     19  C24 UNL     1     151.875 158.228 165.819  0.00  0.00    +0.045 C 
ATOM     20  H8  UNL     1     150.096 161.173 161.835  0.00  0.00    +0.147 HD
ENDROOT
BRANCH   1  27
ATOM     21  C2  UNL     1     150.436 157.825 161.061  0.00  0.00    +0.125 A 
ATOM     22  C3  UNL     1     150.164 157.086 159.904  0.00  0.00    +0.047 A 
ATOM     23  C4  UNL     1     150.663 157.502 158.669  0.00  0.00    +0.019 A 
ATOM     24  C5  UNL     1     151.450 158.646 158.594  0.00  0.00    +0.018 A 
ATOM     25 BR1  UNL     1     152.135 159.210 156.925  0.00  0.00    -0.050 Br
ATOM     26  C6  UNL     1     151.745 159.377 159.744  0.00  0.00    +0.024 A 
ATOM     27  C7  UNL     1     151.242 158.975 161.000  0.00  0.00    +0.020 A 
BRANCH  21  29
ATOM     28  C1  UNL     1     149.880 155.997 162.396  0.00  0.00    +0.277 C 
ATOM     29  O1  UNL     1     149.986 157.417 162.289  0.00  0.00    -0.495 OA
ENDBRANCH  21  29
ENDBRANCH   1  27
BRANCH  18  30
ATOM     30  C25 UNL     1     152.129 155.761 166.358  0.00  0.00    -0.044 A 
ATOM     31  C26 UNL     1     153.263 155.813 167.183  0.00  0.00    +0.004 A 
ATOM     32  C27 UNL     1     153.450 154.871 168.197  0.00  0.00    +0.000 A 
ATOM     33  C28 UNL     1     152.508 153.866 168.400  0.00  0.00    +0.000 A 
ATOM     34  C29 UNL     1     151.378 153.802 167.588  0.00  0.00    +0.000 A 
ATOM     35  C30 UNL     1     151.189 154.741 166.574  0.00  0.00    +0.004 A 
ENDBRANCH  18  30
TORSDOF 3
ENDMDL
MODEL 5
REMARK VINA RESULT:    -3.724      2.810      5.979
REMARK INTER + INTRA:          -5.645
REMARK INTER:                  -4.297
REMARK INTRA:                  -1.347
REMARK UNBOUND:                -1.267
REMARK  Name = /home/vital/Documents/PhD_2021/Malaria_codes/data/pdb_ligands_mmv/ligand_12.pdb
REMARK  4 active torsions:
REMARK  status: ('A' for Active; 'I' for Inactive)
REMARK    1  A    between atoms: C1_1  and  O1_2
REMARK    2  A    between atoms: O1_2  and  C2_3
REMARK    3  A    between atoms: C7_9  and  C8_10
REMARK    4  A    between atoms: C23_27  and  C25_29
REMARK                            x       y       z     vdW  Elec       q    Type
REMARK                         _______ _______ _______ _____ _____    ______ ____
ROOT
ATOM      1  C8  UNL     1     152.055 159.020 167.125  0.00  0.00    +0.138 C 
ATOM      2  N1  UNL     1     150.922 158.099 167.306  0.00  0.00    -0.332 N 
ATOM      3  C9  UNL     1     150.797 157.039 166.398  0.00  0.00    +0.036 A 
ATOM      4  C10 UNL     1     150.044 155.933 166.799  0.00  0.00    +0.024 A 
ATOM      5  C11 UNL     1     149.846 154.858 165.944  0.00  0.00    +0.010 A 
ATOM      6  C12 UNL     1     150.417 154.850 164.672  0.00  0.00    -0.017 A 
ATOM      7  C13 UNL     1     150.238 153.710 163.868  0.00  0.00    +0.008 A 
ATOM      8  C14 UNL     1     150.821 153.618 162.609  0.00  0.00    +0.001 A 
ATOM      9  C15 UNL     1     151.606 154.660 162.151  0.00  0.00    +0.001 A 
ATOM     10  C16 UNL     1     151.782 155.802 162.942  0.00  0.00    +0.009 A 
ATOM     11  C17 UNL     1     151.169 155.966 164.213  0.00  0.00    -0.009 A 
ATOM     12  C18 UNL     1     151.280 157.124 165.067  0.00  0.00    +0.007 A 
ATOM     13  C19 UNL     1     151.858 158.454 164.671  0.00  0.00    -0.029 C 
ATOM     14  C20 UNL     1     152.271 159.286 165.655  0.00  0.00    +0.023 C 
ATOM     15  C21 UNL     1     153.028 160.521 165.281  0.00  0.00    +0.162 C 
ATOM     16  O2  UNL     1     153.800 161.049 166.082  0.00  0.00    -0.292 OA
ATOM     17  C22 UNL     1     152.913 161.069 163.878  0.00  0.00    +0.088 C 
ATOM     18  C23 UNL     1     151.757 160.427 163.116  0.00  0.00    +0.031 C 
ATOM     19  C24 UNL     1     151.868 158.897 163.228  0.00  0.00    +0.045 C 
ATOM     20  H8  UNL     1     150.851 157.797 168.274  0.00  0.00    +0.147 HD
ENDROOT
BRANCH   1  27
ATOM     21  C2  UNL     1     152.442 160.631 169.075  0.00  0.00    +0.125 A 
ATOM     22  C3  UNL     1     152.079 161.755 169.828  0.00  0.00    +0.047 A 
ATOM     23  C4  UNL     1     150.984 162.533 169.449  0.00  0.00    +0.019 A 
ATOM     24  C5  UNL     1     150.241 162.176 168.329  0.00  0.00    +0.018 A 
ATOM     25 BR1  UNL     1     148.753 163.222 167.815  0.00  0.00    -0.050 Br
ATOM     26  C6  UNL     1     150.581 161.047 167.586  0.00  0.00    +0.024 A 
ATOM     27  C7  UNL     1     151.690 160.253 167.950  0.00  0.00    +0.020 A 
BRANCH  21  29
ATOM     28  C1  UNL     1     154.733 160.539 169.496  0.00  0.00    +0.277 C 
ATOM     29  O1  UNL     1     153.492 159.834 169.448  0.00  0.00    -0.495 OA
ENDBRANCH  21  29
ENDBRANCH   1  27
BRANCH  18  30
ATOM     30  C25 UNL     1     151.693 160.895 161.673  0.00  0.00    -0.044 A 
ATOM     31  C26 UNL     1     152.342 162.082 161.300  0.00  0.00    +0.004 A 
ATOM     32  C27 UNL     1     152.297 162.535 159.980  0.00  0.00    +0.000 A 
ATOM     33  C28 UNL     1     151.602 161.809 159.015  0.00  0.00    +0.000 A 
ATOM     34  C29 UNL     1     150.952 160.630 159.371  0.00  0.00    +0.000 A 
ATOM     35  C30 UNL     1     150.996 160.175 160.690  0.00  0.00    +0.004 A 
ENDBRANCH  18  30
TORSDOF 3
ENDMDL
MODEL 6
REMARK VINA RESULT:    -3.576      2.491      5.592
REMARK INTER + INTRA:          -5.471
REMARK INTER:                  -3.767
REMARK INTRA:                  -1.704
REMARK UNBOUND:                -1.267
REMARK  Name = /home/vital/Documents/PhD_2021/Malaria_codes/data/pdb_ligands_mmv/ligand_12.pdb
REMARK  4 active torsions:
REMARK  status: ('A' for Active; 'I' for Inactive)
REMARK    1  A    between atoms: C1_1  and  O1_2
REMARK    2  A    between atoms: O1_2  and  C2_3
REMARK    3  A    between atoms: C7_9  and  C8_10
REMARK    4  A    between atoms: C23_27  and  C25_29
REMARK                            x       y       z     vdW  Elec       q    Type
REMARK                         _______ _______ _______ _____ _____    ______ ____
ROOT
ATOM      1  C8  UNL     1     152.278 158.934 167.685  0.00  0.00    +0.138 C 
ATOM      2  N1  UNL     1     151.145 158.038 167.968  0.00  0.00    -0.332 N 
ATOM      3  C9  UNL     1     150.933 156.964 167.092  0.00  0.00    +0.036 A 
ATOM      4  C10 UNL     1     150.194 155.880 167.570  0.00  0.00    +0.024 A 
ATOM      5  C11 UNL     1     149.912 154.795 166.753  0.00  0.00    +0.010 A 
ATOM      6  C12 UNL     1     150.386 154.752 165.442  0.00  0.00    -0.017 A 
ATOM      7  C13 UNL     1     150.127 153.602 164.676  0.00  0.00    +0.008 A 
ATOM      8  C14 UNL     1     150.611 153.476 163.379  0.00  0.00    +0.001 A 
ATOM      9  C15 UNL     1     151.378 154.494 162.844  0.00  0.00    +0.001 A 
ATOM     10  C16 UNL     1     151.633 155.646 163.596  0.00  0.00    +0.009 A 
ATOM     11  C17 UNL     1     151.121 155.846 164.907  0.00  0.00    -0.009 A 
ATOM     12  C18 UNL     1     151.316 157.016 165.727  0.00  0.00    +0.007 A 
ATOM     13  C19 UNL     1     151.886 158.327 165.264  0.00  0.00    -0.029 C 
ATOM     14  C20 UNL     1     152.387 159.169 166.197  0.00  0.00    +0.023 C 
ATOM     15  C21 UNL     1     153.136 160.382 165.744  0.00  0.00    +0.162 C 
ATOM     16  O2  UNL     1     153.975 160.910 166.474  0.00  0.00    -0.292 OA
ATOM     17  C22 UNL     1     152.925 160.907 164.343  0.00  0.00    +0.088 C 
ATOM     18  C23 UNL     1     151.704 160.274 163.683  0.00  0.00    +0.031 C 
ATOM     19  C24 UNL     1     151.796 158.744 163.815  0.00  0.00    +0.045 C 
ATOM     20  H8  UNL     1     151.143 157.755 168.944  0.00  0.00    +0.147 HD
ENDROOT
BRANCH   1  27
ATOM     21  C2  UNL     1     150.768 160.862 168.427  0.00  0.00    +0.125 A 
ATOM     22  C3  UNL     1     150.539 162.021 169.180  0.00  0.00    +0.047 A 
ATOM     23  C4  UNL     1     151.520 162.501 170.049  0.00  0.00    +0.019 A 
ATOM     24  C5  UNL     1     152.737 161.834 170.149  0.00  0.00    +0.018 A 
ATOM     25 BR1  UNL     1     154.072 162.484 171.319  0.00  0.00    -0.050 Br
ATOM     26  C6  UNL     1     152.983 160.693 169.388  0.00  0.00    +0.024 A 
ATOM     27  C7  UNL     1     151.998 160.188 168.511  0.00  0.00    +0.020 A 
BRANCH  21  29
ATOM     28  C1  UNL     1     149.246 161.428 166.755  0.00  0.00    +0.277 C 
ATOM     29  O1  UNL     1     149.833 160.392 167.543  0.00  0.00    -0.495 OA
ENDBRANCH  21  29
ENDBRANCH   1  27
BRANCH  18  30
ATOM     30  C25 UNL     1     151.539 160.717 162.240  0.00  0.00    -0.044 A 
ATOM     31  C26 UNL     1     150.561 160.111 161.436  0.00  0.00    +0.004 A 
ATOM     32  C27 UNL     1     150.392 160.499 160.105  0.00  0.00    +0.000 A 
ATOM     33  C28 UNL     1     151.197 161.496 159.559  0.00  0.00    +0.000 A 
ATOM     34  C29 UNL     1     152.172 162.105 160.345  0.00  0.00    +0.000 A 
ATOM     35  C30 UNL     1     152.344 161.719 161.675  0.00  0.00    +0.004 A 
ENDBRANCH  18  30
TORSDOF 3
ENDMDL
MODEL 7
REMARK VINA RESULT:    -3.570      2.593      6.420
REMARK INTER + INTRA:          -5.464
REMARK INTER:                  -4.000
REMARK INTRA:                  -1.463
REMARK UNBOUND:                -1.267
REMARK  Name = /home/vital/Documents/PhD_2021/Malaria_codes/data/pdb_ligands_mmv/ligand_12.pdb
REMARK  4 active torsions:
REMARK  status: ('A' for Active; 'I' for Inactive)
REMARK    1  A    between atoms: C1_1  and  O1_2
REMARK    2  A    between atoms: O1_2  and  C2_3
REMARK    3  A    between atoms: C7_9  and  C8_10
REMARK    4  A    between atoms: C23_27  and  C25_29
REMARK                            x       y       z     vdW  Elec       q    Type
REMARK                         _______ _______ _______ _____ _____    ______ ____
ROOT
ATOM      1  C8  UNL     1     152.353 156.515 165.238  0.00  0.00    +0.138 C 
ATOM      2  N1  UNL     1     151.774 156.218 163.918  0.00  0.00    -0.332 N 
ATOM      3  C9  UNL     1     151.775 157.244 162.963  0.00  0.00    +0.036 A 
ATOM      4  C10 UNL     1     151.667 156.874 161.621  0.00  0.00    +0.024 A 
ATOM      5  C11 UNL     1     151.627 157.833 160.619  0.00  0.00    +0.010 A 
ATOM      6  C12 UNL     1     151.719 159.189 160.931  0.00  0.00    -0.017 A 
ATOM      7  C13 UNL     1     151.736 160.118 159.876  0.00  0.00    +0.008 A 
ATOM      8  C14 UNL     1     151.875 161.480 160.116  0.00  0.00    +0.001 A 
ATOM      9  C15 UNL     1     152.017 161.924 161.418  0.00  0.00    +0.001 A 
ATOM     10  C16 UNL     1     151.992 161.007 162.475  0.00  0.00    +0.009 A 
ATOM     11  C17 UNL     1     151.804 159.611 162.287  0.00  0.00    -0.009 A 
ATOM     12  C18 UNL     1     151.737 158.614 163.328  0.00  0.00    +0.007 A 
ATOM     13  C19 UNL     1     151.610 158.890 164.800  0.00  0.00    -0.029 C 
ATOM     14  C20 UNL     1     151.970 157.912 165.663  0.00  0.00    +0.023 C 
ATOM     15  C21 UNL     1     152.042 158.232 167.123  0.00  0.00    +0.162 C 
ATOM     16  O2  UNL     1     152.770 157.581 167.872  0.00  0.00    -0.292 OA
ATOM     17  C22 UNL     1     151.286 159.424 167.662  0.00  0.00    +0.088 C 
ATOM     18  C23 UNL     1     150.280 159.959 166.646  0.00  0.00    +0.031 C 
ATOM     19  C24 UNL     1     150.990 160.173 165.299  0.00  0.00    +0.045 C 
ATOM     20  H8  UNL     1     152.137 155.341 163.553  0.00  0.00    +0.147 HD
ENDROOT
BRANCH   1  27
ATOM     21  C2  UNL     1     150.466 155.102 166.231  0.00  0.00    +0.125 A 
ATOM     22  C3  UNL     1     150.010 154.092 167.088  0.00  0.00    +0.047 A 
ATOM     23  C4  UNL     1     150.917 153.350 167.846  0.00  0.00    +0.019 A 
ATOM     24  C5  UNL     1     152.276 153.632 167.763  0.00  0.00    +0.018 A 
ATOM     25 BR1  UNL     1     153.508 152.636 168.794  0.00  0.00    -0.050 Br
ATOM     26  C6  UNL     1     152.738 154.650 166.931  0.00  0.00    +0.024 A 
ATOM     27  C7  UNL     1     151.835 155.404 166.150  0.00  0.00    +0.020 A 
BRANCH  21  29
ATOM     28  C1  UNL     1     148.699 155.081 164.710  0.00  0.00    +0.277 C 
ATOM     29  O1  UNL     1     149.591 155.865 165.503  0.00  0.00    -0.495 OA
ENDBRANCH  21  29
ENDBRANCH   1  27
BRANCH  18  30
ATOM     30  C25 UNL     1     149.586 161.217 167.137  0.00  0.00    -0.044 A 
ATOM     31  C26 UNL     1     148.323 161.555 166.627  0.00  0.00    +0.004 A 
ATOM     32  C27 UNL     1     147.665 162.708 167.061  0.00  0.00    +0.000 A 
ATOM     33  C28 UNL     1     148.259 163.539 168.007  0.00  0.00    +0.000 A 
ATOM     34  C29 UNL     1     149.513 163.216 168.521  0.00  0.00    +0.000 A 
ATOM     35  C30 UNL     1     150.173 162.065 168.089  0.00  0.00    +0.004 A 
ENDBRANCH  18  30
TORSDOF 3
ENDMDL
MODEL 8
REMARK VINA RESULT:    -3.432      2.977      6.846
REMARK INTER + INTRA:          -5.301
REMARK INTER:                  -5.704
REMARK INTRA:                   0.403
REMARK UNBOUND:                -1.267
REMARK  Name = /home/vital/Documents/PhD_2021/Malaria_codes/data/pdb_ligands_mmv/ligand_12.pdb
REMARK  4 active torsions:
REMARK  status: ('A' for Active; 'I' for Inactive)
REMARK    1  A    between atoms: C1_1  and  O1_2
REMARK    2  A    between atoms: O1_2  and  C2_3
REMARK    3  A    between atoms: C7_9  and  C8_10
REMARK    4  A    between atoms: C23_27  and  C25_29
REMARK                            x       y       z     vdW  Elec       q    Type
REMARK                         _______ _______ _______ _____ _____    ______ ____
ROOT
ATOM      1  C8  UNL     1     151.494 155.367 163.043  0.00  0.00    +0.138 C 
ATOM      2  N1  UNL     1     150.679 155.220 161.827  0.00  0.00    -0.332 N 
ATOM      3  C9  UNL     1     150.914 156.117 160.776  0.00  0.00    +0.036 A 
ATOM      4  C10 UNL     1     150.507 155.730 159.497  0.00  0.00    +0.024 A 
ATOM      5  C11 UNL     1     150.674 156.577 158.411  0.00  0.00    +0.010 A 
ATOM      6  C12 UNL     1     151.276 157.825 158.570  0.00  0.00    -0.017 A 
ATOM      7  C13 UNL     1     151.479 158.619 157.428  0.00  0.00    +0.008 A 
ATOM      8  C14 UNL     1     152.116 159.852 157.511  0.00  0.00    +0.001 A 
ATOM      9  C15 UNL     1     152.575 160.293 158.738  0.00  0.00    +0.001 A 
ATOM     10  C16 UNL     1     152.369 159.512 159.882  0.00  0.00    +0.009 A 
ATOM     11  C17 UNL     1     151.682 158.269 159.859  0.00  0.00    -0.009 A 
ATOM     12  C18 UNL     1     151.406 157.428 160.998  0.00  0.00    +0.007 A 
ATOM     13  C19 UNL     1     151.579 157.819 162.439  0.00  0.00    -0.029 C 
ATOM     14  C20 UNL     1     151.683 156.832 163.359  0.00  0.00    +0.023 C 
ATOM     15  C21 UNL     1     152.055 157.192 164.762  0.00  0.00    +0.162 C 
ATOM     16  O2  UNL     1     152.600 156.369 165.497  0.00  0.00    -0.292 OA
ATOM     17  C22 UNL     1     151.842 158.607 165.249  0.00  0.00    +0.088 C 
ATOM     18  C23 UNL     1     150.963 159.405 164.290  0.00  0.00    +0.031 C 
ATOM     19  C24 UNL     1     151.519 159.267 162.863  0.00  0.00    +0.045 C 
ATOM     20  H8  UNL     1     150.660 154.251 161.519  0.00  0.00    +0.147 HD
ENDROOT
BRANCH   1  27
ATOM     21  C2  UNL     1     149.397 154.212 163.947  0.00  0.00    +0.125 A 
ATOM     22  C3  UNL     1     148.724 153.502 164.949  0.00  0.00    +0.047 A 
ATOM     23  C4  UNL     1     149.394 153.117 166.111  0.00  0.00    +0.019 A 
ATOM     24  C5  UNL     1     150.731 153.459 166.280  0.00  0.00    +0.018 A 
ATOM     25 BR1  UNL     1     151.641 152.947 167.855  0.00  0.00    -0.050 Br
ATOM     26  C6  UNL     1     151.404 154.185 165.299  0.00  0.00    +0.024 A 
ATOM     27  C7  UNL     1     150.744 154.575 164.113  0.00  0.00    +0.020 A 
BRANCH  21  29
ATOM     28  C1  UNL     1     147.828 153.661 162.313  0.00  0.00    +0.277 C 
ATOM     29  O1  UNL     1     148.750 154.630 162.813  0.00  0.00    -0.495 OA
ENDBRANCH  21  29
ENDBRANCH   1  27
BRANCH  18  30
ATOM     30  C25 UNL     1     150.825 160.856 164.716  0.00  0.00    -0.044 A 
ATOM     31  C26 UNL     1     151.881 161.483 165.395  0.00  0.00    +0.004 A 
ATOM     32  C27 UNL     1     151.778 162.816 165.799  0.00  0.00    +0.000 A 
ATOM     33  C28 UNL     1     150.619 163.540 165.531  0.00  0.00    +0.000 A 
ATOM     34  C29 UNL     1     149.563 162.931 164.858  0.00  0.00    +0.000 A 
ATOM     35  C30 UNL     1     149.663 161.599 164.454  0.00  0.00    +0.004 A 
ENDBRANCH  18  30
TORSDOF 3
ENDMDL
MODEL 9
REMARK VINA RESULT:    -2.676      1.496      2.149
REMARK INTER + INTRA:          -4.413
REMARK INTER:                  -2.932
REMARK INTRA:                  -1.481
REMARK UNBOUND:                -1.267
REMARK  Name = /home/vital/Documents/PhD_2021/Malaria_codes/data/pdb_ligands_mmv/ligand_12.pdb
REMARK  4 active torsions:
REMARK  status: ('A' for Active; 'I' for Inactive)
REMARK    1  A    between atoms: C1_1  and  O1_2
REMARK    2  A    between atoms: O1_2  and  C2_3
REMARK    3  A    between atoms: C7_9  and  C8_10
REMARK    4  A    between atoms: C23_27  and  C25_29
REMARK                            x       y       z     vdW  Elec       q    Type
REMARK                         _______ _______ _______ _____ _____    ______ ____
ROOT
ATOM      1  C8  UNL     1     150.625 159.723 165.610  0.00  0.00    +0.138 C 
ATOM      2  N1  UNL     1     151.371 160.027 164.378  0.00  0.00    -0.332 N 
ATOM      3  C9  UNL     1     151.393 159.049 163.375  0.00  0.00    +0.036 A 
ATOM      4  C10 UNL     1     151.679 159.467 162.074  0.00  0.00    +0.024 A 
ATOM      5  C11 UNL     1     151.753 158.553 161.032  0.00  0.00    +0.010 A 
ATOM      6  C12 UNL     1     151.516 157.198 161.259  0.00  0.00    -0.017 A 
ATOM      7  C13 UNL     1     151.541 156.322 160.160  0.00  0.00    +0.008 A 
ATOM      8  C14 UNL     1     151.266 154.968 160.311  0.00  0.00    +0.001 A 
ATOM      9  C15 UNL     1     150.944 154.481 161.564  0.00  0.00    +0.001 A 
ATOM     10  C16 UNL     1     150.926 155.344 162.665  0.00  0.00    +0.009 A 
ATOM     11  C17 UNL     1     151.246 156.725 162.574  0.00  0.00    -0.009 A 
ATOM     12  C18 UNL     1     151.278 157.665 163.667  0.00  0.00    +0.007 A 
ATOM     13  C19 UNL     1     151.217 157.314 165.128  0.00  0.00    -0.029 C 
ATOM     14  C20 UNL     1     150.844 158.280 165.999  0.00  0.00    +0.023 C 
ATOM     15  C21 UNL     1     150.584 157.903 167.423  0.00  0.00    +0.162 C 
ATOM     16  O2  UNL     1     149.833 158.581 168.124  0.00  0.00    -0.292 OA
ATOM     17  C22 UNL     1     151.176 156.627 167.975  0.00  0.00    +0.088 C 
ATOM     18  C23 UNL     1     152.241 156.053 167.046  0.00  0.00    +0.031 C 
ATOM     19  C24 UNL     1     151.671 155.961 165.621  0.00  0.00    +0.045 C 
ATOM     20  H8  UNL     1     151.124 160.947 164.024  0.00  0.00    +0.147 HD
ENDROOT
BRANCH   1  27
ATOM     21  C2  UNL     1     152.499 160.914 166.882  0.00  0.00    +0.125 A 
ATOM     22  C3  UNL     1     152.937 161.842 167.835  0.00  0.00    +0.047 A 
ATOM     23  C4  UNL     1     152.016 162.632 168.524  0.00  0.00    +0.019 A 
ATOM     24  C5  UNL     1     150.656 162.480 168.274  0.00  0.00    +0.018 A 
ATOM     25 BR1  UNL     1     149.403 163.542 169.209  0.00  0.00    -0.050 Br
ATOM     26  C6  UNL     1     150.209 161.544 167.343  0.00  0.00    +0.024 A 
ATOM     27  C7  UNL     1     151.128 160.743 166.631  0.00  0.00    +0.020 A 
BRANCH  21  29
ATOM     28  C1  UNL     1     154.439 160.834 165.592  0.00  0.00    +0.277 C 
ATOM     29  O1  UNL     1     153.384 160.104 166.219  0.00  0.00    -0.495 OA
ENDBRANCH  21  29
ENDBRANCH   1  27
BRANCH  18  30
ATOM     30  C25 UNL     1     152.772 154.719 167.540  0.00  0.00    -0.044 A 
ATOM     31  C26 UNL     1     154.083 154.633 168.031  0.00  0.00    +0.004 A 
ATOM     32  C27 UNL     1     154.596 153.417 168.489  0.00  0.00    +0.000 A 
ATOM     33  C28 UNL     1     153.805 152.271 168.462  0.00  0.00    +0.000 A 
ATOM     34  C29 UNL     1     152.502 152.340 167.977  0.00  0.00    +0.000 A 
ATOM     35  C30 UNL     1     151.988 153.555 167.518  0.00  0.00    +0.004 A 
ENDBRANCH  18  30
TORSDOF 3
ENDMDL
