MODEL 1
REMARK VINA RESULT:    -6.352      0.000      0.000
REMARK INTER + INTRA:          -9.273
REMARK INTER:                  -8.209
REMARK INTRA:                  -1.064
REMARK UNBOUND:                -1.064
REMARK  Name = /home/vital/Documents/PhD_2021/Malaria_codes/data/pdb_ligands_mmv/ligand_110.pdb
REMARK  7 active torsions:
REMARK  status: ('A' for Active; 'I' for Inactive)
REMARK    1  A    between atoms: C1_1  and  C2_2
REMARK    2  A    between atoms: C2_2  and  C24_29
REMARK    3  A    between atoms: C3_3  and  C4_4
REMARK    4  A    between atoms: C4_4  and  N1_5
REMARK    5  A    between atoms: C7_8  and  C10_11
REMARK    6  A    between atoms: N2_13  and  C11_14
REMARK    7  A    between atoms: C14_17  and  C17_20
REMARK                            x       y       z     vdW  Elec       q    Type
REMARK                         _______ _______ _______ _____ _____    ______ ____
ROOT
ATOM      1  C11 UNL     1     151.251 156.790 159.711  0.00  0.00    +0.033 A 
ATOM      2  C12 UNL     1     151.381 155.488 159.214  0.00  0.00    +0.024 A 
ATOM      3  C13 UNL     1     151.517 155.253 157.839  0.00  0.00    +0.013 A 
ATOM      4  C14 UNL     1     151.526 156.318 156.931  0.00  0.00    +0.017 A 
ATOM      5  C15 UNL     1     151.405 157.617 157.437  0.00  0.00    +0.013 A 
ATOM      6  C16 UNL     1     151.264 157.853 158.812  0.00  0.00    +0.024 A 
ENDROOT
BRANCH   4   7
ATOM      7  C17 UNL     1     151.677 156.121 155.486  0.00  0.00    +0.139 A 
ATOM      8  N3  UNL     1     151.165 155.127 154.780  0.00  0.00    -0.228 NA
ATOM      9  C18 UNL     1     151.552 155.337 153.481  0.00  0.00    +0.089 A 
ATOM     10  C19 UNL     1     151.272 154.591 152.327  0.00  0.00    +0.030 A 
ATOM     11  C20 UNL     1     151.797 155.026 151.104  0.00  0.00    +0.002 A 
ATOM     12  C21 UNL     1     152.584 156.177 151.031  0.00  0.00    +0.002 A 
ATOM     13  C22 UNL     1     152.876 156.934 152.174  0.00  0.00    +0.028 A 
ATOM     14  C23 UNL     1     152.336 156.478 153.377  0.00  0.00    +0.066 A 
ATOM     15  N4  UNL     1     152.408 156.950 154.663  0.00  0.00    -0.338 N 
ATOM     16  H25 UNL     1     152.930 157.759 154.961  0.00  0.00    +0.167 HD
ENDBRANCH   4   7
BRANCH   1  19
ATOM     17  C10 UNL     1     152.046 157.543 161.969  0.00  0.00    +0.220 C 
ATOM     18  O1  UNL     1     153.075 158.125 161.643  0.00  0.00    -0.275 OA
ATOM     19  N2  UNL     1     151.141 156.938 161.109  0.00  0.00    -0.285 N 
ATOM     20  H16 UNL     1     150.290 156.585 161.528  0.00  0.00    +0.155 HD
BRANCH  17  24
ATOM     21  N1  UNL     1     151.233 156.435 166.022  0.00  0.00    -0.299 NA
ATOM     22  C5  UNL     1     152.399 157.307 165.838  0.00  0.00    +0.085 C 
ATOM     23  C6  UNL     1     152.825 157.450 164.374  0.00  0.00    +0.028 C 
ATOM     24  C7  UNL     1     151.620 157.413 163.431  0.00  0.00    +0.078 C 
ATOM     25  C8  UNL     1     150.804 156.122 163.642  0.00  0.00    +0.028 C 
ATOM     26  C9  UNL     1     151.103 155.429 164.975  0.00  0.00    +0.085 C 
BRANCH  21  27
ATOM     27  C4  UNL     1     151.119 155.912 167.386  0.00  0.00    +0.111 C 
BRANCH  27  30
ATOM     28  C1  UNL     1     153.969 154.810 168.181  0.00  0.00    +0.038 C 
ATOM     29  C2  UNL     1     152.740 153.986 167.915  0.00  0.00    -0.078 C 
ATOM     30  C3  UNL     1     151.535 154.475 167.561  0.00  0.00    -0.013 C 
ATOM     31  C24 UNL     1     152.951 152.501 168.060  0.00  0.00    +0.038 C 
ENDBRANCH  27  30
ENDBRANCH  21  27
ENDBRANCH  17  24
ENDBRANCH   1  19
TORSDOF 5
ENDMDL
MODEL 2
REMARK VINA RESULT:    -5.768      3.739      4.501
REMARK INTER + INTRA:          -8.517
REMARK INTER:                  -7.530
REMARK INTRA:                  -0.987
REMARK UNBOUND:                -1.064
REMARK  Name = /home/vital/Documents/PhD_2021/Malaria_codes/data/pdb_ligands_mmv/ligand_110.pdb
REMARK  7 active torsions:
REMARK  status: ('A' for Active; 'I' for Inactive)
REMARK    1  A    between atoms: C1_1  and  C2_2
REMARK    2  A    between atoms: C2_2  and  C24_29
REMARK    3  A    between atoms: C3_3  and  C4_4
REMARK    4  A    between atoms: C4_4  and  N1_5
REMARK    5  A    between atoms: C7_8  and  C10_11
REMARK    6  A    between atoms: N2_13  and  C11_14
REMARK    7  A    between atoms: C14_17  and  C17_20
REMARK                            x       y       z     vdW  Elec       q    Type
REMARK                         _______ _______ _______ _____ _____    ______ ____
ROOT
ATOM      1  C11 UNL     1     151.576 159.471 160.213  0.00  0.00    +0.033 A 
ATOM      2  C12 UNL     1     150.987 158.233 159.924  0.00  0.00    +0.024 A 
ATOM      3  C13 UNL     1     151.084 157.672 158.643  0.00  0.00    +0.013 A 
ATOM      4  C14 UNL     1     151.773 158.338 157.623  0.00  0.00    +0.017 A 
ATOM      5  C15 UNL     1     152.366 159.570 157.923  0.00  0.00    +0.013 A 
ATOM      6  C16 UNL     1     152.267 160.135 159.202  0.00  0.00    +0.024 A 
ENDROOT
BRANCH   4   7
ATOM      7  C17 UNL     1     151.910 157.785 156.272  0.00  0.00    +0.139 A 
ATOM      8  N3  UNL     1     152.222 158.465 155.183  0.00  0.00    -0.228 NA
ATOM      9  C18 UNL     1     152.241 157.559 154.154  0.00  0.00    +0.089 A 
ATOM     10  C19 UNL     1     152.527 157.747 152.794  0.00  0.00    +0.030 A 
ATOM     11  C20 UNL     1     152.476 156.640 151.938  0.00  0.00    +0.002 A 
ATOM     12  C21 UNL     1     152.145 155.373 152.425  0.00  0.00    +0.002 A 
ATOM     13  C22 UNL     1     151.854 155.166 153.781  0.00  0.00    +0.028 A 
ATOM     14  C23 UNL     1     151.918 156.288 154.609  0.00  0.00    +0.066 A 
ATOM     15  N4  UNL     1     151.703 156.461 155.952  0.00  0.00    -0.338 N 
ATOM     16  H25 UNL     1     151.418 155.740 156.597  0.00  0.00    +0.167 HD
ENDBRANCH   4   7
BRANCH   1  19
ATOM     17  C10 UNL     1     150.534 160.880 162.008  0.00  0.00    +0.220 C 
ATOM     18  O1  UNL     1     149.620 161.390 161.368  0.00  0.00    -0.275 OA
ATOM     19  N2  UNL     1     151.449 159.952 161.532  0.00  0.00    -0.285 N 
ATOM     20  H16 UNL     1     152.081 159.554 162.213  0.00  0.00    +0.155 HD
BRANCH  17  24
ATOM     21  N1  UNL     1     152.000 162.014 165.866  0.00  0.00    -0.299 NA
ATOM     22  C5  UNL     1     151.272 163.064 165.145  0.00  0.00    +0.085 C 
ATOM     23  C6  UNL     1     151.013 162.723 163.674  0.00  0.00    +0.028 C 
ATOM     24  C7  UNL     1     150.780 161.223 163.478  0.00  0.00    +0.078 C 
ATOM     25  C8  UNL     1     151.970 160.411 164.029  0.00  0.00    +0.028 C 
ATOM     26  C9  UNL     1     152.849 161.209 164.996  0.00  0.00    +0.085 C 
BRANCH  21  27
ATOM     27  C4  UNL     1     152.662 162.505 167.077  0.00  0.00    +0.111 C 
BRANCH  27  30
ATOM     28  C1  UNL     1     153.306 162.134 170.147  0.00  0.00    +0.038 C 
ATOM     29  C2  UNL     1     153.925 161.369 169.010  0.00  0.00    -0.078 C 
ATOM     30  C3  UNL     1     153.648 161.553 167.703  0.00  0.00    -0.013 C 
ATOM     31  C24 UNL     1     154.939 160.342 169.440  0.00  0.00    +0.038 C 
ENDBRANCH  27  30
ENDBRANCH  21  27
ENDBRANCH  17  24
ENDBRANCH   1  19
TORSDOF 5
ENDMDL
MODEL 3
REMARK VINA RESULT:    -5.589      4.178     11.584
REMARK INTER + INTRA:          -8.286
REMARK INTER:                  -7.322
REMARK INTRA:                  -0.964
REMARK UNBOUND:                -1.064
REMARK  Name = /home/vital/Documents/PhD_2021/Malaria_codes/data/pdb_ligands_mmv/ligand_110.pdb
REMARK  7 active torsions:
REMARK  status: ('A' for Active; 'I' for Inactive)
REMARK    1  A    between atoms: C1_1  and  C2_2
REMARK    2  A    between atoms: C2_2  and  C24_29
REMARK    3  A    between atoms: C3_3  and  C4_4
REMARK    4  A    between atoms: C4_4  and  N1_5
REMARK    5  A    between atoms: C7_8  and  C10_11
REMARK    6  A    between atoms: N2_13  and  C11_14
REMARK    7  A    between atoms: C14_17  and  C17_20
REMARK                            x       y       z     vdW  Elec       q    Type
REMARK                         _______ _______ _______ _____ _____    ______ ____
ROOT
ATOM      1  C11 UNL     1     151.172 158.903 158.717  0.00  0.00    +0.033 A 
ATOM      2  C12 UNL     1     152.335 159.591 159.085  0.00  0.00    +0.024 A 
ATOM      3  C13 UNL     1     152.416 160.264 160.311  0.00  0.00    +0.013 A 
ATOM      4  C14 UNL     1     151.333 160.263 161.198  0.00  0.00    +0.017 A 
ATOM      5  C15 UNL     1     150.178 159.565 160.827  0.00  0.00    +0.013 A 
ATOM      6  C16 UNL     1     150.094 158.895 159.598  0.00  0.00    +0.024 A 
ENDROOT
BRANCH   4   7
ATOM      7  C17 UNL     1     151.376 160.943 162.496  0.00  0.00    +0.139 A 
ATOM      8  N3  UNL     1     152.118 160.591 163.532  0.00  0.00    -0.228 NA
ATOM      9  C18 UNL     1     151.848 161.497 164.525  0.00  0.00    +0.089 A 
ATOM     10  C19 UNL     1     152.372 161.593 165.823  0.00  0.00    +0.030 A 
ATOM     11  C20 UNL     1     151.921 162.625 166.654  0.00  0.00    +0.002 A 
ATOM     12  C21 UNL     1     150.968 163.542 166.204  0.00  0.00    +0.002 A 
ATOM     13  C22 UNL     1     150.431 163.461 164.911  0.00  0.00    +0.028 A 
ATOM     14  C23 UNL     1     150.903 162.424 164.106  0.00  0.00    +0.066 A 
ATOM     15  N4  UNL     1     150.614 162.044 162.820  0.00  0.00    -0.338 N 
ATOM     16  H25 UNL     1     149.937 162.486 162.218  0.00  0.00    +0.167 HD
ENDBRANCH   4   7
BRANCH   1  19
ATOM     17  C10 UNL     1     151.056 156.873 157.247  0.00  0.00    +0.220 C 
ATOM     18  O1  UNL     1     150.835 156.015 158.095  0.00  0.00    -0.275 OA
ATOM     19  N2  UNL     1     151.184 158.236 157.475  0.00  0.00    -0.285 N 
ATOM     20  H16 UNL     1     151.268 158.823 156.656  0.00  0.00    +0.155 HD
BRANCH  17  24
ATOM     21  N1  UNL     1     152.263 156.278 153.184  0.00  0.00    -0.299 NA
ATOM     22  C5  UNL     1     152.495 155.135 154.075  0.00  0.00    +0.085 C 
ATOM     23  C6  UNL     1     152.320 155.477 155.558  0.00  0.00    +0.028 C 
ATOM     24  C7  UNL     1     151.223 156.523 155.768  0.00  0.00    +0.078 C 
ATOM     25  C8  UNL     1     151.518 157.792 154.944  0.00  0.00    +0.028 C 
ATOM     26  C9  UNL     1     152.533 157.561 153.821  0.00  0.00    +0.085 C 
BRANCH  21  27
ATOM     27  C4  UNL     1     152.879 156.111 151.866  0.00  0.00    +0.111 C 
BRANCH  27  30
ATOM     28  C1  UNL     1     154.392 154.539 149.582  0.00  0.00    +0.038 C 
ATOM     29  C2  UNL     1     154.967 154.951 150.909  0.00  0.00    -0.078 C 
ATOM     30  C3  UNL     1     154.299 155.609 151.878  0.00  0.00    -0.013 C 
ATOM     31  C24 UNL     1     156.405 154.550 151.107  0.00  0.00    +0.038 C 
ENDBRANCH  27  30
ENDBRANCH  21  27
ENDBRANCH  17  24
ENDBRANCH   1  19
TORSDOF 5
ENDMDL
MODEL 4
REMARK VINA RESULT:    -5.385      3.330      4.303
REMARK INTER + INTRA:          -8.022
REMARK INTER:                  -7.013
REMARK INTRA:                  -1.009
REMARK UNBOUND:                -1.064
REMARK  Name = /home/vital/Documents/PhD_2021/Malaria_codes/data/pdb_ligands_mmv/ligand_110.pdb
REMARK  7 active torsions:
REMARK  status: ('A' for Active; 'I' for Inactive)
REMARK    1  A    between atoms: C1_1  and  C2_2
REMARK    2  A    between atoms: C2_2  and  C24_29
REMARK    3  A    between atoms: C3_3  and  C4_4
REMARK    4  A    between atoms: C4_4  and  N1_5
REMARK    5  A    between atoms: C7_8  and  C10_11
REMARK    6  A    between atoms: N2_13  and  C11_14
REMARK    7  A    between atoms: C14_17  and  C17_20
REMARK                            x       y       z     vdW  Elec       q    Type
REMARK                         _______ _______ _______ _____ _____    ______ ____
ROOT
ATOM      1  C11 UNL     1     151.174 158.468 158.169  0.00  0.00    +0.033 A 
ATOM      2  C12 UNL     1     151.358 157.087 158.032  0.00  0.00    +0.024 A 
ATOM      3  C13 UNL     1     151.740 156.530 156.804  0.00  0.00    +0.013 A 
ATOM      4  C14 UNL     1     151.947 157.345 155.685  0.00  0.00    +0.017 A 
ATOM      5  C15 UNL     1     151.770 158.726 155.833  0.00  0.00    +0.013 A 
ATOM      6  C16 UNL     1     151.384 159.284 157.060  0.00  0.00    +0.024 A 
ENDROOT
BRANCH   4   7
ATOM      7  C17 UNL     1     152.358 156.809 154.384  0.00  0.00    +0.139 A 
ATOM      8  N3  UNL     1     153.584 156.447 154.046  0.00  0.00    -0.228 NA
ATOM      9  C18 UNL     1     153.513 156.007 152.750  0.00  0.00    +0.089 A 
ATOM     10  C19 UNL     1     154.519 155.500 151.915  0.00  0.00    +0.030 A 
ATOM     11  C20 UNL     1     154.180 155.116 150.611  0.00  0.00    +0.002 A 
ATOM     12  C21 UNL     1     152.867 155.237 150.149  0.00  0.00    +0.002 A 
ATOM     13  C22 UNL     1     151.849 155.743 150.968  0.00  0.00    +0.028 A 
ATOM     14  C23 UNL     1     152.217 156.113 152.262  0.00  0.00    +0.066 A 
ATOM     15  N4  UNL     1     151.508 156.633 153.314  0.00  0.00    -0.338 N 
ATOM     16  H25 UNL     1     150.528 156.869 153.299  0.00  0.00    +0.167 HD
ENDBRANCH   4   7
BRANCH   1  19
ATOM     17  C10 UNL     1     151.644 159.486 160.414  0.00  0.00    +0.220 C 
ATOM     18  O1  UNL     1     152.844 159.710 160.293  0.00  0.00    -0.275 OA
ATOM     19  N2  UNL     1     150.811 158.946 159.445  0.00  0.00    -0.285 N 
ATOM     20  H16 UNL     1     149.825 158.916 159.667  0.00  0.00    +0.155 HD
BRANCH  17  24
ATOM     21  N1  UNL     1     150.300 160.426 164.367  0.00  0.00    -0.299 NA
ATOM     22  C5  UNL     1     150.327 161.559 163.434  0.00  0.00    +0.085 C 
ATOM     23  C6  UNL     1     151.073 161.254 162.131  0.00  0.00    +0.028 C 
ATOM     24  C7  UNL     1     150.891 159.794 161.708  0.00  0.00    +0.078 C 
ATOM     25  C8  UNL     1     151.342 158.842 162.834  0.00  0.00    +0.028 C 
ATOM     26  C9  UNL     1     151.434 159.525 164.202  0.00  0.00    +0.085 C 
BRANCH  21  27
ATOM     27  C4  UNL     1     150.041 160.831 165.751  0.00  0.00    +0.111 C 
BRANCH  27  30
ATOM     28  C1  UNL     1     150.299 163.542 167.349  0.00  0.00    +0.038 C 
ATOM     29  C2  UNL     1     151.363 162.489 167.208  0.00  0.00    -0.078 C 
ATOM     30  C3  UNL     1     151.238 161.343 166.507  0.00  0.00    -0.013 C 
ATOM     31  C24 UNL     1     152.650 162.814 167.920  0.00  0.00    +0.038 C 
ENDBRANCH  27  30
ENDBRANCH  21  27
ENDBRANCH  17  24
ENDBRANCH   1  19
TORSDOF 5
ENDMDL
MODEL 5
REMARK VINA RESULT:    -5.359      2.137      3.143
REMARK INTER + INTRA:          -7.989
REMARK INTER:                  -6.908
REMARK INTRA:                  -1.080
REMARK UNBOUND:                -1.064
REMARK  Name = /home/vital/Documents/PhD_2021/Malaria_codes/data/pdb_ligands_mmv/ligand_110.pdb
REMARK  7 active torsions:
REMARK  status: ('A' for Active; 'I' for Inactive)
REMARK    1  A    between atoms: C1_1  and  C2_2
REMARK    2  A    between atoms: C2_2  and  C24_29
REMARK    3  A    between atoms: C3_3  and  C4_4
REMARK    4  A    between atoms: C4_4  and  N1_5
REMARK    5  A    between atoms: C7_8  and  C10_11
REMARK    6  A    between atoms: N2_13  and  C11_14
REMARK    7  A    between atoms: C14_17  and  C17_20
REMARK                            x       y       z     vdW  Elec       q    Type
REMARK                         _______ _______ _______ _____ _____    ______ ____
ROOT
ATOM      1  C11 UNL     1     151.295 157.956 159.876  0.00  0.00    +0.033 A 
ATOM      2  C12 UNL     1     151.195 156.614 159.490  0.00  0.00    +0.024 A 
ATOM      3  C13 UNL     1     151.341 156.238 158.148  0.00  0.00    +0.013 A 
ATOM      4  C14 UNL     1     151.590 157.199 157.162  0.00  0.00    +0.017 A 
ATOM      5  C15 UNL     1     151.698 158.538 157.557  0.00  0.00    +0.013 A 
ATOM      6  C16 UNL     1     151.548 158.915 158.898  0.00  0.00    +0.024 A 
ENDROOT
BRANCH   4   7
ATOM      7  C17 UNL     1     151.762 156.852 155.747  0.00  0.00    +0.139 A 
ATOM      8  N3  UNL     1     152.295 157.626 154.818  0.00  0.00    -0.228 NA
ATOM      9  C18 UNL     1     152.257 156.907 153.650  0.00  0.00    +0.089 A 
ATOM     10  C19 UNL     1     152.705 157.252 152.366  0.00  0.00    +0.030 A 
ATOM     11  C20 UNL     1     152.546 156.326 151.328  0.00  0.00    +0.002 A 
ATOM     12  C21 UNL     1     151.952 155.083 151.564  0.00  0.00    +0.002 A 
ATOM     13  C22 UNL     1     151.497 154.722 152.839  0.00  0.00    +0.028 A 
ATOM     14  C23 UNL     1     151.673 155.665 153.853  0.00  0.00    +0.066 A 
ATOM     15  N4  UNL     1     151.360 155.659 155.188  0.00  0.00    -0.338 N 
ATOM     16  H25 UNL     1     150.890 154.912 155.675  0.00  0.00    +0.167 HD
ENDBRANCH   4   7
BRANCH   1  19
ATOM     17  C10 UNL     1     152.113 158.099 162.243  0.00  0.00    +0.220 C 
ATOM     18  O1  UNL     1     153.281 157.761 162.080  0.00  0.00    -0.275 OA
ATOM     19  N2  UNL     1     151.157 158.244 161.249  0.00  0.00    -0.285 N 
ATOM     20  H16 UNL     1     150.265 158.625 161.536  0.00  0.00    +0.155 HD
BRANCH  17  24
ATOM     21  N1  UNL     1     151.341 159.015 166.352  0.00  0.00    -0.299 NA
ATOM     22  C5  UNL     1     151.320 160.168 165.444  0.00  0.00    +0.085 C 
ATOM     23  C6  UNL     1     151.874 159.853 164.050  0.00  0.00    +0.028 C 
ATOM     24  C7  UNL     1     151.550 158.418 163.629  0.00  0.00    +0.078 C 
ATOM     25  C8  UNL     1     152.080 157.413 164.670  0.00  0.00    +0.028 C 
ATOM     26  C9  UNL     1     152.387 158.053 166.027  0.00  0.00    +0.085 C 
BRANCH  21  27
ATOM     27  C4  UNL     1     151.284 159.399 167.765  0.00  0.00    +0.111 C 
BRANCH  27  30
ATOM     28  C1  UNL     1     153.034 161.962 168.351  0.00  0.00    +0.038 C 
ATOM     29  C2  UNL     1     153.368 160.550 168.741  0.00  0.00    -0.078 C 
ATOM     30  C3  UNL     1     152.615 159.465 168.468  0.00  0.00    -0.013 C 
ATOM     31  C24 UNL     1     154.673 160.408 169.481  0.00  0.00    +0.038 C 
ENDBRANCH  27  30
ENDBRANCH  21  27
ENDBRANCH  17  24
ENDBRANCH   1  19
TORSDOF 5
ENDMDL
MODEL 6
REMARK VINA RESULT:    -5.264      2.863     11.717
REMARK INTER + INTRA:          -7.866
REMARK INTER:                  -7.021
REMARK INTRA:                  -0.846
REMARK UNBOUND:                -1.064
REMARK  Name = /home/vital/Documents/PhD_2021/Malaria_codes/data/pdb_ligands_mmv/ligand_110.pdb
REMARK  7 active torsions:
REMARK  status: ('A' for Active; 'I' for Inactive)
REMARK    1  A    between atoms: C1_1  and  C2_2
REMARK    2  A    between atoms: C2_2  and  C24_29
REMARK    3  A    between atoms: C3_3  and  C4_4
REMARK    4  A    between atoms: C4_4  and  N1_5
REMARK    5  A    between atoms: C7_8  and  C10_11
REMARK    6  A    between atoms: N2_13  and  C11_14
REMARK    7  A    between atoms: C14_17  and  C17_20
REMARK                            x       y       z     vdW  Elec       q    Type
REMARK                         _______ _______ _______ _____ _____    ______ ____
ROOT
ATOM      1  C11 UNL     1     151.751 158.490 161.002  0.00  0.00    +0.033 A 
ATOM      2  C12 UNL     1     151.425 159.780 161.441  0.00  0.00    +0.024 A 
ATOM      3  C13 UNL     1     151.686 160.180 162.758  0.00  0.00    +0.013 A 
ATOM      4  C14 UNL     1     152.280 159.296 163.667  0.00  0.00    +0.017 A 
ATOM      5  C15 UNL     1     152.612 158.012 163.218  0.00  0.00    +0.013 A 
ATOM      6  C16 UNL     1     152.347 157.610 161.902  0.00  0.00    +0.024 A 
ENDROOT
BRANCH   4   7
ATOM      7  C17 UNL     1     152.583 159.674 165.051  0.00  0.00    +0.139 A 
ATOM      8  N3  UNL     1     151.972 159.218 166.131  0.00  0.00    -0.228 NA
ATOM      9  C18 UNL     1     152.571 159.831 167.201  0.00  0.00    +0.089 A 
ATOM     10  C19 UNL     1     152.318 159.696 168.574  0.00  0.00    +0.030 A 
ATOM     11  C20 UNL     1     153.081 160.449 169.475  0.00  0.00    +0.002 A 
ATOM     12  C21 UNL     1     154.074 161.319 169.018  0.00  0.00    +0.002 A 
ATOM     13  C22 UNL     1     154.340 161.469 167.650  0.00  0.00    +0.028 A 
ATOM     14  C23 UNL     1     153.566 160.702 166.778  0.00  0.00    +0.066 A 
ATOM     15  N4  UNL     1     153.546 160.591 165.411  0.00  0.00    -0.338 N 
ATOM     16  H25 UNL     1     154.126 161.112 164.773  0.00  0.00    +0.167 HD
ENDBRANCH   4   7
BRANCH   1  19
ATOM     17  C10 UNL     1     150.993 156.980 159.148  0.00  0.00    +0.220 C 
ATOM     18  O1  UNL     1     150.652 156.001 159.804  0.00  0.00    -0.275 OA
ATOM     19  N2  UNL     1     151.474 158.178 159.656  0.00  0.00    -0.285 N 
ATOM     20  H16 UNL     1     151.618 158.924 158.988  0.00  0.00    +0.155 HD
BRANCH  17  24
ATOM     21  N1  UNL     1     151.552 157.359 154.922  0.00  0.00    -0.299 NA
ATOM     22  C5  UNL     1     151.845 156.030 155.471  0.00  0.00    +0.085 C 
ATOM     23  C6  UNL     1     151.910 156.006 157.001  0.00  0.00    +0.028 C 
ATOM     24  C7  UNL     1     150.920 156.995 157.621  0.00  0.00    +0.078 C 
ATOM     25  C8  UNL     1     151.164 158.418 157.083  0.00  0.00    +0.028 C 
ATOM     26  C9  UNL     1     151.988 158.444 155.793  0.00  0.00    +0.085 C 
BRANCH  21  27
ATOM     27  C4  UNL     1     151.957 157.502 153.521  0.00  0.00    +0.111 C 
BRANCH  27  30
ATOM     28  C1  UNL     1     152.504 155.790 150.925  0.00  0.00    +0.038 C 
ATOM     29  C2  UNL     1     153.484 156.063 152.032  0.00  0.00    -0.078 C 
ATOM     30  C3  UNL     1     153.226 156.784 153.142  0.00  0.00    -0.013 C 
ATOM     31  C24 UNL     1     154.837 155.435 151.825  0.00  0.00    +0.038 C 
ENDBRANCH  27  30
ENDBRANCH  21  27
ENDBRANCH  17  24
ENDBRANCH   1  19
TORSDOF 5
ENDMDL
MODEL 7
REMARK VINA RESULT:    -5.071      3.290     12.095
REMARK INTER + INTRA:          -7.617
REMARK INTER:                  -6.610
REMARK INTRA:                  -1.007
REMARK UNBOUND:                -1.064
REMARK  Name = /home/vital/Documents/PhD_2021/Malaria_codes/data/pdb_ligands_mmv/ligand_110.pdb
REMARK  7 active torsions:
REMARK  status: ('A' for Active; 'I' for Inactive)
REMARK    1  A    between atoms: C1_1  and  C2_2
REMARK    2  A    between atoms: C2_2  and  C24_29
REMARK    3  A    between atoms: C3_3  and  C4_4
REMARK    4  A    between atoms: C4_4  and  N1_5
REMARK    5  A    between atoms: C7_8  and  C10_11
REMARK    6  A    between atoms: N2_13  and  C11_14
REMARK    7  A    between atoms: C14_17  and  C17_20
REMARK                            x       y       z     vdW  Elec       q    Type
REMARK                         _______ _______ _______ _____ _____    ______ ____
ROOT
ATOM      1  C11 UNL     1     151.264 159.240 162.395  0.00  0.00    +0.033 A 
ATOM      2  C12 UNL     1     150.785 160.448 162.917  0.00  0.00    +0.024 A 
ATOM      3  C13 UNL     1     151.023 160.801 164.252  0.00  0.00    +0.013 A 
ATOM      4  C14 UNL     1     151.749 159.952 165.095  0.00  0.00    +0.017 A 
ATOM      5  C15 UNL     1     152.233 158.751 164.564  0.00  0.00    +0.013 A 
ATOM      6  C16 UNL     1     151.991 158.394 163.230  0.00  0.00    +0.024 A 
ENDROOT
BRANCH   4   7
ATOM      7  C17 UNL     1     152.034 160.285 166.494  0.00  0.00    +0.139 A 
ATOM      8  N3  UNL     1     153.205 160.658 166.980  0.00  0.00    -0.228 NA
ATOM      9  C18 UNL     1     153.017 160.868 168.322  0.00  0.00    +0.089 A 
ATOM     10  C19 UNL     1     153.927 161.286 169.304  0.00  0.00    +0.030 A 
ATOM     11  C20 UNL     1     153.475 161.424 170.623  0.00  0.00    +0.002 A 
ATOM     12  C21 UNL     1     152.147 161.148 170.956  0.00  0.00    +0.002 A 
ATOM     13  C22 UNL     1     151.224 160.727 169.989  0.00  0.00    +0.028 A 
ATOM     14  C23 UNL     1     151.703 160.604 168.684  0.00  0.00    +0.066 A 
ATOM     15  N4  UNL     1     151.104 160.227 167.510  0.00  0.00    -0.338 N 
ATOM     16  H25 UNL     1     150.145 159.933 167.410  0.00  0.00    +0.167 HD
ENDBRANCH   4   7
BRANCH   1  19
ATOM     17  C10 UNL     1     150.170 157.989 160.516  0.00  0.00    +0.220 C 
ATOM     18  O1  UNL     1     149.464 157.222 161.162  0.00  0.00    -0.275 OA
ATOM     19  N2  UNL     1     150.997 158.973 161.037  0.00  0.00    -0.285 N 
ATOM     20  H16 UNL     1     151.440 159.589 160.368  0.00  0.00    +0.155 HD
BRANCH  17  24
ATOM     21  N1  UNL     1     151.066 158.227 156.338  0.00  0.00    -0.299 NA
ATOM     22  C5  UNL     1     151.325 156.921 156.956  0.00  0.00    +0.085 C 
ATOM     23  C6  UNL     1     151.266 156.951 158.486  0.00  0.00    +0.028 C 
ATOM     24  C7  UNL     1     150.221 157.950 158.989  0.00  0.00    +0.078 C 
ATOM     25  C8  UNL     1     150.496 159.356 158.422  0.00  0.00    +0.028 C 
ATOM     26  C9  UNL     1     151.421 159.346 157.201  0.00  0.00    +0.085 C 
BRANCH  21  27
ATOM     27  C4  UNL     1     151.582 158.325 154.970  0.00  0.00    +0.111 C 
BRANCH  27  30
ATOM     28  C1  UNL     1     152.117 157.297 152.033  0.00  0.00    +0.038 C 
ATOM     29  C2  UNL     1     152.735 156.754 153.291  0.00  0.00    -0.078 C 
ATOM     30  C3  UNL     1     152.482 157.197 154.539  0.00  0.00    -0.013 C 
ATOM     31  C24 UNL     1     153.694 155.614 153.064  0.00  0.00    +0.038 C 
ENDBRANCH  27  30
ENDBRANCH  21  27
ENDBRANCH  17  24
ENDBRANCH   1  19
TORSDOF 5
ENDMDL
MODEL 8
REMARK VINA RESULT:    -5.027      2.938      3.628
REMARK INTER + INTRA:          -7.560
REMARK INTER:                  -6.528
REMARK INTRA:                  -1.032
REMARK UNBOUND:                -1.064
REMARK  Name = /home/vital/Documents/PhD_2021/Malaria_codes/data/pdb_ligands_mmv/ligand_110.pdb
REMARK  7 active torsions:
REMARK  status: ('A' for Active; 'I' for Inactive)
REMARK    1  A    between atoms: C1_1  and  C2_2
REMARK    2  A    between atoms: C2_2  and  C24_29
REMARK    3  A    between atoms: C3_3  and  C4_4
REMARK    4  A    between atoms: C4_4  and  N1_5
REMARK    5  A    between atoms: C7_8  and  C10_11
REMARK    6  A    between atoms: N2_13  and  C11_14
REMARK    7  A    between atoms: C14_17  and  C17_20
REMARK                            x       y       z     vdW  Elec       q    Type
REMARK                         _______ _______ _______ _____ _____    ______ ____
ROOT
ATOM      1  C11 UNL     1     150.935 158.794 160.180  0.00  0.00    +0.033 A 
ATOM      2  C12 UNL     1     151.383 157.481 159.987  0.00  0.00    +0.024 A 
ATOM      3  C13 UNL     1     151.593 156.973 158.698  0.00  0.00    +0.013 A 
ATOM      4  C14 UNL     1     151.359 157.770 157.572  0.00  0.00    +0.017 A 
ATOM      5  C15 UNL     1     150.920 159.085 157.772  0.00  0.00    +0.013 A 
ATOM      6  C16 UNL     1     150.705 159.592 159.062  0.00  0.00    +0.024 A 
ENDROOT
BRANCH   4   7
ATOM      7  C17 UNL     1     151.576 157.287 156.205  0.00  0.00    +0.139 A 
ATOM      8  N3  UNL     1     151.452 156.036 155.795  0.00  0.00    -0.228 NA
ATOM      9  C18 UNL     1     151.745 156.038 154.455  0.00  0.00    +0.089 A 
ATOM     10  C19 UNL     1     151.752 154.981 153.534  0.00  0.00    +0.030 A 
ATOM     11  C20 UNL     1     152.094 155.252 152.203  0.00  0.00    +0.002 A 
ATOM     12  C21 UNL     1     152.423 156.548 151.799  0.00  0.00    +0.002 A 
ATOM     13  C22 UNL     1     152.423 157.617 152.706  0.00  0.00    +0.028 A 
ATOM     14  C23 UNL     1     152.075 157.315 154.023  0.00  0.00    +0.066 A 
ATOM     15  N4  UNL     1     151.970 158.086 155.153  0.00  0.00    -0.338 N 
ATOM     16  H25 UNL     1     152.170 159.072 155.209  0.00  0.00    +0.167 HD
ENDBRANCH   4   7
BRANCH   1  19
ATOM     17  C10 UNL     1     151.565 160.127 162.210  0.00  0.00    +0.220 C 
ATOM     18  O1  UNL     1     152.515 160.757 161.758  0.00  0.00    -0.275 OA
ATOM     19  N2  UNL     1     150.770 159.230 161.510  0.00  0.00    -0.285 N 
ATOM     20  H16 UNL     1     149.964 158.866 162.001  0.00  0.00    +0.155 HD
BRANCH  17  24
ATOM     21  N1  UNL     1     151.141 160.432 166.457  0.00  0.00    -0.299 NA
ATOM     22  C5  UNL     1     151.178 161.714 165.743  0.00  0.00    +0.085 C 
ATOM     23  C6  UNL     1     151.612 161.580 164.280  0.00  0.00    +0.028 C 
ATOM     24  C7  UNL     1     151.122 160.266 163.667  0.00  0.00    +0.078 C 
ATOM     25  C8  UNL     1     151.613 159.063 164.496  0.00  0.00    +0.028 C 
ATOM     26  C9  UNL     1     152.064 159.447 165.908  0.00  0.00    +0.085 C 
BRANCH  21  27
ATOM     27  C4  UNL     1     151.210 160.587 167.913  0.00  0.00    +0.111 C 
BRANCH  27  30
ATOM     28  C1  UNL     1     153.668 162.483 168.490  0.00  0.00    +0.038 C 
ATOM     29  C2  UNL     1     153.584 161.016 168.807  0.00  0.00    -0.078 C 
ATOM     30  C3  UNL     1     152.530 160.219 168.538  0.00  0.00    -0.013 C 
ATOM     31  C24 UNL     1     154.819 160.455 169.462  0.00  0.00    +0.038 C 
ENDBRANCH  27  30
ENDBRANCH  21  27
ENDBRANCH  17  24
ENDBRANCH   1  19
TORSDOF 5
ENDMDL
MODEL 9
REMARK VINA RESULT:    -4.855      3.630     11.756
REMARK INTER + INTRA:          -7.337
REMARK INTER:                  -6.305
REMARK INTRA:                  -1.032
REMARK UNBOUND:                -1.064
REMARK  Name = /home/vital/Documents/PhD_2021/Malaria_codes/data/pdb_ligands_mmv/ligand_110.pdb
REMARK  7 active torsions:
REMARK  status: ('A' for Active; 'I' for Inactive)
REMARK    1  A    between atoms: C1_1  and  C2_2
REMARK    2  A    between atoms: C2_2  and  C24_29
REMARK    3  A    between atoms: C3_3  and  C4_4
REMARK    4  A    between atoms: C4_4  and  N1_5
REMARK    5  A    between atoms: C7_8  and  C10_11
REMARK    6  A    between atoms: N2_13  and  C11_14
REMARK    7  A    between atoms: C14_17  and  C17_20
REMARK                            x       y       z     vdW  Elec       q    Type
REMARK                         _______ _______ _______ _____ _____    ______ ____
ROOT
ATOM      1  C11 UNL     1     151.475 159.388 160.900  0.00  0.00    +0.033 A 
ATOM      2  C12 UNL     1     151.543 158.617 162.067  0.00  0.00    +0.024 A 
ATOM      3  C13 UNL     1     151.614 159.224 163.328  0.00  0.00    +0.013 A 
ATOM      4  C14 UNL     1     151.618 160.619 163.448  0.00  0.00    +0.017 A 
ATOM      5  C15 UNL     1     151.539 161.383 162.278  0.00  0.00    +0.013 A 
ATOM      6  C16 UNL     1     151.473 160.776 161.016  0.00  0.00    +0.024 A 
ENDROOT
BRANCH   4   7
ATOM      7  C17 UNL     1     151.678 161.298 164.746  0.00  0.00    +0.139 A 
ATOM      8  N3  UNL     1     152.752 161.423 165.507  0.00  0.00    -0.228 NA
ATOM      9  C18 UNL     1     152.358 162.123 166.618  0.00  0.00    +0.089 A 
ATOM     10  C19 UNL     1     153.103 162.539 167.731  0.00  0.00    +0.030 A 
ATOM     11  C20 UNL     1     152.452 163.251 168.747  0.00  0.00    +0.002 A 
ATOM     12  C21 UNL     1     151.089 163.541 168.657  0.00  0.00    +0.002 A 
ATOM     13  C22 UNL     1     150.328 163.132 167.553  0.00  0.00    +0.028 A 
ATOM     14  C23 UNL     1     151.005 162.428 166.556  0.00  0.00    +0.066 A 
ATOM     15  N4  UNL     1     150.596 161.886 165.365  0.00  0.00    -0.338 N 
ATOM     16  H25 UNL     1     149.653 161.895 165.011  0.00  0.00    +0.167 HD
ENDBRANCH   4   7
BRANCH   1  19
ATOM     17  C10 UNL     1     150.298 158.641 158.814  0.00  0.00    +0.220 C 
ATOM     18  O1  UNL     1     149.243 159.253 158.940  0.00  0.00    -0.275 OA
ATOM     19  N2  UNL     1     151.385 158.696 159.675  0.00  0.00    -0.285 N 
ATOM     20  H16 UNL     1     152.219 158.207 159.378  0.00  0.00    +0.155 HD
BRANCH  17  24
ATOM     21  N1  UNL     1     151.812 156.188 155.651  0.00  0.00    -0.299 NA
ATOM     22  C5  UNL     1     151.509 155.476 156.898  0.00  0.00    +0.085 C 
ATOM     23  C6  UNL     1     151.245 156.412 158.082  0.00  0.00    +0.028 C 
ATOM     24  C7  UNL     1     150.551 157.701 157.635  0.00  0.00    +0.078 C 
ATOM     25  C8  UNL     1     151.377 158.413 156.545  0.00  0.00    +0.028 C 
ATOM     26  C9  UNL     1     152.406 157.500 155.873  0.00  0.00    +0.085 C 
BRANCH  21  27
ATOM     27  C4  UNL     1     152.522 155.356 154.675  0.00  0.00    +0.111 C 
BRANCH  27  30
ATOM     28  C1  UNL     1     153.722 156.536 152.003  0.00  0.00    +0.038 C 
ATOM     29  C2  UNL     1     152.417 155.803 152.144  0.00  0.00    -0.078 C 
ATOM     30  C3  UNL     1     151.914 155.319 153.297  0.00  0.00    -0.013 C 
ATOM     31  C24 UNL     1     151.657 155.646 150.852  0.00  0.00    +0.038 C 
ENDBRANCH  27  30
ENDBRANCH  21  27
ENDBRANCH  17  24
ENDBRANCH   1  19
TORSDOF 5
ENDMDL
