MODEL 1
REMARK VINA RESULT:    -4.207      0.000      0.000
REMARK INTER + INTRA:          -7.848
REMARK INTER:                  -5.683
REMARK INTRA:                  -2.165
REMARK UNBOUND:                -2.165
REMARK  Name = /home/vital/Documents/PhD_2021/Malaria_codes/data/pdb_ligands_mmv/ligand_332.pdb
REMARK  9 active torsions:
REMARK  status: ('A' for Active; 'I' for Inactive)
REMARK    1  A    between atoms: N2_5  and  C4_6
REMARK    2  A    between atoms: C4_6  and  C5_7
REMARK    3  A    between atoms: C5_7  and  C6_8
REMARK    4  A    between atoms: C6_8  and  N3_9
REMARK    5  A    between atoms: N3_9  and  C7_10
REMARK    6  A    between atoms: N3_9  and  C8_11
REMARK    7  A    between atoms: C20_25  and  C21_26
REMARK    8  A    between atoms: C24_29  and  O2_30
REMARK    9  A    between atoms: O2_30  and  C25_31
REMARK                            x       y       z     vdW  Elec       q    Type
REMARK                         _______ _______ _______ _____ _____    ______ ____
ROOT
ATOM      1  C1  UNL     1     152.119 158.359 165.098  0.00  0.00    +0.068 A 
ATOM      2  C2  UNL     1     151.243 157.567 164.445  0.00  0.00    +0.229 A 
ATOM      3  N1  UNL     1     150.634 157.886 163.246  0.00  0.00    -0.202 NA
ATOM      4  C3  UNL     1     150.948 159.029 162.730  0.00  0.00    +0.204 A 
ATOM      5  N2  UNL     1     151.839 159.943 163.248  0.00  0.00    -0.317 N 
ATOM      6  C9  UNL     1     152.520 159.627 164.415  0.00  0.00    +0.136 A 
ATOM      7  N4  UNL     1     153.478 160.325 164.943  0.00  0.00    -0.283 NA
ATOM      8  O1  UNL     1     150.866 156.331 164.965  0.00  0.00    -0.437 OA
ATOM      9  C10 UNL     1     151.599 155.763 165.987  0.00  0.00    +0.142 A 
ATOM     10  C11 UNL     1     152.524 156.513 166.724  0.00  0.00    +0.008 A 
ATOM     11  C12 UNL     1     153.243 155.890 167.751  0.00  0.00    +0.009 A 
ATOM     12  C13 UNL     1     153.036 154.541 168.040  0.00  0.00    +0.009 A 
ATOM     13  C14 UNL     1     152.105 153.784 167.313  0.00  0.00    -0.014 A 
ATOM     14  C15 UNL     1     151.894 152.428 167.611  0.00  0.00    +0.008 A 
ATOM     15  C16 UNL     1     150.969 151.671 166.892  0.00  0.00    +0.001 A 
ATOM     16  C17 UNL     1     150.243 152.261 165.864  0.00  0.00    +0.001 A 
ATOM     17  C18 UNL     1     150.440 153.608 165.557  0.00  0.00    +0.012 A 
ATOM     18  C19 UNL     1     151.368 154.395 166.270  0.00  0.00    +0.025 A 
ATOM     19  C20 UNL     1     152.714 157.991 166.425  0.00  0.00    +0.091 C 
ATOM     20  H14 UNL     1     153.686 161.157 164.397  0.00  0.00    +0.188 HD
ENDROOT
BRANCH  19  21
ATOM     21  C21 UNL     1     152.172 158.865 167.559  0.00  0.00    -0.035 A 
ATOM     22  C22 UNL     1     153.023 159.635 168.368  0.00  0.00    +0.008 A 
ATOM     23  C23 UNL     1     152.502 160.425 169.397  0.00  0.00    +0.046 A 
ATOM     24  C24 UNL     1     151.129 160.460 169.646  0.00  0.00    +0.120 A 
ATOM     25  C26 UNL     1     150.275 159.692 168.853  0.00  0.00    +0.046 A 
ATOM     26  C27 UNL     1     150.794 158.901 167.821  0.00  0.00    +0.008 A 
BRANCH  24  27
ATOM     27  O2  UNL     1     150.755 161.271 170.681  0.00  0.00    -0.495 OA
ATOM     28  C25 UNL     1     151.107 162.644 170.578  0.00  0.00    +0.277 C 
ENDBRANCH  24  27
ENDBRANCH  19  21
BRANCH   5  29
ATOM     29  C4  UNL     1     152.065 161.190 162.518  0.00  0.00    +0.126 C 
BRANCH  29  30
ATOM     30  C5  UNL     1     150.945 162.192 162.802  0.00  0.00    +0.037 C 
BRANCH  30  31
ATOM     31  C6  UNL     1     151.253 163.005 164.065  0.00  0.00    +0.085 C 
BRANCH  31  32
ATOM     32  N3  UNL     1     150.987 162.259 165.304  0.00  0.00    -0.308 NA
ATOM     33  C7  UNL     1     149.568 161.935 165.469  0.00  0.00    +0.104 C 
ATOM     34  C8  UNL     1     151.453 163.025 166.465  0.00  0.00    +0.104 C 
ENDBRANCH  31  32
ENDBRANCH  30  31
ENDBRANCH  29  30
ENDBRANCH   5  29
TORSDOF 6
ENDMDL
MODEL 2
REMARK VINA RESULT:    -3.991      4.193      8.228
REMARK INTER + INTRA:          -7.555
REMARK INTER:                  -6.862
REMARK INTRA:                  -0.692
REMARK UNBOUND:                -2.165
REMARK  Name = /home/vital/Documents/PhD_2021/Malaria_codes/data/pdb_ligands_mmv/ligand_332.pdb
REMARK  9 active torsions:
REMARK  status: ('A' for Active; 'I' for Inactive)
REMARK    1  A    between atoms: N2_5  and  C4_6
REMARK    2  A    between atoms: C4_6  and  C5_7
REMARK    3  A    between atoms: C5_7  and  C6_8
REMARK    4  A    between atoms: C6_8  and  N3_9
REMARK    5  A    between atoms: N3_9  and  C7_10
REMARK    6  A    between atoms: N3_9  and  C8_11
REMARK    7  A    between atoms: C20_25  and  C21_26
REMARK    8  A    between atoms: C24_29  and  O2_30
REMARK    9  A    between atoms: O2_30  and  C25_31
REMARK                            x       y       z     vdW  Elec       q    Type
REMARK                         _______ _______ _______ _____ _____    ______ ____
ROOT
ATOM      1  C1  UNL     1     151.439 157.029 162.251  0.00  0.00    +0.068 A 
ATOM      2  C2  UNL     1     151.171 158.193 161.624  0.00  0.00    +0.229 A 
ATOM      3  N1  UNL     1     151.124 159.429 162.244  0.00  0.00    -0.202 NA
ATOM      4  C3  UNL     1     151.364 159.443 163.514  0.00  0.00    +0.204 A 
ATOM      5  N2  UNL     1     151.678 158.356 164.299  0.00  0.00    -0.317 N 
ATOM      6  C9  UNL     1     151.801 157.110 163.700  0.00  0.00    +0.136 A 
ATOM      7  N4  UNL     1     152.219 156.029 164.284  0.00  0.00    -0.283 NA
ATOM      8  O1  UNL     1     150.897 158.229 160.260  0.00  0.00    -0.437 OA
ATOM      9  C10 UNL     1     151.189 157.134 159.471  0.00  0.00    +0.142 A 
ATOM     10  C11 UNL     1     151.471 155.884 160.037  0.00  0.00    +0.008 A 
ATOM     11  C12 UNL     1     151.762 154.804 159.195  0.00  0.00    +0.009 A 
ATOM     12  C13 UNL     1     151.765 154.971 157.810  0.00  0.00    +0.009 A 
ATOM     13  C14 UNL     1     151.475 156.218 157.234  0.00  0.00    -0.014 A 
ATOM     14  C15 UNL     1     151.474 156.380 155.839  0.00  0.00    +0.008 A 
ATOM     15  C16 UNL     1     151.186 157.617 155.261  0.00  0.00    +0.001 A 
ATOM     16  C17 UNL     1     150.897 158.708 156.072  0.00  0.00    +0.001 A 
ATOM     17  C18 UNL     1     150.894 158.562 157.460  0.00  0.00    +0.012 A 
ATOM     18  C19 UNL     1     151.180 157.321 158.069  0.00  0.00    +0.025 A 
ATOM     19  C20 UNL     1     151.427 155.705 161.546  0.00  0.00    +0.091 C 
ATOM     20  H14 UNL     1     152.454 156.192 165.259  0.00  0.00    +0.188 HD
ENDROOT
BRANCH  19  21
ATOM     21  C21 UNL     1     150.239 154.839 161.972  0.00  0.00    -0.035 A 
ATOM     22  C22 UNL     1     150.246 154.119 163.178  0.00  0.00    +0.008 A 
ATOM     23  C23 UNL     1     149.148 153.334 163.543  0.00  0.00    +0.046 A 
ATOM     24  C24 UNL     1     148.027 153.246 162.717  0.00  0.00    +0.120 A 
ATOM     25  C26 UNL     1     148.013 153.950 161.514  0.00  0.00    +0.046 A 
ATOM     26  C27 UNL     1     149.110 154.738 161.145  0.00  0.00    +0.008 A 
BRANCH  24  27
ATOM     27  O2  UNL     1     147.027 152.445 163.193  0.00  0.00    -0.495 OA
ATOM     28  C25 UNL     1     146.798 151.225 162.500  0.00  0.00    +0.277 C 
ENDBRANCH  24  27
ENDBRANCH  19  21
BRANCH   5  29
ATOM     29  C4  UNL     1     151.917 158.570 165.726  0.00  0.00    +0.126 C 
BRANCH  29  30
ATOM     30  C5  UNL     1     150.848 157.866 166.563  0.00  0.00    +0.037 C 
BRANCH  30  31
ATOM     31  C6  UNL     1     151.496 156.949 167.608  0.00  0.00    +0.085 C 
BRANCH  31  32
ATOM     32  N3  UNL     1     151.804 155.610 167.082  0.00  0.00    -0.308 NA
ATOM     33  C7  UNL     1     150.696 154.670 167.264  0.00  0.00    +0.104 C 
ATOM     34  C8  UNL     1     153.009 155.080 167.727  0.00  0.00    +0.104 C 
ENDBRANCH  31  32
ENDBRANCH  30  31
ENDBRANCH  29  30
ENDBRANCH   5  29
TORSDOF 6
ENDMDL
MODEL 3
REMARK VINA RESULT:    -3.954      3.229      6.915
REMARK INTER + INTRA:          -7.506
REMARK INTER:                  -6.527
REMARK INTRA:                  -0.979
REMARK UNBOUND:                -2.165
REMARK  Name = /home/vital/Documents/PhD_2021/Malaria_codes/data/pdb_ligands_mmv/ligand_332.pdb
REMARK  9 active torsions:
REMARK  status: ('A' for Active; 'I' for Inactive)
REMARK    1  A    between atoms: N2_5  and  C4_6
REMARK    2  A    between atoms: C4_6  and  C5_7
REMARK    3  A    between atoms: C5_7  and  C6_8
REMARK    4  A    between atoms: C6_8  and  N3_9
REMARK    5  A    between atoms: N3_9  and  C7_10
REMARK    6  A    between atoms: N3_9  and  C8_11
REMARK    7  A    between atoms: C20_25  and  C21_26
REMARK    8  A    between atoms: C24_29  and  O2_30
REMARK    9  A    between atoms: O2_30  and  C25_31
REMARK                            x       y       z     vdW  Elec       q    Type
REMARK                         _______ _______ _______ _____ _____    ______ ____
ROOT
ATOM      1  C1  UNL     1     151.508 156.574 164.242  0.00  0.00    +0.068 A 
ATOM      2  C2  UNL     1     151.087 157.722 163.673  0.00  0.00    +0.229 A 
ATOM      3  N1  UNL     1     151.046 158.948 164.310  0.00  0.00    -0.202 NA
ATOM      4  C3  UNL     1     151.450 158.971 165.537  0.00  0.00    +0.204 A 
ATOM      5  N2  UNL     1     151.932 157.902 166.259  0.00  0.00    -0.317 N 
ATOM      6  C9  UNL     1     152.051 156.670 165.632  0.00  0.00    +0.136 A 
ATOM      7  N4  UNL     1     152.609 155.614 166.141  0.00  0.00    -0.283 NA
ATOM      8  O1  UNL     1     150.634 157.748 162.356  0.00  0.00    -0.437 OA
ATOM      9  C10 UNL     1     150.887 156.678 161.521  0.00  0.00    +0.142 A 
ATOM     10  C11 UNL     1     151.318 155.446 162.028  0.00  0.00    +0.008 A 
ATOM     11  C12 UNL     1     151.562 154.391 161.140  0.00  0.00    +0.009 A 
ATOM     12  C13 UNL     1     151.372 154.565 159.768  0.00  0.00    +0.009 A 
ATOM     13  C14 UNL     1     150.932 155.794 159.253  0.00  0.00    -0.014 A 
ATOM     14  C15 UNL     1     150.736 155.964 157.873  0.00  0.00    +0.008 A 
ATOM     15  C16 UNL     1     150.298 157.183 157.355  0.00  0.00    +0.001 A 
ATOM     16  C17 UNL     1     150.051 158.250 158.212  0.00  0.00    +0.001 A 
ATOM     17  C18 UNL     1     150.240 158.096 159.586  0.00  0.00    +0.012 A 
ATOM     18  C19 UNL     1     150.681 156.872 160.135  0.00  0.00    +0.025 A 
ATOM     19  C20 UNL     1     151.484 155.256 163.526  0.00  0.00    +0.091 C 
ATOM     20  H14 UNL     1     152.960 155.786 167.079  0.00  0.00    +0.188 HD
ENDROOT
BRANCH  19  21
ATOM     21  C21 UNL     1     150.419 154.313 164.093  0.00  0.00    -0.035 A 
ATOM     22  C22 UNL     1     150.763 153.188 164.859  0.00  0.00    +0.008 A 
ATOM     23  C23 UNL     1     149.771 152.343 165.365  0.00  0.00    +0.046 A 
ATOM     24  C24 UNL     1     148.421 152.596 165.114  0.00  0.00    +0.120 A 
ATOM     25  C26 UNL     1     148.069 153.706 164.347  0.00  0.00    +0.046 A 
ATOM     26  C27 UNL     1     149.061 154.555 163.840  0.00  0.00    +0.008 A 
BRANCH  24  27
ATOM     27  O2  UNL     1     147.557 151.692 165.665  0.00  0.00    -0.495 OA
ATOM     28  C25 UNL     1     147.419 151.717 167.080  0.00  0.00    +0.277 C 
ENDBRANCH  24  27
ENDBRANCH  19  21
BRANCH   5  29
ATOM     29  C4  UNL     1     152.343 158.123 167.646  0.00  0.00    +0.126 C 
BRANCH  29  30
ATOM     30  C5  UNL     1     152.630 159.604 167.894  0.00  0.00    +0.037 C 
BRANCH  30  31
ATOM     31  C6  UNL     1     153.489 159.786 169.152  0.00  0.00    +0.085 C 
BRANCH  31  32
ATOM     32  N3  UNL     1     153.959 161.168 169.329  0.00  0.00    -0.308 NA
ATOM     33  C7  UNL     1     152.873 162.089 169.670  0.00  0.00    +0.104 C 
ATOM     34  C8  UNL     1     154.632 161.632 168.111  0.00  0.00    +0.104 C 
ENDBRANCH  31  32
ENDBRANCH  30  31
ENDBRANCH  29  30
ENDBRANCH   5  29
TORSDOF 6
ENDMDL
MODEL 4
REMARK VINA RESULT:    -3.927      3.366      6.880
REMARK INTER + INTRA:          -7.469
REMARK INTER:                  -6.206
REMARK INTRA:                  -1.263
REMARK UNBOUND:                -2.165
REMARK  Name = /home/vital/Documents/PhD_2021/Malaria_codes/data/pdb_ligands_mmv/ligand_332.pdb
REMARK  9 active torsions:
REMARK  status: ('A' for Active; 'I' for Inactive)
REMARK    1  A    between atoms: N2_5  and  C4_6
REMARK    2  A    between atoms: C4_6  and  C5_7
REMARK    3  A    between atoms: C5_7  and  C6_8
REMARK    4  A    between atoms: C6_8  and  N3_9
REMARK    5  A    between atoms: N3_9  and  C7_10
REMARK    6  A    between atoms: N3_9  and  C8_11
REMARK    7  A    between atoms: C20_25  and  C21_26
REMARK    8  A    between atoms: C24_29  and  O2_30
REMARK    9  A    between atoms: O2_30  and  C25_31
REMARK                            x       y       z     vdW  Elec       q    Type
REMARK                         _______ _______ _______ _____ _____    ______ ____
ROOT
ATOM      1  C1  UNL     1     151.504 156.477 164.016  0.00  0.00    +0.068 A 
ATOM      2  C2  UNL     1     151.077 157.574 163.357  0.00  0.00    +0.229 A 
ATOM      3  N1  UNL     1     150.974 158.836 163.912  0.00  0.00    -0.202 NA
ATOM      4  C3  UNL     1     151.325 158.949 165.151  0.00  0.00    +0.204 A 
ATOM      5  N2  UNL     1     151.806 157.943 165.959  0.00  0.00    -0.317 N 
ATOM      6  C9  UNL     1     151.986 156.677 165.417  0.00  0.00    +0.136 A 
ATOM      7  N4  UNL     1     152.552 155.673 166.015  0.00  0.00    -0.283 NA
ATOM      8  O1  UNL     1     150.678 157.502 162.025  0.00  0.00    -0.437 OA
ATOM      9  C10 UNL     1     150.996 156.391 161.271  0.00  0.00    +0.142 A 
ATOM     10  C11 UNL     1     151.440 155.206 161.873  0.00  0.00    +0.008 A 
ATOM     11  C12 UNL     1     151.751 154.106 161.064  0.00  0.00    +0.009 A 
ATOM     12  C13 UNL     1     151.613 154.188 159.678  0.00  0.00    +0.009 A 
ATOM     13  C14 UNL     1     151.161 155.368 159.068  0.00  0.00    -0.014 A 
ATOM     14  C15 UNL     1     151.019 155.444 157.673  0.00  0.00    +0.008 A 
ATOM     15  C16 UNL     1     150.569 156.614 157.061  0.00  0.00    +0.001 A 
ATOM     16  C17 UNL     1     150.256 157.724 157.837  0.00  0.00    +0.001 A 
ATOM     17  C18 UNL     1     150.392 157.663 159.225  0.00  0.00    +0.012 A 
ATOM     18  C19 UNL     1     150.843 156.491 159.868  0.00  0.00    +0.025 A 
ATOM     19  C20 UNL     1     151.548 155.117 163.385  0.00  0.00    +0.091 C 
ATOM     20  H14 UNL     1     152.858 155.915 166.954  0.00  0.00    +0.188 HD
ENDROOT
BRANCH  19  21
ATOM     21  C21 UNL     1     150.487 154.179 163.969  0.00  0.00    -0.035 A 
ATOM     22  C22 UNL     1     149.115 154.440 163.826  0.00  0.00    +0.008 A 
ATOM     23  C23 UNL     1     148.167 153.567 164.369  0.00  0.00    +0.046 A 
ATOM     24  C24 UNL     1     148.563 152.426 165.067  0.00  0.00    +0.120 A 
ATOM     25  C26 UNL     1     149.924 152.163 165.222  0.00  0.00    +0.046 A 
ATOM     26  C27 UNL     1     150.876 153.033 164.678  0.00  0.00    +0.008 A 
BRANCH  24  27
ATOM     27  O2  UNL     1     147.536 151.662 165.545  0.00  0.00    -0.495 OA
ATOM     28  C25 UNL     1     147.348 151.650 166.955  0.00  0.00    +0.277 C 
ENDBRANCH  24  27
ENDBRANCH  19  21
BRANCH   5  29
ATOM     29  C4  UNL     1     152.152 158.262 167.343  0.00  0.00    +0.126 C 
BRANCH  29  30
ATOM     30  C5  UNL     1     151.683 159.673 167.705  0.00  0.00    +0.037 C 
BRANCH  30  31
ATOM     31  C6  UNL     1     150.587 159.622 168.776  0.00  0.00    +0.085 C 
BRANCH  31  32
ATOM     32  N3  UNL     1     149.437 160.481 168.458  0.00  0.00    -0.308 NA
ATOM     33  C7  UNL     1     148.364 159.751 167.778  0.00  0.00    +0.104 C 
ATOM     34  C8  UNL     1     149.865 161.611 167.628  0.00  0.00    +0.104 C 
ENDBRANCH  31  32
ENDBRANCH  30  31
ENDBRANCH  29  30
ENDBRANCH   5  29
TORSDOF 6
ENDMDL
MODEL 5
REMARK VINA RESULT:    -3.894      8.297     12.192
REMARK INTER + INTRA:          -7.424
REMARK INTER:                  -6.313
REMARK INTRA:                  -1.110
REMARK UNBOUND:                -2.165
REMARK  Name = /home/vital/Documents/PhD_2021/Malaria_codes/data/pdb_ligands_mmv/ligand_332.pdb
REMARK  9 active torsions:
REMARK  status: ('A' for Active; 'I' for Inactive)
REMARK    1  A    between atoms: N2_5  and  C4_6
REMARK    2  A    between atoms: C4_6  and  C5_7
REMARK    3  A    between atoms: C5_7  and  C6_8
REMARK    4  A    between atoms: C6_8  and  N3_9
REMARK    5  A    between atoms: N3_9  and  C7_10
REMARK    6  A    between atoms: N3_9  and  C8_11
REMARK    7  A    between atoms: C20_25  and  C21_26
REMARK    8  A    between atoms: C24_29  and  O2_30
REMARK    9  A    between atoms: O2_30  and  C25_31
REMARK                            x       y       z     vdW  Elec       q    Type
REMARK                         _______ _______ _______ _____ _____    ______ ____
ROOT
ATOM      1  C1  UNL     1     145.919 148.489 164.281  0.00  0.00    +0.068 A 
ATOM      2  C2  UNL     1     145.943 147.802 163.120  0.00  0.00    +0.229 A 
ATOM      3  N1  UNL     1     146.251 148.349 161.888  0.00  0.00    -0.202 NA
ATOM      4  C3  UNL     1     146.539 149.609 161.875  0.00  0.00    +0.204 A 
ATOM      5  N2  UNL     1     146.586 150.448 162.966  0.00  0.00    -0.317 N 
ATOM      6  C9  UNL     1     146.349 149.920 164.227  0.00  0.00    +0.136 A 
ATOM      7  N4  UNL     1     146.490 150.556 165.351  0.00  0.00    -0.283 NA
ATOM      8  O1  UNL     1     145.631 146.446 163.081  0.00  0.00    -0.437 OA
ATOM      9  C10 UNL     1     145.590 145.716 164.252  0.00  0.00    +0.142 A 
ATOM     10  C11 UNL     1     145.554 146.347 165.502  0.00  0.00    +0.008 A 
ATOM     11  C12 UNL     1     145.514 145.562 166.661  0.00  0.00    +0.009 A 
ATOM     12  C13 UNL     1     145.503 144.170 166.570  0.00  0.00    +0.009 A 
ATOM     13  C14 UNL     1     145.530 143.530 165.322  0.00  0.00    -0.014 A 
ATOM     14  C15 UNL     1     145.514 142.128 165.234  0.00  0.00    +0.008 A 
ATOM     15  C16 UNL     1     145.540 141.486 163.996  0.00  0.00    +0.001 A 
ATOM     16  C17 UNL     1     145.584 142.239 162.828  0.00  0.00    +0.001 A 
ATOM     17  C18 UNL     1     145.600 143.633 162.899  0.00  0.00    +0.012 A 
ATOM     18  C19 UNL     1     145.573 144.305 164.139  0.00  0.00    +0.025 A 
ATOM     19  C20 UNL     1     145.527 147.864 165.587  0.00  0.00    +0.091 C 
ATOM     20  H14 UNL     1     146.800 151.513 165.208  0.00  0.00    +0.188 HD
ENDROOT
BRANCH  19  21
ATOM     21  C21 UNL     1     144.171 148.372 166.083  0.00  0.00    -0.035 A 
ATOM     22  C22 UNL     1     144.030 148.999 167.332  0.00  0.00    +0.008 A 
ATOM     23  C23 UNL     1     142.780 149.454 167.761  0.00  0.00    +0.046 A 
ATOM     24  C24 UNL     1     141.647 149.290 166.962  0.00  0.00    +0.120 A 
ATOM     25  C26 UNL     1     141.775 148.661 165.724  0.00  0.00    +0.046 A 
ATOM     26  C27 UNL     1     143.026 148.206 165.291  0.00  0.00    +0.008 A 
BRANCH  24  27
ATOM     27  O2  UNL     1     140.491 149.779 167.502  0.00  0.00    -0.495 OA
ATOM     28  C25 UNL     1     140.597 150.436 168.758  0.00  0.00    +0.277 C 
ENDBRANCH  24  27
ENDBRANCH  19  21
BRANCH   5  29
ATOM     29  C4  UNL     1     146.932 151.853 162.752  0.00  0.00    +0.126 C 
BRANCH  29  30
ATOM     30  C5  UNL     1     148.369 152.129 163.197  0.00  0.00    +0.037 C 
BRANCH  30  31
ATOM     31  C6  UNL     1     148.486 153.527 163.815  0.00  0.00    +0.085 C 
BRANCH  31  32
ATOM     32  N3  UNL     1     149.087 153.512 165.157  0.00  0.00    -0.308 NA
ATOM     33  C7  UNL     1     149.598 154.825 165.557  0.00  0.00    +0.104 C 
ATOM     34  C8  UNL     1     150.171 152.525 165.214  0.00  0.00    +0.104 C 
ENDBRANCH  31  32
ENDBRANCH  30  31
ENDBRANCH  29  30
ENDBRANCH   5  29
TORSDOF 6
ENDMDL
MODEL 6
REMARK VINA RESULT:    -3.824      2.795      6.794
REMARK INTER + INTRA:          -7.330
REMARK INTER:                  -6.316
REMARK INTRA:                  -1.014
REMARK UNBOUND:                -2.165
REMARK  Name = /home/vital/Documents/PhD_2021/Malaria_codes/data/pdb_ligands_mmv/ligand_332.pdb
REMARK  9 active torsions:
REMARK  status: ('A' for Active; 'I' for Inactive)
REMARK    1  A    between atoms: N2_5  and  C4_6
REMARK    2  A    between atoms: C4_6  and  C5_7
REMARK    3  A    between atoms: C5_7  and  C6_8
REMARK    4  A    between atoms: C6_8  and  N3_9
REMARK    5  A    between atoms: N3_9  and  C7_10
REMARK    6  A    between atoms: N3_9  and  C8_11
REMARK    7  A    between atoms: C20_25  and  C21_26
REMARK    8  A    between atoms: C24_29  and  O2_30
REMARK    9  A    between atoms: O2_30  and  C25_31
REMARK                            x       y       z     vdW  Elec       q    Type
REMARK                         _______ _______ _______ _____ _____    ______ ____
ROOT
ATOM      1  C1  UNL     1     151.373 157.070 164.513  0.00  0.00    +0.068 A 
ATOM      2  C2  UNL     1     152.076 158.158 164.136  0.00  0.00    +0.229 A 
ATOM      3  N1  UNL     1     152.609 158.353 162.875  0.00  0.00    -0.202 NA
ATOM      4  C3  UNL     1     152.397 157.414 162.012  0.00  0.00    +0.204 A 
ATOM      5  N2  UNL     1     151.683 156.256 162.221  0.00  0.00    -0.317 N 
ATOM      6  C9  UNL     1     151.077 156.057 163.454  0.00  0.00    +0.136 A 
ATOM      7  N4  UNL     1     150.268 155.086 163.751  0.00  0.00    -0.283 NA
ATOM      8  O1  UNL     1     152.339 159.191 165.032  0.00  0.00    -0.437 OA
ATOM      9  C10 UNL     1     151.636 159.267 166.218  0.00  0.00    +0.142 A 
ATOM     10  C11 UNL     1     150.886 158.183 166.690  0.00  0.00    +0.008 A 
ATOM     11  C12 UNL     1     150.191 158.310 167.899  0.00  0.00    +0.009 A 
ATOM     12  C13 UNL     1     150.250 159.500 168.625  0.00  0.00    +0.009 A 
ATOM     13  C14 UNL     1     151.005 160.589 168.163  0.00  0.00    -0.014 A 
ATOM     14  C15 UNL     1     151.067 161.783 168.899  0.00  0.00    +0.008 A 
ATOM     15  C16 UNL     1     151.817 162.867 168.445  0.00  0.00    +0.001 A 
ATOM     16  C17 UNL     1     152.516 162.772 167.247  0.00  0.00    +0.001 A 
ATOM     17  C18 UNL     1     152.465 161.592 166.505  0.00  0.00    +0.012 A 
ATOM     18  C19 UNL     1     151.715 160.480 166.943  0.00  0.00    +0.025 A 
ATOM     19  C20 UNL     1     150.861 156.879 165.911  0.00  0.00    +0.091 C 
ATOM     20  H14 UNL     1     150.120 154.463 162.962  0.00  0.00    +0.188 HD
ENDROOT
BRANCH  19  21
ATOM     21  C21 UNL     1     151.612 155.769 166.651  0.00  0.00    -0.035 A 
ATOM     22  C22 UNL     1     151.038 154.506 166.866  0.00  0.00    +0.008 A 
ATOM     23  C23 UNL     1     151.745 153.511 167.545  0.00  0.00    +0.046 A 
ATOM     24  C24 UNL     1     153.033 153.752 168.028  0.00  0.00    +0.120 A 
ATOM     25  C26 UNL     1     153.609 155.006 167.827  0.00  0.00    +0.046 A 
ATOM     26  C27 UNL     1     152.903 156.005 167.145  0.00  0.00    +0.008 A 
BRANCH  24  27
ATOM     27  O2  UNL     1     153.610 152.694 168.674  0.00  0.00    -0.495 OA
ATOM     28  C25 UNL     1     152.800 151.541 168.864  0.00  0.00    +0.277 C 
ENDBRANCH  24  27
ENDBRANCH  19  21
BRANCH   5  29
ATOM     29  C4  UNL     1     151.552 155.305 161.118  0.00  0.00    +0.126 C 
BRANCH  29  30
ATOM     30  C5  UNL     1     150.625 155.860 160.035  0.00  0.00    +0.037 C 
BRANCH  30  31
ATOM     31  C6  UNL     1     151.220 155.624 158.641  0.00  0.00    +0.085 C 
BRANCH  31  32
ATOM     32  N3  UNL     1     151.570 156.875 157.950  0.00  0.00    -0.308 NA
ATOM     33  C7  UNL     1     150.654 157.970 158.278  0.00  0.00    +0.104 C 
ATOM     34  C8  UNL     1     151.583 156.663 156.499  0.00  0.00    +0.104 C 
ENDBRANCH  31  32
ENDBRANCH  30  31
ENDBRANCH  29  30
ENDBRANCH   5  29
TORSDOF 6
ENDMDL
MODEL 7
REMARK VINA RESULT:    -3.671      1.518      2.606
REMARK INTER + INTRA:          -7.123
REMARK INTER:                  -6.012
REMARK INTRA:                  -1.111
REMARK UNBOUND:                -2.165
REMARK  Name = /home/vital/Documents/PhD_2021/Malaria_codes/data/pdb_ligands_mmv/ligand_332.pdb
REMARK  9 active torsions:
REMARK  status: ('A' for Active; 'I' for Inactive)
REMARK    1  A    between atoms: N2_5  and  C4_6
REMARK    2  A    between atoms: C4_6  and  C5_7
REMARK    3  A    between atoms: C5_7  and  C6_8
REMARK    4  A    between atoms: C6_8  and  N3_9
REMARK    5  A    between atoms: N3_9  and  C7_10
REMARK    6  A    between atoms: N3_9  and  C8_11
REMARK    7  A    between atoms: C20_25  and  C21_26
REMARK    8  A    between atoms: C24_29  and  O2_30
REMARK    9  A    between atoms: O2_30  and  C25_31
REMARK                            x       y       z     vdW  Elec       q    Type
REMARK                         _______ _______ _______ _____ _____    ______ ____
ROOT
ATOM      1  C1  UNL     1     151.980 158.505 164.820  0.00  0.00    +0.068 A 
ATOM      2  C2  UNL     1     151.074 157.743 164.174  0.00  0.00    +0.229 A 
ATOM      3  N1  UNL     1     150.463 158.087 162.983  0.00  0.00    -0.202 NA
ATOM      4  C3  UNL     1     150.805 159.222 162.468  0.00  0.00    +0.204 A 
ATOM      5  N2  UNL     1     151.729 160.106 162.981  0.00  0.00    -0.317 N 
ATOM      6  C9  UNL     1     152.412 159.764 164.139  0.00  0.00    +0.136 A 
ATOM      7  N4  UNL     1     153.397 160.431 164.660  0.00  0.00    -0.283 NA
ATOM      8  O1  UNL     1     150.665 156.517 164.692  0.00  0.00    -0.437 OA
ATOM      9  C10 UNL     1     151.391 155.922 165.704  0.00  0.00    +0.142 A 
ATOM     10  C11 UNL     1     152.347 156.640 166.433  0.00  0.00    +0.008 A 
ATOM     11  C12 UNL     1     153.058 155.991 167.450  0.00  0.00    +0.009 A 
ATOM     12  C13 UNL     1     152.812 154.648 167.735  0.00  0.00    +0.009 A 
ATOM     13  C14 UNL     1     151.851 153.923 167.015  0.00  0.00    -0.014 A 
ATOM     14  C15 UNL     1     151.603 152.572 167.309  0.00  0.00    +0.008 A 
ATOM     15  C16 UNL     1     150.648 151.847 166.596  0.00  0.00    +0.001 A 
ATOM     16  C17 UNL     1     149.928 152.463 165.579  0.00  0.00    +0.001 A 
ATOM     17  C18 UNL     1     150.163 153.805 165.276  0.00  0.00    +0.012 A 
ATOM     18  C19 UNL     1     151.123 154.561 165.983  0.00  0.00    +0.025 A 
ATOM     19  C20 UNL     1     152.578 158.113 166.140  0.00  0.00    +0.091 C 
ATOM     20  H14 UNL     1     153.624 161.258 164.116  0.00  0.00    +0.188 HD
ENDROOT
BRANCH  19  21
ATOM     21  C21 UNL     1     152.075 158.998 167.283  0.00  0.00    -0.035 A 
ATOM     22  C22 UNL     1     152.959 159.719 168.101  0.00  0.00    +0.008 A 
ATOM     23  C23 UNL     1     152.473 160.520 169.139  0.00  0.00    +0.046 A 
ATOM     24  C24 UNL     1     151.103 160.614 169.388  0.00  0.00    +0.120 A 
ATOM     25  C26 UNL     1     150.217 159.894 168.586  0.00  0.00    +0.046 A 
ATOM     26  C27 UNL     1     150.700 159.093 167.545  0.00  0.00    +0.008 A 
BRANCH  24  27
ATOM     27  O2  UNL     1     150.765 161.429 170.432  0.00  0.00    -0.495 OA
ATOM     28  C25 UNL     1     150.867 162.830 170.210  0.00  0.00    +0.277 C 
ENDBRANCH  24  27
ENDBRANCH  19  21
BRANCH   5  29
ATOM     29  C4  UNL     1     151.985 161.350 162.254  0.00  0.00    +0.126 C 
BRANCH  29  30
ATOM     30  C5  UNL     1     151.599 161.203 160.781  0.00  0.00    +0.037 C 
BRANCH  30  31
ATOM     31  C6  UNL     1     152.807 160.761 159.946  0.00  0.00    +0.085 C 
BRANCH  31  32
ATOM     32  N3  UNL     1     152.443 160.367 158.577  0.00  0.00    -0.308 NA
ATOM     33  C7  UNL     1     151.645 161.389 157.895  0.00  0.00    +0.104 C 
ATOM     34  C8  UNL     1     151.706 159.100 158.595  0.00  0.00    +0.104 C 
ENDBRANCH  31  32
ENDBRANCH  30  31
ENDBRANCH  29  30
ENDBRANCH   5  29
TORSDOF 6
ENDMDL
MODEL 8
REMARK VINA RESULT:    -3.494      2.715      6.940
REMARK INTER + INTRA:          -6.884
REMARK INTER:                  -5.678
REMARK INTRA:                  -1.207
REMARK UNBOUND:                -2.165
REMARK  Name = /home/vital/Documents/PhD_2021/Malaria_codes/data/pdb_ligands_mmv/ligand_332.pdb
REMARK  9 active torsions:
REMARK  status: ('A' for Active; 'I' for Inactive)
REMARK    1  A    between atoms: N2_5  and  C4_6
REMARK    2  A    between atoms: C4_6  and  C5_7
REMARK    3  A    between atoms: C5_7  and  C6_8
REMARK    4  A    between atoms: C6_8  and  N3_9
REMARK    5  A    between atoms: N3_9  and  C7_10
REMARK    6  A    between atoms: N3_9  and  C8_11
REMARK    7  A    between atoms: C20_25  and  C21_26
REMARK    8  A    between atoms: C24_29  and  O2_30
REMARK    9  A    between atoms: O2_30  and  C25_31
REMARK                            x       y       z     vdW  Elec       q    Type
REMARK                         _______ _______ _______ _____ _____    ______ ____
ROOT
ATOM      1  C1  UNL     1     151.026 156.772 164.613  0.00  0.00    +0.068 A 
ATOM      2  C2  UNL     1     151.684 157.814 164.064  0.00  0.00    +0.229 A 
ATOM      3  N1  UNL     1     152.056 157.899 162.736  0.00  0.00    -0.202 NA
ATOM      4  C3  UNL     1     151.734 156.897 161.985  0.00  0.00    +0.204 A 
ATOM      5  N2  UNL     1     151.045 155.771 162.375  0.00  0.00    -0.317 N 
ATOM      6  C9  UNL     1     150.595 155.681 163.685  0.00  0.00    +0.136 A 
ATOM      7  N4  UNL     1     149.824 154.750 164.157  0.00  0.00    -0.283 NA
ATOM      8  O1  UNL     1     152.061 158.912 164.834  0.00  0.00    -0.437 OA
ATOM      9  C10 UNL     1     151.511 159.094 166.087  0.00  0.00    +0.142 A 
ATOM     10  C11 UNL     1     150.819 158.064 166.735  0.00  0.00    +0.008 A 
ATOM     11  C12 UNL     1     150.280 158.298 168.005  0.00  0.00    +0.009 A 
ATOM     12  C13 UNL     1     150.435 159.542 168.619  0.00  0.00    +0.009 A 
ATOM     13  C14 UNL     1     151.134 160.578 167.980  0.00  0.00    -0.014 A 
ATOM     14  C15 UNL     1     151.293 161.826 168.603  0.00  0.00    +0.008 A 
ATOM     15  C16 UNL     1     151.988 162.859 167.973  0.00  0.00    +0.001 A 
ATOM     16  C17 UNL     1     152.532 162.656 166.710  0.00  0.00    +0.001 A 
ATOM     17  C18 UNL     1     152.383 161.421 166.078  0.00  0.00    +0.012 A 
ATOM     18  C19 UNL     1     151.686 160.360 166.695  0.00  0.00    +0.025 A 
ATOM     19  C20 UNL     1     150.690 156.702 166.074  0.00  0.00    +0.091 C 
ATOM     20  H14 UNL     1     149.575 154.068 163.446  0.00  0.00    +0.188 HD
ENDROOT
BRANCH  19  21
ATOM     21  C21 UNL     1     151.521 155.643 166.804  0.00  0.00    -0.035 A 
ATOM     22  C22 UNL     1     150.983 154.394 167.151  0.00  0.00    +0.008 A 
ATOM     23  C23 UNL     1     151.763 153.445 167.818  0.00  0.00    +0.046 A 
ATOM     24  C24 UNL     1     153.089 153.721 168.158  0.00  0.00    +0.120 A 
ATOM     25  C26 UNL     1     153.630 154.963 167.826  0.00  0.00    +0.046 A 
ATOM     26  C27 UNL     1     152.851 155.915 167.156  0.00  0.00    +0.008 A 
BRANCH  24  27
ATOM     27  O2  UNL     1     153.736 152.708 168.808  0.00  0.00    -0.495 OA
ATOM     28  C25 UNL     1     153.019 151.492 168.974  0.00  0.00    +0.277 C 
ENDBRANCH  24  27
ENDBRANCH  19  21
BRANCH   5  29
ATOM     29  C4  UNL     1     150.773 154.737 161.377  0.00  0.00    +0.126 C 
BRANCH  29  30
ATOM     30  C5  UNL     1     149.375 154.915 160.782  0.00  0.00    +0.037 C 
BRANCH  30  31
ATOM     31  C6  UNL     1     148.517 153.669 161.030  0.00  0.00    +0.085 C 
BRANCH  31  32
ATOM     32  N3  UNL     1     147.659 153.792 162.218  0.00  0.00    -0.308 NA
ATOM     33  C7  UNL     1     147.591 152.548 162.990  0.00  0.00    +0.104 C 
ATOM     34  C8  UNL     1     146.307 154.200 161.825  0.00  0.00    +0.104 C 
ENDBRANCH  31  32
ENDBRANCH  30  31
ENDBRANCH  29  30
ENDBRANCH   5  29
TORSDOF 6
ENDMDL
