MODEL 1
REMARK VINA RESULT:    -6.093      0.000      0.000
REMARK INTER + INTRA:          -9.390
REMARK INTER:                  -8.586
REMARK INTRA:                  -0.804
REMARK UNBOUND:                -0.804
REMARK  Name = /home/vital/Documents/PhD_2021/Malaria_codes/data/pdb_ligands_mmv/ligand_102.pdb
REMARK  7 active torsions:
REMARK  status: ('A' for Active; 'I' for Inactive)
REMARK    1  A    between atoms: C4_5  and  C7_8
REMARK    2  A    between atoms: C7_8  and  C8_9
REMARK    3  A    between atoms: C8_9  and  N1_10
REMARK    4  A    between atoms: C11_13  and  N2_16
REMARK    5  A    between atoms: C14_17  and  C15_19
REMARK    6  A    between atoms: C15_19  and  C16_20
REMARK    7  A    between atoms: C16_20  and  C17_21
REMARK                            x       y       z     vdW  Elec       q    Type
REMARK                         _______ _______ _______ _____ _____    ______ ____
ROOT
ATOM      1  N1  UNL     1     151.361 158.661 157.604  0.00  0.00    -0.301 NA
ATOM      2  C9  UNL     1     152.364 159.713 157.823  0.00  0.00    +0.086 C 
ATOM      3  C10 UNL     1     152.518 160.016 159.310  0.00  0.00    +0.037 C 
ATOM      4  C11 UNL     1     151.177 160.412 159.927  0.00  0.00    +0.075 C 
ATOM      5  C12 UNL     1     150.119 159.349 159.623  0.00  0.00    +0.037 C 
ATOM      6  C13 UNL     1     150.047 159.069 158.122  0.00  0.00    +0.086 C 
ENDROOT
BRANCH   4   7
ATOM      7  N2  UNL     1     151.319 160.621 161.362  0.00  0.00    -0.312 N 
ATOM      8  C14 UNL     1     150.337 161.236 162.109  0.00  0.00    +0.214 C 
ATOM      9  O1  UNL     1     149.297 161.675 161.629  0.00  0.00    -0.276 OA
ATOM     10  H16 UNL     1     152.034 160.096 161.851  0.00  0.00    +0.149 HD
BRANCH   8  11
ATOM     11  C15 UNL     1     150.647 161.268 163.594  0.00  0.00    +0.103 C 
BRANCH  11  12
ATOM     12  C16 UNL     1     150.361 162.633 164.212  0.00  0.00    +0.083 C 
BRANCH  12  13
ATOM     13  C17 UNL     1     149.386 162.532 165.330  0.00  0.00    +0.105 A 
ATOM     14  O2  UNL     1     149.375 161.357 166.024  0.00  0.00    -0.468 OA
ATOM     15  C18 UNL     1     148.436 161.484 166.998  0.00  0.00    +0.195 A 
ATOM     16  C19 UNL     1     147.845 162.725 166.938  0.00  0.00    +0.041 A 
ATOM     17  C20 UNL     1     148.459 163.405 165.858  0.00  0.00    +0.044 A 
ENDBRANCH  12  13
ENDBRANCH  11  12
ENDBRANCH   8  11
ENDBRANCH   4   7
BRANCH   1  18
ATOM     18  C8  UNL     1     151.292 158.260 156.183  0.00  0.00    +0.096 C 
BRANCH  18  19
ATOM     19  C7  UNL     1     151.381 156.720 155.954  0.00  0.00    +0.008 C 
ATOM     20  C21 UNL     1     150.161 155.909 156.529  0.00  0.00    +0.013 C 
ATOM     21  C22 UNL     1     150.998 155.553 157.769  0.00  0.00    +0.002 C 
ATOM     22  C23 UNL     1     152.271 155.948 157.001  0.00  0.00    +0.013 C 
BRANCH  19  27
ATOM     23 CL1  UNL     1     152.624 155.331 150.006  0.00  0.00    -0.084 Cl
ATOM     24  C1  UNL     1     152.284 155.725 151.644  0.00  0.00    +0.041 A 
ATOM     25  C2  UNL     1     151.658 154.800 152.467  0.00  0.00    +0.020 A 
ATOM     26  C3  UNL     1     151.386 155.131 153.801  0.00  0.00    +0.005 A 
ATOM     27  C4  UNL     1     151.725 156.384 154.367  0.00  0.00    -0.040 A 
ATOM     28  C5  UNL     1     152.353 157.291 153.483  0.00  0.00    +0.005 A 
ATOM     29  C6  UNL     1     152.630 156.972 152.146  0.00  0.00    +0.020 A 
ENDBRANCH  19  27
ENDBRANCH  18  19
ENDBRANCH   1  18
TORSDOF 7
ENDMDL
MODEL 2
REMARK VINA RESULT:    -6.072      1.793      2.736
REMARK INTER + INTRA:          -9.361
REMARK INTER:                  -7.947
REMARK INTRA:                  -1.415
REMARK UNBOUND:                -0.804
REMARK  Name = /home/vital/Documents/PhD_2021/Malaria_codes/data/pdb_ligands_mmv/ligand_102.pdb
REMARK  7 active torsions:
REMARK  status: ('A' for Active; 'I' for Inactive)
REMARK    1  A    between atoms: C4_5  and  C7_8
REMARK    2  A    between atoms: C7_8  and  C8_9
REMARK    3  A    between atoms: C8_9  and  N1_10
REMARK    4  A    between atoms: C11_13  and  N2_16
REMARK    5  A    between atoms: C14_17  and  C15_19
REMARK    6  A    between atoms: C15_19  and  C16_20
REMARK    7  A    between atoms: C16_20  and  C17_21
REMARK                            x       y       z     vdW  Elec       q    Type
REMARK                         _______ _______ _______ _____ _____    ______ ____
ROOT
ATOM      1  N1  UNL     1     151.371 158.725 157.822  0.00  0.00    -0.301 NA
ATOM      2  C9  UNL     1     152.401 159.768 157.930  0.00  0.00    +0.086 C 
ATOM      3  C10 UNL     1     152.676 160.111 159.391  0.00  0.00    +0.037 C 
ATOM      4  C11 UNL     1     151.394 160.543 160.101  0.00  0.00    +0.075 C 
ATOM      5  C12 UNL     1     150.302 159.487 159.912  0.00  0.00    +0.037 C 
ATOM      6  C13 UNL     1     150.108 159.167 158.430  0.00  0.00    +0.086 C 
ENDROOT
BRANCH   4   7
ATOM      7  N2  UNL     1     151.652 160.790 161.513  0.00  0.00    -0.312 N 
ATOM      8  C14 UNL     1     150.695 161.332 162.345  0.00  0.00    +0.214 C 
ATOM      9  O1  UNL     1     149.580 161.670 161.962  0.00  0.00    -0.276 OA
ATOM     10  H16 UNL     1     152.454 160.337 161.937  0.00  0.00    +0.149 HD
BRANCH   8  11
ATOM     11  C15 UNL     1     151.141 161.418 163.792  0.00  0.00    +0.103 C 
BRANCH  11  12
ATOM     12  C16 UNL     1     152.447 160.669 164.036  0.00  0.00    +0.083 C 
BRANCH  12  13
ATOM     13  C17 UNL     1     152.261 159.197 163.925  0.00  0.00    +0.105 A 
ATOM     14  O2  UNL     1     152.834 158.591 162.846  0.00  0.00    -0.468 OA
ATOM     15  C18 UNL     1     152.561 157.263 162.948  0.00  0.00    +0.195 A 
ATOM     16  C19 UNL     1     151.819 157.011 164.080  0.00  0.00    +0.041 A 
ATOM     17  C20 UNL     1     151.625 158.263 164.714  0.00  0.00    +0.044 A 
ENDBRANCH  12  13
ENDBRANCH  11  12
ENDBRANCH   8  11
ENDBRANCH   4   7
BRANCH   1  18
ATOM     18  C8  UNL     1     151.185 158.286 156.423  0.00  0.00    +0.096 C 
BRANCH  18  19
ATOM     19  C7  UNL     1     151.306 156.744 156.221  0.00  0.00    +0.008 C 
ATOM     20  C21 UNL     1     150.017 155.936 156.620  0.00  0.00    +0.013 C 
ATOM     21  C22 UNL     1     150.665 155.591 157.971  0.00  0.00    +0.002 C 
ATOM     22  C23 UNL     1     152.036 155.982 157.392  0.00  0.00    +0.013 C 
BRANCH  19  27
ATOM     23 CL1  UNL     1     153.386 155.318 150.521  0.00  0.00    -0.084 Cl
ATOM     24  C1  UNL     1     152.817 155.723 152.092  0.00  0.00    +0.041 A 
ATOM     25  C2  UNL     1     151.961 154.862 152.765  0.00  0.00    +0.020 A 
ATOM     26  C3  UNL     1     151.503 155.201 154.045  0.00  0.00    +0.005 A 
ATOM     27  C4  UNL     1     151.877 156.397 154.704  0.00  0.00    -0.040 A 
ATOM     28  C5  UNL     1     152.744 157.240 153.971  0.00  0.00    +0.005 A 
ATOM     29  C6  UNL     1     153.209 156.913 152.688  0.00  0.00    +0.020 A 
ENDBRANCH  19  27
ENDBRANCH  18  19
ENDBRANCH   1  18
TORSDOF 7
ENDMDL
MODEL 3
REMARK VINA RESULT:    -5.787      5.262     11.162
REMARK INTER + INTRA:          -8.959
REMARK INTER:                  -7.666
REMARK INTRA:                  -1.293
REMARK UNBOUND:                -0.804
REMARK  Name = /home/vital/Documents/PhD_2021/Malaria_codes/data/pdb_ligands_mmv/ligand_102.pdb
REMARK  7 active torsions:
REMARK  status: ('A' for Active; 'I' for Inactive)
REMARK    1  A    between atoms: C4_5  and  C7_8
REMARK    2  A    between atoms: C7_8  and  C8_9
REMARK    3  A    between atoms: C8_9  and  N1_10
REMARK    4  A    between atoms: C11_13  and  N2_16
REMARK    5  A    between atoms: C14_17  and  C15_19
REMARK    6  A    between atoms: C15_19  and  C16_20
REMARK    7  A    between atoms: C16_20  and  C17_21
REMARK                            x       y       z     vdW  Elec       q    Type
REMARK                         _______ _______ _______ _____ _____    ______ ____
ROOT
ATOM      1  N1  UNL     1     151.016 157.979 157.716  0.00  0.00    -0.301 NA
ATOM      2  C9  UNL     1     150.920 156.555 157.363  0.00  0.00    +0.086 C 
ATOM      3  C10 UNL     1     151.996 156.172 156.351  0.00  0.00    +0.037 C 
ATOM      4  C11 UNL     1     151.904 157.046 155.101  0.00  0.00    +0.075 C 
ATOM      5  C12 UNL     1     151.922 158.527 155.487  0.00  0.00    +0.037 C 
ATOM      6  C13 UNL     1     150.847 158.829 156.530  0.00  0.00    +0.086 C 
ENDROOT
BRANCH   4   7
ATOM      7  N2  UNL     1     152.984 156.727 154.177  0.00  0.00    -0.312 N 
ATOM      8  C14 UNL     1     152.845 156.877 152.813  0.00  0.00    +0.214 C 
ATOM      9  O1  UNL     1     151.809 157.257 152.278  0.00  0.00    -0.276 OA
ATOM     10  H16 UNL     1     153.919 156.626 154.554  0.00  0.00    +0.149 HD
BRANCH   8  11
ATOM     11  C15 UNL     1     154.118 156.578 152.045  0.00  0.00    +0.103 C 
BRANCH  11  12
ATOM     12  C16 UNL     1     153.947 155.407 151.082  0.00  0.00    +0.083 C 
BRANCH  12  13
ATOM     13  C17 UNL     1     155.185 154.589 150.994  0.00  0.00    +0.105 A 
ATOM     14  O2  UNL     1     155.202 153.610 150.042  0.00  0.00    -0.468 OA
ATOM     15  C18 UNL     1     156.416 153.004 150.121  0.00  0.00    +0.195 A 
ATOM     16  C19 UNL     1     157.177 153.582 151.112  0.00  0.00    +0.041 A 
ATOM     17  C20 UNL     1     156.382 154.608 151.677  0.00  0.00    +0.044 A 
ENDBRANCH  12  13
ENDBRANCH  11  12
ENDBRANCH   8  11
ENDBRANCH   4   7
BRANCH   1  18
ATOM     18  C8  UNL     1     150.069 158.338 158.792  0.00  0.00    +0.096 C 
BRANCH  18  19
ATOM     19  C7  UNL     1     150.756 158.714 160.141  0.00  0.00    +0.008 C 
ATOM     20  C21 UNL     1     150.289 160.090 160.744  0.00  0.00    +0.013 C 
ATOM     21  C22 UNL     1     151.549 160.757 160.167  0.00  0.00    +0.002 C 
ATOM     22  C23 UNL     1     152.183 159.366 159.995  0.00  0.00    +0.013 C 
BRANCH  19  27
ATOM     23 CL1  UNL     1     150.380 153.886 164.066  0.00  0.00    -0.084 Cl
ATOM     24  C1  UNL     1     150.491 155.223 162.991  0.00  0.00    +0.041 A 
ATOM     25  C2  UNL     1     149.946 155.140 161.718  0.00  0.00    +0.020 A 
ATOM     26  C3  UNL     1     150.042 156.235 160.850  0.00  0.00    +0.005 A 
ATOM     27  C4  UNL     1     150.675 157.449 161.210  0.00  0.00    -0.040 A 
ATOM     28  C5  UNL     1     151.220 157.477 162.514  0.00  0.00    +0.005 A 
ATOM     29  C6  UNL     1     151.132 156.387 163.393  0.00  0.00    +0.020 A 
ENDBRANCH  19  27
ENDBRANCH  18  19
ENDBRANCH   1  18
TORSDOF 7
ENDMDL
MODEL 4
REMARK VINA RESULT:    -5.579      5.372     11.270
REMARK INTER + INTRA:          -8.665
REMARK INTER:                  -7.234
REMARK INTRA:                  -1.432
REMARK UNBOUND:                -0.804
REMARK  Name = /home/vital/Documents/PhD_2021/Malaria_codes/data/pdb_ligands_mmv/ligand_102.pdb
REMARK  7 active torsions:
REMARK  status: ('A' for Active; 'I' for Inactive)
REMARK    1  A    between atoms: C4_5  and  C7_8
REMARK    2  A    between atoms: C7_8  and  C8_9
REMARK    3  A    between atoms: C8_9  and  N1_10
REMARK    4  A    between atoms: C11_13  and  N2_16
REMARK    5  A    between atoms: C14_17  and  C15_19
REMARK    6  A    between atoms: C15_19  and  C16_20
REMARK    7  A    between atoms: C16_20  and  C17_21
REMARK                            x       y       z     vdW  Elec       q    Type
REMARK                         _______ _______ _______ _____ _____    ______ ____
ROOT
ATOM      1  N1  UNL     1     151.110 157.905 157.868  0.00  0.00    -0.301 NA
ATOM      2  C9  UNL     1     151.311 156.491 157.520  0.00  0.00    +0.086 C 
ATOM      3  C10 UNL     1     152.371 156.345 156.432  0.00  0.00    +0.037 C 
ATOM      4  C11 UNL     1     151.997 157.158 155.193  0.00  0.00    +0.075 C 
ATOM      5  C12 UNL     1     151.710 158.611 155.580  0.00  0.00    +0.037 C 
ATOM      6  C13 UNL     1     150.670 158.679 156.698  0.00  0.00    +0.086 C 
ENDROOT
BRANCH   4   7
ATOM      7  N2  UNL     1     153.053 157.075 154.193  0.00  0.00    -0.312 N 
ATOM      8  C14 UNL     1     152.937 156.277 153.075  0.00  0.00    +0.214 C 
ATOM      9  O1  UNL     1     151.964 155.563 152.852  0.00  0.00    -0.276 OA
ATOM     10  H16 UNL     1     153.770 157.792 154.197  0.00  0.00    +0.149 HD
BRANCH   8  11
ATOM     11  C15 UNL     1     154.107 156.411 152.120  0.00  0.00    +0.103 C 
BRANCH  11  12
ATOM     12  C16 UNL     1     154.061 155.371 151.005  0.00  0.00    +0.083 C 
BRANCH  12  13
ATOM     13  C17 UNL     1     155.326 154.592 150.933  0.00  0.00    +0.105 A 
ATOM     14  O2  UNL     1     155.997 154.412 152.108  0.00  0.00    -0.468 OA
ATOM     15  C18 UNL     1     157.099 153.669 151.822  0.00  0.00    +0.195 A 
ATOM     16  C19 UNL     1     157.143 153.371 150.479  0.00  0.00    +0.041 A 
ATOM     17  C20 UNL     1     155.995 153.968 149.903  0.00  0.00    +0.044 A 
ENDBRANCH  12  13
ENDBRANCH  11  12
ENDBRANCH   8  11
ENDBRANCH   4   7
BRANCH   1  18
ATOM     18  C8  UNL     1     150.185 158.059 159.011  0.00  0.00    +0.096 C 
BRANCH  18  19
ATOM     19  C7  UNL     1     150.855 158.642 160.293  0.00  0.00    +0.008 C 
ATOM     20  C21 UNL     1     150.329 160.065 160.708  0.00  0.00    +0.013 C 
ATOM     21  C22 UNL     1     151.559 160.701 160.042  0.00  0.00    +0.002 C 
ATOM     22  C23 UNL     1     152.252 159.328 160.054  0.00  0.00    +0.013 C 
BRANCH  19  27
ATOM     23 CL1  UNL     1     150.821 154.546 164.993  0.00  0.00    -0.084 Cl
ATOM     24  C1  UNL     1     150.823 155.668 163.690  0.00  0.00    +0.041 A 
ATOM     25  C2  UNL     1     151.366 156.934 163.863  0.00  0.00    +0.020 A 
ATOM     26  C3  UNL     1     151.363 157.841 162.795  0.00  0.00    +0.005 A 
ATOM     27  C4  UNL     1     150.828 157.528 161.522  0.00  0.00    -0.040 A 
ATOM     28  C5  UNL     1     150.281 156.230 161.404  0.00  0.00    +0.005 A 
ATOM     29  C6  UNL     1     150.277 155.313 162.465  0.00  0.00    +0.020 A 
ENDBRANCH  19  27
ENDBRANCH  18  19
ENDBRANCH   1  18
TORSDOF 7
ENDMDL
MODEL 5
REMARK VINA RESULT:    -5.487      5.615      9.089
REMARK INTER + INTRA:          -8.536
REMARK INTER:                  -6.600
REMARK INTRA:                  -1.936
REMARK UNBOUND:                -0.804
REMARK  Name = /home/vital/Documents/PhD_2021/Malaria_codes/data/pdb_ligands_mmv/ligand_102.pdb
REMARK  7 active torsions:
REMARK  status: ('A' for Active; 'I' for Inactive)
REMARK    1  A    between atoms: C4_5  and  C7_8
REMARK    2  A    between atoms: C7_8  and  C8_9
REMARK    3  A    between atoms: C8_9  and  N1_10
REMARK    4  A    between atoms: C11_13  and  N2_16
REMARK    5  A    between atoms: C14_17  and  C15_19
REMARK    6  A    between atoms: C15_19  and  C16_20
REMARK    7  A    between atoms: C16_20  and  C17_21
REMARK                            x       y       z     vdW  Elec       q    Type
REMARK                         _______ _______ _______ _____ _____    ______ ____
ROOT
ATOM      1  N1  UNL     1     152.016 159.886 165.365  0.00  0.00    -0.301 NA
ATOM      2  C9  UNL     1     152.825 158.845 164.714  0.00  0.00    +0.086 C 
ATOM      3  C10 UNL     1     152.408 157.456 165.191  0.00  0.00    +0.037 C 
ATOM      4  C11 UNL     1     152.510 157.348 166.712  0.00  0.00    +0.075 C 
ATOM      5  C12 UNL     1     151.732 158.486 167.377  0.00  0.00    +0.037 C 
ATOM      6  C13 UNL     1     152.174 159.841 166.825  0.00  0.00    +0.086 C 
ENDROOT
BRANCH   4   7
ATOM      7  N2  UNL     1     152.033 156.048 167.162  0.00  0.00    -0.312 N 
ATOM      8  C14 UNL     1     152.883 155.111 167.712  0.00  0.00    +0.214 C 
ATOM      9  O1  UNL     1     154.091 155.284 167.836  0.00  0.00    -0.276 OA
ATOM     10  H16 UNL     1     151.036 155.925 167.295  0.00  0.00    +0.149 HD
BRANCH   8  11
ATOM     11  C15 UNL     1     152.165 153.865 168.198  0.00  0.00    +0.103 C 
BRANCH  11  12
ATOM     12  C16 UNL     1     151.920 152.867 167.070  0.00  0.00    +0.083 C 
BRANCH  12  13
ATOM     13  C17 UNL     1     150.638 153.143 166.368  0.00  0.00    +0.105 A 
ATOM     14  O2  UNL     1     150.620 154.224 165.536  0.00  0.00    -0.468 OA
ATOM     15  C18 UNL     1     149.376 154.281 164.991  0.00  0.00    +0.195 A 
ATOM     16  C19 UNL     1     148.596 153.251 165.464  0.00  0.00    +0.041 A 
ATOM     17  C20 UNL     1     149.412 152.513 166.356  0.00  0.00    +0.044 A 
ENDBRANCH  12  13
ENDBRANCH  11  12
ENDBRANCH   8  11
ENDBRANCH   4   7
BRANCH   1  18
ATOM     18  C8  UNL     1     152.315 161.227 164.819  0.00  0.00    +0.096 C 
BRANCH  18  19
ATOM     19  C7  UNL     1     151.141 161.856 164.007  0.00  0.00    +0.008 C 
ATOM     20  C21 UNL     1     151.006 163.415 164.166  0.00  0.00    +0.013 C 
ATOM     21  C22 UNL     1     149.887 163.201 165.199  0.00  0.00    +0.002 C 
ATOM     22  C23 UNL     1     149.730 161.754 164.701  0.00  0.00    +0.013 C 
BRANCH  19  27
ATOM     23 CL1  UNL     1     151.178 159.838 158.109  0.00  0.00    -0.084 Cl
ATOM     24  C1  UNL     1     151.176 160.403 159.733  0.00  0.00    +0.041 A 
ATOM     25  C2  UNL     1     150.192 159.981 160.615  0.00  0.00    +0.020 A 
ATOM     26  C3  UNL     1     150.199 160.447 161.936  0.00  0.00    +0.005 A 
ATOM     27  C4  UNL     1     151.180 161.340 162.431  0.00  0.00    -0.040 A 
ATOM     28  C5  UNL     1     152.154 161.744 161.489  0.00  0.00    +0.005 A 
ATOM     29  C6  UNL     1     152.157 161.286 160.163  0.00  0.00    +0.020 A 
ENDBRANCH  19  27
ENDBRANCH  18  19
ENDBRANCH   1  18
TORSDOF 7
ENDMDL
MODEL 6
REMARK VINA RESULT:    -5.454      4.677      5.682
REMARK INTER + INTRA:          -8.489
REMARK INTER:                  -6.989
REMARK INTRA:                  -1.500
REMARK UNBOUND:                -0.804
REMARK  Name = /home/vital/Documents/PhD_2021/Malaria_codes/data/pdb_ligands_mmv/ligand_102.pdb
REMARK  7 active torsions:
REMARK  status: ('A' for Active; 'I' for Inactive)
REMARK    1  A    between atoms: C4_5  and  C7_8
REMARK    2  A    between atoms: C7_8  and  C8_9
REMARK    3  A    between atoms: C8_9  and  N1_10
REMARK    4  A    between atoms: C11_13  and  N2_16
REMARK    5  A    between atoms: C14_17  and  C15_19
REMARK    6  A    between atoms: C15_19  and  C16_20
REMARK    7  A    between atoms: C16_20  and  C17_21
REMARK                            x       y       z     vdW  Elec       q    Type
REMARK                         _______ _______ _______ _____ _____    ______ ____
ROOT
ATOM      1  N1  UNL     1     150.858 158.273 160.200  0.00  0.00    -0.301 NA
ATOM      2  C9  UNL     1     150.385 159.103 161.317  0.00  0.00    +0.086 C 
ATOM      3  C10 UNL     1     151.190 158.821 162.582  0.00  0.00    +0.037 C 
ATOM      4  C11 UNL     1     151.130 157.338 162.947  0.00  0.00    +0.075 C 
ATOM      5  C12 UNL     1     151.546 156.480 161.750  0.00  0.00    +0.037 C 
ATOM      6  C13 UNL     1     150.727 156.843 160.512  0.00  0.00    +0.086 C 
ENDROOT
BRANCH   4   7
ATOM      7  N2  UNL     1     151.966 157.066 164.109  0.00  0.00    -0.312 N 
ATOM      8  C14 UNL     1     151.456 157.062 165.390  0.00  0.00    +0.214 C 
ATOM      9  O1  UNL     1     150.283 157.312 165.650  0.00  0.00    -0.276 OA
ATOM     10  H16 UNL     1     152.873 156.640 163.954  0.00  0.00    +0.149 HD
BRANCH   8  11
ATOM     11  C15 UNL     1     152.476 156.665 166.439  0.00  0.00    +0.103 C 
BRANCH  11  12
ATOM     12  C16 UNL     1     151.828 155.986 167.642  0.00  0.00    +0.083 C 
BRANCH  12  13
ATOM     13  C17 UNL     1     151.995 154.509 167.588  0.00  0.00    +0.105 A 
ATOM     14  O2  UNL     1     151.137 153.828 166.774  0.00  0.00    -0.468 OA
ATOM     15  C18 UNL     1     151.471 152.514 166.860  0.00  0.00    +0.195 A 
ATOM     16  C19 UNL     1     152.532 152.343 167.719  0.00  0.00    +0.041 A 
ATOM     17  C20 UNL     1     152.872 153.634 168.192  0.00  0.00    +0.044 A 
ENDBRANCH  12  13
ENDBRANCH  11  12
ENDBRANCH   8  11
ENDBRANCH   4   7
BRANCH   1  18
ATOM     18  C8  UNL     1     150.180 158.625 158.934  0.00  0.00    +0.096 C 
BRANCH  18  19
ATOM     19  C7  UNL     1     151.151 159.085 157.803  0.00  0.00    +0.008 C 
ATOM     20  C21 UNL     1     152.469 159.770 158.320  0.00  0.00    +0.013 C 
ATOM     21  C22 UNL     1     151.847 161.148 158.046  0.00  0.00    +0.002 C 
ATOM     22  C23 UNL     1     150.793 160.474 157.151  0.00  0.00    +0.013 C 
BRANCH  19  27
ATOM     23 CL1  UNL     1     152.012 154.398 153.784  0.00  0.00    -0.084 Cl
ATOM     24  C1  UNL     1     151.783 155.697 154.886  0.00  0.00    +0.041 A 
ATOM     25  C2  UNL     1     150.684 155.705 155.734  0.00  0.00    +0.020 A 
ATOM     26  C3  UNL     1     150.507 156.768 156.629  0.00  0.00    +0.005 A 
ATOM     27  C4  UNL     1     151.410 157.855 156.720  0.00  0.00    -0.040 A 
ATOM     28  C5  UNL     1     152.506 157.801 155.830  0.00  0.00    +0.005 A 
ATOM     29  C6  UNL     1     152.695 156.743 154.928  0.00  0.00    +0.020 A 
ENDBRANCH  19  27
ENDBRANCH  18  19
ENDBRANCH   1  18
TORSDOF 7
ENDMDL
MODEL 7
REMARK VINA RESULT:    -5.067      5.747     11.043
REMARK INTER + INTRA:          -7.944
REMARK INTER:                  -6.383
REMARK INTRA:                  -1.561
REMARK UNBOUND:                -0.804
REMARK  Name = /home/vital/Documents/PhD_2021/Malaria_codes/data/pdb_ligands_mmv/ligand_102.pdb
REMARK  7 active torsions:
REMARK  status: ('A' for Active; 'I' for Inactive)
REMARK    1  A    between atoms: C4_5  and  C7_8
REMARK    2  A    between atoms: C7_8  and  C8_9
REMARK    3  A    between atoms: C8_9  and  N1_10
REMARK    4  A    between atoms: C11_13  and  N2_16
REMARK    5  A    between atoms: C14_17  and  C15_19
REMARK    6  A    between atoms: C15_19  and  C16_20
REMARK    7  A    between atoms: C16_20  and  C17_21
REMARK                            x       y       z     vdW  Elec       q    Type
REMARK                         _______ _______ _______ _____ _____    ______ ____
ROOT
ATOM      1  N1  UNL     1     151.877 158.390 164.507  0.00  0.00    -0.301 NA
ATOM      2  C9  UNL     1     151.716 159.657 163.779  0.00  0.00    +0.086 C 
ATOM      3  C10 UNL     1     150.943 159.442 162.481  0.00  0.00    +0.037 C 
ATOM      4  C11 UNL     1     151.631 158.397 161.603  0.00  0.00    +0.075 C 
ATOM      5  C12 UNL     1     151.868 157.111 162.397  0.00  0.00    +0.037 C 
ATOM      6  C13 UNL     1     152.611 157.406 163.699  0.00  0.00    +0.086 C 
ENDROOT
BRANCH   4   7
ATOM      7  N2  UNL     1     150.843 158.142 160.404  0.00  0.00    -0.312 N 
ATOM      8  C14 UNL     1     151.254 158.564 159.158  0.00  0.00    +0.214 C 
ATOM      9  O1  UNL     1     152.284 159.204 158.967  0.00  0.00    -0.276 OA
ATOM     10  H16 UNL     1     150.113 157.441 160.455  0.00  0.00    +0.149 HD
BRANCH   8  11
ATOM     11  C15 UNL     1     150.334 158.113 158.040  0.00  0.00    +0.103 C 
BRANCH  11  12
ATOM     12  C16 UNL     1     150.722 156.741 157.496  0.00  0.00    +0.083 C 
BRANCH  12  13
ATOM     13  C17 UNL     1     151.494 156.855 156.230  0.00  0.00    +0.105 A 
ATOM     14  O2  UNL     1     151.491 158.077 155.622  0.00  0.00    -0.468 OA
ATOM     15  C18 UNL     1     152.261 157.964 154.508  0.00  0.00    +0.195 A 
ATOM     16  C19 UNL     1     152.757 156.686 154.393  0.00  0.00    +0.041 A 
ATOM     17  C20 UNL     1     152.262 155.966 155.508  0.00  0.00    +0.044 A 
ENDBRANCH  12  13
ENDBRANCH  11  12
ENDBRANCH   8  11
ENDBRANCH   4   7
BRANCH   1  18
ATOM     18  C8  UNL     1     152.506 158.598 165.829  0.00  0.00    +0.096 C 
BRANCH  18  19
ATOM     19  C7  UNL     1     151.655 158.073 167.025  0.00  0.00    +0.008 C 
ATOM     20  C21 UNL     1     150.109 158.328 166.881  0.00  0.00    +0.013 C 
ATOM     21  C22 UNL     1     150.239 159.557 167.795  0.00  0.00    +0.002 C 
ATOM     22  C23 UNL     1     151.605 159.035 168.272  0.00  0.00    +0.013 C 
BRANCH  19  27
ATOM     23 CL1  UNL     1     153.268 152.200 168.355  0.00  0.00    -0.084 Cl
ATOM     24  C1  UNL     1     152.811 153.817 167.989  0.00  0.00    +0.041 A 
ATOM     25  C2  UNL     1     153.767 154.823 167.975  0.00  0.00    +0.020 A 
ATOM     26  C3  UNL     1     153.384 156.137 167.675  0.00  0.00    +0.005 A 
ATOM     27  C4  UNL     1     152.049 156.500 167.376  0.00  0.00    -0.040 A 
ATOM     28  C5  UNL     1     151.116 155.439 167.413  0.00  0.00    +0.005 A 
ATOM     29  C6  UNL     1     151.485 154.119 167.712  0.00  0.00    +0.020 A 
ENDBRANCH  19  27
ENDBRANCH  18  19
ENDBRANCH   1  18
TORSDOF 7
ENDMDL
MODEL 8
REMARK VINA RESULT:    -4.688      7.052     10.429
REMARK INTER + INTRA:          -7.410
REMARK INTER:                  -5.951
REMARK INTRA:                  -1.460
REMARK UNBOUND:                -0.804
REMARK  Name = /home/vital/Documents/PhD_2021/Malaria_codes/data/pdb_ligands_mmv/ligand_102.pdb
REMARK  7 active torsions:
REMARK  status: ('A' for Active; 'I' for Inactive)
REMARK    1  A    between atoms: C4_5  and  C7_8
REMARK    2  A    between atoms: C7_8  and  C8_9
REMARK    3  A    between atoms: C8_9  and  N1_10
REMARK    4  A    between atoms: C11_13  and  N2_16
REMARK    5  A    between atoms: C14_17  and  C15_19
REMARK    6  A    between atoms: C15_19  and  C16_20
REMARK    7  A    between atoms: C16_20  and  C17_21
REMARK                            x       y       z     vdW  Elec       q    Type
REMARK                         _______ _______ _______ _____ _____    ______ ____
ROOT
ATOM      1  N1  UNL     1     151.203 157.115 162.407  0.00  0.00    -0.301 NA
ATOM      2  C9  UNL     1     151.392 155.927 161.562  0.00  0.00    +0.086 C 
ATOM      3  C10 UNL     1     150.374 154.845 161.911  0.00  0.00    +0.037 C 
ATOM      4  C11 UNL     1     150.459 154.473 163.390  0.00  0.00    +0.075 C 
ATOM      5  C12 UNL     1     150.344 155.728 164.260  0.00  0.00    +0.037 C 
ATOM      6  C13 UNL     1     151.365 156.781 163.830  0.00  0.00    +0.086 C 
ENDROOT
BRANCH   4   7
ATOM      7  N2  UNL     1     149.431 153.499 163.730  0.00  0.00    -0.312 N 
ATOM      8  C14 UNL     1     149.617 152.558 164.721  0.00  0.00    +0.214 C 
ATOM      9  O1  UNL     1     150.656 152.450 165.364  0.00  0.00    -0.276 OA
ATOM     10  H16 UNL     1     148.487 153.669 163.403  0.00  0.00    +0.149 HD
BRANCH   8  11
ATOM     11  C15 UNL     1     148.389 151.705 164.974  0.00  0.00    +0.103 C 
BRANCH  11  12
ATOM     12  C16 UNL     1     147.493 151.608 163.742  0.00  0.00    +0.083 C 
BRANCH  12  13
ATOM     13  C17 UNL     1     146.789 150.300 163.682  0.00  0.00    +0.105 A 
ATOM     14  O2  UNL     1     147.130 149.471 162.653  0.00  0.00    -0.468 OA
ATOM     15  C18 UNL     1     146.390 148.339 162.797  0.00  0.00    +0.195 A 
ATOM     16  C19 UNL     1     145.580 148.432 163.905  0.00  0.00    +0.041 A 
ATOM     17  C20 UNL     1     145.837 149.701 164.480  0.00  0.00    +0.044 A 
ENDBRANCH  12  13
ENDBRANCH  11  12
ENDBRANCH   8  11
ENDBRANCH   4   7
BRANCH   1  18
ATOM     18  C8  UNL     1     152.092 158.223 161.997  0.00  0.00    +0.096 C 
BRANCH  18  19
ATOM     19  C7  UNL     1     151.336 159.537 161.630  0.00  0.00    +0.008 C 
ATOM     20  C21 UNL     1     149.886 159.314 161.065  0.00  0.00    +0.013 C 
ATOM     21  C22 UNL     1     150.428 159.485 159.637  0.00  0.00    +0.002 C 
ATOM     22  C23 UNL     1     151.697 160.132 160.217  0.00  0.00    +0.013 C 
BRANCH  19  27
ATOM     23 CL1  UNL     1     151.722 163.541 166.392  0.00  0.00    -0.084 Cl
ATOM     24  C1  UNL     1     151.608 162.444 165.073  0.00  0.00    +0.041 A 
ATOM     25  C2  UNL     1     152.466 161.356 164.997  0.00  0.00    +0.020 A 
ATOM     26  C3  UNL     1     152.365 160.468 163.918  0.00  0.00    +0.005 A 
ATOM     27  C4  UNL     1     151.412 160.622 162.882  0.00  0.00    -0.040 A 
ATOM     28  C5  UNL     1     150.570 161.751 163.005  0.00  0.00    +0.005 A 
ATOM     29  C6  UNL     1     150.661 162.648 164.079  0.00  0.00    +0.020 A 
ENDBRANCH  19  27
ENDBRANCH  18  19
ENDBRANCH   1  18
TORSDOF 7
ENDMDL
MODEL 9
REMARK VINA RESULT:    -4.612      4.590     10.595
REMARK INTER + INTRA:          -7.303
REMARK INTER:                  -6.081
REMARK INTRA:                  -1.222
REMARK UNBOUND:                -0.804
REMARK  Name = /home/vital/Documents/PhD_2021/Malaria_codes/data/pdb_ligands_mmv/ligand_102.pdb
REMARK  7 active torsions:
REMARK  status: ('A' for Active; 'I' for Inactive)
REMARK    1  A    between atoms: C4_5  and  C7_8
REMARK    2  A    between atoms: C7_8  and  C8_9
REMARK    3  A    between atoms: C8_9  and  N1_10
REMARK    4  A    between atoms: C11_13  and  N2_16
REMARK    5  A    between atoms: C14_17  and  C15_19
REMARK    6  A    between atoms: C15_19  and  C16_20
REMARK    7  A    between atoms: C16_20  and  C17_21
REMARK                            x       y       z     vdW  Elec       q    Type
REMARK                         _______ _______ _______ _____ _____    ______ ____
ROOT
ATOM      1  N1  UNL     1     151.378 160.220 162.543  0.00  0.00    -0.301 NA
ATOM      2  C9  UNL     1     150.374 159.370 161.886  0.00  0.00    +0.086 C 
ATOM      3  C10 UNL     1     150.878 158.885 160.530  0.00  0.00    +0.037 C 
ATOM      4  C11 UNL     1     151.258 160.063 159.634  0.00  0.00    +0.075 C 
ATOM      5  C12 UNL     1     152.240 160.986 160.360  0.00  0.00    +0.037 C 
ATOM      6  C13 UNL     1     151.688 161.401 161.724  0.00  0.00    +0.086 C 
ENDROOT
BRANCH   4   7
ATOM      7  N2  UNL     1     151.812 159.587 158.374  0.00  0.00    -0.312 N 
ATOM      8  C14 UNL     1     151.009 159.269 157.299  0.00  0.00    +0.214 C 
ATOM      9  O1  UNL     1     149.785 159.333 157.327  0.00  0.00    -0.276 OA
ATOM     10  H16 UNL     1     152.802 159.722 158.208  0.00  0.00    +0.149 HD
BRANCH   8  11
ATOM     11  C15 UNL     1     151.795 158.885 156.059  0.00  0.00    +0.103 C 
BRANCH  11  12
ATOM     12  C16 UNL     1     152.056 157.383 155.988  0.00  0.00    +0.083 C 
BRANCH  12  13
ATOM     13  C17 UNL     1     152.583 156.985 154.656  0.00  0.00    +0.105 A 
ATOM     14  O2  UNL     1     152.893 157.997 153.795  0.00  0.00    -0.468 OA
ATOM     15  C18 UNL     1     153.367 157.419 152.660  0.00  0.00    +0.195 A 
ATOM     16  C19 UNL     1     153.365 156.048 152.782  0.00  0.00    +0.041 A 
ATOM     17  C20 UNL     1     152.858 155.766 154.074  0.00  0.00    +0.044 A 
ENDBRANCH  12  13
ENDBRANCH  11  12
ENDBRANCH   8  11
ENDBRANCH   4   7
BRANCH   1  18
ATOM     18  C8  UNL     1     150.964 160.592 163.912  0.00  0.00    +0.096 C 
BRANCH  18  19
ATOM     19  C7  UNL     1     151.890 160.022 165.031  0.00  0.00    +0.008 C 
ATOM     20  C21 UNL     1     152.056 160.967 166.277  0.00  0.00    +0.013 C 
ATOM     21  C22 UNL     1     153.402 161.454 165.714  0.00  0.00    +0.002 C 
ATOM     22  C23 UNL     1     153.432 160.232 164.780  0.00  0.00    +0.013 C 
BRANCH  19  27
ATOM     23 CL1  UNL     1     150.206 154.230 166.602  0.00  0.00    -0.084 Cl
ATOM     24  C1  UNL     1     150.672 155.824 166.157  0.00  0.00    +0.041 A 
ATOM     25  C2  UNL     1     150.485 156.876 167.042  0.00  0.00    +0.020 A 
ATOM     26  C3  UNL     1     150.868 158.171 166.670  0.00  0.00    +0.005 A 
ATOM     27  C4  UNL     1     151.452 158.470 165.415  0.00  0.00    -0.040 A 
ATOM     28  C5  UNL     1     151.613 157.363 164.550  0.00  0.00    +0.005 A 
ATOM     29  C6  UNL     1     151.233 156.062 164.910  0.00  0.00    +0.020 A 
ENDBRANCH  19  27
ENDBRANCH  18  19
ENDBRANCH   1  18
TORSDOF 7
ENDMDL
