MODEL 1
REMARK VINA RESULT:    -8.675      0.000      0.000
REMARK INTER + INTRA:         -11.057
REMARK INTER:                 -11.210
REMARK INTRA:                   0.153
REMARK UNBOUND:                 0.153
REMARK  Name = /home/vital/Documents/PhD_2021/Malaria_codes/data/pdb_ligands_mmv/ligand_29.pdb
REMARK  8 active torsions:
REMARK  status: ('A' for Active; 'I' for Inactive)
REMARK    1  A    between atoms: C1_1  and  O1_2
REMARK    2  A    between atoms: O1_2  and  C2_3
REMARK    3  A    between atoms: C6_7  and  N1_8
REMARK    4  A    between atoms: C7_9  and  C8_11
REMARK    5  A    between atoms: C8_11  and  C9_12
REMARK    6  A    between atoms: C8_11  and  N2_15
REMARK    7  A    between atoms: C9_12  and  C10_13
REMARK    8  A    between atoms: C9_12  and  C11_14
REMARK                            x       y       z     vdW  Elec       q    Type
REMARK                         _______ _______ _______ _____ _____    ______ ____
ROOT
ATOM      1  C8  UNL     1     151.493 157.126 157.923  0.00  0.00    +0.183 C 
ENDROOT
BRANCH   1   2
ATOM      2  N2  UNL     1     151.562 156.603 156.538  0.00  0.00    -0.248 N 
ATOM      3  C12 UNL     1     150.524 155.789 156.119  0.00  0.00    +0.330 A 
ATOM      4  O3  UNL     1     149.529 155.554 156.808  0.00  0.00    -0.246 OA
ATOM      5  N3  UNL     1     150.598 155.273 154.861  0.00  0.00    -0.307 N 
ATOM      6  C13 UNL     1     151.597 155.601 153.950  0.00  0.00    +0.056 A 
ATOM      7  C14 UNL     1     151.606 155.023 152.681  0.00  0.00    +0.026 A 
ATOM      8  C15 UNL     1     152.601 155.381 151.768  0.00  0.00    +0.002 A 
ATOM      9  C16 UNL     1     153.577 156.315 152.123  0.00  0.00    +0.001 A 
ATOM     10  C17 UNL     1     153.560 156.894 153.393  0.00  0.00    +0.015 A 
ATOM     11  C18 UNL     1     152.565 156.529 154.307  0.00  0.00    +0.063 A 
ATOM     12  C19 UNL     1     152.512 157.121 155.658  0.00  0.00    +0.265 A 
ATOM     13  O4  UNL     1     153.292 158.029 155.926  0.00  0.00    -0.267 OA
ATOM     14  H16 UNL     1     149.842 154.657 154.590  0.00  0.00    +0.170 HD
ENDBRANCH   1   2
BRANCH   1  16
ATOM     15  N1  UNL     1     150.337 156.085 159.810  0.00  0.00    -0.284 N 
ATOM     16  C7  UNL     1     151.354 155.909 158.877  0.00  0.00    +0.241 C 
ATOM     17  O2  UNL     1     152.057 154.908 158.773  0.00  0.00    -0.273 OA
ATOM     18  H7  UNL     1     149.779 156.932 159.713  0.00  0.00    +0.155 HD
BRANCH  15  23
ATOM     19  C2  UNL     1     148.575 153.483 161.850  0.00  0.00    +0.122 A 
ATOM     20  C3  UNL     1     149.337 153.555 163.018  0.00  0.00    +0.046 A 
ATOM     21  C4  UNL     1     150.404 154.446 163.111  0.00  0.00    +0.005 A 
ATOM     22  C5  UNL     1     150.710 155.273 162.031  0.00  0.00    +0.023 A 
ATOM     23  C6  UNL     1     149.953 155.218 160.853  0.00  0.00    +0.037 A 
ATOM     24  C20 UNL     1     148.887 154.315 160.770  0.00  0.00    +0.069 A 
BRANCH  19  26
ATOM     25  C1  UNL     1     147.445 151.789 163.078  0.00  0.00    +0.277 C 
ATOM     26  O1  UNL     1     147.561 152.564 161.890  0.00  0.00    -0.495 OA
ENDBRANCH  19  26
ENDBRANCH  15  23
ENDBRANCH   1  16
BRANCH   1  27
ATOM     27  C9  UNL     1     150.441 158.242 158.173  0.00  0.00    +0.015 C 
ATOM     28  C10 UNL     1     150.969 159.273 159.185  0.00  0.00    +0.010 C 
ATOM     29  C11 UNL     1     150.081 158.983 156.879  0.00  0.00    +0.010 C 
ENDBRANCH   1  27
TORSDOF 5
ENDMDL
MODEL 2
REMARK VINA RESULT:    -8.392      3.241      4.971
REMARK INTER + INTRA:         -10.692
REMARK INTER:                 -10.222
REMARK INTRA:                  -0.469
REMARK UNBOUND:                 0.153
REMARK  Name = /home/vital/Documents/PhD_2021/Malaria_codes/data/pdb_ligands_mmv/ligand_29.pdb
REMARK  8 active torsions:
REMARK  status: ('A' for Active; 'I' for Inactive)
REMARK    1  A    between atoms: C1_1  and  O1_2
REMARK    2  A    between atoms: O1_2  and  C2_3
REMARK    3  A    between atoms: C6_7  and  N1_8
REMARK    4  A    between atoms: C7_9  and  C8_11
REMARK    5  A    between atoms: C8_11  and  C9_12
REMARK    6  A    between atoms: C8_11  and  N2_15
REMARK    7  A    between atoms: C9_12  and  C10_13
REMARK    8  A    between atoms: C9_12  and  C11_14
REMARK                            x       y       z     vdW  Elec       q    Type
REMARK                         _______ _______ _______ _____ _____    ______ ____
ROOT
ATOM      1  C8  UNL     1     151.591 159.232 161.584  0.00  0.00    +0.183 C 
ENDROOT
BRANCH   1   2
ATOM      2  N2  UNL     1     151.640 158.835 160.157  0.00  0.00    -0.248 N 
ATOM      3  C12 UNL     1     152.550 159.495 159.350  0.00  0.00    +0.330 A 
ATOM      4  O3  UNL     1     153.356 160.324 159.777  0.00  0.00    -0.246 OA
ATOM      5  N3  UNL     1     152.575 159.164 158.029  0.00  0.00    -0.307 N 
ATOM      6  C13 UNL     1     151.818 158.136 157.477  0.00  0.00    +0.056 A 
ATOM      7  C14 UNL     1     151.896 157.862 156.112  0.00  0.00    +0.026 A 
ATOM      8  C15 UNL     1     151.149 156.811 155.576  0.00  0.00    +0.002 A 
ATOM      9  C16 UNL     1     150.334 156.035 156.404  0.00  0.00    +0.001 A 
ATOM     10  C17 UNL     1     150.264 156.310 157.770  0.00  0.00    +0.015 A 
ATOM     11  C18 UNL     1     151.009 157.367 158.303  0.00  0.00    +0.063 A 
ATOM     12  C19 UNL     1     150.963 157.687 159.743  0.00  0.00    +0.265 A 
ATOM     13  O4  UNL     1     150.346 156.933 160.487  0.00  0.00    -0.267 OA
ATOM     14  H16 UNL     1     153.227 159.682 157.455  0.00  0.00    +0.170 HD
ENDBRANCH   1   2
BRANCH   1  16
ATOM     15  N1  UNL     1     150.998 157.574 163.281  0.00  0.00    -0.284 N 
ATOM     16  C7  UNL     1     152.012 158.000 162.429  0.00  0.00    +0.241 C 
ATOM     17  O2  UNL     1     153.111 157.466 162.311  0.00  0.00    -0.273 OA
ATOM     18  H7  UNL     1     150.106 158.063 163.199  0.00  0.00    +0.155 HD
BRANCH  15  23
ATOM     19  C2  UNL     1     151.613 155.529 166.360  0.00  0.00    +0.122 A 
ATOM     20  C3  UNL     1     151.001 154.337 165.967  0.00  0.00    +0.046 A 
ATOM     21  C4  UNL     1     150.404 154.231 164.712  0.00  0.00    +0.005 A 
ATOM     22  C5  UNL     1     150.420 155.321 163.843  0.00  0.00    +0.023 A 
ATOM     23  C6  UNL     1     151.033 156.523 164.219  0.00  0.00    +0.037 A 
ATOM     24  C20 UNL     1     151.626 156.620 165.483  0.00  0.00    +0.069 A 
BRANCH  19  26
ATOM     25  C1  UNL     1     153.568 155.344 167.700  0.00  0.00    +0.277 C 
ATOM     26  O1  UNL     1     152.156 155.501 167.616  0.00  0.00    -0.495 OA
ENDBRANCH  19  26
ENDBRANCH  15  23
ENDBRANCH   1  16
BRANCH   1  27
ATOM     27  C9  UNL     1     150.266 159.894 162.057  0.00  0.00    +0.015 C 
ATOM     28  C10 UNL     1     150.551 161.053 163.026  0.00  0.00    +0.010 C 
ATOM     29  C11 UNL     1     149.455 160.445 160.878  0.00  0.00    +0.010 C 
ENDBRANCH   1  27
TORSDOF 5
ENDMDL
MODEL 3
REMARK VINA RESULT:    -8.152      9.273     13.524
REMARK INTER + INTRA:         -10.382
REMARK INTER:                 -10.237
REMARK INTRA:                  -0.146
REMARK UNBOUND:                 0.153
REMARK  Name = /home/vital/Documents/PhD_2021/Malaria_codes/data/pdb_ligands_mmv/ligand_29.pdb
REMARK  8 active torsions:
REMARK  status: ('A' for Active; 'I' for Inactive)
REMARK    1  A    between atoms: C1_1  and  O1_2
REMARK    2  A    between atoms: O1_2  and  C2_3
REMARK    3  A    between atoms: C6_7  and  N1_8
REMARK    4  A    between atoms: C7_9  and  C8_11
REMARK    5  A    between atoms: C8_11  and  C9_12
REMARK    6  A    between atoms: C8_11  and  N2_15
REMARK    7  A    between atoms: C9_12  and  C10_13
REMARK    8  A    between atoms: C9_12  and  C11_14
REMARK                            x       y       z     vdW  Elec       q    Type
REMARK                         _______ _______ _______ _____ _____    ______ ____
ROOT
ATOM      1  C8  UNL     1     144.797 147.616 166.594  0.00  0.00    +0.183 C 
ENDROOT
BRANCH   1   2
ATOM      2  N2  UNL     1     145.323 148.575 165.594  0.00  0.00    -0.248 N 
ATOM      3  C12 UNL     1     144.786 148.515 164.319  0.00  0.00    +0.330 A 
ATOM      4  O3  UNL     1     143.855 147.768 164.013  0.00  0.00    -0.246 OA
ATOM      5  N3  UNL     1     145.290 149.366 163.384  0.00  0.00    -0.307 N 
ATOM      6  C13 UNL     1     146.230 150.353 163.665  0.00  0.00    +0.056 A 
ATOM      7  C14 UNL     1     146.702 151.182 162.649  0.00  0.00    +0.026 A 
ATOM      8  C15 UNL     1     147.626 152.185 162.950  0.00  0.00    +0.002 A 
ATOM      9  C16 UNL     1     148.071 152.358 164.264  0.00  0.00    +0.001 A 
ATOM     10  C17 UNL     1     147.592 151.528 165.278  0.00  0.00    +0.015 A 
ATOM     11  C18 UNL     1     146.669 150.521 164.971  0.00  0.00    +0.063 A 
ATOM     12  C19 UNL     1     146.138 149.626 166.017  0.00  0.00    +0.265 A 
ATOM     13  O4  UNL     1     146.432 149.856 167.185  0.00  0.00    -0.267 OA
ATOM     14  H16 UNL     1     144.902 149.282 162.453  0.00  0.00    +0.170 HD
ENDBRANCH   1   2
BRANCH   1  16
ATOM     15  N1  UNL     1     144.761 145.453 165.453  0.00  0.00    -0.284 N 
ATOM     16  C7  UNL     1     145.484 146.247 166.337  0.00  0.00    +0.241 C 
ATOM     17  O2  UNL     1     146.559 145.945 166.848  0.00  0.00    -0.273 OA
ATOM     18  H7  UNL     1     143.932 145.879 165.040  0.00  0.00    +0.155 HD
BRANCH  15  23
ATOM     19  C2  UNL     1     145.182 141.733 165.308  0.00  0.00    +0.122 A 
ATOM     20  C3  UNL     1     145.669 141.610 164.005  0.00  0.00    +0.046 A 
ATOM     21  C4  UNL     1     145.847 142.739 163.209  0.00  0.00    +0.005 A 
ATOM     22  C5  UNL     1     145.538 144.000 163.717  0.00  0.00    +0.023 A 
ATOM     23  C6  UNL     1     145.053 144.142 165.023  0.00  0.00    +0.037 A 
ATOM     24  C20 UNL     1     144.874 143.001 165.813  0.00  0.00    +0.069 A 
BRANCH  19  26
ATOM     25  C1  UNL     1     143.726 140.109 166.255  0.00  0.00    +0.277 C 
ATOM     26  O1  UNL     1     145.052 140.547 165.980  0.00  0.00    -0.495 OA
ENDBRANCH  19  26
ENDBRANCH  15  23
ENDBRANCH   1  16
BRANCH   1  27
ATOM     27  C9  UNL     1     143.249 147.530 166.700  0.00  0.00    +0.015 C 
ATOM     28  C10 UNL     1     142.831 146.536 167.797  0.00  0.00    +0.010 C 
ATOM     29  C11 UNL     1     142.626 148.893 167.027  0.00  0.00    +0.010 C 
ENDBRANCH   1  27
TORSDOF 5
ENDMDL
MODEL 4
REMARK VINA RESULT:    -8.098      5.462      9.740
REMARK INTER + INTRA:         -10.312
REMARK INTER:                 -10.105
REMARK INTRA:                  -0.207
REMARK UNBOUND:                 0.153
REMARK  Name = /home/vital/Documents/PhD_2021/Malaria_codes/data/pdb_ligands_mmv/ligand_29.pdb
REMARK  8 active torsions:
REMARK  status: ('A' for Active; 'I' for Inactive)
REMARK    1  A    between atoms: C1_1  and  O1_2
REMARK    2  A    between atoms: O1_2  and  C2_3
REMARK    3  A    between atoms: C6_7  and  N1_8
REMARK    4  A    between atoms: C7_9  and  C8_11
REMARK    5  A    between atoms: C8_11  and  C9_12
REMARK    6  A    between atoms: C8_11  and  N2_15
REMARK    7  A    between atoms: C9_12  and  C10_13
REMARK    8  A    between atoms: C9_12  and  C11_14
REMARK                            x       y       z     vdW  Elec       q    Type
REMARK                         _______ _______ _______ _____ _____    ______ ____
ROOT
ATOM      1  C8  UNL     1     152.021 156.172 165.968  0.00  0.00    +0.183 C 
ENDROOT
BRANCH   1   2
ATOM      2  N2  UNL     1     152.208 157.641 166.022  0.00  0.00    -0.248 N 
ATOM      3  C12 UNL     1     152.852 158.234 164.949  0.00  0.00    +0.330 A 
ATOM      4  O3  UNL     1     153.196 157.615 163.941  0.00  0.00    -0.246 OA
ATOM      5  N3  UNL     1     153.063 159.578 165.007  0.00  0.00    -0.307 N 
ATOM      6  C13 UNL     1     152.577 160.392 166.026  0.00  0.00    +0.056 A 
ATOM      7  C14 UNL     1     152.842 161.761 166.016  0.00  0.00    +0.026 A 
ATOM      8  C15 UNL     1     152.327 162.570 167.032  0.00  0.00    +0.002 A 
ATOM      9  C16 UNL     1     151.547 162.011 168.048  0.00  0.00    +0.001 A 
ATOM     10  C17 UNL     1     151.282 160.641 168.050  0.00  0.00    +0.015 A 
ATOM     11  C18 UNL     1     151.804 159.833 167.033  0.00  0.00    +0.063 A 
ATOM     12  C19 UNL     1     151.542 158.381 167.000  0.00  0.00    +0.265 A 
ATOM     13  O4  UNL     1     150.759 157.911 167.819  0.00  0.00    -0.267 OA
ATOM     14  H16 UNL     1     153.562 159.982 164.226  0.00  0.00    +0.170 HD
ENDBRANCH   1   2
BRANCH   1  16
ATOM     15  N1  UNL     1     151.224 155.200 163.871  0.00  0.00    -0.284 N 
ATOM     16  C7  UNL     1     150.829 155.885 165.016  0.00  0.00    +0.241 C 
ATOM     17  O2  UNL     1     149.677 156.211 165.287  0.00  0.00    -0.273 OA
ATOM     18  H7  UNL     1     152.202 154.917 163.830  0.00  0.00    +0.155 HD
BRANCH  15  23
ATOM     19  C2  UNL     1     148.651 153.542 161.709  0.00  0.00    +0.122 A 
ATOM     20  C3  UNL     1     148.939 154.166 160.494  0.00  0.00    +0.046 A 
ATOM     21  C4  UNL     1     149.961 155.109 160.410  0.00  0.00    +0.005 A 
ATOM     22  C5  UNL     1     150.702 155.430 161.546  0.00  0.00    +0.023 A 
ATOM     23  C6  UNL     1     150.429 154.811 162.773  0.00  0.00    +0.037 A 
ATOM     24  C20 UNL     1     149.398 153.868 162.846  0.00  0.00    +0.069 A 
BRANCH  19  26
ATOM     25  C1  UNL     1     147.329 151.929 162.852  0.00  0.00    +0.277 C 
ATOM     26  O1  UNL     1     147.623 152.640 161.654  0.00  0.00    -0.495 OA
ENDBRANCH  19  26
ENDBRANCH  15  23
ENDBRANCH   1  16
BRANCH   1  27
ATOM     27  C9  UNL     1     151.913 155.453 167.342  0.00  0.00    +0.015 C 
ATOM     28  C10 UNL     1     151.241 154.079 167.187  0.00  0.00    +0.010 C 
ATOM     29  C11 UNL     1     153.291 155.242 167.982  0.00  0.00    +0.010 C 
ENDBRANCH   1  27
TORSDOF 5
ENDMDL
MODEL 5
REMARK VINA RESULT:    -8.069      3.692      5.735
REMARK INTER + INTRA:         -10.274
REMARK INTER:                  -9.941
REMARK INTRA:                  -0.334
REMARK UNBOUND:                 0.153
REMARK  Name = /home/vital/Documents/PhD_2021/Malaria_codes/data/pdb_ligands_mmv/ligand_29.pdb
REMARK  8 active torsions:
REMARK  status: ('A' for Active; 'I' for Inactive)
REMARK    1  A    between atoms: C1_1  and  O1_2
REMARK    2  A    between atoms: O1_2  and  C2_3
REMARK    3  A    between atoms: C6_7  and  N1_8
REMARK    4  A    between atoms: C7_9  and  C8_11
REMARK    5  A    between atoms: C8_11  and  C9_12
REMARK    6  A    between atoms: C8_11  and  N2_15
REMARK    7  A    between atoms: C9_12  and  C10_13
REMARK    8  A    between atoms: C9_12  and  C11_14
REMARK                            x       y       z     vdW  Elec       q    Type
REMARK                         _______ _______ _______ _____ _____    ______ ____
ROOT
ATOM      1  C8  UNL     1     151.703 155.870 163.614  0.00  0.00    +0.183 C 
ENDROOT
BRANCH   1   2
ATOM      2  N2  UNL     1     151.446 156.025 162.162  0.00  0.00    -0.248 N 
ATOM      3  C12 UNL     1     151.653 154.913 161.363  0.00  0.00    +0.330 A 
ATOM      4  O3  UNL     1     151.956 153.806 161.811  0.00  0.00    -0.246 OA
ATOM      5  N3  UNL     1     151.457 155.056 160.023  0.00  0.00    -0.307 N 
ATOM      6  C13 UNL     1     150.965 156.217 159.435  0.00  0.00    +0.056 A 
ATOM      7  C14 UNL     1     150.798 156.287 158.053  0.00  0.00    +0.026 A 
ATOM      8  C15 UNL     1     150.280 157.450 157.479  0.00  0.00    +0.002 A 
ATOM      9  C16 UNL     1     149.926 158.534 158.286  0.00  0.00    +0.001 A 
ATOM     10  C17 UNL     1     150.090 158.457 159.669  0.00  0.00    +0.015 A 
ATOM     11  C18 UNL     1     150.615 157.292 160.241  0.00  0.00    +0.063 A 
ATOM     12  C19 UNL     1     150.801 157.172 161.700  0.00  0.00    +0.265 A 
ATOM     13  O4  UNL     1     150.377 158.072 162.417  0.00  0.00    -0.267 OA
ATOM     14  H16 UNL     1     151.643 154.238 159.459  0.00  0.00    +0.170 HD
ENDBRANCH   1   2
BRANCH   1  16
ATOM     15  N1  UNL     1     150.414 153.933 164.368  0.00  0.00    -0.284 N 
ATOM     16  C7  UNL     1     150.404 155.321 164.263  0.00  0.00    +0.241 C 
ATOM     17  O2  UNL     1     149.504 156.057 164.658  0.00  0.00    -0.273 OA
ATOM     18  H7  UNL     1     151.273 153.466 164.080  0.00  0.00    +0.155 HD
BRANCH  15  23
ATOM     19  C2  UNL     1     147.523 151.563 164.620  0.00  0.00    +0.122 A 
ATOM     20  C3  UNL     1     147.444 151.448 166.010  0.00  0.00    +0.046 A 
ATOM     21  C4  UNL     1     148.333 152.143 166.827  0.00  0.00    +0.005 A 
ATOM     22  C5  UNL     1     149.306 152.960 166.254  0.00  0.00    +0.023 A 
ATOM     23  C6  UNL     1     149.397 153.091 164.862  0.00  0.00    +0.037 A 
ATOM     24  C20 UNL     1     148.502 152.385 164.050  0.00  0.00    +0.069 A 
BRANCH  19  26
ATOM     25  C1  UNL     1     146.192 149.595 164.527  0.00  0.00    +0.277 C 
ATOM     26  O1  UNL     1     146.595 150.825 163.936  0.00  0.00    -0.495 OA
ENDBRANCH  19  26
ENDBRANCH  15  23
ENDBRANCH   1  16
BRANCH   1  27
ATOM     27  C9  UNL     1     152.286 157.117 164.335  0.00  0.00    +0.015 C 
ATOM     28  C10 UNL     1     152.346 156.890 165.854  0.00  0.00    +0.010 C 
ATOM     29  C11 UNL     1     153.702 157.446 163.844  0.00  0.00    +0.010 C 
ENDBRANCH   1  27
TORSDOF 5
ENDMDL
MODEL 6
REMARK VINA RESULT:    -7.874      5.504     10.118
REMARK INTER + INTRA:         -10.022
REMARK INTER:                  -9.926
REMARK INTRA:                  -0.096
REMARK UNBOUND:                 0.153
REMARK  Name = /home/vital/Documents/PhD_2021/Malaria_codes/data/pdb_ligands_mmv/ligand_29.pdb
REMARK  8 active torsions:
REMARK  status: ('A' for Active; 'I' for Inactive)
REMARK    1  A    between atoms: C1_1  and  O1_2
REMARK    2  A    between atoms: O1_2  and  C2_3
REMARK    3  A    between atoms: C6_7  and  N1_8
REMARK    4  A    between atoms: C7_9  and  C8_11
REMARK    5  A    between atoms: C8_11  and  C9_12
REMARK    6  A    between atoms: C8_11  and  N2_15
REMARK    7  A    between atoms: C9_12  and  C10_13
REMARK    8  A    between atoms: C9_12  and  C11_14
REMARK                            x       y       z     vdW  Elec       q    Type
REMARK                         _______ _______ _______ _____ _____    ______ ____
ROOT
ATOM      1  C8  UNL     1     152.107 156.502 165.927  0.00  0.00    +0.183 C 
ENDROOT
BRANCH   1   2
ATOM      2  N2  UNL     1     152.138 157.970 166.126  0.00  0.00    -0.248 N 
ATOM      3  C12 UNL     1     152.829 158.718 165.188  0.00  0.00    +0.330 A 
ATOM      4  O3  UNL     1     153.337 158.232 164.176  0.00  0.00    -0.246 OA
ATOM      5  N3  UNL     1     152.896 160.064 165.383  0.00  0.00    -0.307 N 
ATOM      6  C13 UNL     1     152.227 160.730 166.405  0.00  0.00    +0.056 A 
ATOM      7  C14 UNL     1     152.352 162.112 166.542  0.00  0.00    +0.026 A 
ATOM      8  C15 UNL     1     151.654 162.770 167.557  0.00  0.00    +0.002 A 
ATOM      9  C16 UNL     1     150.832 162.049 168.427  0.00  0.00    +0.001 A 
ATOM     10  C17 UNL     1     150.707 160.666 168.282  0.00  0.00    +0.015 A 
ATOM     11  C18 UNL     1     151.412 160.009 167.267  0.00  0.00    +0.063 A 
ATOM     12  C19 UNL     1     151.303 158.549 167.081  0.00  0.00    +0.265 A 
ATOM     13  O4  UNL     1     150.490 157.935 167.763  0.00  0.00    -0.267 OA
ATOM     14  H16 UNL     1     153.431 160.585 164.700  0.00  0.00    +0.170 HD
ENDBRANCH   1   2
BRANCH   1  16
ATOM     15  N1  UNL     1     151.657 155.722 163.653  0.00  0.00    -0.284 N 
ATOM     16  C7  UNL     1     151.064 156.201 164.818  0.00  0.00    +0.241 C 
ATOM     17  O2  UNL     1     149.858 156.349 164.991  0.00  0.00    -0.273 OA
ATOM     18  H7  UNL     1     152.664 155.566 163.692  0.00  0.00    +0.155 HD
BRANCH  15  23
ATOM     19  C2  UNL     1     150.637 155.631 160.049  0.00  0.00    +0.122 A 
ATOM     20  C3  UNL     1     149.716 154.583 160.100  0.00  0.00    +0.046 A 
ATOM     21  C4  UNL     1     149.452 153.933 161.304  0.00  0.00    +0.005 A 
ATOM     22  C5  UNL     1     150.110 154.334 162.466  0.00  0.00    +0.023 A 
ATOM     23  C6  UNL     1     151.034 155.387 162.434  0.00  0.00    +0.037 A 
ATOM     24  C20 UNL     1     151.295 156.029 161.218  0.00  0.00    +0.069 A 
BRANCH  19  26
ATOM     25  C1  UNL     1     151.784 155.575 157.967  0.00  0.00    +0.277 C 
ATOM     26  O1  UNL     1     150.806 156.179 158.806  0.00  0.00    -0.495 OA
ENDBRANCH  19  26
ENDBRANCH  15  23
ENDBRANCH   1  16
BRANCH   1  27
ATOM     27  C9  UNL     1     151.919 155.648 167.213  0.00  0.00    +0.015 C 
ATOM     28  C10 UNL     1     151.344 154.264 166.870  0.00  0.00    +0.010 C 
ATOM     29  C11 UNL     1     153.245 155.445 167.958  0.00  0.00    +0.010 C 
ENDBRANCH   1  27
TORSDOF 5
ENDMDL
MODEL 7
REMARK VINA RESULT:    -7.845      3.784      5.511
REMARK INTER + INTRA:          -9.985
REMARK INTER:                  -9.764
REMARK INTRA:                  -0.221
REMARK UNBOUND:                 0.153
REMARK  Name = /home/vital/Documents/PhD_2021/Malaria_codes/data/pdb_ligands_mmv/ligand_29.pdb
REMARK  8 active torsions:
REMARK  status: ('A' for Active; 'I' for Inactive)
REMARK    1  A    between atoms: C1_1  and  O1_2
REMARK    2  A    between atoms: O1_2  and  C2_3
REMARK    3  A    between atoms: C6_7  and  N1_8
REMARK    4  A    between atoms: C7_9  and  C8_11
REMARK    5  A    between atoms: C8_11  and  C9_12
REMARK    6  A    between atoms: C8_11  and  N2_15
REMARK    7  A    between atoms: C9_12  and  C10_13
REMARK    8  A    between atoms: C9_12  and  C11_14
REMARK                            x       y       z     vdW  Elec       q    Type
REMARK                         _______ _______ _______ _____ _____    ______ ____
ROOT
ATOM      1  C8  UNL     1     150.325 156.655 161.063  0.00  0.00    +0.183 C 
ENDROOT
BRANCH   1   2
ATOM      2  N2  UNL     1     150.497 157.086 159.656  0.00  0.00    -0.248 N 
ATOM      3  C12 UNL     1     150.025 158.344 159.320  0.00  0.00    +0.330 A 
ATOM      4  O3  UNL     1     149.552 159.130 160.142  0.00  0.00    -0.246 OA
ATOM      5  N3  UNL     1     150.143 158.734 158.020  0.00  0.00    -0.307 N 
ATOM      6  C13 UNL     1     150.801 157.987 157.048  0.00  0.00    +0.056 A 
ATOM      7  C14 UNL     1     150.873 158.453 155.736  0.00  0.00    +0.026 A 
ATOM      8  C15 UNL     1     151.558 157.705 154.775  0.00  0.00    +0.002 A 
ATOM      9  C16 UNL     1     152.171 156.500 155.129  0.00  0.00    +0.001 A 
ATOM     10  C17 UNL     1     152.099 156.041 156.445  0.00  0.00    +0.015 A 
ATOM     11  C18 UNL     1     151.408 156.790 157.404  0.00  0.00    +0.063 A 
ATOM     12  C19 UNL     1     151.312 156.339 158.805  0.00  0.00    +0.265 A 
ATOM     13  O4  UNL     1     151.951 155.348 159.142  0.00  0.00    -0.267 OA
ATOM     14  H16 UNL     1     149.763 159.644 157.794  0.00  0.00    +0.170 HD
ENDBRANCH   1   2
BRANCH   1  16
ATOM     15  N1  UNL     1     150.805 158.236 162.867  0.00  0.00    -0.284 N 
ATOM     16  C7  UNL     1     151.386 157.403 161.916  0.00  0.00    +0.241 C 
ATOM     17  O2  UNL     1     152.592 157.231 161.763  0.00  0.00    -0.273 OA
ATOM     18  H7  UNL     1     149.788 158.202 162.934  0.00  0.00    +0.155 HD
BRANCH  15  23
ATOM     19  C2  UNL     1     152.431 159.645 165.934  0.00  0.00    +0.122 A 
ATOM     20  C3  UNL     1     152.741 160.922 165.460  0.00  0.00    +0.046 A 
ATOM     21  C4  UNL     1     152.414 161.290 164.157  0.00  0.00    +0.005 A 
ATOM     22  C5  UNL     1     151.771 160.378 163.321  0.00  0.00    +0.023 A 
ATOM     23  C6  UNL     1     151.449 159.094 163.781  0.00  0.00    +0.037 A 
ATOM     24  C20 UNL     1     151.786 158.734 165.090  0.00  0.00    +0.069 A 
BRANCH  19  26
ATOM     25  C1  UNL     1     152.465 158.147 167.780  0.00  0.00    +0.277 C 
ATOM     26  O1  UNL     1     152.811 159.412 167.228  0.00  0.00    -0.495 OA
ENDBRANCH  19  26
ENDBRANCH  15  23
ENDBRANCH   1  16
BRANCH   1  27
ATOM     27  C9  UNL     1     150.298 155.120 161.302  0.00  0.00    +0.015 C 
ATOM     28  C10 UNL     1     150.553 154.793 162.782  0.00  0.00    +0.010 C 
ATOM     29  C11 UNL     1     148.949 154.507 160.902  0.00  0.00    +0.010 C 
ENDBRANCH   1  27
TORSDOF 5
ENDMDL
MODEL 8
REMARK VINA RESULT:    -7.840      3.593      5.326
REMARK INTER + INTRA:          -9.979
REMARK INTER:                  -9.910
REMARK INTRA:                  -0.069
REMARK UNBOUND:                 0.153
REMARK  Name = /home/vital/Documents/PhD_2021/Malaria_codes/data/pdb_ligands_mmv/ligand_29.pdb
REMARK  8 active torsions:
REMARK  status: ('A' for Active; 'I' for Inactive)
REMARK    1  A    between atoms: C1_1  and  O1_2
REMARK    2  A    between atoms: O1_2  and  C2_3
REMARK    3  A    between atoms: C6_7  and  N1_8
REMARK    4  A    between atoms: C7_9  and  C8_11
REMARK    5  A    between atoms: C8_11  and  C9_12
REMARK    6  A    between atoms: C8_11  and  N2_15
REMARK    7  A    between atoms: C9_12  and  C10_13
REMARK    8  A    between atoms: C9_12  and  C11_14
REMARK                            x       y       z     vdW  Elec       q    Type
REMARK                         _______ _______ _______ _____ _____    ______ ____
ROOT
ATOM      1  C8  UNL     1     150.346 156.856 160.090  0.00  0.00    +0.183 C 
ENDROOT
BRANCH   1   2
ATOM      2  N2  UNL     1     150.606 157.174 158.666  0.00  0.00    -0.248 N 
ATOM      3  C12 UNL     1     150.106 158.373 158.186  0.00  0.00    +0.330 A 
ATOM      4  O3  UNL     1     149.537 159.201 158.899  0.00  0.00    -0.246 OA
ATOM      5  N3  UNL     1     150.306 158.656 156.869  0.00  0.00    -0.307 N 
ATOM      6  C13 UNL     1     151.068 157.863 156.017  0.00  0.00    +0.056 A 
ATOM      7  C14 UNL     1     151.221 158.219 154.677  0.00  0.00    +0.026 A 
ATOM      8  C15 UNL     1     152.009 157.427 153.839  0.00  0.00    +0.002 A 
ATOM      9  C16 UNL     1     152.645 156.289 154.342  0.00  0.00    +0.001 A 
ATOM     10  C17 UNL     1     152.493 155.941 155.685  0.00  0.00    +0.015 A 
ATOM     11  C18 UNL     1     151.698 156.733 156.520  0.00  0.00    +0.063 A 
ATOM     12  C19 UNL     1     151.515 156.398 157.946  0.00  0.00    +0.265 A 
ATOM     13  O4  UNL     1     152.169 155.473 158.415  0.00  0.00    -0.267 OA
ATOM     14  H16 UNL     1     149.905 159.523 156.537  0.00  0.00    +0.170 HD
ENDBRANCH   1   2
BRANCH   1  16
ATOM     15  N1  UNL     1     150.445 158.617 161.783  0.00  0.00    -0.284 N 
ATOM     16  C7  UNL     1     151.215 157.812 160.950  0.00  0.00    +0.241 C 
ATOM     17  O2  UNL     1     152.442 157.810 160.900  0.00  0.00    -0.273 OA
ATOM     18  H7  UNL     1     149.441 158.439 161.780  0.00  0.00    +0.155 HD
BRANCH  15  23
ATOM     19  C2  UNL     1     151.913 160.436 164.711  0.00  0.00    +0.122 A 
ATOM     20  C3  UNL     1     151.703 161.751 164.290  0.00  0.00    +0.046 A 
ATOM     21  C4  UNL     1     151.090 162.011 163.066  0.00  0.00    +0.005 A 
ATOM     22  C5  UNL     1     150.683 160.951 162.258  0.00  0.00    +0.023 A 
ATOM     23  C6  UNL     1     150.882 159.626 162.666  0.00  0.00    +0.037 A 
ATOM     24  C20 UNL     1     151.502 159.377 163.895  0.00  0.00    +0.069 A 
BRANCH  19  26
ATOM     25  C1  UNL     1     153.060 161.515 166.493  0.00  0.00    +0.277 C 
ATOM     26  O1  UNL     1     152.527 160.322 165.929  0.00  0.00    -0.495 OA
ENDBRANCH  19  26
ENDBRANCH  15  23
ENDBRANCH   1  16
BRANCH   1  27
ATOM     27  C9  UNL     1     150.481 155.359 160.484  0.00  0.00    +0.015 C 
ATOM     28  C10 UNL     1     150.763 155.215 161.989  0.00  0.00    +0.010 C 
ATOM     29  C11 UNL     1     149.208 154.568 160.158  0.00  0.00    +0.010 C 
ENDBRANCH   1  27
TORSDOF 5
ENDMDL
MODEL 9
REMARK VINA RESULT:    -7.824      3.510      4.904
REMARK INTER + INTRA:          -9.958
REMARK INTER:                  -9.953
REMARK INTRA:                  -0.004
REMARK UNBOUND:                 0.153
REMARK  Name = /home/vital/Documents/PhD_2021/Malaria_codes/data/pdb_ligands_mmv/ligand_29.pdb
REMARK  8 active torsions:
REMARK  status: ('A' for Active; 'I' for Inactive)
REMARK    1  A    between atoms: C1_1  and  O1_2
REMARK    2  A    between atoms: O1_2  and  C2_3
REMARK    3  A    between atoms: C6_7  and  N1_8
REMARK    4  A    between atoms: C7_9  and  C8_11
REMARK    5  A    between atoms: C8_11  and  C9_12
REMARK    6  A    between atoms: C8_11  and  N2_15
REMARK    7  A    between atoms: C9_12  and  C10_13
REMARK    8  A    between atoms: C9_12  and  C11_14
REMARK                            x       y       z     vdW  Elec       q    Type
REMARK                         _______ _______ _______ _____ _____    ______ ____
ROOT
ATOM      1  C8  UNL     1     151.652 159.069 161.597  0.00  0.00    +0.183 C 
ENDROOT
BRANCH   1   2
ATOM      2  N2  UNL     1     151.322 158.219 160.428  0.00  0.00    -0.248 N 
ATOM      3  C12 UNL     1     150.486 157.138 160.651  0.00  0.00    +0.330 A 
ATOM      4  O3  UNL     1     149.953 156.908 161.738  0.00  0.00    -0.246 OA
ATOM      5  N3  UNL     1     150.208 156.329 159.591  0.00  0.00    -0.307 N 
ATOM      6  C13 UNL     1     150.631 156.588 158.291  0.00  0.00    +0.056 A 
ATOM      7  C14 UNL     1     150.310 155.706 157.260  0.00  0.00    +0.026 A 
ATOM      8  C15 UNL     1     150.719 155.991 155.956  0.00  0.00    +0.002 A 
ATOM      9  C16 UNL     1     151.441 157.157 155.685  0.00  0.00    +0.001 A 
ATOM     10  C17 UNL     1     151.755 158.039 156.720  0.00  0.00    +0.015 A 
ATOM     11  C18 UNL     1     151.348 157.747 158.027  0.00  0.00    +0.063 A 
ATOM     12  C19 UNL     1     151.659 158.656 159.147  0.00  0.00    +0.265 A 
ATOM     13  O4  UNL     1     152.183 159.735 158.892  0.00  0.00    -0.267 OA
ATOM     14  H16 UNL     1     149.619 155.530 159.786  0.00  0.00    +0.170 HD
ENDBRANCH   1   2
BRANCH   1  16
ATOM     15  N1  UNL     1     151.446 158.165 163.860  0.00  0.00    -0.284 N 
ATOM     16  C7  UNL     1     152.221 158.143 162.705  0.00  0.00    +0.241 C 
ATOM     17  O2  UNL     1     153.226 157.457 162.537  0.00  0.00    -0.273 OA
ATOM     18  H7  UNL     1     150.588 158.715 163.815  0.00  0.00    +0.155 HD
BRANCH  15  23
ATOM     19  C2  UNL     1     151.674 155.536 166.519  0.00  0.00    +0.122 A 
ATOM     20  C3  UNL     1     152.210 156.306 167.554  0.00  0.00    +0.046 A 
ATOM     21  C4  UNL     1     152.483 157.658 167.359  0.00  0.00    +0.005 A 
ATOM     22  C5  UNL     1     152.218 158.246 166.124  0.00  0.00    +0.023 A 
ATOM     23  C6  UNL     1     151.677 157.491 165.076  0.00  0.00    +0.037 A 
ATOM     24  C20 UNL     1     151.410 156.133 165.282  0.00  0.00    +0.069 A 
BRANCH  19  26
ATOM     25  C1  UNL     1     152.368 153.630 167.760  0.00  0.00    +0.277 C 
ATOM     26  O1  UNL     1     151.457 154.223 166.842  0.00  0.00    -0.495 OA
ENDBRANCH  19  26
ENDBRANCH  15  23
ENDBRANCH   1  16
BRANCH   1  27
ATOM     27  C9  UNL     1     150.519 160.012 162.089  0.00  0.00    +0.015 C 
ATOM     28  C10 UNL     1     151.094 161.358 162.557  0.00  0.00    +0.010 C 
ATOM     29  C11 UNL     1     149.491 160.289 160.983  0.00  0.00    +0.010 C 
ENDBRANCH   1  27
TORSDOF 5
ENDMDL
