MODEL 1
REMARK VINA RESULT:    -4.126      0.000      0.000
REMARK INTER + INTRA:          -5.228
REMARK INTER:                  -4.850
REMARK INTRA:                  -0.378
REMARK UNBOUND:                -0.378
REMARK  Name = /home/vital/Documents/PhD_2021/Malaria_codes/data/pdb_ligands_mmv/ligand_192.pdb
REMARK  6 active torsions:
REMARK  status: ('A' for Active; 'I' for Inactive)
REMARK    1  A    between atoms: C1_1  and  O1_2
REMARK    2  A    between atoms: O1_2  and  C2_3
REMARK    3  A    between atoms: C4_5  and  S1_6
REMARK    4  A    between atoms: S1_6  and  C5_7
REMARK    5  A    between atoms: C8_10  and  C9_11
REMARK    6  A    between atoms: C13_17  and  C14_18
REMARK                            x       y       z     vdW  Elec       q    Type
REMARK                         _______ _______ _______ _____ _____    ______ ____
ROOT
ATOM      1  C2  UNL     1     150.016 158.252 159.678  0.00  0.00    +0.133 A 
ATOM      2  C3  UNL     1     150.274 158.719 158.384  0.00  0.00    +0.061 A 
ATOM      3  C4  UNL     1     150.902 157.896 157.436  0.00  0.00    +0.011 A 
ATOM      4  C6  UNL     1     151.256 156.587 157.775  0.00  0.00    +0.015 A 
ATOM      5  C7  UNL     1     151.001 156.106 159.058  0.00  0.00    +0.018 A 
ATOM      6  C8  UNL     1     150.375 156.934 159.996  0.00  0.00    +0.079 A 
ENDROOT
BRANCH   6   7
ATOM      7  C9  UNL     1     150.156 156.386 161.348  0.00  0.00    +0.250 C 
ATOM      8  O2  UNL     1     149.124 155.747 161.538  0.00  0.00    -0.270 OA
ATOM      9  N1  UNL     1     151.086 156.682 162.344  0.00  0.00    -0.297 N 
ATOM     10  C10 UNL     1     152.309 157.458 162.131  0.00  0.00    +0.108 C 
ATOM     11  C11 UNL     1     153.407 157.062 163.112  0.00  0.00    +0.019 C 
ATOM     12  C12 UNL     1     152.971 157.211 164.570  0.00  0.00    +0.006 C 
ATOM     13  C13 UNL     1     151.449 157.100 164.760  0.00  0.00    +0.003 C 
ATOM     14  C14 UNL     1     151.107 156.623 166.169  0.00  0.00    +0.009 C 
ATOM     15  C15 UNL     1     150.825 156.192 163.697  0.00  0.00    +0.111 C 
ENDBRANCH   6   7
BRANCH   1  17
ATOM     16  C1  UNL     1     149.941 160.263 160.957  0.00  0.00    +0.277 C 
ATOM     17  O1  UNL     1     149.403 158.982 160.662  0.00  0.00    -0.494 OA
ENDBRANCH   1  17
BRANCH   3  18
ATOM     18  S1  UNL     1     151.198 158.537 155.796  0.00  0.00    -0.128 S 
ATOM     19  C5  UNL     1     152.564 157.460 155.284  0.00  0.00    +0.090 C 
ENDBRANCH   3  18
TORSDOF 3
ENDMDL
MODEL 2
REMARK VINA RESULT:    -3.786      3.921      7.211
REMARK INTER + INTRA:          -4.828
REMARK INTER:                  -4.402
REMARK INTRA:                  -0.426
REMARK UNBOUND:                -0.378
REMARK  Name = /home/vital/Documents/PhD_2021/Malaria_codes/data/pdb_ligands_mmv/ligand_192.pdb
REMARK  6 active torsions:
REMARK  status: ('A' for Active; 'I' for Inactive)
REMARK    1  A    between atoms: C1_1  and  O1_2
REMARK    2  A    between atoms: O1_2  and  C2_3
REMARK    3  A    between atoms: C4_5  and  S1_6
REMARK    4  A    between atoms: S1_6  and  C5_7
REMARK    5  A    between atoms: C8_10  and  C9_11
REMARK    6  A    between atoms: C13_17  and  C14_18
REMARK                            x       y       z     vdW  Elec       q    Type
REMARK                         _______ _______ _______ _____ _____    ______ ____
ROOT
ATOM      1  C2  UNL     1     151.810 160.159 164.019  0.00  0.00    +0.133 A 
ATOM      2  C3  UNL     1     151.193 160.314 165.266  0.00  0.00    +0.061 A 
ATOM      3  C4  UNL     1     150.141 161.226 165.438  0.00  0.00    +0.011 A 
ATOM      4  C6  UNL     1     149.682 161.975 164.350  0.00  0.00    +0.015 A 
ATOM      5  C7  UNL     1     150.281 161.827 163.101  0.00  0.00    +0.018 A 
ATOM      6  C8  UNL     1     151.331 160.917 162.940  0.00  0.00    +0.079 A 
ENDROOT
BRANCH   6   7
ATOM      7  C9  UNL     1     151.951 160.822 161.604  0.00  0.00    +0.250 C 
ATOM      8  O2  UNL     1     152.919 161.545 161.379  0.00  0.00    -0.270 OA
ATOM      9  N1  UNL     1     151.368 159.981 160.659  0.00  0.00    -0.297 N 
ATOM     10  C10 UNL     1     150.203 159.130 160.913  0.00  0.00    +0.108 C 
ATOM     11  C11 UNL     1     150.206 157.890 160.027  0.00  0.00    +0.019 C 
ATOM     12  C12 UNL     1     150.254 158.235 158.537  0.00  0.00    +0.006 C 
ATOM     13  C13 UNL     1     150.902 159.600 158.254  0.00  0.00    +0.003 C 
ATOM     14  C14 UNL     1     151.501 159.641 156.851  0.00  0.00    +0.009 C 
ATOM     15  C15 UNL     1     151.948 159.947 159.317  0.00  0.00    +0.111 C 
ENDBRANCH   6   7
BRANCH   1  17
ATOM     16  C1  UNL     1     152.660 157.935 164.145  0.00  0.00    +0.277 C 
ATOM     17  O1  UNL     1     152.837 159.291 163.760  0.00  0.00    -0.494 OA
ENDBRANCH   1  17
BRANCH   3  18
ATOM     18  S1  UNL     1     149.383 161.377 167.048  0.00  0.00    -0.128 S 
ATOM     19  C5  UNL     1     149.366 159.633 167.547  0.00  0.00    +0.090 C 
ENDBRANCH   3  18
TORSDOF 3
ENDMDL
MODEL 3
REMARK VINA RESULT:    -3.776      3.351      6.788
REMARK INTER + INTRA:          -4.816
REMARK INTER:                  -4.434
REMARK INTRA:                  -0.383
REMARK UNBOUND:                -0.378
REMARK  Name = /home/vital/Documents/PhD_2021/Malaria_codes/data/pdb_ligands_mmv/ligand_192.pdb
REMARK  6 active torsions:
REMARK  status: ('A' for Active; 'I' for Inactive)
REMARK    1  A    between atoms: C1_1  and  O1_2
REMARK    2  A    between atoms: O1_2  and  C2_3
REMARK    3  A    between atoms: C4_5  and  S1_6
REMARK    4  A    between atoms: S1_6  and  C5_7
REMARK    5  A    between atoms: C8_10  and  C9_11
REMARK    6  A    between atoms: C13_17  and  C14_18
REMARK                            x       y       z     vdW  Elec       q    Type
REMARK                         _______ _______ _______ _____ _____    ______ ____
ROOT
ATOM      1  C2  UNL     1     152.047 159.289 162.243  0.00  0.00    +0.133 A 
ATOM      2  C3  UNL     1     151.462 159.601 163.476  0.00  0.00    +0.061 A 
ATOM      3  C4  UNL     1     150.611 160.710 163.606  0.00  0.00    +0.011 A 
ATOM      4  C6  UNL     1     150.322 161.502 162.492  0.00  0.00    +0.015 A 
ATOM      5  C7  UNL     1     150.893 161.201 161.256  0.00  0.00    +0.018 A 
ATOM      6  C8  UNL     1     151.741 160.095 161.136  0.00  0.00    +0.079 A 
ENDROOT
BRANCH   6   7
ATOM      7  C9  UNL     1     152.342 159.839 159.814  0.00  0.00    +0.250 C 
ATOM      8  O2  UNL     1     153.402 160.405 159.557  0.00  0.00    -0.270 OA
ATOM      9  N1  UNL     1     151.647 159.035 158.912  0.00  0.00    -0.297 N 
ATOM     10  C10 UNL     1     150.375 158.372 159.203  0.00  0.00    +0.108 C 
ATOM     11  C11 UNL     1     150.204 157.095 158.387  0.00  0.00    +0.019 C 
ATOM     12  C12 UNL     1     150.302 157.345 156.881  0.00  0.00    +0.006 C 
ATOM     13  C13 UNL     1     151.135 158.588 156.528  0.00  0.00    +0.003 C 
ATOM     14  C14 UNL     1     151.735 158.465 155.130  0.00  0.00    +0.009 C 
ATOM     15  C15 UNL     1     152.219 158.844 157.579  0.00  0.00    +0.111 C 
ENDBRANCH   6   7
BRANCH   1  17
ATOM     16  C1  UNL     1     152.815 157.142 162.939  0.00  0.00    +0.277 C 
ATOM     17  O1  UNL     1     152.883 158.227 162.024  0.00  0.00    -0.494 OA
ENDBRANCH   1  17
BRANCH   3  18
ATOM     18  S1  UNL     1     149.883 161.056 165.199  0.00  0.00    -0.128 S 
ATOM     19  C5  UNL     1     149.132 162.671 164.852  0.00  0.00    +0.090 C 
ENDBRANCH   3  18
TORSDOF 3
ENDMDL
MODEL 4
REMARK VINA RESULT:    -3.713      2.804      6.227
REMARK INTER + INTRA:          -4.742
REMARK INTER:                  -4.474
REMARK INTRA:                  -0.268
REMARK UNBOUND:                -0.378
REMARK  Name = /home/vital/Documents/PhD_2021/Malaria_codes/data/pdb_ligands_mmv/ligand_192.pdb
REMARK  6 active torsions:
REMARK  status: ('A' for Active; 'I' for Inactive)
REMARK    1  A    between atoms: C1_1  and  O1_2
REMARK    2  A    between atoms: O1_2  and  C2_3
REMARK    3  A    between atoms: C4_5  and  S1_6
REMARK    4  A    between atoms: S1_6  and  C5_7
REMARK    5  A    between atoms: C8_10  and  C9_11
REMARK    6  A    between atoms: C13_17  and  C14_18
REMARK                            x       y       z     vdW  Elec       q    Type
REMARK                         _______ _______ _______ _____ _____    ______ ____
ROOT
ATOM      1  C2  UNL     1     151.687 158.680 161.674  0.00  0.00    +0.133 A 
ATOM      2  C3  UNL     1     151.822 159.773 162.538  0.00  0.00    +0.061 A 
ATOM      3  C4  UNL     1     150.928 160.852 162.475  0.00  0.00    +0.011 A 
ATOM      4  C6  UNL     1     149.874 160.831 161.557  0.00  0.00    +0.015 A 
ATOM      5  C7  UNL     1     149.722 159.748 160.694  0.00  0.00    +0.018 A 
ATOM      6  C8  UNL     1     150.620 158.677 160.764  0.00  0.00    +0.079 A 
ENDROOT
BRANCH   6   7
ATOM      7  C9  UNL     1     150.433 157.569 159.807  0.00  0.00    +0.250 C 
ATOM      8  O2  UNL     1     149.918 156.538 160.232  0.00  0.00    -0.270 OA
ATOM      9  N1  UNL     1     150.912 157.726 158.508  0.00  0.00    -0.297 N 
ATOM     10  C10 UNL     1     151.545 158.944 157.999  0.00  0.00    +0.108 C 
ATOM     11  C11 UNL     1     151.342 159.099 156.496  0.00  0.00    +0.019 C 
ATOM     12  C12 UNL     1     151.868 157.899 155.707  0.00  0.00    +0.006 C 
ATOM     13  C13 UNL     1     151.890 156.599 156.527  0.00  0.00    +0.003 C 
ATOM     14  C14 UNL     1     151.792 155.377 155.619  0.00  0.00    +0.009 C 
ATOM     15  C15 UNL     1     150.785 156.596 157.587  0.00  0.00    +0.111 C 
ENDBRANCH   6   7
BRANCH   1  17
ATOM     16  C1  UNL     1     152.953 157.095 162.928  0.00  0.00    +0.277 C 
ATOM     17  O1  UNL     1     152.508 157.584 161.670  0.00  0.00    -0.494 OA
ENDBRANCH   1  17
BRANCH   3  18
ATOM     18  S1  UNL     1     151.139 162.217 163.607  0.00  0.00    -0.128 S 
ATOM     19  C5  UNL     1     149.530 162.178 164.443  0.00  0.00    +0.090 C 
ENDBRANCH   3  18
TORSDOF 3
ENDMDL
MODEL 5
REMARK VINA RESULT:    -3.325      4.798      7.851
REMARK INTER + INTRA:          -4.287
REMARK INTER:                  -3.931
REMARK INTRA:                  -0.356
REMARK UNBOUND:                -0.378
REMARK  Name = /home/vital/Documents/PhD_2021/Malaria_codes/data/pdb_ligands_mmv/ligand_192.pdb
REMARK  6 active torsions:
REMARK  status: ('A' for Active; 'I' for Inactive)
REMARK    1  A    between atoms: C1_1  and  O1_2
REMARK    2  A    between atoms: O1_2  and  C2_3
REMARK    3  A    between atoms: C4_5  and  S1_6
REMARK    4  A    between atoms: S1_6  and  C5_7
REMARK    5  A    between atoms: C8_10  and  C9_11
REMARK    6  A    between atoms: C13_17  and  C14_18
REMARK                            x       y       z     vdW  Elec       q    Type
REMARK                         _______ _______ _______ _____ _____    ______ ____
ROOT
ATOM      1  C2  UNL     1     151.073 160.507 166.207  0.00  0.00    +0.133 A 
ATOM      2  C3  UNL     1     151.622 160.321 167.481  0.00  0.00    +0.061 A 
ATOM      3  C4  UNL     1     152.993 160.520 167.707  0.00  0.00    +0.011 A 
ATOM      4  C6  UNL     1     153.820 160.931 166.658  0.00  0.00    +0.015 A 
ATOM      5  C7  UNL     1     153.287 161.127 165.386  0.00  0.00    +0.018 A 
ATOM      6  C8  UNL     1     151.920 160.924 165.170  0.00  0.00    +0.079 A 
ENDROOT
BRANCH   6   7
ATOM      7  C9  UNL     1     151.412 161.114 163.798  0.00  0.00    +0.250 C 
ATOM      8  O2  UNL     1     151.031 162.241 163.488  0.00  0.00    -0.270 OA
ATOM      9  N1  UNL     1     151.327 160.003 162.961  0.00  0.00    -0.297 N 
ATOM     10  C10 UNL     1     151.761 158.654 163.328  0.00  0.00    +0.108 C 
ATOM     11  C11 UNL     1     152.191 157.848 162.107  0.00  0.00    +0.019 C 
ATOM     12  C12 UNL     1     151.087 157.745 161.054  0.00  0.00    +0.006 C 
ATOM     13  C13 UNL     1     150.088 158.912 161.111  0.00  0.00    +0.003 C 
ATOM     14  C14 UNL     1     149.432 159.138 159.752  0.00  0.00    +0.009 C 
ATOM     15  C15 UNL     1     150.758 160.189 161.626  0.00  0.00    +0.111 C 
ENDBRANCH   6   7
BRANCH   1  17
ATOM     16  C1  UNL     1     148.795 160.958 166.752  0.00  0.00    +0.277 C 
ATOM     17  O1  UNL     1     149.749 160.341 165.898  0.00  0.00    -0.494 OA
ENDBRANCH   1  17
BRANCH   3  18
ATOM     18  S1  UNL     1     153.640 160.279 169.354  0.00  0.00    -0.128 S 
ATOM     19  C5  UNL     1     152.244 160.902 170.330  0.00  0.00    +0.090 C 
ENDBRANCH   3  18
TORSDOF 3
ENDMDL
MODEL 6
REMARK VINA RESULT:    -3.133      2.491      3.330
REMARK INTER + INTRA:          -4.061
REMARK INTER:                  -3.919
REMARK INTRA:                  -0.142
REMARK UNBOUND:                -0.378
REMARK  Name = /home/vital/Documents/PhD_2021/Malaria_codes/data/pdb_ligands_mmv/ligand_192.pdb
REMARK  6 active torsions:
REMARK  status: ('A' for Active; 'I' for Inactive)
REMARK    1  A    between atoms: C1_1  and  O1_2
REMARK    2  A    between atoms: O1_2  and  C2_3
REMARK    3  A    between atoms: C4_5  and  S1_6
REMARK    4  A    between atoms: S1_6  and  C5_7
REMARK    5  A    between atoms: C8_10  and  C9_11
REMARK    6  A    between atoms: C13_17  and  C14_18
REMARK                            x       y       z     vdW  Elec       q    Type
REMARK                         _______ _______ _______ _____ _____    ______ ____
ROOT
ATOM      1  C2  UNL     1     150.452 157.292 161.065  0.00  0.00    +0.133 A 
ATOM      2  C3  UNL     1     150.303 157.623 159.713  0.00  0.00    +0.061 A 
ATOM      3  C4  UNL     1     150.643 156.705 158.708  0.00  0.00    +0.011 A 
ATOM      4  C6  UNL     1     151.115 155.436 159.054  0.00  0.00    +0.015 A 
ATOM      5  C7  UNL     1     151.263 155.089 160.395  0.00  0.00    +0.018 A 
ATOM      6  C8  UNL     1     150.923 156.012 161.390  0.00  0.00    +0.079 A 
ENDROOT
BRANCH   6   7
ATOM      7  C9  UNL     1     151.128 155.606 162.794  0.00  0.00    +0.250 C 
ATOM      8  O2  UNL     1     152.054 156.135 163.404  0.00  0.00    -0.270 OA
ATOM      9  N1  UNL     1     150.316 154.603 163.321  0.00  0.00    -0.297 N 
ATOM     10  C10 UNL     1     149.223 153.954 162.594  0.00  0.00    +0.108 C 
ATOM     11  C11 UNL     1     148.134 153.458 163.538  0.00  0.00    +0.019 C 
ATOM     12  C12 UNL     1     148.671 152.491 164.595  0.00  0.00    +0.006 C 
ATOM     13  C13 UNL     1     150.163 152.699 164.901  0.00  0.00    +0.003 C 
ATOM     14  C14 UNL     1     150.504 152.224 166.310  0.00  0.00    +0.009 C 
ATOM     15  C15 UNL     1     150.572 154.160 164.691  0.00  0.00    +0.111 C 
ENDBRANCH   6   7
BRANCH   1  17
ATOM     16  C1  UNL     1     150.662 159.442 162.074  0.00  0.00    +0.277 C 
ATOM     17  O1  UNL     1     150.140 158.121 162.109  0.00  0.00    -0.494 OA
ENDBRANCH   1  17
BRANCH   3  18
ATOM     18  S1  UNL     1     150.423 157.175 156.999  0.00  0.00    -0.128 S 
ATOM     19  C5  UNL     1     150.200 158.964 157.195  0.00  0.00    +0.090 C 
ENDBRANCH   3  18
TORSDOF 3
ENDMDL
MODEL 7
REMARK VINA RESULT:    -3.117      6.161      7.568
REMARK INTER + INTRA:          -4.042
REMARK INTER:                  -3.722
REMARK INTRA:                  -0.320
REMARK UNBOUND:                -0.378
REMARK  Name = /home/vital/Documents/PhD_2021/Malaria_codes/data/pdb_ligands_mmv/ligand_192.pdb
REMARK  6 active torsions:
REMARK  status: ('A' for Active; 'I' for Inactive)
REMARK    1  A    between atoms: C1_1  and  O1_2
REMARK    2  A    between atoms: O1_2  and  C2_3
REMARK    3  A    between atoms: C4_5  and  S1_6
REMARK    4  A    between atoms: S1_6  and  C5_7
REMARK    5  A    between atoms: C8_10  and  C9_11
REMARK    6  A    between atoms: C13_17  and  C14_18
REMARK                            x       y       z     vdW  Elec       q    Type
REMARK                         _______ _______ _______ _____ _____    ______ ____
ROOT
ATOM      1  C2  UNL     1     150.660 159.526 167.098  0.00  0.00    +0.133 A 
ATOM      2  C3  UNL     1     150.990 160.818 167.522  0.00  0.00    +0.061 A 
ATOM      3  C4  UNL     1     152.152 161.452 167.055  0.00  0.00    +0.011 A 
ATOM      4  C6  UNL     1     152.980 160.801 166.137  0.00  0.00    +0.015 A 
ATOM      5  C7  UNL     1     152.662 159.516 165.700  0.00  0.00    +0.018 A 
ATOM      6  C8  UNL     1     151.503 158.892 166.173  0.00  0.00    +0.079 A 
ENDROOT
BRANCH   6   7
ATOM      7  C9  UNL     1     151.229 157.520 165.703  0.00  0.00    +0.250 C 
ATOM      8  O2  UNL     1     150.513 157.396 164.712  0.00  0.00    -0.270 OA
ATOM      9  N1  UNL     1     151.732 156.451 166.442  0.00  0.00    -0.297 N 
ATOM     10  C10 UNL     1     152.571 156.590 167.635  0.00  0.00    +0.108 C 
ATOM     11  C11 UNL     1     153.497 155.393 167.816  0.00  0.00    +0.019 C 
ATOM     12  C12 UNL     1     152.734 154.070 167.896  0.00  0.00    +0.006 C 
ATOM     13  C13 UNL     1     151.374 154.112 167.180  0.00  0.00    +0.003 C 
ATOM     14  C14 UNL     1     150.950 152.718 166.728  0.00  0.00    +0.009 C 
ATOM     15  C15 UNL     1     151.397 155.096 166.007  0.00  0.00    +0.111 C 
ENDBRANCH   6   7
BRANCH   1  17
ATOM     16  C1  UNL     1     148.380 159.590 167.793  0.00  0.00    +0.277 C 
ATOM     17  O1  UNL     1     149.547 158.835 167.496  0.00  0.00    -0.494 OA
ENDBRANCH   1  17
BRANCH   3  18
ATOM     18  S1  UNL     1     152.520 163.105 167.621  0.00  0.00    -0.128 S 
ATOM     19  C5  UNL     1     153.624 162.719 169.007  0.00  0.00    +0.090 C 
ENDBRANCH   3  18
TORSDOF 3
ENDMDL
MODEL 8
REMARK VINA RESULT:    -3.053     13.208     14.769
REMARK INTER + INTRA:          -3.967
REMARK INTER:                  -3.591
REMARK INTRA:                  -0.376
REMARK UNBOUND:                -0.378
REMARK  Name = /home/vital/Documents/PhD_2021/Malaria_codes/data/pdb_ligands_mmv/ligand_192.pdb
REMARK  6 active torsions:
REMARK  status: ('A' for Active; 'I' for Inactive)
REMARK    1  A    between atoms: C1_1  and  O1_2
REMARK    2  A    between atoms: O1_2  and  C2_3
REMARK    3  A    between atoms: C4_5  and  S1_6
REMARK    4  A    between atoms: S1_6  and  C5_7
REMARK    5  A    between atoms: C8_10  and  C9_11
REMARK    6  A    between atoms: C13_17  and  C14_18
REMARK                            x       y       z     vdW  Elec       q    Type
REMARK                         _______ _______ _______ _____ _____    ______ ____
ROOT
ATOM      1  C2  UNL     1     144.155 146.410 164.282  0.00  0.00    +0.133 A 
ATOM      2  C3  UNL     1     144.494 147.677 163.790  0.00  0.00    +0.061 A 
ATOM      3  C4  UNL     1     145.678 148.311 164.196  0.00  0.00    +0.011 A 
ATOM      4  C6  UNL     1     146.545 147.667 165.083  0.00  0.00    +0.015 A 
ATOM      5  C7  UNL     1     146.225 146.404 165.577  0.00  0.00    +0.018 A 
ATOM      6  C8  UNL     1     145.042 145.780 165.167  0.00  0.00    +0.079 A 
ENDROOT
BRANCH   6   7
ATOM      7  C9  UNL     1     144.736 144.457 165.744  0.00  0.00    +0.250 C 
ATOM      8  O2  UNL     1     144.259 144.431 166.876  0.00  0.00    -0.270 OA
ATOM      9  N1  UNL     1     145.067 143.319 165.009  0.00  0.00    -0.297 N 
ATOM     10  C10 UNL     1     145.653 143.341 163.667  0.00  0.00    +0.108 C 
ATOM     11  C11 UNL     1     145.284 142.095 162.871  0.00  0.00    +0.019 C 
ATOM     12  C12 UNL     1     145.704 140.804 163.576  0.00  0.00    +0.006 C 
ATOM     13  C13 UNL     1     145.802 140.954 165.102  0.00  0.00    +0.003 C 
ATOM     14  C14 UNL     1     145.589 139.613 165.799  0.00  0.00    +0.009 C 
ATOM     15  C15 UNL     1     144.824 142.012 165.618  0.00  0.00    +0.111 C 
ENDBRANCH   6   7
BRANCH   1  17
ATOM     16  C1  UNL     1     141.795 146.425 163.946  0.00  0.00    +0.277 C 
ATOM     17  O1  UNL     1     143.027 145.716 163.936  0.00  0.00    -0.494 OA
ENDBRANCH   1  17
BRANCH   3  18
ATOM     18  S1  UNL     1     146.066 149.922 163.530  0.00  0.00    -0.128 S 
ATOM     19  C5  UNL     1     146.318 149.485 161.788  0.00  0.00    +0.090 C 
ENDBRANCH   3  18
TORSDOF 3
ENDMDL
MODEL 9
REMARK VINA RESULT:    -3.029      4.652      6.208
REMARK INTER + INTRA:          -3.939
REMARK INTER:                  -3.591
REMARK INTRA:                  -0.348
REMARK UNBOUND:                -0.378
REMARK  Name = /home/vital/Documents/PhD_2021/Malaria_codes/data/pdb_ligands_mmv/ligand_192.pdb
REMARK  6 active torsions:
REMARK  status: ('A' for Active; 'I' for Inactive)
REMARK    1  A    between atoms: C1_1  and  O1_2
REMARK    2  A    between atoms: O1_2  and  C2_3
REMARK    3  A    between atoms: C4_5  and  S1_6
REMARK    4  A    between atoms: S1_6  and  C5_7
REMARK    5  A    between atoms: C8_10  and  C9_11
REMARK    6  A    between atoms: C13_17  and  C14_18
REMARK                            x       y       z     vdW  Elec       q    Type
REMARK                         _______ _______ _______ _____ _____    ______ ____
ROOT
ATOM      1  C2  UNL     1     151.418 159.690 163.529  0.00  0.00    +0.133 A 
ATOM      2  C3  UNL     1     151.272 159.028 162.304  0.00  0.00    +0.061 A 
ATOM      3  C4  UNL     1     151.247 159.746 161.099  0.00  0.00    +0.011 A 
ATOM      4  C6  UNL     1     151.392 161.136 161.112  0.00  0.00    +0.015 A 
ATOM      5  C7  UNL     1     151.544 161.809 162.323  0.00  0.00    +0.018 A 
ATOM      6  C8  UNL     1     151.566 161.085 163.519  0.00  0.00    +0.079 A 
ENDROOT
BRANCH   6   7
ATOM      7  C9  UNL     1     151.698 161.849 164.775  0.00  0.00    +0.250 C 
ATOM      8  O2  UNL     1     152.826 161.965 165.248  0.00  0.00    -0.270 OA
ATOM      9  N1  UNL     1     150.541 162.331 165.384  0.00  0.00    -0.297 N 
ATOM     10  C10 UNL     1     149.192 162.181 164.836  0.00  0.00    +0.108 C 
ATOM     11  C11 UNL     1     148.273 163.313 165.282  0.00  0.00    +0.019 C 
ATOM     12  C12 UNL     1     148.181 163.426 166.805  0.00  0.00    +0.006 C 
ATOM     13  C13 UNL     1     149.421 162.876 167.528  0.00  0.00    +0.003 C 
ATOM     14  C14 UNL     1     149.601 163.542 168.889  0.00  0.00    +0.009 C 
ATOM     15  C15 UNL     1     150.677 163.026 166.664  0.00  0.00    +0.111 C 
ENDBRANCH   6   7
BRANCH   1  17
ATOM     16  C1  UNL     1     152.282 157.920 164.872  0.00  0.00    +0.277 C 
ATOM     17  O1  UNL     1     151.459 159.071 164.750  0.00  0.00    -0.494 OA
ENDBRANCH   1  17
BRANCH   3  18
ATOM     18  S1  UNL     1     151.069 158.851 159.564  0.00  0.00    -0.128 S 
ATOM     19  C5  UNL     1     151.106 157.149 160.192  0.00  0.00    +0.090 C 
ENDBRANCH   3  18
TORSDOF 3
ENDMDL
