MODEL 1
REMARK VINA RESULT:    -4.903      0.000      0.000
REMARK INTER + INTRA:          -6.229
REMARK INTER:                  -5.763
REMARK INTRA:                  -0.467
REMARK UNBOUND:                -0.467
REMARK  Name = /home/vital/Documents/PhD_2021/Malaria_codes/data/pdb_ligands_mmv/ligand_19.pdb
REMARK  5 active torsions:
REMARK  status: ('A' for Active; 'I' for Inactive)
REMARK    1  A    between atoms: C1_1  and  C2_2
REMARK    2  A    between atoms: C4_4  and  N1_5
REMARK    3  A    between atoms: N1_5  and  C5_6
REMARK    4  A    between atoms: C8_9  and  C9_10
REMARK    5  A    between atoms: C12_16  and  C14_20
REMARK                            x       y       z     vdW  Elec       q    Type
REMARK                         _______ _______ _______ _____ _____    ______ ____
ROOT
ATOM      1  C1  UNL     1     152.482 161.395 160.226  0.00  0.00    +0.066 C 
ATOM      2  C2  UNL     1     152.047 159.976 159.953  0.00  0.00    +0.045 A 
ATOM      3  C3  UNL     1     151.407 159.703 158.629  0.00  0.00    +0.067 A 
ATOM      4  C4  UNL     1     150.994 158.444 158.394  0.00  0.00    +0.130 A 
ATOM      5  N2  UNL     1     151.244 157.483 159.398  0.00  0.00    -0.182 N 
ATOM      6  N3  UNL     1     150.961 156.151 159.373  0.00  0.00    -0.138 NA
ATOM      7  C12 UNL     1     151.407 155.734 160.576  0.00  0.00    +0.257 A 
ATOM      8  N4  UNL     1     151.964 156.737 161.345  0.00  0.00    -0.186 NA
ATOM      9  C13 UNL     1     151.861 157.816 160.604  0.00  0.00    +0.255 A 
ATOM     10  N5  UNL     1     152.259 159.088 160.879  0.00  0.00    -0.216 NA
ENDROOT
BRANCH   7  11
ATOM     11  C14 UNL     1     151.318 154.298 161.048  0.00  0.00    +0.454 C 
ATOM     12  F1  UNL     1     150.056 153.800 160.933  0.00  0.00    -0.163 F 
ATOM     13  F2  UNL     1     152.128 153.456 160.349  0.00  0.00    -0.163 F 
ATOM     14  F3  UNL     1     151.668 154.167 162.358  0.00  0.00    -0.163 F 
ENDBRANCH   7  11
BRANCH   4  15
ATOM     15  N1  UNL     1     150.403 157.972 157.227  0.00  0.00    -0.299 N 
ATOM     16  H5  UNL     1     149.522 158.449 157.011  0.00  0.00    +0.154 HD
BRANCH  15  17
ATOM     17  C5  UNL     1     150.985 157.368 156.097  0.00  0.00    +0.034 A 
ATOM     18  C6  UNL     1     150.902 155.974 155.978  0.00  0.00    +0.023 A 
ATOM     19  C7  UNL     1     151.494 155.297 154.906  0.00  0.00    +0.006 A 
ATOM     20  C8  UNL     1     152.197 156.000 153.920  0.00  0.00    -0.032 A 
ATOM     21  C9  UNL     1     152.825 155.252 152.779  0.00  0.00    +0.045 C 
ATOM     22  C10 UNL     1     152.287 157.393 154.038  0.00  0.00    +0.046 A 
ATOM     23 CL1  UNL     1     153.133 158.343 152.866  0.00  0.00    -0.083 Cl
ATOM     24  C11 UNL     1     151.692 158.065 155.114  0.00  0.00    +0.043 A 
ENDBRANCH  15  17
ENDBRANCH   4  15
TORSDOF 3
ENDMDL
MODEL 2
REMARK VINA RESULT:    -4.718      3.213      4.390
REMARK INTER + INTRA:          -6.012
REMARK INTER:                  -5.511
REMARK INTRA:                  -0.501
REMARK UNBOUND:                -0.467
REMARK  Name = /home/vital/Documents/PhD_2021/Malaria_codes/data/pdb_ligands_mmv/ligand_19.pdb
REMARK  5 active torsions:
REMARK  status: ('A' for Active; 'I' for Inactive)
REMARK    1  A    between atoms: C1_1  and  C2_2
REMARK    2  A    between atoms: C4_4  and  N1_5
REMARK    3  A    between atoms: N1_5  and  C5_6
REMARK    4  A    between atoms: C8_9  and  C9_10
REMARK    5  A    between atoms: C12_16  and  C14_20
REMARK                            x       y       z     vdW  Elec       q    Type
REMARK                         _______ _______ _______ _____ _____    ______ ____
ROOT
ATOM      1  C1  UNL     1     151.784 154.230 161.721  0.00  0.00    +0.066 C 
ATOM      2  C2  UNL     1     151.653 155.591 161.081  0.00  0.00    +0.045 A 
ATOM      3  C3  UNL     1     151.097 155.639 159.693  0.00  0.00    +0.067 A 
ATOM      4  C4  UNL     1     151.004 156.849 159.109  0.00  0.00    +0.130 A 
ATOM      5  N2  UNL     1     151.394 157.968 159.876  0.00  0.00    -0.182 N 
ATOM      6  N3  UNL     1     151.351 159.283 159.523  0.00  0.00    -0.138 NA
ATOM      7  C12 UNL     1     151.839 159.897 160.620  0.00  0.00    +0.257 A 
ATOM      8  N4  UNL     1     152.175 159.033 161.644  0.00  0.00    -0.186 NA
ATOM      9  C13 UNL     1     151.892 157.840 161.173  0.00  0.00    +0.255 A 
ATOM     10  N5  UNL     1     152.026 156.626 161.774  0.00  0.00    -0.216 NA
ENDROOT
BRANCH   7  11
ATOM     11  C14 UNL     1     152.003 161.398 160.734  0.00  0.00    +0.454 C 
ATOM     12  F1  UNL     1     153.002 161.740 161.593  0.00  0.00    -0.163 F 
ATOM     13  F2  UNL     1     152.298 161.994 159.545  0.00  0.00    -0.163 F 
ATOM     14  F3  UNL     1     150.872 162.003 161.195  0.00  0.00    -0.163 F 
ENDBRANCH   7  11
BRANCH   4  15
ATOM     15  N1  UNL     1     150.494 157.120 157.845  0.00  0.00    -0.299 N 
ATOM     16  H5  UNL     1     149.710 157.780 157.869  0.00  0.00    +0.154 HD
BRANCH  15  17
ATOM     17  C5  UNL     1     151.120 157.068 156.585  0.00  0.00    +0.034 A 
ATOM     18  C6  UNL     1     151.481 158.279 155.979  0.00  0.00    +0.023 A 
ATOM     19  C7  UNL     1     152.068 158.312 154.709  0.00  0.00    +0.006 A 
ATOM     20  C8  UNL     1     152.304 157.127 154.002  0.00  0.00    -0.032 A 
ATOM     21  C9  UNL     1     152.933 157.187 152.639  0.00  0.00    +0.045 C 
ATOM     22  C10 UNL     1     151.939 155.914 154.602  0.00  0.00    +0.046 A 
ATOM     23 CL1  UNL     1     152.196 154.402 153.804  0.00  0.00    -0.083 Cl
ATOM     24  C11 UNL     1     151.353 155.888 155.874  0.00  0.00    +0.043 A 
ENDBRANCH  15  17
ENDBRANCH   4  15
TORSDOF 3
ENDMDL
MODEL 3
REMARK VINA RESULT:    -4.318      4.159      6.653
REMARK INTER + INTRA:          -5.542
REMARK INTER:                  -5.120
REMARK INTRA:                  -0.421
REMARK UNBOUND:                -0.467
REMARK  Name = /home/vital/Documents/PhD_2021/Malaria_codes/data/pdb_ligands_mmv/ligand_19.pdb
REMARK  5 active torsions:
REMARK  status: ('A' for Active; 'I' for Inactive)
REMARK    1  A    between atoms: C1_1  and  C2_2
REMARK    2  A    between atoms: C4_4  and  N1_5
REMARK    3  A    between atoms: N1_5  and  C5_6
REMARK    4  A    between atoms: C8_9  and  C9_10
REMARK    5  A    between atoms: C12_16  and  C14_20
REMARK                            x       y       z     vdW  Elec       q    Type
REMARK                         _______ _______ _______ _____ _____    ______ ____
ROOT
ATOM      1  C1  UNL     1     150.262 160.850 161.757  0.00  0.00    +0.066 C 
ATOM      2  C2  UNL     1     150.425 159.562 160.986  0.00  0.00    +0.045 A 
ATOM      3  C3  UNL     1     150.653 158.316 161.783  0.00  0.00    +0.067 A 
ATOM      4  C4  UNL     1     150.825 157.170 161.098  0.00  0.00    +0.130 A 
ATOM      5  N2  UNL     1     150.727 157.238 159.691  0.00  0.00    -0.182 N 
ATOM      6  N3  UNL     1     150.822 156.217 158.794  0.00  0.00    -0.138 NA
ATOM      7  C12 UNL     1     150.658 156.849 157.614  0.00  0.00    +0.257 A 
ATOM      8  N4  UNL     1     150.458 158.211 157.729  0.00  0.00    -0.186 NA
ATOM      9  C13 UNL     1     150.498 158.440 159.021  0.00  0.00    +0.255 A 
ATOM     10  N5  UNL     1     150.353 159.618 159.690  0.00  0.00    -0.216 NA
ENDROOT
BRANCH   7  11
ATOM     11  C14 UNL     1     150.685 156.139 156.276  0.00  0.00    +0.454 C 
ATOM     12  F1  UNL     1     150.957 156.992 155.250  0.00  0.00    -0.163 F 
ATOM     13  F2  UNL     1     151.621 155.153 156.215  0.00  0.00    -0.163 F 
ATOM     14  F3  UNL     1     149.490 155.552 155.984  0.00  0.00    -0.163 F 
ENDBRANCH   7  11
BRANCH   4  15
ATOM     15  N1  UNL     1     151.021 155.905 161.639  0.00  0.00    -0.299 N 
ATOM     16  H5  UNL     1     151.908 155.828 162.148  0.00  0.00    +0.154 HD
BRANCH  15  17
ATOM     17  C5  UNL     1     150.083 154.932 162.031  0.00  0.00    +0.034 A 
ATOM     18  C6  UNL     1     149.250 154.385 161.045  0.00  0.00    +0.023 A 
ATOM     19  C7  UNL     1     148.264 153.445 161.364  0.00  0.00    +0.006 A 
ATOM     20  C8  UNL     1     148.076 153.029 162.687  0.00  0.00    -0.032 A 
ATOM     21  C9  UNL     1     147.010 152.020 163.006  0.00  0.00    +0.045 C 
ATOM     22  C10 UNL     1     148.903 153.577 163.677  0.00  0.00    +0.046 A 
ATOM     23 CL1  UNL     1     148.746 153.120 165.337  0.00  0.00    -0.083 Cl
ATOM     24  C11 UNL     1     149.890 154.518 163.351  0.00  0.00    +0.043 A 
ENDBRANCH  15  17
ENDBRANCH   4  15
TORSDOF 3
ENDMDL
MODEL 4
REMARK VINA RESULT:    -4.297      2.109      3.004
REMARK INTER + INTRA:          -5.517
REMARK INTER:                  -5.100
REMARK INTRA:                  -0.417
REMARK UNBOUND:                -0.467
REMARK  Name = /home/vital/Documents/PhD_2021/Malaria_codes/data/pdb_ligands_mmv/ligand_19.pdb
REMARK  5 active torsions:
REMARK  status: ('A' for Active; 'I' for Inactive)
REMARK    1  A    between atoms: C1_1  and  C2_2
REMARK    2  A    between atoms: C4_4  and  N1_5
REMARK    3  A    between atoms: N1_5  and  C5_6
REMARK    4  A    between atoms: C8_9  and  C9_10
REMARK    5  A    between atoms: C12_16  and  C14_20
REMARK                            x       y       z     vdW  Elec       q    Type
REMARK                         _______ _______ _______ _____ _____    ______ ____
ROOT
ATOM      1  C1  UNL     1     151.542 161.560 163.572  0.00  0.00    +0.066 C 
ATOM      2  C2  UNL     1     151.161 160.288 162.854  0.00  0.00    +0.045 A 
ATOM      3  C3  UNL     1     150.540 160.431 161.500  0.00  0.00    +0.067 A 
ATOM      4  C4  UNL     1     150.174 159.300 160.868  0.00  0.00    +0.130 A 
ATOM      5  N2  UNL     1     150.452 158.078 161.520  0.00  0.00    -0.182 N 
ATOM      6  N3  UNL     1     150.217 156.815 161.067  0.00  0.00    -0.138 NA
ATOM      7  C12 UNL     1     150.669 156.052 162.083  0.00  0.00    +0.257 A 
ATOM      8  N4  UNL     1     151.183 156.774 163.141  0.00  0.00    -0.186 NA
ATOM      9  C13 UNL     1     151.047 158.029 162.780  0.00  0.00    +0.255 A 
ATOM     10  N5  UNL     1     151.397 159.159 163.453  0.00  0.00    -0.216 NA
ENDROOT
BRANCH   7  11
ATOM     11  C14 UNL     1     150.628 154.538 162.072  0.00  0.00    +0.454 C 
ATOM     12  F1  UNL     1     151.873 153.993 161.984  0.00  0.00    -0.163 F 
ATOM     13  F2  UNL     1     150.057 154.012 163.190  0.00  0.00    -0.163 F 
ATOM     14  F3  UNL     1     149.918 154.052 161.014  0.00  0.00    -0.163 F 
ENDBRANCH   7  11
BRANCH   4  15
ATOM     15  N1  UNL     1     149.610 159.206 159.602  0.00  0.00    -0.299 N 
ATOM     16  H5  UNL     1     148.811 159.836 159.479  0.00  0.00    +0.154 HD
BRANCH  15  17
ATOM     17  C5  UNL     1     150.188 158.818 158.379  0.00  0.00    +0.034 A 
ATOM     18  C6  UNL     1     150.984 159.751 157.701  0.00  0.00    +0.023 A 
ATOM     19  C7  UNL     1     151.558 159.456 156.459  0.00  0.00    +0.006 A 
ATOM     20  C8  UNL     1     151.343 158.212 155.853  0.00  0.00    -0.032 A 
ATOM     21  C9  UNL     1     151.967 157.917 154.519  0.00  0.00    +0.045 C 
ATOM     22  C10 UNL     1     150.543 157.277 156.525  0.00  0.00    +0.046 A 
ATOM     23 CL1  UNL     1     150.227 155.716 155.853  0.00  0.00    -0.083 Cl
ATOM     24  C11 UNL     1     149.973 157.580 157.769  0.00  0.00    +0.043 A 
ENDBRANCH  15  17
ENDBRANCH   4  15
TORSDOF 3
ENDMDL
MODEL 5
REMARK VINA RESULT:    -4.198      4.004      6.315
REMARK INTER + INTRA:          -5.400
REMARK INTER:                  -4.873
REMARK INTRA:                  -0.527
REMARK UNBOUND:                -0.467
REMARK  Name = /home/vital/Documents/PhD_2021/Malaria_codes/data/pdb_ligands_mmv/ligand_19.pdb
REMARK  5 active torsions:
REMARK  status: ('A' for Active; 'I' for Inactive)
REMARK    1  A    between atoms: C1_1  and  C2_2
REMARK    2  A    between atoms: C4_4  and  N1_5
REMARK    3  A    between atoms: N1_5  and  C5_6
REMARK    4  A    between atoms: C8_9  and  C9_10
REMARK    5  A    between atoms: C12_16  and  C14_20
REMARK                            x       y       z     vdW  Elec       q    Type
REMARK                         _______ _______ _______ _____ _____    ______ ____
ROOT
ATOM      1  C1  UNL     1     147.410 152.441 162.832  0.00  0.00    +0.066 C 
ATOM      2  C2  UNL     1     148.428 153.466 163.270  0.00  0.00    +0.045 A 
ATOM      3  C3  UNL     1     149.311 154.045 162.210  0.00  0.00    +0.067 A 
ATOM      4  C4  UNL     1     150.237 154.939 162.602  0.00  0.00    +0.130 A 
ATOM      5  N2  UNL     1     150.262 155.286 163.971  0.00  0.00    -0.182 N 
ATOM      6  N3  UNL     1     151.071 156.189 164.593  0.00  0.00    -0.138 NA
ATOM      7  C12 UNL     1     150.664 156.110 165.876  0.00  0.00    +0.257 A 
ATOM      8  N4  UNL     1     149.637 155.212 166.085  0.00  0.00    -0.186 NA
ATOM      9  C13 UNL     1     149.392 154.710 164.897  0.00  0.00    +0.255 A 
ATOM     10  N5  UNL     1     148.468 153.779 164.531  0.00  0.00    -0.216 NA
ENDROOT
BRANCH   7  11
ATOM     11  C14 UNL     1     151.269 156.933 166.995  0.00  0.00    +0.454 C 
ATOM     12  F1  UNL     1     151.992 157.985 166.522  0.00  0.00    -0.163 F 
ATOM     13  F2  UNL     1     150.335 157.455 167.837  0.00  0.00    -0.163 F 
ATOM     14  F3  UNL     1     152.116 156.199 167.771  0.00  0.00    -0.163 F 
ENDBRANCH   7  11
BRANCH   4  15
ATOM     15  N1  UNL     1     151.134 155.613 161.783  0.00  0.00    -0.299 N 
ATOM     16  H5  UNL     1     152.056 155.166 161.757  0.00  0.00    +0.154 HD
BRANCH  15  17
ATOM     17  C5  UNL     1     150.899 156.437 160.666  0.00  0.00    +0.034 A 
ATOM     18  C6  UNL     1     150.318 157.694 160.885  0.00  0.00    +0.023 A 
ATOM     19  C7  UNL     1     150.013 158.551 159.823  0.00  0.00    +0.006 A 
ATOM     20  C8  UNL     1     150.274 158.170 158.501  0.00  0.00    -0.032 A 
ATOM     21  C9  UNL     1     149.937 159.106 157.376  0.00  0.00    +0.045 C 
ATOM     22  C10 UNL     1     150.850 156.912 158.277  0.00  0.00    +0.046 A 
ATOM     23 CL1  UNL     1     151.210 156.359 156.679  0.00  0.00    -0.083 Cl
ATOM     24  C11 UNL     1     151.153 156.058 159.346  0.00  0.00    +0.043 A 
ENDBRANCH  15  17
ENDBRANCH   4  15
TORSDOF 3
ENDMDL
MODEL 6
REMARK VINA RESULT:    -4.079      3.908      7.426
REMARK INTER + INTRA:          -5.261
REMARK INTER:                  -4.722
REMARK INTRA:                  -0.539
REMARK UNBOUND:                -0.467
REMARK  Name = /home/vital/Documents/PhD_2021/Malaria_codes/data/pdb_ligands_mmv/ligand_19.pdb
REMARK  5 active torsions:
REMARK  status: ('A' for Active; 'I' for Inactive)
REMARK    1  A    between atoms: C1_1  and  C2_2
REMARK    2  A    between atoms: C4_4  and  N1_5
REMARK    3  A    between atoms: N1_5  and  C5_6
REMARK    4  A    between atoms: C8_9  and  C9_10
REMARK    5  A    between atoms: C12_16  and  C14_20
REMARK                            x       y       z     vdW  Elec       q    Type
REMARK                         _______ _______ _______ _____ _____    ______ ____
ROOT
ATOM      1  C1  UNL     1     148.286 153.041 164.044  0.00  0.00    +0.066 C 
ATOM      2  C2  UNL     1     149.154 153.823 163.087  0.00  0.00    +0.045 A 
ATOM      3  C3  UNL     1     150.238 154.664 163.684  0.00  0.00    +0.067 A 
ATOM      4  C4  UNL     1     150.996 155.383 162.835  0.00  0.00    +0.130 A 
ATOM      5  N2  UNL     1     150.731 155.243 161.455  0.00  0.00    -0.182 N 
ATOM      6  N3  UNL     1     151.383 155.829 160.412  0.00  0.00    -0.138 NA
ATOM      7  C12 UNL     1     150.716 155.349 159.343  0.00  0.00    +0.257 A 
ATOM      8  N4  UNL     1     149.686 154.487 159.665  0.00  0.00    -0.186 NA
ATOM      9  C13 UNL     1     149.707 154.425 160.977  0.00  0.00    +0.255 A 
ATOM     10  N5  UNL     1     148.906 153.713 161.816  0.00  0.00    -0.216 NA
ENDROOT
BRANCH   7  11
ATOM     11  C14 UNL     1     151.059 155.711 157.913  0.00  0.00    +0.454 C 
ATOM     12  F1  UNL     1     152.075 154.949 157.423  0.00  0.00    -0.163 F 
ATOM     13  F2  UNL     1     150.012 155.553 157.057  0.00  0.00    -0.163 F 
ATOM     14  F3  UNL     1     151.457 157.009 157.795  0.00  0.00    -0.163 F 
ENDBRANCH   7  11
BRANCH   4  15
ATOM     15  N1  UNL     1     152.065 156.203 163.174  0.00  0.00    -0.299 N 
ATOM     16  H5  UNL     1     152.955 155.870 162.789  0.00  0.00    +0.154 HD
BRANCH  15  17
ATOM     17  C5  UNL     1     152.091 157.575 163.489  0.00  0.00    +0.034 A 
ATOM     18  C6  UNL     1     152.900 157.990 164.556  0.00  0.00    +0.023 A 
ATOM     19  C7  UNL     1     152.945 159.330 164.958  0.00  0.00    +0.006 A 
ATOM     20  C8  UNL     1     152.171 160.297 164.305  0.00  0.00    -0.032 A 
ATOM     21  C9  UNL     1     152.235 161.728 164.754  0.00  0.00    +0.045 C 
ATOM     22  C10 UNL     1     151.357 159.885 163.241  0.00  0.00    +0.046 A 
ATOM     23 CL1  UNL     1     150.371 161.010 162.375  0.00  0.00    -0.083 Cl
ATOM     24  C11 UNL     1     151.317 158.542 162.843  0.00  0.00    +0.043 A 
ENDBRANCH  15  17
ENDBRANCH   4  15
TORSDOF 3
ENDMDL
MODEL 7
REMARK VINA RESULT:    -3.957      4.701      7.188
REMARK INTER + INTRA:          -5.117
REMARK INTER:                  -4.867
REMARK INTRA:                  -0.250
REMARK UNBOUND:                -0.467
REMARK  Name = /home/vital/Documents/PhD_2021/Malaria_codes/data/pdb_ligands_mmv/ligand_19.pdb
REMARK  5 active torsions:
REMARK  status: ('A' for Active; 'I' for Inactive)
REMARK    1  A    between atoms: C1_1  and  C2_2
REMARK    2  A    between atoms: C4_4  and  N1_5
REMARK    3  A    between atoms: N1_5  and  C5_6
REMARK    4  A    between atoms: C8_9  and  C9_10
REMARK    5  A    between atoms: C12_16  and  C14_20
REMARK                            x       y       z     vdW  Elec       q    Type
REMARK                         _______ _______ _______ _____ _____    ______ ____
ROOT
ATOM      1  C1  UNL     1     150.330 158.285 156.882  0.00  0.00    +0.066 C 
ATOM      2  C2  UNL     1     150.419 158.467 158.378  0.00  0.00    +0.045 A 
ATOM      3  C3  UNL     1     150.719 157.250 159.195  0.00  0.00    +0.067 A 
ATOM      4  C4  UNL     1     150.773 157.404 160.531  0.00  0.00    +0.130 A 
ATOM      5  N2  UNL     1     150.588 158.708 161.039  0.00  0.00    -0.182 N 
ATOM      6  N3  UNL     1     150.639 159.118 162.337  0.00  0.00    -0.138 NA
ATOM      7  C12 UNL     1     150.391 160.440 162.237  0.00  0.00    +0.257 A 
ATOM      8  N4  UNL     1     150.197 160.877 160.942  0.00  0.00    -0.186 NA
ATOM      9  C13 UNL     1     150.325 159.797 160.207  0.00  0.00    +0.255 A 
ATOM     10  N5  UNL     1     150.235 159.662 158.855  0.00  0.00    -0.216 NA
ENDROOT
BRANCH   7  11
ATOM     11  C14 UNL     1     150.333 161.371 163.430  0.00  0.00    +0.454 C 
ATOM     12  F1  UNL     1     150.453 160.699 164.608  0.00  0.00    -0.163 F 
ATOM     13  F2  UNL     1     151.319 162.310 163.421  0.00  0.00    -0.163 F 
ATOM     14  F3  UNL     1     149.155 162.053 163.491  0.00  0.00    -0.163 F 
ENDBRANCH   7  11
BRANCH   4  15
ATOM     15  N1  UNL     1     151.061 156.417 161.466  0.00  0.00    -0.299 N 
ATOM     16  H5  UNL     1     151.802 156.696 162.118  0.00  0.00    +0.154 HD
BRANCH  15  17
ATOM     17  C5  UNL     1     150.249 155.387 161.977  0.00  0.00    +0.034 A 
ATOM     18  C6  UNL     1     149.391 154.723 161.089  0.00  0.00    +0.023 A 
ATOM     19  C7  UNL     1     148.521 153.719 161.529  0.00  0.00    +0.006 A 
ATOM     20  C8  UNL     1     148.479 153.355 162.880  0.00  0.00    -0.032 A 
ATOM     21  C9  UNL     1     147.537 152.275 163.329  0.00  0.00    +0.045 C 
ATOM     22  C10 UNL     1     149.331 154.020 163.772  0.00  0.00    +0.046 A 
ATOM     23 CL1  UNL     1     149.349 153.633 165.457  0.00  0.00    -0.083 Cl
ATOM     24  C11 UNL     1     150.200 155.024 163.325  0.00  0.00    +0.043 A 
ENDBRANCH  15  17
ENDBRANCH   4  15
TORSDOF 3
ENDMDL
MODEL 8
REMARK VINA RESULT:    -3.897      6.931      9.059
REMARK INTER + INTRA:          -5.047
REMARK INTER:                  -4.566
REMARK INTRA:                  -0.481
REMARK UNBOUND:                -0.467
REMARK  Name = /home/vital/Documents/PhD_2021/Malaria_codes/data/pdb_ligands_mmv/ligand_19.pdb
REMARK  5 active torsions:
REMARK  status: ('A' for Active; 'I' for Inactive)
REMARK    1  A    between atoms: C1_1  and  C2_2
REMARK    2  A    between atoms: C4_4  and  N1_5
REMARK    3  A    between atoms: N1_5  and  C5_6
REMARK    4  A    between atoms: C8_9  and  C9_10
REMARK    5  A    between atoms: C12_16  and  C14_20
REMARK                            x       y       z     vdW  Elec       q    Type
REMARK                         _______ _______ _______ _____ _____    ______ ____
ROOT
ATOM      1  C1  UNL     1     147.597 163.168 167.369  0.00  0.00    +0.066 C 
ATOM      2  C2  UNL     1     149.027 162.744 167.139  0.00  0.00    +0.045 A 
ATOM      3  C3  UNL     1     149.470 162.586 165.719  0.00  0.00    +0.067 A 
ATOM      4  C4  UNL     1     150.737 162.182 165.511  0.00  0.00    +0.130 A 
ATOM      5  N2  UNL     1     151.548 161.989 166.650  0.00  0.00    -0.182 N 
ATOM      6  N3  UNL     1     152.861 161.627 166.693  0.00  0.00    -0.138 NA
ATOM      7  C12 UNL     1     153.112 161.591 168.017  0.00  0.00    +0.257 A 
ATOM      8  N4  UNL     1     152.025 161.923 168.803  0.00  0.00    -0.186 NA
ATOM      9  C13 UNL     1     151.063 162.171 167.945  0.00  0.00    +0.255 A 
ATOM     10  N5  UNL     1     149.777 162.548 168.183  0.00  0.00    -0.216 NA
ENDROOT
BRANCH   7  11
ATOM     11  C14 UNL     1     154.461 161.229 168.602  0.00  0.00    +0.454 C 
ATOM     12  F1  UNL     1     154.562 159.897 168.866  0.00  0.00    -0.163 F 
ATOM     13  F2  UNL     1     155.500 161.537 167.778  0.00  0.00    -0.163 F 
ATOM     14  F3  UNL     1     154.701 161.875 169.777  0.00  0.00    -0.163 F 
ENDBRANCH   7  11
BRANCH   4  15
ATOM     15  N1  UNL     1     151.355 162.000 164.280  0.00  0.00    -0.299 N 
ATOM     16  H5  UNL     1     152.310 162.371 164.260  0.00  0.00    +0.154 HD
BRANCH  15  17
ATOM     17  C5  UNL     1     151.131 161.025 163.289  0.00  0.00    +0.034 A 
ATOM     18  C6  UNL     1     150.310 161.366 162.204  0.00  0.00    +0.023 A 
ATOM     19  C7  UNL     1     150.005 160.439 161.202  0.00  0.00    +0.006 A 
ATOM     20  C8  UNL     1     150.508 159.134 161.261  0.00  0.00    -0.032 A 
ATOM     21  C9  UNL     1     150.165 158.155 160.174  0.00  0.00    +0.045 C 
ATOM     22  C10 UNL     1     151.324 158.787 162.346  0.00  0.00    +0.046 A 
ATOM     23 CL1  UNL     1     151.992 157.200 162.499  0.00  0.00    -0.083 Cl
ATOM     24  C11 UNL     1     151.626 159.721 163.346  0.00  0.00    +0.043 A 
ENDBRANCH  15  17
ENDBRANCH   4  15
TORSDOF 3
ENDMDL
MODEL 9
REMARK VINA RESULT:    -3.732      3.993      6.082
REMARK INTER + INTRA:          -4.853
REMARK INTER:                  -4.408
REMARK INTRA:                  -0.445
REMARK UNBOUND:                -0.467
REMARK  Name = /home/vital/Documents/PhD_2021/Malaria_codes/data/pdb_ligands_mmv/ligand_19.pdb
REMARK  5 active torsions:
REMARK  status: ('A' for Active; 'I' for Inactive)
REMARK    1  A    between atoms: C1_1  and  C2_2
REMARK    2  A    between atoms: C4_4  and  N1_5
REMARK    3  A    between atoms: N1_5  and  C5_6
REMARK    4  A    between atoms: C8_9  and  C9_10
REMARK    5  A    between atoms: C12_16  and  C14_20
REMARK                            x       y       z     vdW  Elec       q    Type
REMARK                         _______ _______ _______ _____ _____    ______ ____
ROOT
ATOM      1  C1  UNL     1     148.573 153.243 164.597  0.00  0.00    +0.066 C 
ATOM      2  C2  UNL     1     149.504 154.400 164.324  0.00  0.00    +0.045 A 
ATOM      3  C3  UNL     1     150.176 154.433 162.988  0.00  0.00    +0.067 A 
ATOM      4  C4  UNL     1     151.027 155.448 162.752  0.00  0.00    +0.130 A 
ATOM      5  N2  UNL     1     151.174 156.418 163.769  0.00  0.00    -0.182 N 
ATOM      6  N3  UNL     1     151.936 157.547 163.747  0.00  0.00    -0.138 NA
ATOM      7  C12 UNL     1     151.699 158.082 164.962  0.00  0.00    +0.257 A 
ATOM      8  N4  UNL     1     150.821 157.350 165.737  0.00  0.00    -0.186 NA
ATOM      9  C13 UNL     1     150.499 156.323 164.986  0.00  0.00    +0.255 A 
ATOM     10  N5  UNL     1     149.657 155.288 165.261  0.00  0.00    -0.216 NA
ENDROOT
BRANCH   7  11
ATOM     11  C14 UNL     1     152.330 159.373 165.442  0.00  0.00    +0.454 C 
ATOM     12  F1  UNL     1     151.554 160.456 165.161  0.00  0.00    -0.163 F 
ATOM     13  F2  UNL     1     152.545 159.393 166.786  0.00  0.00    -0.163 F 
ATOM     14  F3  UNL     1     153.539 159.601 164.857  0.00  0.00    -0.163 F 
ENDBRANCH   7  11
BRANCH   4  15
ATOM     15  N1  UNL     1     151.730 155.682 161.577  0.00  0.00    -0.299 N 
ATOM     16  H5  UNL     1     152.425 154.953 161.382  0.00  0.00    +0.154 HD
BRANCH  15  17
ATOM     17  C5  UNL     1     151.355 156.396 160.423  0.00  0.00    +0.034 A 
ATOM     18  C6  UNL     1     151.343 157.796 160.491  0.00  0.00    +0.023 A 
ATOM     19  C7  UNL     1     150.940 158.575 159.400  0.00  0.00    +0.006 A 
ATOM     20  C8  UNL     1     150.527 157.971 158.207  0.00  0.00    -0.032 A 
ATOM     21  C9  UNL     1     150.098 158.827 157.050  0.00  0.00    +0.045 C 
ATOM     22  C10 UNL     1     150.533 156.572 158.136  0.00  0.00    +0.046 A 
ATOM     23 CL1  UNL     1     150.044 155.740 156.701  0.00  0.00    -0.083 Cl
ATOM     24  C11 UNL     1     150.939 155.797 159.232  0.00  0.00    +0.043 A 
ENDBRANCH  15  17
ENDBRANCH   4  15
TORSDOF 3
ENDMDL
