MODEL 1
REMARK VINA RESULT:    -6.885      0.000      0.000
REMARK INTER + INTRA:         -10.167
REMARK INTER:                  -9.501
REMARK INTRA:                  -0.666
REMARK UNBOUND:                -0.666
REMARK  Name = /home/vital/Documents/PhD_2021/Malaria_codes/data/pdb_ligands_mmv/ligand_379.pdb
REMARK  7 active torsions:
REMARK  status: ('A' for Active; 'I' for Inactive)
REMARK    1  A    between atoms: O1_1  and  C1_2
REMARK    2  A    between atoms: C2_3  and  C10_12
REMARK    3  A    between atoms: C10_12  and  N2_13
REMARK    4  A    between atoms: C10_12  and  C16_20
REMARK    5  A    between atoms: N2_13  and  C11_14
REMARK    6  A    between atoms: C20_24  and  O2_25
REMARK    7  A    between atoms: O2_25  and  C21_26
REMARK                            x       y       z     vdW  Elec       q    Type
REMARK                         _______ _______ _______ _____ _____    ______ ____
ROOT
ATOM      1  C10 UNL     1     151.150 156.771 159.502  0.00  0.00    +0.136 C 
ENDROOT
BRANCH   1   3
ATOM      2  C1  UNL     1     151.778 158.533 161.288  0.00  0.00    +0.148 A 
ATOM      3  C2  UNL     1     150.914 158.061 160.286  0.00  0.00    +0.021 A 
ATOM      4  C3  UNL     1     149.753 158.808 160.030  0.00  0.00    +0.010 A 
ATOM      5  C4  UNL     1     149.476 159.973 160.749  0.00  0.00    +0.010 A 
ATOM      6  C5  UNL     1     150.357 160.419 161.746  0.00  0.00    +0.004 A 
ATOM      7  C6  UNL     1     150.114 161.580 162.493  0.00  0.00    +0.011 A 
ATOM      8  C7  UNL     1     151.021 161.975 163.470  0.00  0.00    +0.020 A 
ATOM      9  C8  UNL     1     152.145 161.195 163.669  0.00  0.00    +0.111 A 
ATOM     10  N1  UNL     1     152.416 160.069 162.972  0.00  0.00    -0.251 NA
ATOM     11  C9  UNL     1     151.529 159.692 162.024  0.00  0.00    +0.113 A 
BRANCH   2  12
ATOM     12  O1  UNL     1     152.944 157.848 161.573  0.00  0.00    -0.504 OA
ATOM     13  H1  UNL     1     152.755 156.937 161.253  0.00  0.00    +0.292 HD
ENDBRANCH   2  12
ENDBRANCH   1   3
BRANCH   1  14
ATOM     14  C16 UNL     1     151.361 157.056 158.009  0.00  0.00    -0.019 A 
ATOM     15  C17 UNL     1     151.179 158.331 157.446  0.00  0.00    +0.006 A 
ATOM     16  C18 UNL     1     151.416 158.559 156.088  0.00  0.00    +0.004 A 
ATOM     17  C19 UNL     1     151.838 157.516 155.266  0.00  0.00    +0.046 A 
ATOM     18  C20 UNL     1     152.009 156.241 155.807  0.00  0.00    +0.129 A 
ATOM     19  C27 UNL     1     151.795 156.015 157.168  0.00  0.00    +0.052 A 
BRANCH  18  20
ATOM     20  O2  UNL     1     152.459 155.181 155.053  0.00  0.00    -0.456 OA
BRANCH  20  21
ATOM     21  C21 UNL     1     152.406 155.318 153.684  0.00  0.00    +0.128 A 
ATOM     22  C22 UNL     1     151.307 154.923 152.914  0.00  0.00    +0.046 A 
ATOM     23  C23 UNL     1     151.346 155.059 151.527  0.00  0.00    +0.004 A 
ATOM     24  C24 UNL     1     152.485 155.576 150.907  0.00  0.00    +0.000 A 
ATOM     25  C25 UNL     1     153.591 155.950 151.673  0.00  0.00    +0.004 A 
ATOM     26  C26 UNL     1     153.554 155.813 153.061  0.00  0.00    +0.046 A 
ENDBRANCH  20  21
ENDBRANCH  18  20
ENDBRANCH   1  14
BRANCH   1  27
ATOM     27  N2  UNL     1     150.069 155.798 159.689  0.00  0.00    -0.318 N 
ATOM     28  H8  UNL     1     149.181 156.267 159.510  0.00  0.00    +0.148 HD
BRANCH  27  29
ATOM     29  C11 UNL     1     150.001 155.184 160.949  0.00  0.00    +0.119 A 
ATOM     30  C12 UNL     1     148.918 154.344 161.203  0.00  0.00    +0.043 A 
ATOM     31  C13 UNL     1     148.823 153.685 162.426  0.00  0.00    +0.005 A 
ATOM     32  C14 UNL     1     149.821 153.871 163.371  0.00  0.00    +0.020 A 
ATOM     33  C15 UNL     1     150.872 154.706 163.041  0.00  0.00    +0.113 A 
ATOM     34  N3  UNL     1     150.982 155.353 161.858  0.00  0.00    -0.241 NA
ENDBRANCH  27  29
ENDBRANCH   1  27
TORSDOF 7
ENDMDL
MODEL 2
REMARK VINA RESULT:    -6.615      4.717      7.866
REMARK INTER + INTRA:          -9.794
REMARK INTER:                  -7.383
REMARK INTRA:                  -2.411
REMARK UNBOUND:                -0.666
REMARK  Name = /home/vital/Documents/PhD_2021/Malaria_codes/data/pdb_ligands_mmv/ligand_379.pdb
REMARK  7 active torsions:
REMARK  status: ('A' for Active; 'I' for Inactive)
REMARK    1  A    between atoms: O1_1  and  C1_2
REMARK    2  A    between atoms: C2_3  and  C10_12
REMARK    3  A    between atoms: C10_12  and  N2_13
REMARK    4  A    between atoms: C10_12  and  C16_20
REMARK    5  A    between atoms: N2_13  and  C11_14
REMARK    6  A    between atoms: C20_24  and  O2_25
REMARK    7  A    between atoms: O2_25  and  C21_26
REMARK                            x       y       z     vdW  Elec       q    Type
REMARK                         _______ _______ _______ _____ _____    ______ ____
ROOT
ATOM      1  C10 UNL     1     151.600 158.080 165.756  0.00  0.00    +0.136 C 
ENDROOT
BRANCH   1   3
ATOM      2  C1  UNL     1     150.521 156.434 164.079  0.00  0.00    +0.148 A 
ATOM      3  C2  UNL     1     151.527 157.355 164.414  0.00  0.00    +0.021 A 
ATOM      4  C3  UNL     1     152.536 157.583 163.464  0.00  0.00    +0.010 A 
ATOM      5  C4  UNL     1     152.531 156.914 162.237  0.00  0.00    +0.010 A 
ATOM      6  C5  UNL     1     151.514 155.996 161.933  0.00  0.00    +0.004 A 
ATOM      7  C6  UNL     1     151.476 155.302 160.716  0.00  0.00    +0.011 A 
ATOM      8  C7  UNL     1     150.445 154.403 160.467  0.00  0.00    +0.020 A 
ATOM      9  C8  UNL     1     149.482 154.227 161.444  0.00  0.00    +0.111 A 
ATOM     10  N1  UNL     1     149.483 154.877 162.630  0.00  0.00    -0.251 NA
ATOM     11  C9  UNL     1     150.490 155.748 162.864  0.00  0.00    +0.113 A 
BRANCH   2  12
ATOM     12  O1  UNL     1     149.494 156.180 164.968  0.00  0.00    -0.504 OA
ATOM     13  H1  UNL     1     149.244 155.251 164.765  0.00  0.00    +0.292 HD
ENDBRANCH   2  12
ENDBRANCH   1   3
BRANCH   1  14
ATOM     14  C16 UNL     1     151.732 159.596 165.567  0.00  0.00    -0.019 A 
ATOM     15  C17 UNL     1     152.376 160.426 166.502  0.00  0.00    +0.006 A 
ATOM     16  C18 UNL     1     152.509 161.798 166.275  0.00  0.00    +0.004 A 
ATOM     17  C19 UNL     1     151.999 162.369 165.111  0.00  0.00    +0.046 A 
ATOM     18  C20 UNL     1     151.344 161.562 164.180  0.00  0.00    +0.129 A 
ATOM     19  C27 UNL     1     151.230 160.187 164.392  0.00  0.00    +0.052 A 
BRANCH  18  20
ATOM     20  O2  UNL     1     150.853 162.063 162.996  0.00  0.00    -0.456 OA
BRANCH  20  21
ATOM     21  C21 UNL     1     151.049 161.303 161.864  0.00  0.00    +0.128 A 
ATOM     22  C22 UNL     1     152.185 161.410 161.055  0.00  0.00    +0.046 A 
ATOM     23  C23 UNL     1     152.292 160.633 159.902  0.00  0.00    +0.004 A 
ATOM     24  C24 UNL     1     151.262 159.759 159.550  0.00  0.00    +0.000 A 
ATOM     25  C25 UNL     1     150.118 159.668 160.346  0.00  0.00    +0.004 A 
ATOM     26  C26 UNL     1     150.009 160.446 161.499  0.00  0.00    +0.046 A 
ENDBRANCH  20  21
ENDBRANCH  18  20
ENDBRANCH   1  14
BRANCH   1  27
ATOM     27  N2  UNL     1     152.685 157.576 166.606  0.00  0.00    -0.318 N 
ATOM     28  H8  UNL     1     153.541 157.557 166.053  0.00  0.00    +0.148 HD
BRANCH  27  29
ATOM     29  C11 UNL     1     152.490 156.304 167.166  0.00  0.00    +0.119 A 
ATOM     30  C12 UNL     1     153.621 155.579 167.537  0.00  0.00    +0.043 A 
ATOM     31  C13 UNL     1     153.480 154.326 168.128  0.00  0.00    +0.005 A 
ATOM     32  C14 UNL     1     152.206 153.825 168.348  0.00  0.00    +0.020 A 
ATOM     33  C15 UNL     1     151.132 154.608 167.968  0.00  0.00    +0.113 A 
ATOM     34  N3  UNL     1     151.249 155.827 167.394  0.00  0.00    -0.241 NA
ENDBRANCH  27  29
ENDBRANCH   1  27
TORSDOF 7
ENDMDL
MODEL 3
REMARK VINA RESULT:    -6.526      1.835      8.114
REMARK INTER + INTRA:          -9.671
REMARK INTER:                  -8.362
REMARK INTRA:                  -1.310
REMARK UNBOUND:                -0.666
REMARK  Name = /home/vital/Documents/PhD_2021/Malaria_codes/data/pdb_ligands_mmv/ligand_379.pdb
REMARK  7 active torsions:
REMARK  status: ('A' for Active; 'I' for Inactive)
REMARK    1  A    between atoms: O1_1  and  C1_2
REMARK    2  A    between atoms: C2_3  and  C10_12
REMARK    3  A    between atoms: C10_12  and  N2_13
REMARK    4  A    between atoms: C10_12  and  C16_20
REMARK    5  A    between atoms: N2_13  and  C11_14
REMARK    6  A    between atoms: C20_24  and  O2_25
REMARK    7  A    between atoms: O2_25  and  C21_26
REMARK                            x       y       z     vdW  Elec       q    Type
REMARK                         _______ _______ _______ _____ _____    ______ ____
ROOT
ATOM      1  C10 UNL     1     151.048 157.213 158.542  0.00  0.00    +0.136 C 
ENDROOT
BRANCH   1   3
ATOM      2  C1  UNL     1     152.117 156.309 156.368  0.00  0.00    +0.148 A 
ATOM      3  C2  UNL     1     151.381 157.289 157.053  0.00  0.00    +0.021 A 
ATOM      4  C3  UNL     1     150.968 158.415 156.322  0.00  0.00    +0.010 A 
ATOM      5  C4  UNL     1     151.282 158.547 154.967  0.00  0.00    +0.010 A 
ATOM      6  C5  UNL     1     152.021 157.551 154.310  0.00  0.00    +0.004 A 
ATOM      7  C6  UNL     1     152.361 157.647 152.953  0.00  0.00    +0.011 A 
ATOM      8  C7  UNL     1     153.096 156.631 152.353  0.00  0.00    +0.020 A 
ATOM      9  C8  UNL     1     153.469 155.550 153.129  0.00  0.00    +0.111 A 
ATOM     10  N1  UNL     1     153.163 155.419 154.440  0.00  0.00    -0.251 NA
ATOM     11  C9  UNL     1     152.448 156.412 155.016  0.00  0.00    +0.113 A 
BRANCH   2  12
ATOM     12  O1  UNL     1     152.537 155.172 157.031  0.00  0.00    -0.504 OA
ATOM     13  H1  UNL     1     151.879 154.494 156.756  0.00  0.00    +0.292 HD
ENDBRANCH   2  12
ENDBRANCH   1   3
BRANCH   1  14
ATOM     14  C16 UNL     1     151.379 158.529 159.257  0.00  0.00    -0.019 A 
ATOM     15  C17 UNL     1     152.436 159.366 158.857  0.00  0.00    +0.006 A 
ATOM     16  C18 UNL     1     152.683 160.576 159.511  0.00  0.00    +0.004 A 
ATOM     17  C19 UNL     1     151.881 160.971 160.579  0.00  0.00    +0.046 A 
ATOM     18  C20 UNL     1     150.838 160.145 160.998  0.00  0.00    +0.129 A 
ATOM     19  C27 UNL     1     150.573 158.947 160.332  0.00  0.00    +0.052 A 
BRANCH  18  20
ATOM     20  O2  UNL     1     149.990 160.499 162.023  0.00  0.00    -0.456 OA
BRANCH  20  21
ATOM     21  C21 UNL     1     150.569 160.962 163.184  0.00  0.00    +0.128 A 
ATOM     22  C22 UNL     1     150.472 162.290 163.613  0.00  0.00    +0.046 A 
ATOM     23  C23 UNL     1     151.120 162.691 164.781  0.00  0.00    +0.004 A 
ATOM     24  C24 UNL     1     151.872 161.771 165.513  0.00  0.00    +0.000 A 
ATOM     25  C25 UNL     1     151.987 160.451 165.073  0.00  0.00    +0.004 A 
ATOM     26  C26 UNL     1     151.341 160.049 163.904  0.00  0.00    +0.046 A 
ENDBRANCH  20  21
ENDBRANCH  18  20
ENDBRANCH   1  14
BRANCH   1  27
ATOM     27  N2  UNL     1     151.716 156.088 159.207  0.00  0.00    -0.318 N 
ATOM     28  H8  UNL     1     151.911 155.373 158.507  0.00  0.00    +0.148 HD
BRANCH  27  29
ATOM     29  C11 UNL     1     151.015 155.493 160.267  0.00  0.00    +0.119 A 
ATOM     30  C12 UNL     1     149.876 154.753 159.955  0.00  0.00    +0.043 A 
ATOM     31  C13 UNL     1     149.165 154.115 160.969  0.00  0.00    +0.005 A 
ATOM     32  C14 UNL     1     149.613 154.222 162.277  0.00  0.00    +0.020 A 
ATOM     33  C15 UNL     1     150.759 154.960 162.506  0.00  0.00    +0.113 A 
ATOM     34  N3  UNL     1     151.464 155.585 161.535  0.00  0.00    -0.241 NA
ENDBRANCH  27  29
ENDBRANCH   1  27
TORSDOF 7
ENDMDL
MODEL 4
REMARK VINA RESULT:    -6.343      2.100      3.281
REMARK INTER + INTRA:          -9.419
REMARK INTER:                  -7.834
REMARK INTRA:                  -1.585
REMARK UNBOUND:                -0.666
REMARK  Name = /home/vital/Documents/PhD_2021/Malaria_codes/data/pdb_ligands_mmv/ligand_379.pdb
REMARK  7 active torsions:
REMARK  status: ('A' for Active; 'I' for Inactive)
REMARK    1  A    between atoms: O1_1  and  C1_2
REMARK    2  A    between atoms: C2_3  and  C10_12
REMARK    3  A    between atoms: C10_12  and  N2_13
REMARK    4  A    between atoms: C10_12  and  C16_20
REMARK    5  A    between atoms: N2_13  and  C11_14
REMARK    6  A    between atoms: C20_24  and  O2_25
REMARK    7  A    between atoms: O2_25  and  C21_26
REMARK                            x       y       z     vdW  Elec       q    Type
REMARK                         _______ _______ _______ _____ _____    ______ ____
ROOT
ATOM      1  C10 UNL     1     151.241 159.016 161.361  0.00  0.00    +0.136 C 
ENDROOT
BRANCH   1   3
ATOM      2  C1  UNL     1     152.062 160.007 163.603  0.00  0.00    +0.148 A 
ATOM      3  C2  UNL     1     151.197 160.035 162.498  0.00  0.00    +0.021 A 
ATOM      4  C3  UNL     1     150.217 161.041 162.470  0.00  0.00    +0.010 A 
ATOM      5  C4  UNL     1     150.115 161.972 163.506  0.00  0.00    +0.010 A 
ATOM      6  C5  UNL     1     150.993 161.917 164.600  0.00  0.00    +0.004 A 
ATOM      7  C6  UNL     1     150.920 162.830 165.662  0.00  0.00    +0.011 A 
ATOM      8  C7  UNL     1     151.815 162.728 166.721  0.00  0.00    +0.020 A 
ATOM      9  C8  UNL     1     152.756 161.716 166.685  0.00  0.00    +0.111 A 
ATOM     10  N1  UNL     1     152.859 160.816 165.681  0.00  0.00    -0.251 NA
ATOM     11  C9  UNL     1     151.984 160.921 164.655  0.00  0.00    +0.113 A 
BRANCH   2  12
ATOM     12  O1  UNL     1     153.056 159.050 163.678  0.00  0.00    -0.504 OA
ATOM     13  H1  UNL     1     153.775 159.426 163.122  0.00  0.00    +0.292 HD
ENDBRANCH   2  12
ENDBRANCH   1   3
BRANCH   1  14
ATOM     14  C16 UNL     1     151.337 159.706 159.994  0.00  0.00    -0.019 A 
ATOM     15  C17 UNL     1     152.066 160.891 159.792  0.00  0.00    +0.006 A 
ATOM     16  C18 UNL     1     152.160 161.470 158.523  0.00  0.00    +0.004 A 
ATOM     17  C19 UNL     1     151.528 160.876 157.434  0.00  0.00    +0.046 A 
ATOM     18  C20 UNL     1     150.789 159.707 157.620  0.00  0.00    +0.129 A 
ATOM     19  C27 UNL     1     150.711 159.114 158.882  0.00  0.00    +0.052 A 
BRANCH  18  20
ATOM     20  O2  UNL     1     150.173 159.056 156.576  0.00  0.00    -0.456 OA
BRANCH  20  21
ATOM     21  C21 UNL     1     150.835 157.979 156.030  0.00  0.00    +0.128 A 
ATOM     22  C22 UNL     1     150.541 156.652 156.359  0.00  0.00    +0.046 A 
ATOM     23  C23 UNL     1     151.284 155.616 155.792  0.00  0.00    +0.004 A 
ATOM     24  C24 UNL     1     152.326 155.905 154.909  0.00  0.00    +0.000 A 
ATOM     25  C25 UNL     1     152.633 157.231 154.599  0.00  0.00    +0.004 A 
ATOM     26  C26 UNL     1     151.892 158.269 155.166  0.00  0.00    +0.046 A 
ENDBRANCH  20  21
ENDBRANCH  18  20
ENDBRANCH   1  14
BRANCH   1  27
ATOM     27  N2  UNL     1     150.097 158.097 161.389  0.00  0.00    -0.318 N 
ATOM     28  H8  UNL     1     149.374 158.504 161.983  0.00  0.00    +0.148 HD
BRANCH  27  29
ATOM     29  C11 UNL     1     150.361 156.795 161.841  0.00  0.00    +0.119 A 
ATOM     30  C12 UNL     1     150.890 155.887 160.925  0.00  0.00    +0.043 A 
ATOM     31  C13 UNL     1     151.201 154.592 161.333  0.00  0.00    +0.005 A 
ATOM     32  C14 UNL     1     150.987 154.232 162.654  0.00  0.00    +0.020 A 
ATOM     33  C15 UNL     1     150.474 155.192 163.507  0.00  0.00    +0.113 A 
ATOM     34  N3  UNL     1     150.168 156.454 163.131  0.00  0.00    -0.241 NA
ENDBRANCH  27  29
ENDBRANCH   1  27
TORSDOF 7
ENDMDL
MODEL 5
REMARK VINA RESULT:    -6.162      1.916      7.906
REMARK INTER + INTRA:          -9.169
REMARK INTER:                  -7.596
REMARK INTRA:                  -1.573
REMARK UNBOUND:                -0.666
REMARK  Name = /home/vital/Documents/PhD_2021/Malaria_codes/data/pdb_ligands_mmv/ligand_379.pdb
REMARK  7 active torsions:
REMARK  status: ('A' for Active; 'I' for Inactive)
REMARK    1  A    between atoms: O1_1  and  C1_2
REMARK    2  A    between atoms: C2_3  and  C10_12
REMARK    3  A    between atoms: C10_12  and  N2_13
REMARK    4  A    between atoms: C10_12  and  C16_20
REMARK    5  A    between atoms: N2_13  and  C11_14
REMARK    6  A    between atoms: C20_24  and  O2_25
REMARK    7  A    between atoms: O2_25  and  C21_26
REMARK                            x       y       z     vdW  Elec       q    Type
REMARK                         _______ _______ _______ _____ _____    ______ ____
ROOT
ATOM      1  C10 UNL     1     150.347 156.861 159.443  0.00  0.00    +0.136 C 
ENDROOT
BRANCH   1   3
ATOM      2  C1  UNL     1     151.486 156.188 157.222  0.00  0.00    +0.148 A 
ATOM      3  C2  UNL     1     150.850 157.145 158.029  0.00  0.00    +0.021 A 
ATOM      4  C3  UNL     1     150.711 158.440 157.506  0.00  0.00    +0.010 A 
ATOM      5  C4  UNL     1     151.189 158.756 156.231  0.00  0.00    +0.010 A 
ATOM      6  C5  UNL     1     151.824 157.778 155.450  0.00  0.00    +0.004 A 
ATOM      7  C6  UNL     1     152.322 158.055 154.169  0.00  0.00    +0.011 A 
ATOM      8  C7  UNL     1     152.943 157.049 153.437  0.00  0.00    +0.020 A 
ATOM      9  C8  UNL     1     153.046 155.795 154.011  0.00  0.00    +0.111 A 
ATOM     10  N1  UNL     1     152.579 155.487 155.242  0.00  0.00    -0.251 NA
ATOM     11  C9  UNL     1     151.977 156.472 155.947  0.00  0.00    +0.113 A 
BRANCH   2  12
ATOM     12  O1  UNL     1     151.639 154.892 157.677  0.00  0.00    -0.504 OA
ATOM     13  H1  UNL     1     151.040 154.375 157.093  0.00  0.00    +0.292 HD
ENDBRANCH   2  12
ENDBRANCH   1   3
BRANCH   1  14
ATOM     14  C16 UNL     1     150.431 158.111 160.327  0.00  0.00    -0.019 A 
ATOM     15  C17 UNL     1     149.480 159.145 160.274  0.00  0.00    +0.006 A 
ATOM     16  C18 UNL     1     149.571 160.252 161.123  0.00  0.00    +0.004 A 
ATOM     17  C19 UNL     1     150.614 160.346 162.040  0.00  0.00    +0.046 A 
ATOM     18  C20 UNL     1     151.575 159.336 162.096  0.00  0.00    +0.129 A 
ATOM     19  C27 UNL     1     151.475 158.218 161.266  0.00  0.00    +0.052 A 
BRANCH  18  20
ATOM     20  O2  UNL     1     152.607 159.358 163.006  0.00  0.00    -0.456 OA
BRANCH  20  21
ATOM     21  C21 UNL     1     152.354 158.837 164.255  0.00  0.00    +0.128 A 
ATOM     22  C22 UNL     1     151.966 157.511 164.470  0.00  0.00    +0.046 A 
ATOM     23  C23 UNL     1     151.688 157.069 165.764  0.00  0.00    +0.004 A 
ATOM     24  C24 UNL     1     151.785 157.953 166.839  0.00  0.00    +0.000 A 
ATOM     25  C25 UNL     1     152.151 159.283 166.623  0.00  0.00    +0.004 A 
ATOM     26  C26 UNL     1     152.427 159.727 165.329  0.00  0.00    +0.046 A 
ENDBRANCH  20  21
ENDBRANCH  18  20
ENDBRANCH   1  14
BRANCH   1  27
ATOM     27  N2  UNL     1     151.054 155.741 160.074  0.00  0.00    -0.318 N 
ATOM     28  H8  UNL     1     151.331 155.085 159.343  0.00  0.00    +0.148 HD
BRANCH  27  29
ATOM     29  C11 UNL     1     150.343 155.036 161.057  0.00  0.00    +0.119 A 
ATOM     30  C12 UNL     1     149.134 154.449 160.685  0.00  0.00    +0.043 A 
ATOM     31  C13 UNL     1     148.407 153.711 161.616  0.00  0.00    +0.005 A 
ATOM     32  C14 UNL     1     148.907 153.565 162.901  0.00  0.00    +0.020 A 
ATOM     33  C15 UNL     1     150.119 154.164 163.190  0.00  0.00    +0.113 A 
ATOM     34  N3  UNL     1     150.841 154.883 162.300  0.00  0.00    -0.241 NA
ENDBRANCH  27  29
ENDBRANCH   1  27
TORSDOF 7
ENDMDL
MODEL 6
REMARK VINA RESULT:    -6.133      3.005      7.979
REMARK INTER + INTRA:          -9.130
REMARK INTER:                  -6.895
REMARK INTRA:                  -2.234
REMARK UNBOUND:                -0.666
REMARK  Name = /home/vital/Documents/PhD_2021/Malaria_codes/data/pdb_ligands_mmv/ligand_379.pdb
REMARK  7 active torsions:
REMARK  status: ('A' for Active; 'I' for Inactive)
REMARK    1  A    between atoms: O1_1  and  C1_2
REMARK    2  A    between atoms: C2_3  and  C10_12
REMARK    3  A    between atoms: C10_12  and  N2_13
REMARK    4  A    between atoms: C10_12  and  C16_20
REMARK    5  A    between atoms: N2_13  and  C11_14
REMARK    6  A    between atoms: C20_24  and  O2_25
REMARK    7  A    between atoms: O2_25  and  C21_26
REMARK                            x       y       z     vdW  Elec       q    Type
REMARK                         _______ _______ _______ _____ _____    ______ ____
ROOT
ATOM      1  C10 UNL     1     151.846 157.509 160.875  0.00  0.00    +0.136 C 
ENDROOT
BRANCH   1   3
ATOM      2  C1  UNL     1     150.883 156.438 163.022  0.00  0.00    +0.148 A 
ATOM      3  C2  UNL     1     151.908 157.125 162.352  0.00  0.00    +0.021 A 
ATOM      4  C3  UNL     1     153.029 157.508 163.107  0.00  0.00    +0.010 A 
ATOM      5  C4  UNL     1     153.112 157.212 164.470  0.00  0.00    +0.010 A 
ATOM      6  C5  UNL     1     152.069 156.526 165.112  0.00  0.00    +0.004 A 
ATOM      7  C6  UNL     1     152.112 156.213 166.478  0.00  0.00    +0.011 A 
ATOM      8  C7  UNL     1     151.051 155.533 167.063  0.00  0.00    +0.020 A 
ATOM      9  C8  UNL     1     149.978 155.184 166.263  0.00  0.00    +0.111 A 
ATOM     10  N1  UNL     1     149.898 155.466 164.943  0.00  0.00    -0.251 NA
ATOM     11  C9  UNL     1     150.934 156.130 164.382  0.00  0.00    +0.113 A 
BRANCH   2  12
ATOM     12  O1  UNL     1     149.762 156.023 162.328  0.00  0.00    -0.504 OA
ATOM     13  H1  UNL     1     149.672 155.078 162.587  0.00  0.00    +0.292 HD
ENDBRANCH   2  12
ENDBRANCH   1   3
BRANCH   1  14
ATOM     14  C16 UNL     1     151.917 159.030 160.689  0.00  0.00    -0.019 A 
ATOM     15  C17 UNL     1     152.478 159.630 159.547  0.00  0.00    +0.006 A 
ATOM     16  C18 UNL     1     152.491 161.020 159.397  0.00  0.00    +0.004 A 
ATOM     17  C19 UNL     1     151.943 161.835 160.385  0.00  0.00    +0.046 A 
ATOM     18  C20 UNL     1     151.396 161.256 161.530  0.00  0.00    +0.129 A 
ATOM     19  C27 UNL     1     151.361 159.868 161.673  0.00  0.00    +0.052 A 
BRANCH  18  20
ATOM     20  O2  UNL     1     150.809 162.009 162.522  0.00  0.00    -0.456 OA
BRANCH  20  21
ATOM     21  C21 UNL     1     151.064 161.640 163.823  0.00  0.00    +0.128 A 
ATOM     22  C22 UNL     1     152.351 161.394 164.313  0.00  0.00    +0.046 A 
ATOM     23  C23 UNL     1     152.524 160.986 165.635  0.00  0.00    +0.004 A 
ATOM     24  C24 UNL     1     151.414 160.811 166.464  0.00  0.00    +0.000 A 
ATOM     25  C25 UNL     1     150.128 161.035 165.969  0.00  0.00    +0.004 A 
ATOM     26  C26 UNL     1     149.953 161.442 164.646  0.00  0.00    +0.046 A 
ENDBRANCH  20  21
ENDBRANCH  18  20
ENDBRANCH   1  14
BRANCH   1  27
ATOM     27  N2  UNL     1     150.658 156.968 160.206  0.00  0.00    -0.318 N 
ATOM     28  H8  UNL     1     150.407 156.090 160.660  0.00  0.00    +0.148 HD
BRANCH  27  29
ATOM     29  C11 UNL     1     150.778 156.736 158.827  0.00  0.00    +0.119 A 
ATOM     30  C12 UNL     1     151.600 155.688 158.416  0.00  0.00    +0.043 A 
ATOM     31  C13 UNL     1     151.726 155.396 157.060  0.00  0.00    +0.005 A 
ATOM     32  C14 UNL     1     151.018 156.153 156.139  0.00  0.00    +0.020 A 
ATOM     33  C15 UNL     1     150.211 157.166 156.623  0.00  0.00    +0.113 A 
ATOM     34  N3  UNL     1     150.074 157.463 157.935  0.00  0.00    -0.241 NA
ENDBRANCH  27  29
ENDBRANCH   1  27
TORSDOF 7
ENDMDL
MODEL 7
REMARK VINA RESULT:    -6.044      3.877      9.740
REMARK INTER + INTRA:          -9.007
REMARK INTER:                  -6.983
REMARK INTRA:                  -2.023
REMARK UNBOUND:                -0.666
REMARK  Name = /home/vital/Documents/PhD_2021/Malaria_codes/data/pdb_ligands_mmv/ligand_379.pdb
REMARK  7 active torsions:
REMARK  status: ('A' for Active; 'I' for Inactive)
REMARK    1  A    between atoms: O1_1  and  C1_2
REMARK    2  A    between atoms: C2_3  and  C10_12
REMARK    3  A    between atoms: C10_12  and  N2_13
REMARK    4  A    between atoms: C10_12  and  C16_20
REMARK    5  A    between atoms: N2_13  and  C11_14
REMARK    6  A    between atoms: C20_24  and  O2_25
REMARK    7  A    between atoms: O2_25  and  C21_26
REMARK                            x       y       z     vdW  Elec       q    Type
REMARK                         _______ _______ _______ _____ _____    ______ ____
ROOT
ATOM      1  C10 UNL     1     150.978 159.898 163.565  0.00  0.00    +0.136 C 
ENDROOT
BRANCH   1   3
ATOM      2  C1  UNL     1     150.624 159.366 161.060  0.00  0.00    +0.148 A 
ATOM      3  C2  UNL     1     151.152 160.181 162.074  0.00  0.00    +0.021 A 
ATOM      4  C3  UNL     1     151.912 161.293 161.679  0.00  0.00    +0.010 A 
ATOM      5  C4  UNL     1     152.129 161.571 160.327  0.00  0.00    +0.010 A 
ATOM      6  C5  UNL     1     151.590 160.736 159.336  0.00  0.00    +0.004 A 
ATOM      7  C6  UNL     1     151.789 160.976 157.969  0.00  0.00    +0.011 A 
ATOM      8  C7  UNL     1     151.232 160.116 157.029  0.00  0.00    +0.020 A 
ATOM      9  C8  UNL     1     150.494 159.041 157.486  0.00  0.00    +0.111 A 
ATOM     10  N1  UNL     1     150.279 158.773 158.794  0.00  0.00    -0.251 NA
ATOM     11  C9  UNL     1     150.824 159.614 159.702  0.00  0.00    +0.113 A 
BRANCH   2  12
ATOM     12  O1  UNL     1     149.855 158.265 161.388  0.00  0.00    -0.504 OA
ATOM     13  H1  UNL     1     150.459 157.726 161.947  0.00  0.00    +0.292 HD
ENDBRANCH   2  12
ENDBRANCH   1   3
BRANCH   1  14
ATOM     14  C16 UNL     1     150.818 161.196 164.366  0.00  0.00    -0.019 A 
ATOM     15  C17 UNL     1     149.661 161.992 164.300  0.00  0.00    +0.006 A 
ATOM     16  C18 UNL     1     149.538 163.149 165.073  0.00  0.00    +0.004 A 
ATOM     17  C19 UNL     1     150.569 163.534 165.927  0.00  0.00    +0.046 A 
ATOM     18  C20 UNL     1     151.730 162.763 165.994  0.00  0.00    +0.129 A 
ATOM     19  C27 UNL     1     151.847 161.594 165.240  0.00  0.00    +0.052 A 
BRANCH  18  20
ATOM     20  O2  UNL     1     152.767 163.073 166.845  0.00  0.00    -0.456 OA
BRANCH  20  21
ATOM     21  C21 UNL     1     153.151 162.104 167.744  0.00  0.00    +0.128 A 
ATOM     22  C22 UNL     1     152.257 161.451 168.598  0.00  0.00    +0.046 A 
ATOM     23  C23 UNL     1     152.730 160.507 169.509  0.00  0.00    +0.004 A 
ATOM     24  C24 UNL     1     154.095 160.226 169.578  0.00  0.00    +0.000 A 
ATOM     25  C25 UNL     1     154.991 160.894 168.742  0.00  0.00    +0.004 A 
ATOM     26  C26 UNL     1     154.520 161.839 167.830  0.00  0.00    +0.046 A 
ENDBRANCH  20  21
ENDBRANCH  18  20
ENDBRANCH   1  14
BRANCH   1  27
ATOM     27  N2  UNL     1     152.076 159.092 164.113  0.00  0.00    -0.318 N 
ATOM     28  H8  UNL     1     152.745 158.913 163.365  0.00  0.00    +0.148 HD
BRANCH  27  29
ATOM     29  C11 UNL     1     151.713 157.865 164.689  0.00  0.00    +0.119 A 
ATOM     30  C12 UNL     1     152.255 157.549 165.934  0.00  0.00    +0.043 A 
ATOM     31  C13 UNL     1     151.900 156.358 166.563  0.00  0.00    +0.005 A 
ATOM     32  C14 UNL     1     151.001 155.508 165.937  0.00  0.00    +0.020 A 
ATOM     33  C15 UNL     1     150.495 155.896 164.710  0.00  0.00    +0.113 A 
ATOM     34  N3  UNL     1     150.826 157.049 164.085  0.00  0.00    -0.241 NA
ENDBRANCH  27  29
ENDBRANCH   1  27
TORSDOF 7
ENDMDL
MODEL 8
REMARK VINA RESULT:    -5.712      4.589     10.309
REMARK INTER + INTRA:          -8.548
REMARK INTER:                  -6.906
REMARK INTRA:                  -1.643
REMARK UNBOUND:                -0.666
REMARK  Name = /home/vital/Documents/PhD_2021/Malaria_codes/data/pdb_ligands_mmv/ligand_379.pdb
REMARK  7 active torsions:
REMARK  status: ('A' for Active; 'I' for Inactive)
REMARK    1  A    between atoms: O1_1  and  C1_2
REMARK    2  A    between atoms: C2_3  and  C10_12
REMARK    3  A    between atoms: C10_12  and  N2_13
REMARK    4  A    between atoms: C10_12  and  C16_20
REMARK    5  A    between atoms: N2_13  and  C11_14
REMARK    6  A    between atoms: C20_24  and  O2_25
REMARK    7  A    between atoms: O2_25  and  C21_26
REMARK                            x       y       z     vdW  Elec       q    Type
REMARK                         _______ _______ _______ _____ _____    ______ ____
ROOT
ATOM      1  C10 UNL     1     151.552 159.647 163.747  0.00  0.00    +0.136 C 
ENDROOT
BRANCH   1   3
ATOM      2  C1  UNL     1     151.171 157.229 164.580  0.00  0.00    +0.148 A 
ATOM      3  C2  UNL     1     151.687 158.521 164.770  0.00  0.00    +0.021 A 
ATOM      4  C3  UNL     1     152.326 158.787 165.992  0.00  0.00    +0.010 A 
ATOM      5  C4  UNL     1     152.440 157.799 166.973  0.00  0.00    +0.010 A 
ATOM      6  C5  UNL     1     151.912 156.517 166.754  0.00  0.00    +0.004 A 
ATOM      7  C6  UNL     1     152.001 155.499 167.714  0.00  0.00    +0.011 A 
ATOM      8  C7  UNL     1     151.460 154.247 167.445  0.00  0.00    +0.020 A 
ATOM      9  C8  UNL     1     150.845 154.052 166.222  0.00  0.00    +0.111 A 
ATOM     10  N1  UNL     1     150.738 155.006 165.270  0.00  0.00    -0.251 NA
ATOM     11  C9  UNL     1     151.266 156.221 165.540  0.00  0.00    +0.113 A 
BRANCH   2  12
ATOM     12  O1  UNL     1     150.545 156.904 163.391  0.00  0.00    -0.504 OA
ATOM     13  H1  UNL     1     150.162 157.761 163.096  0.00  0.00    +0.292 HD
ENDBRANCH   2  12
ENDBRANCH   1   3
BRANCH   1  14
ATOM     14  C16 UNL     1     151.189 160.976 164.422  0.00  0.00    -0.019 A 
ATOM     15  C17 UNL     1     149.985 161.655 164.164  0.00  0.00    +0.006 A 
ATOM     16  C18 UNL     1     149.673 162.845 164.827  0.00  0.00    +0.004 A 
ATOM     17  C19 UNL     1     150.559 163.379 165.760  0.00  0.00    +0.046 A 
ATOM     18  C20 UNL     1     151.764 162.725 166.018  0.00  0.00    +0.129 A 
ATOM     19  C27 UNL     1     152.068 161.524 165.374  0.00  0.00    +0.052 A 
BRANCH  18  20
ATOM     20  O2  UNL     1     152.661 163.185 166.955  0.00  0.00    -0.456 OA
BRANCH  20  21
ATOM     21  C21 UNL     1     153.147 162.270 167.861  0.00  0.00    +0.128 A 
ATOM     22  C22 UNL     1     154.479 161.844 167.883  0.00  0.00    +0.046 A 
ATOM     23  C23 UNL     1     154.886 160.883 168.808  0.00  0.00    +0.004 A 
ATOM     24  C24 UNL     1     153.962 160.338 169.702  0.00  0.00    +0.000 A 
ATOM     25  C25 UNL     1     152.627 160.747 169.665  0.00  0.00    +0.004 A 
ATOM     26  C26 UNL     1     152.218 161.707 168.739  0.00  0.00    +0.046 A 
ENDBRANCH  20  21
ENDBRANCH  18  20
ENDBRANCH   1  14
BRANCH   1  27
ATOM     27  N2  UNL     1     150.583 159.330 162.691  0.00  0.00    -0.318 N 
ATOM     28  H8  UNL     1     150.265 158.371 162.827  0.00  0.00    +0.148 HD
BRANCH  27  29
ATOM     29  C11 UNL     1     151.043 159.463 161.372  0.00  0.00    +0.119 A 
ATOM     30  C12 UNL     1     150.124 159.258 160.343  0.00  0.00    +0.043 A 
ATOM     31  C13 UNL     1     150.523 159.411 159.017  0.00  0.00    +0.005 A 
ATOM     32  C14 UNL     1     151.832 159.777 158.745  0.00  0.00    +0.020 A 
ATOM     33  C15 UNL     1     152.680 159.978 159.818  0.00  0.00    +0.113 A 
ATOM     34  N3  UNL     1     152.312 159.836 161.112  0.00  0.00    -0.241 NA
ENDBRANCH  27  29
ENDBRANCH   1  27
TORSDOF 7
ENDMDL
MODEL 9
REMARK VINA RESULT:    -5.594      6.412      9.750
REMARK INTER + INTRA:          -8.386
REMARK INTER:                  -6.388
REMARK INTRA:                  -1.998
REMARK UNBOUND:                -0.666
REMARK  Name = /home/vital/Documents/PhD_2021/Malaria_codes/data/pdb_ligands_mmv/ligand_379.pdb
REMARK  7 active torsions:
REMARK  status: ('A' for Active; 'I' for Inactive)
REMARK    1  A    between atoms: O1_1  and  C1_2
REMARK    2  A    between atoms: C2_3  and  C10_12
REMARK    3  A    between atoms: C10_12  and  N2_13
REMARK    4  A    between atoms: C10_12  and  C16_20
REMARK    5  A    between atoms: N2_13  and  C11_14
REMARK    6  A    between atoms: C20_24  and  O2_25
REMARK    7  A    between atoms: O2_25  and  C21_26
REMARK                            x       y       z     vdW  Elec       q    Type
REMARK                         _______ _______ _______ _____ _____    ______ ____
ROOT
ATOM      1  C10 UNL     1     151.763 158.451 165.861  0.00  0.00    +0.136 C 
ENDROOT
BRANCH   1   3
ATOM      2  C1  UNL     1     151.454 159.500 168.204  0.00  0.00    +0.148 A 
ATOM      3  C2  UNL     1     152.157 159.398 166.993  0.00  0.00    +0.021 A 
ATOM      4  C3  UNL     1     153.260 160.248 166.813  0.00  0.00    +0.010 A 
ATOM      5  C4  UNL     1     153.635 161.157 167.805  0.00  0.00    +0.010 A 
ATOM      6  C5  UNL     1     152.911 161.238 169.004  0.00  0.00    +0.004 A 
ATOM      7  C6  UNL     1     153.252 162.139 170.023  0.00  0.00    +0.011 A 
ATOM      8  C7  UNL     1     152.498 162.178 171.191  0.00  0.00    +0.020 A 
ATOM      9  C8  UNL     1     151.426 161.312 171.304  0.00  0.00    +0.111 A 
ATOM     10  N1  UNL     1     151.064 160.429 170.346  0.00  0.00    -0.251 NA
ATOM     11  C9  UNL     1     151.802 160.399 169.213  0.00  0.00    +0.113 A 
BRANCH   2  12
ATOM     12  O1  UNL     1     150.369 158.678 168.444  0.00  0.00    -0.504 OA
ATOM     13  H1  UNL     1     150.722 158.017 169.080  0.00  0.00    +0.292 HD
ENDBRANCH   2  12
ENDBRANCH   1   3
BRANCH   1  14
ATOM     14  C16 UNL     1     151.347 159.225 164.603  0.00  0.00    -0.019 A 
ATOM     15  C17 UNL     1     151.442 158.680 163.310  0.00  0.00    +0.006 A 
ATOM     16  C18 UNL     1     151.019 159.403 162.192  0.00  0.00    +0.004 A 
ATOM     17  C19 UNL     1     150.494 160.685 162.344  0.00  0.00    +0.046 A 
ATOM     18  C20 UNL     1     150.406 161.245 163.619  0.00  0.00    +0.129 A 
ATOM     19  C27 UNL     1     150.807 160.517 164.740  0.00  0.00    +0.052 A 
BRANCH  18  20
ATOM     20  O2  UNL     1     149.863 162.491 163.834  0.00  0.00    -0.456 OA
BRANCH  20  21
ATOM     21  C21 UNL     1     149.612 162.849 165.140  0.00  0.00    +0.128 A 
ATOM     22  C22 UNL     1     150.617 163.218 166.041  0.00  0.00    +0.046 A 
ATOM     23  C23 UNL     1     150.286 163.530 167.359  0.00  0.00    +0.004 A 
ATOM     24  C24 UNL     1     148.957 163.460 167.782  0.00  0.00    +0.000 A 
ATOM     25  C25 UNL     1     147.958 163.071 166.888  0.00  0.00    +0.004 A 
ATOM     26  C26 UNL     1     148.287 162.757 165.569  0.00  0.00    +0.046 A 
ENDBRANCH  20  21
ENDBRANCH  18  20
ENDBRANCH   1  14
BRANCH   1  27
ATOM     27  N2  UNL     1     150.703 157.516 166.258  0.00  0.00    -0.318 N 
ATOM     28  H8  UNL     1     150.183 157.932 167.030  0.00  0.00    +0.148 HD
BRANCH  27  29
ATOM     29  C11 UNL     1     151.124 156.234 166.643  0.00  0.00    +0.119 A 
ATOM     30  C12 UNL     1     150.626 155.147 165.928  0.00  0.00    +0.043 A 
ATOM     31  C13 UNL     1     151.038 153.856 166.250  0.00  0.00    +0.005 A 
ATOM     32  C14 UNL     1     151.952 153.678 167.278  0.00  0.00    +0.020 A 
ATOM     33  C15 UNL     1     152.412 154.806 167.932  0.00  0.00    +0.113 A 
ATOM     34  N3  UNL     1     152.025 156.066 167.632  0.00  0.00    -0.241 NA
ENDBRANCH  27  29
ENDBRANCH   1  27
TORSDOF 7
ENDMDL
