MODEL 1
REMARK VINA RESULT:    -8.277      0.000      0.000
REMARK INTER + INTRA:         -10.370
REMARK INTER:                  -9.971
REMARK INTRA:                  -0.399
REMARK UNBOUND:                -0.399
REMARK  Name = /home/vital/Documents/PhD_2021/Malaria_codes/data/pdb_ligands_mmv/ligand_13.pdb
REMARK  6 active torsions:
REMARK  status: ('A' for Active; 'I' for Inactive)
REMARK    1  A    between atoms: C1_1  and  C2_2
REMARK    2  A    between atoms: C2_2  and  C3_3
REMARK    3  A    between atoms: C6_6  and  N1_7
REMARK    4  A    between atoms: N1_7  and  C7_8
REMARK    5  A    between atoms: C9_10  and  C10_11
REMARK    6  A    between atoms: C14_15  and  O1_16
REMARK                            x       y       z     vdW  Elec       q    Type
REMARK                         _______ _______ _______ _____ _____    ______ ____
ROOT
ATOM      1  C7  UNL     1     151.797 158.503 155.384  0.00  0.00    +0.124 A 
ATOM      2  C8  UNL     1     151.273 157.263 155.736  0.00  0.00    +0.047 A 
ATOM      3  C9  UNL     1     150.735 157.061 157.011  0.00  0.00    -0.038 A 
ATOM      4  C10 UNL     1     150.179 155.709 157.365  0.00  0.00    +0.044 C 
ATOM      5  C11 UNL     1     150.739 158.136 157.926  0.00  0.00    +0.004 A 
ATOM      6  C12 UNL     1     150.223 158.053 159.240  0.00  0.00    +0.014 A 
ATOM      7  C13 UNL     1     150.260 159.154 160.095  0.00  0.00    +0.046 A 
ATOM      8  C14 UNL     1     150.810 160.341 159.643  0.00  0.00    +0.119 A 
ATOM      9  C15 UNL     1     151.322 160.440 158.354  0.00  0.00    +0.073 A 
ATOM     10  C16 UNL     1     151.297 159.357 157.486  0.00  0.00    +0.077 A 
ATOM     11  N2  UNL     1     151.809 159.528 156.258  0.00  0.00    -0.232 NA
ENDROOT
BRANCH   1  12
ATOM     12  N1  UNL     1     152.330 158.639 154.079  0.00  0.00    -0.299 N 
ATOM     13  H8  UNL     1     153.067 159.335 154.089  0.00  0.00    +0.154 HD
BRANCH  12  17
ATOM     14  C3  UNL     1     153.240 155.695 151.157  0.00  0.00    -0.048 A 
ATOM     15  C4  UNL     1     152.154 156.555 150.969  0.00  0.00    +0.005 A 
ATOM     16  C5  UNL     1     151.835 157.519 151.933  0.00  0.00    +0.023 A 
ATOM     17  C6  UNL     1     152.575 157.638 153.113  0.00  0.00    +0.032 A 
ATOM     18  C17 UNL     1     153.689 156.798 153.272  0.00  0.00    +0.023 A 
ATOM     19  C18 UNL     1     154.013 155.832 152.313  0.00  0.00    +0.005 A 
BRANCH  14  21
ATOM     20  C1  UNL     1     155.098 154.510 149.962  0.00  0.00    +0.009 C 
ATOM     21  C2  UNL     1     153.593 154.669 150.113  0.00  0.00    +0.032 C 
ENDBRANCH  14  21
ENDBRANCH  12  17
ENDBRANCH   1  12
BRANCH   8  22
ATOM     22  O1  UNL     1     150.830 161.401 160.500  0.00  0.00    -0.507 OA
ATOM     23  H15 UNL     1     150.794 161.065 161.411  0.00  0.00    +0.292 HD
ENDBRANCH   8  22
TORSDOF 4
ENDMDL
MODEL 2
REMARK VINA RESULT:    -8.114      2.595      3.647
REMARK INTER + INTRA:         -10.173
REMARK INTER:                  -9.897
REMARK INTRA:                  -0.277
REMARK UNBOUND:                -0.399
REMARK  Name = /home/vital/Documents/PhD_2021/Malaria_codes/data/pdb_ligands_mmv/ligand_13.pdb
REMARK  6 active torsions:
REMARK  status: ('A' for Active; 'I' for Inactive)
REMARK    1  A    between atoms: C1_1  and  C2_2
REMARK    2  A    between atoms: C2_2  and  C3_3
REMARK    3  A    between atoms: C6_6  and  N1_7
REMARK    4  A    between atoms: N1_7  and  C7_8
REMARK    5  A    between atoms: C9_10  and  C10_11
REMARK    6  A    between atoms: C14_15  and  O1_16
REMARK                            x       y       z     vdW  Elec       q    Type
REMARK                         _______ _______ _______ _____ _____    ______ ____
ROOT
ATOM      1  C7  UNL     1     150.608 157.483 157.395  0.00  0.00    +0.124 A 
ATOM      2  C8  UNL     1     149.990 158.491 158.130  0.00  0.00    +0.047 A 
ATOM      3  C9  UNL     1     149.921 158.405 159.525  0.00  0.00    -0.038 A 
ATOM      4  C10 UNL     1     149.244 159.506 160.292  0.00  0.00    +0.044 C 
ATOM      5  C11 UNL     1     150.486 157.279 160.163  0.00  0.00    +0.004 A 
ATOM      6  C12 UNL     1     150.478 157.083 161.563  0.00  0.00    +0.014 A 
ATOM      7  C13 UNL     1     151.054 155.946 162.130  0.00  0.00    +0.046 A 
ATOM      8  C14 UNL     1     151.639 155.003 161.304  0.00  0.00    +0.119 A 
ATOM      9  C15 UNL     1     151.655 155.180 159.925  0.00  0.00    +0.073 A 
ATOM     10  C16 UNL     1     151.088 156.303 159.339  0.00  0.00    +0.077 A 
ATOM     11  N2  UNL     1     151.141 156.405 158.002  0.00  0.00    -0.232 NA
ENDROOT
BRANCH   1  12
ATOM     12  N1  UNL     1     150.641 157.629 155.987  0.00  0.00    -0.299 N 
ATOM     13  H8  UNL     1     150.343 158.565 155.740  0.00  0.00    +0.154 HD
BRANCH  12  17
ATOM     14  C3  UNL     1     153.399 156.216 153.083  0.00  0.00    -0.048 A 
ATOM     15  C4  UNL     1     152.636 155.309 153.823  0.00  0.00    +0.005 A 
ATOM     16  C5  UNL     1     151.735 155.762 154.793  0.00  0.00    +0.023 A 
ATOM     17  C6  UNL     1     151.585 157.125 155.065  0.00  0.00    +0.032 A 
ATOM     18  C17 UNL     1     152.325 158.030 154.287  0.00  0.00    +0.023 A 
ATOM     19  C18 UNL     1     153.228 157.585 153.315  0.00  0.00    +0.005 A 
BRANCH  14  21
ATOM     20  C1  UNL     1     153.644 155.406 150.723  0.00  0.00    +0.009 C 
ATOM     21  C2  UNL     1     154.357 155.730 152.027  0.00  0.00    +0.032 C 
ENDBRANCH  14  21
ENDBRANCH  12  17
ENDBRANCH   1  12
BRANCH   8  22
ATOM     22  O1  UNL     1     152.196 153.903 161.887  0.00  0.00    -0.507 OA
ATOM     23  H15 UNL     1     152.735 153.440 161.226  0.00  0.00    +0.292 HD
ENDBRANCH   8  22
TORSDOF 4
ENDMDL
MODEL 3
REMARK VINA RESULT:    -8.066      2.242      3.795
REMARK INTER + INTRA:         -10.116
REMARK INTER:                  -9.653
REMARK INTRA:                  -0.463
REMARK UNBOUND:                -0.399
REMARK  Name = /home/vital/Documents/PhD_2021/Malaria_codes/data/pdb_ligands_mmv/ligand_13.pdb
REMARK  6 active torsions:
REMARK  status: ('A' for Active; 'I' for Inactive)
REMARK    1  A    between atoms: C1_1  and  C2_2
REMARK    2  A    between atoms: C2_2  and  C3_3
REMARK    3  A    between atoms: C6_6  and  N1_7
REMARK    4  A    between atoms: N1_7  and  C7_8
REMARK    5  A    between atoms: C9_10  and  C10_11
REMARK    6  A    between atoms: C14_15  and  O1_16
REMARK                            x       y       z     vdW  Elec       q    Type
REMARK                         _______ _______ _______ _____ _____    ______ ____
ROOT
ATOM      1  C7  UNL     1     153.536 156.479 152.966  0.00  0.00    +0.124 A 
ATOM      2  C8  UNL     1     152.537 155.509 152.999  0.00  0.00    +0.047 A 
ATOM      3  C9  UNL     1     151.536 155.561 153.974  0.00  0.00    -0.038 A 
ATOM      4  C10 UNL     1     150.472 154.498 153.988  0.00  0.00    +0.044 C 
ATOM      5  C11 UNL     1     151.563 156.611 154.918  0.00  0.00    +0.004 A 
ATOM      6  C12 UNL     1     150.606 156.769 155.947  0.00  0.00    +0.014 A 
ATOM      7  C13 UNL     1     150.693 157.829 156.849  0.00  0.00    +0.046 A 
ATOM      8  C14 UNL     1     151.731 158.735 156.727  0.00  0.00    +0.119 A 
ATOM      9  C15 UNL     1     152.682 158.594 155.722  0.00  0.00    +0.073 A 
ATOM     10  C16 UNL     1     152.616 157.547 154.814  0.00  0.00    +0.077 A 
ATOM     11  N2  UNL     1     153.568 157.476 153.871  0.00  0.00    -0.232 NA
ENDROOT
BRANCH   1  12
ATOM     12  N1  UNL     1     154.522 156.365 151.956  0.00  0.00    -0.299 N 
ATOM     13  H8  UNL     1     155.212 157.097 152.078  0.00  0.00    +0.154 HD
BRANCH  12  17
ATOM     14  C3  UNL     1     156.414 152.940 150.306  0.00  0.00    -0.048 A 
ATOM     15  C4  UNL     1     155.356 153.550 149.628  0.00  0.00    +0.005 A 
ATOM     16  C5  UNL     1     154.714 154.670 150.169  0.00  0.00    +0.023 A 
ATOM     17  C6  UNL     1     155.096 155.198 151.406  0.00  0.00    +0.032 A 
ATOM     18  C17 UNL     1     156.187 154.604 152.059  0.00  0.00    +0.023 A 
ATOM     19  C18 UNL     1     156.833 153.483 151.524  0.00  0.00    +0.005 A 
BRANCH  14  21
ATOM     20  C1  UNL     1     158.399 152.137 149.002  0.00  0.00    +0.009 C 
ATOM     21  C2  UNL     1     157.115 151.744 149.717  0.00  0.00    +0.032 C 
ENDBRANCH  14  21
ENDBRANCH  12  17
ENDBRANCH   1  12
BRANCH   8  22
ATOM     22  O1  UNL     1     151.788 159.762 157.622  0.00  0.00    -0.507 OA
ATOM     23  H15 UNL     1     151.172 160.457 157.338  0.00  0.00    +0.292 HD
ENDBRANCH   8  22
TORSDOF 4
ENDMDL
MODEL 4
REMARK VINA RESULT:    -8.048      1.548      2.726
REMARK INTER + INTRA:         -10.094
REMARK INTER:                  -9.907
REMARK INTRA:                  -0.188
REMARK UNBOUND:                -0.399
REMARK  Name = /home/vital/Documents/PhD_2021/Malaria_codes/data/pdb_ligands_mmv/ligand_13.pdb
REMARK  6 active torsions:
REMARK  status: ('A' for Active; 'I' for Inactive)
REMARK    1  A    between atoms: C1_1  and  C2_2
REMARK    2  A    between atoms: C2_2  and  C3_3
REMARK    3  A    between atoms: C6_6  and  N1_7
REMARK    4  A    between atoms: N1_7  and  C7_8
REMARK    5  A    between atoms: C9_10  and  C10_11
REMARK    6  A    between atoms: C14_15  and  O1_16
REMARK                            x       y       z     vdW  Elec       q    Type
REMARK                         _______ _______ _______ _____ _____    ______ ____
ROOT
ATOM      1  C7  UNL     1     150.796 157.568 157.753  0.00  0.00    +0.124 A 
ATOM      2  C8  UNL     1     150.464 156.954 158.957  0.00  0.00    +0.047 A 
ATOM      3  C9  UNL     1     150.635 157.637 160.167  0.00  0.00    -0.038 A 
ATOM      4  C10 UNL     1     150.272 156.948 161.453  0.00  0.00    +0.044 C 
ATOM      5  C11 UNL     1     151.149 158.952 160.136  0.00  0.00    +0.004 A 
ATOM      6  C12 UNL     1     151.363 159.740 161.290  0.00  0.00    +0.014 A 
ATOM      7  C13 UNL     1     151.875 161.033 161.189  0.00  0.00    +0.046 A 
ATOM      8  C14 UNL     1     152.175 161.544 159.939  0.00  0.00    +0.119 A 
ATOM      9  C15 UNL     1     151.972 160.782 158.793  0.00  0.00    +0.073 A 
ATOM     10  C16 UNL     1     151.463 159.493 158.870  0.00  0.00    +0.077 A 
ATOM     11  N2  UNL     1     151.294 158.819 157.722  0.00  0.00    -0.232 NA
ENDROOT
BRANCH   1  12
ATOM     12  N1  UNL     1     150.604 156.820 156.565  0.00  0.00    -0.299 N 
ATOM     13  H8  UNL     1     149.639 156.905 156.269  0.00  0.00    +0.154 HD
BRANCH  12  17
ATOM     14  C3  UNL     1     153.098 156.459 153.148  0.00  0.00    -0.048 A 
ATOM     15  C4  UNL     1     152.674 155.315 153.829  0.00  0.00    +0.005 A 
ATOM     16  C5  UNL     1     151.865 155.422 154.966  0.00  0.00    +0.023 A 
ATOM     17  C6  UNL     1     151.474 156.668 155.463  0.00  0.00    +0.032 A 
ATOM     18  C17 UNL     1     151.869 157.809 154.747  0.00  0.00    +0.023 A 
ATOM     19  C18 UNL     1     152.679 157.710 153.610  0.00  0.00    +0.005 A 
BRANCH  14  21
ATOM     20  C1  UNL     1     153.340 155.413 150.881  0.00  0.00    +0.009 C 
ATOM     21  C2  UNL     1     153.956 156.344 151.915  0.00  0.00    +0.032 C 
ENDBRANCH  14  21
ENDBRANCH  12  17
ENDBRANCH   1  12
BRANCH   8  22
ATOM     22  O1  UNL     1     152.673 162.812 159.872  0.00  0.00    -0.507 OA
ATOM     23  H15 UNL     1     151.930 163.436 159.829  0.00  0.00    +0.292 HD
ENDBRANCH   8  22
TORSDOF 4
ENDMDL
MODEL 5
REMARK VINA RESULT:    -8.020      1.700      2.202
REMARK INTER + INTRA:         -10.061
REMARK INTER:                  -9.700
REMARK INTRA:                  -0.361
REMARK UNBOUND:                -0.399
REMARK  Name = /home/vital/Documents/PhD_2021/Malaria_codes/data/pdb_ligands_mmv/ligand_13.pdb
REMARK  6 active torsions:
REMARK  status: ('A' for Active; 'I' for Inactive)
REMARK    1  A    between atoms: C1_1  and  C2_2
REMARK    2  A    between atoms: C2_2  and  C3_3
REMARK    3  A    between atoms: C6_6  and  N1_7
REMARK    4  A    between atoms: N1_7  and  C7_8
REMARK    5  A    between atoms: C9_10  and  C10_11
REMARK    6  A    between atoms: C14_15  and  O1_16
REMARK                            x       y       z     vdW  Elec       q    Type
REMARK                         _______ _______ _______ _____ _____    ______ ____
ROOT
ATOM      1  C7  UNL     1     151.988 156.514 156.688  0.00  0.00    +0.124 A 
ATOM      2  C8  UNL     1     151.446 156.084 157.896  0.00  0.00    +0.047 A 
ATOM      3  C9  UNL     1     151.074 157.014 158.873  0.00  0.00    -0.038 A 
ATOM      4  C10 UNL     1     150.495 156.521 160.169  0.00  0.00    +0.044 C 
ATOM      5  C11 UNL     1     151.263 158.389 158.606  0.00  0.00    +0.004 A 
ATOM      6  C12 UNL     1     150.925 159.419 159.513  0.00  0.00    +0.014 A 
ATOM      7  C13 UNL     1     151.138 160.758 159.188  0.00  0.00    +0.046 A 
ATOM      8  C14 UNL     1     151.688 161.074 157.959  0.00  0.00    +0.119 A 
ATOM      9  C15 UNL     1     152.027 160.073 157.055  0.00  0.00    +0.073 A 
ATOM     10  C16 UNL     1     151.824 158.734 157.357  0.00  0.00    +0.077 A 
ATOM     11  N2  UNL     1     152.176 157.824 156.436  0.00  0.00    -0.232 NA
ENDROOT
BRANCH   1  12
ATOM     12  N1  UNL     1     152.348 155.521 155.744  0.00  0.00    -0.299 N 
ATOM     13  H8  UNL     1     151.979 154.626 156.043  0.00  0.00    +0.154 HD
BRANCH  12  17
ATOM     14  C3  UNL     1     152.500 155.620 151.501  0.00  0.00    -0.048 A 
ATOM     15  C4  UNL     1     153.517 156.215 152.252  0.00  0.00    +0.005 A 
ATOM     16  C5  UNL     1     153.470 156.203 153.651  0.00  0.00    +0.023 A 
ATOM     17  C6  UNL     1     152.402 155.616 154.336  0.00  0.00    +0.032 A 
ATOM     18  C17 UNL     1     151.407 154.984 153.573  0.00  0.00    +0.023 A 
ATOM     19  C18 UNL     1     151.447 154.992 152.175  0.00  0.00    +0.005 A 
BRANCH  14  21
ATOM     20  C1  UNL     1     153.603 154.646 149.471  0.00  0.00    +0.009 C 
ATOM     21  C2  UNL     1     152.558 155.618 149.996  0.00  0.00    +0.032 C 
ENDBRANCH  14  21
ENDBRANCH  12  17
ENDBRANCH   1  12
BRANCH   8  22
ATOM     22  O1  UNL     1     151.883 162.392 157.668  0.00  0.00    -0.507 OA
ATOM     23  H15 UNL     1     151.635 162.921 158.443  0.00  0.00    +0.292 HD
ENDBRANCH   8  22
TORSDOF 4
ENDMDL
MODEL 6
REMARK VINA RESULT:    -7.845      2.020      2.862
REMARK INTER + INTRA:          -9.849
REMARK INTER:                  -9.410
REMARK INTRA:                  -0.439
REMARK UNBOUND:                -0.399
REMARK  Name = /home/vital/Documents/PhD_2021/Malaria_codes/data/pdb_ligands_mmv/ligand_13.pdb
REMARK  6 active torsions:
REMARK  status: ('A' for Active; 'I' for Inactive)
REMARK    1  A    between atoms: C1_1  and  C2_2
REMARK    2  A    between atoms: C2_2  and  C3_3
REMARK    3  A    between atoms: C6_6  and  N1_7
REMARK    4  A    between atoms: N1_7  and  C7_8
REMARK    5  A    between atoms: C9_10  and  C10_11
REMARK    6  A    between atoms: C14_15  and  O1_16
REMARK                            x       y       z     vdW  Elec       q    Type
REMARK                         _______ _______ _______ _____ _____    ______ ____
ROOT
ATOM      1  C7  UNL     1     151.537 157.915 155.409  0.00  0.00    +0.124 A 
ATOM      2  C8  UNL     1     151.538 159.100 156.140  0.00  0.00    +0.047 A 
ATOM      3  C9  UNL     1     151.490 159.066 157.538  0.00  0.00    -0.038 A 
ATOM      4  C10 UNL     1     151.488 160.362 158.300  0.00  0.00    +0.044 C 
ATOM      5  C11 UNL     1     151.438 157.812 158.184  0.00  0.00    +0.004 A 
ATOM      6  C12 UNL     1     151.388 157.652 159.588  0.00  0.00    +0.014 A 
ATOM      7  C13 UNL     1     151.336 156.382 160.162  0.00  0.00    +0.046 A 
ATOM      8  C14 UNL     1     151.335 155.270 159.341  0.00  0.00    +0.119 A 
ATOM      9  C15 UNL     1     151.384 155.409 157.957  0.00  0.00    +0.073 A 
ATOM     10  C16 UNL     1     151.435 156.662 157.364  0.00  0.00    +0.077 A 
ATOM     11  N2  UNL     1     151.479 156.718 156.024  0.00  0.00    -0.232 NA
ENDROOT
BRANCH   1  12
ATOM     12  N1  UNL     1     151.583 158.019 153.998  0.00  0.00    -0.299 N 
ATOM     13  H8  UNL     1     151.717 158.989 153.738  0.00  0.00    +0.154 HD
BRANCH  12  17
ATOM     14  C3  UNL     1     153.456 155.536 151.107  0.00  0.00    -0.048 A 
ATOM     15  C4  UNL     1     152.070 155.490 151.276  0.00  0.00    +0.005 A 
ATOM     16  C5  UNL     1     151.442 156.292 152.236  0.00  0.00    +0.023 A 
ATOM     17  C6  UNL     1     152.180 157.144 153.064  0.00  0.00    +0.032 A 
ATOM     18  C17 UNL     1     153.567 157.214 152.857  0.00  0.00    +0.023 A 
ATOM     19  C18 UNL     1     154.201 156.415 151.899  0.00  0.00    +0.005 A 
BRANCH  14  21
ATOM     20  C1  UNL     1     155.574 154.378 150.427  0.00  0.00    +0.009 C 
ATOM     21  C2  UNL     1     154.130 154.685 150.062  0.00  0.00    +0.032 C 
ENDBRANCH  14  21
ENDBRANCH  12  17
ENDBRANCH   1  12
BRANCH   8  22
ATOM     22  O1  UNL     1     151.287 154.042 159.931  0.00  0.00    -0.507 OA
ATOM     23  H15 UNL     1     151.287 153.362 159.237  0.00  0.00    +0.292 HD
ENDBRANCH   8  22
TORSDOF 4
ENDMDL
MODEL 7
REMARK VINA RESULT:    -7.761      1.367      2.134
REMARK INTER + INTRA:          -9.748
REMARK INTER:                  -9.399
REMARK INTRA:                  -0.349
REMARK UNBOUND:                -0.399
REMARK  Name = /home/vital/Documents/PhD_2021/Malaria_codes/data/pdb_ligands_mmv/ligand_13.pdb
REMARK  6 active torsions:
REMARK  status: ('A' for Active; 'I' for Inactive)
REMARK    1  A    between atoms: C1_1  and  C2_2
REMARK    2  A    between atoms: C2_2  and  C3_3
REMARK    3  A    between atoms: C6_6  and  N1_7
REMARK    4  A    between atoms: N1_7  and  C7_8
REMARK    5  A    between atoms: C9_10  and  C10_11
REMARK    6  A    between atoms: C14_15  and  O1_16
REMARK                            x       y       z     vdW  Elec       q    Type
REMARK                         _______ _______ _______ _____ _____    ______ ____
ROOT
ATOM      1  C7  UNL     1     150.904 158.162 157.096  0.00  0.00    +0.124 A 
ATOM      2  C8  UNL     1     150.755 157.035 157.899  0.00  0.00    +0.047 A 
ATOM      3  C9  UNL     1     150.841 157.145 159.291  0.00  0.00    -0.038 A 
ATOM      4  C10 UNL     1     150.678 155.910 160.133  0.00  0.00    +0.044 C 
ATOM      5  C11 UNL     1     151.084 158.416 159.857  0.00  0.00    +0.004 A 
ATOM      6  C12 UNL     1     151.190 158.651 161.247  0.00  0.00    +0.014 A 
ATOM      7  C13 UNL     1     151.432 159.932 161.741  0.00  0.00    +0.046 A 
ATOM      8  C14 UNL     1     151.570 160.982 160.851  0.00  0.00    +0.119 A 
ATOM      9  C15 UNL     1     151.469 160.769 159.480  0.00  0.00    +0.073 A 
ATOM     10  C16 UNL     1     151.228 159.503 158.967  0.00  0.00    +0.077 A 
ATOM     11  N2  UNL     1     151.144 159.374 157.634  0.00  0.00    -0.232 NA
ENDROOT
BRANCH   1  12
ATOM     12  N1  UNL     1     150.811 157.982 155.695  0.00  0.00    -0.299 N 
ATOM     13  H8  UNL     1     150.385 158.802 155.279  0.00  0.00    +0.154 HD
BRANCH  12  17
ATOM     14  C3  UNL     1     153.492 156.226 152.909  0.00  0.00    -0.048 A 
ATOM     15  C4  UNL     1     152.856 155.430 153.866  0.00  0.00    +0.005 A 
ATOM     16  C5  UNL     1     151.982 155.999 154.799  0.00  0.00    +0.023 A 
ATOM     17  C6  UNL     1     151.735 157.375 154.816  0.00  0.00    +0.032 A 
ATOM     18  C17 UNL     1     152.346 158.159 153.824  0.00  0.00    +0.023 A 
ATOM     19  C18 UNL     1     153.221 157.597 152.888  0.00  0.00    +0.005 A 
BRANCH  14  21
ATOM     20  C1  UNL     1     153.689 155.230 150.616  0.00  0.00    +0.009 C 
ATOM     21  C2  UNL     1     154.420 155.611 151.894  0.00  0.00    +0.032 C 
ENDBRANCH  14  21
ENDBRANCH  12  17
ENDBRANCH   1  12
BRANCH   8  22
ATOM     22  O1  UNL     1     151.805 162.224 161.363  0.00  0.00    -0.507 OA
ATOM     23  H15 UNL     1     151.926 162.846 160.627  0.00  0.00    +0.292 HD
ENDBRANCH   8  22
TORSDOF 4
ENDMDL
MODEL 8
REMARK VINA RESULT:    -7.651      2.260      3.429
REMARK INTER + INTRA:          -9.616
REMARK INTER:                  -9.206
REMARK INTRA:                  -0.410
REMARK UNBOUND:                -0.399
REMARK  Name = /home/vital/Documents/PhD_2021/Malaria_codes/data/pdb_ligands_mmv/ligand_13.pdb
REMARK  6 active torsions:
REMARK  status: ('A' for Active; 'I' for Inactive)
REMARK    1  A    between atoms: C1_1  and  C2_2
REMARK    2  A    between atoms: C2_2  and  C3_3
REMARK    3  A    between atoms: C6_6  and  N1_7
REMARK    4  A    between atoms: N1_7  and  C7_8
REMARK    5  A    between atoms: C9_10  and  C10_11
REMARK    6  A    between atoms: C14_15  and  O1_16
REMARK                            x       y       z     vdW  Elec       q    Type
REMARK                         _______ _______ _______ _____ _____    ______ ____
ROOT
ATOM      1  C7  UNL     1     151.051 158.024 157.422  0.00  0.00    +0.124 A 
ATOM      2  C8  UNL     1     151.133 159.345 157.852  0.00  0.00    +0.047 A 
ATOM      3  C9  UNL     1     151.368 159.634 159.201  0.00  0.00    -0.038 A 
ATOM      4  C10 UNL     1     151.448 161.070 159.638  0.00  0.00    +0.044 C 
ATOM      5  C11 UNL     1     151.517 158.562 160.107  0.00  0.00    +0.004 A 
ATOM      6  C12 UNL     1     151.759 158.728 161.490  0.00  0.00    +0.014 A 
ATOM      7  C13 UNL     1     151.895 157.625 162.332  0.00  0.00    +0.046 A 
ATOM      8  C14 UNL     1     151.790 156.353 161.798  0.00  0.00    +0.119 A 
ATOM      9  C15 UNL     1     151.552 156.171 160.440  0.00  0.00    +0.073 A 
ATOM     10  C16 UNL     1     151.413 157.254 159.584  0.00  0.00    +0.077 A 
ATOM     11  N2  UNL     1     151.185 157.000 158.286  0.00  0.00    -0.232 NA
ENDROOT
BRANCH   1  12
ATOM     12  N1  UNL     1     150.806 157.801 156.045  0.00  0.00    -0.299 N 
ATOM     13  H8  UNL     1     150.261 158.569 155.673  0.00  0.00    +0.154 HD
BRANCH  12  17
ATOM     14  C3  UNL     1     153.296 156.241 152.978  0.00  0.00    -0.048 A 
ATOM     15  C4  UNL     1     152.721 155.382 153.918  0.00  0.00    +0.005 A 
ATOM     16  C5  UNL     1     151.911 155.885 154.942  0.00  0.00    +0.023 A 
ATOM     17  C6  UNL     1     151.670 157.257 155.068  0.00  0.00    +0.032 A 
ATOM     18  C17 UNL     1     152.217 158.107 154.095  0.00  0.00    +0.023 A 
ATOM     19  C18 UNL     1     153.028 157.611 153.068  0.00  0.00    +0.005 A 
BRANCH  14  21
ATOM     20  C1  UNL     1     153.335 155.377 150.624  0.00  0.00    +0.009 C 
ATOM     21  C2  UNL     1     154.154 155.698 151.865  0.00  0.00    +0.032 C 
ENDBRANCH  14  21
ENDBRANCH  12  17
ENDBRANCH   1  12
BRANCH   8  22
ATOM     22  O1  UNL     1     151.930 155.294 162.645  0.00  0.00    -0.507 OA
ATOM     23  H15 UNL     1     152.877 155.132 162.789  0.00  0.00    +0.292 HD
ENDBRANCH   8  22
TORSDOF 4
ENDMDL
MODEL 9
REMARK VINA RESULT:    -7.525      2.037      3.555
REMARK INTER + INTRA:          -9.464
REMARK INTER:                  -9.010
REMARK INTRA:                  -0.455
REMARK UNBOUND:                -0.399
REMARK  Name = /home/vital/Documents/PhD_2021/Malaria_codes/data/pdb_ligands_mmv/ligand_13.pdb
REMARK  6 active torsions:
REMARK  status: ('A' for Active; 'I' for Inactive)
REMARK    1  A    between atoms: C1_1  and  C2_2
REMARK    2  A    between atoms: C2_2  and  C3_3
REMARK    3  A    between atoms: C6_6  and  N1_7
REMARK    4  A    between atoms: N1_7  and  C7_8
REMARK    5  A    between atoms: C9_10  and  C10_11
REMARK    6  A    between atoms: C14_15  and  O1_16
REMARK                            x       y       z     vdW  Elec       q    Type
REMARK                         _______ _______ _______ _____ _____    ______ ____
ROOT
ATOM      1  C7  UNL     1     150.371 158.310 158.677  0.00  0.00    +0.124 A 
ATOM      2  C8  UNL     1     150.853 157.246 159.435  0.00  0.00    +0.047 A 
ATOM      3  C9  UNL     1     151.149 157.423 160.791  0.00  0.00    -0.038 A 
ATOM      4  C10 UNL     1     151.672 156.257 161.583  0.00  0.00    +0.044 C 
ATOM      5  C11 UNL     1     150.949 158.697 161.367  0.00  0.00    +0.004 A 
ATOM      6  C12 UNL     1     151.211 158.996 162.724  0.00  0.00    +0.014 A 
ATOM      7  C13 UNL     1     150.993 160.277 163.229  0.00  0.00    +0.046 A 
ATOM      8  C14 UNL     1     150.515 161.263 162.385  0.00  0.00    +0.119 A 
ATOM      9  C15 UNL     1     150.253 160.986 161.048  0.00  0.00    +0.073 A 
ATOM     10  C16 UNL     1     150.462 159.719 160.523  0.00  0.00    +0.077 A 
ATOM     11  N2  UNL     1     150.188 159.527 159.223  0.00  0.00    -0.232 NA
ENDROOT
BRANCH   1  12
ATOM     12  N1  UNL     1     150.096 158.065 157.310  0.00  0.00    -0.299 N 
ATOM     13  H8  UNL     1     149.598 158.857 156.921  0.00  0.00    +0.154 HD
BRANCH  12  17
ATOM     14  C3  UNL     1     152.490 156.309 154.274  0.00  0.00    -0.048 A 
ATOM     15  C4  UNL     1     151.530 155.542 154.940  0.00  0.00    +0.005 A 
ATOM     16  C5  UNL     1     150.746 156.105 155.953  0.00  0.00    +0.023 A 
ATOM     17  C6  UNL     1     150.910 157.438 156.341  0.00  0.00    +0.032 A 
ATOM     18  C17 UNL     1     151.847 158.211 155.637  0.00  0.00    +0.023 A 
ATOM     19  C18 UNL     1     152.635 157.655 154.623  0.00  0.00    +0.005 A 
BRANCH  14  21
ATOM     20  C1  UNL     1     153.862 156.769 152.226  0.00  0.00    +0.009 C 
ATOM     21  C2  UNL     1     153.323 155.707 153.172  0.00  0.00    +0.032 C 
ENDBRANCH  14  21
ENDBRANCH  12  17
ENDBRANCH   1  12
BRANCH   8  22
ATOM     22  O1  UNL     1     150.310 162.505 162.909  0.00  0.00    -0.507 OA
ATOM     23  H15 UNL     1     149.363 162.612 163.095  0.00  0.00    +0.292 HD
ENDBRANCH   8  22
TORSDOF 4
ENDMDL
