MODEL 1
REMARK VINA RESULT:    -5.131      0.000      0.000
REMARK INTER + INTRA:          -5.510
REMARK INTER:                  -5.431
REMARK INTRA:                  -0.079
REMARK UNBOUND:                -0.079
REMARK  Name = /home/vital/Documents/PhD_2021/Malaria_codes/data/pdb_ligands_mmv/ligand_213.pdb
REMARK  2 active torsions:
REMARK  status: ('A' for Active; 'I' for Inactive)
REMARK    1  A    between atoms: C19_24  and  O2_25
REMARK    2  A    between atoms: O2_25  and  C20_26
REMARK                            x       y       z     vdW  Elec       q    Type
REMARK                         _______ _______ _______ _____ _____    ______ ____
ROOT
ATOM      1  C1  UNL     1     151.503 159.413 165.665  0.00  0.00    +0.218 C 
ATOM      2  N1  UNL     1     150.706 158.194 165.351  0.00  0.00    -0.310 N 
ATOM      3  C2  UNL     1     151.098 156.989 165.956  0.00  0.00    +0.040 A 
ATOM      4  C3  UNL     1     150.558 155.784 165.489  0.00  0.00    +0.024 A 
ATOM      5  C4  UNL     1     150.851 154.574 166.125  0.00  0.00    +0.002 A 
ATOM      6  C5  UNL     1     151.668 154.558 167.253  0.00  0.00    +0.001 A 
ATOM      7  C6  UNL     1     152.184 155.752 167.753  0.00  0.00    +0.013 A 
ATOM      8  C7  UNL     1     151.894 156.965 167.116  0.00  0.00    +0.038 A 
ATOM      9  C8  UNL     1     152.421 158.222 167.625  0.00  0.00    +0.146 A 
ATOM     10  N2  UNL     1     152.235 159.398 166.933  0.00  0.00    -0.290 N 
ATOM     11  C9  UNL     1     152.883 160.406 167.610  0.00  0.00    +0.072 A 
ATOM     12  C10 UNL     1     153.409 159.764 168.732  0.00  0.00    +0.090 A 
ATOM     13  C11 UNL     1     154.140 160.500 169.676  0.00  0.00    +0.030 A 
ATOM     14  C12 UNL     1     154.333 161.869 169.467  0.00  0.00    +0.002 A 
ATOM     15  C13 UNL     1     153.808 162.493 168.336  0.00  0.00    +0.002 A 
ATOM     16  C14 UNL     1     153.074 161.775 167.382  0.00  0.00    +0.028 A 
ATOM     17  N3  UNL     1     153.111 158.426 168.728  0.00  0.00    -0.227 NA
ATOM     18  C15 UNL     1     152.482 159.724 164.470  0.00  0.00    +0.267 C 
ATOM     19  O1  UNL     1     153.445 159.075 164.090  0.00  0.00    -0.271 OA
ATOM     20  N4  UNL     1     152.023 160.884 163.843  0.00  0.00    -0.281 N 
ATOM     21  C16 UNL     1     150.898 161.389 164.477  0.00  0.00    +0.041 A 
ATOM     22  C17 UNL     1     150.192 162.521 164.139  0.00  0.00    +0.027 A 
ATOM     23  C18 UNL     1     149.092 162.848 164.935  0.00  0.00    +0.047 A 
ATOM     24  C19 UNL     1     148.714 162.051 166.036  0.00  0.00    +0.121 A 
ATOM     25  C21 UNL     1     149.446 160.903 166.353  0.00  0.00    +0.055 A 
ATOM     26  C22 UNL     1     150.547 160.587 165.563  0.00  0.00    +0.030 A 
ATOM     27  H1  UNL     1     150.537 158.088 164.355  0.00  0.00    +0.149 HD
ATOM     28  H10 UNL     1     152.480 161.285 163.037  0.00  0.00    +0.155 HD
ENDROOT
BRANCH  24  29
ATOM     29  O2  UNL     1     147.614 162.507 166.709  0.00  0.00    -0.495 OA
ATOM     30  C20 UNL     1     147.827 163.542 167.663  0.00  0.00    +0.277 C 
ENDBRANCH  24  29
TORSDOF 1
ENDMDL
MODEL 2
REMARK VINA RESULT:    -5.065      2.191      4.756
REMARK INTER + INTRA:          -5.440
REMARK INTER:                  -5.365
REMARK INTRA:                  -0.075
REMARK UNBOUND:                -0.079
REMARK  Name = /home/vital/Documents/PhD_2021/Malaria_codes/data/pdb_ligands_mmv/ligand_213.pdb
REMARK  2 active torsions:
REMARK  status: ('A' for Active; 'I' for Inactive)
REMARK    1  A    between atoms: C19_24  and  O2_25
REMARK    2  A    between atoms: O2_25  and  C20_26
REMARK                            x       y       z     vdW  Elec       q    Type
REMARK                         _______ _______ _______ _____ _____    ______ ____
ROOT
ATOM      1  C1  UNL     1     150.627 158.697 167.418  0.00  0.00    +0.218 C 
ATOM      2  N1  UNL     1     150.772 157.267 167.808  0.00  0.00    -0.310 N 
ATOM      3  C2  UNL     1     150.642 156.303 166.796  0.00  0.00    +0.040 A 
ATOM      4  C3  UNL     1     150.502 154.955 167.152  0.00  0.00    +0.024 A 
ATOM      5  C4  UNL     1     150.463 153.957 166.175  0.00  0.00    +0.002 A 
ATOM      6  C5  UNL     1     150.592 154.292 164.828  0.00  0.00    +0.001 A 
ATOM      7  C6  UNL     1     150.769 155.624 164.459  0.00  0.00    +0.013 A 
ATOM      8  C7  UNL     1     150.805 156.626 165.436  0.00  0.00    +0.038 A 
ATOM      9  C8  UNL     1     150.992 158.021 165.070  0.00  0.00    +0.146 A 
ATOM     10  N2  UNL     1     150.908 159.018 166.017  0.00  0.00    -0.290 N 
ATOM     11  C9  UNL     1     151.067 160.230 165.385  0.00  0.00    +0.072 A 
ATOM     12  C10 UNL     1     151.285 159.881 164.052  0.00  0.00    +0.090 A 
ATOM     13  C11 UNL     1     151.503 160.884 163.096  0.00  0.00    +0.030 A 
ATOM     14  C12 UNL     1     151.491 162.222 163.503  0.00  0.00    +0.002 A 
ATOM     15  C13 UNL     1     151.265 162.554 164.838  0.00  0.00    +0.002 A 
ATOM     16  C14 UNL     1     151.046 161.566 165.807  0.00  0.00    +0.028 A 
ATOM     17  N3  UNL     1     151.241 158.522 163.878  0.00  0.00    -0.227 NA
ATOM     18  C15 UNL     1     149.191 159.210 167.819  0.00  0.00    +0.267 C 
ATOM     19  O1  UNL     1     148.111 158.875 167.360  0.00  0.00    -0.271 OA
ATOM     20  N4  UNL     1     149.348 160.109 168.876  0.00  0.00    -0.281 N 
ATOM     21  C16 UNL     1     150.685 160.276 169.204  0.00  0.00    +0.041 A 
ATOM     22  C17 UNL     1     151.204 161.094 170.181  0.00  0.00    +0.027 A 
ATOM     23  C18 UNL     1     152.594 161.113 170.324  0.00  0.00    +0.047 A 
ATOM     24  C19 UNL     1     153.432 160.327 169.505  0.00  0.00    +0.121 A 
ATOM     25  C21 UNL     1     152.876 159.502 168.523  0.00  0.00    +0.055 A 
ATOM     26  C22 UNL     1     151.492 159.493 168.378  0.00  0.00    +0.030 A 
ATOM     27  H1  UNL     1     150.229 157.034 168.635  0.00  0.00    +0.149 HD
ATOM     28  H10 UNL     1     148.566 160.570 169.320  0.00  0.00    +0.155 HD
ENDROOT
BRANCH  24  29
ATOM     29  O2  UNL     1     154.766 160.459 169.774  0.00  0.00    -0.495 OA
ATOM     30  C20 UNL     1     155.576 161.026 168.749  0.00  0.00    +0.277 C 
ENDBRANCH  24  29
TORSDOF 1
ENDMDL
MODEL 3
REMARK VINA RESULT:    -4.157      1.835      5.309
REMARK INTER + INTRA:          -4.479
REMARK INTER:                  -4.401
REMARK INTRA:                  -0.078
REMARK UNBOUND:                -0.079
REMARK  Name = /home/vital/Documents/PhD_2021/Malaria_codes/data/pdb_ligands_mmv/ligand_213.pdb
REMARK  2 active torsions:
REMARK  status: ('A' for Active; 'I' for Inactive)
REMARK    1  A    between atoms: C19_24  and  O2_25
REMARK    2  A    between atoms: O2_25  and  C20_26
REMARK                            x       y       z     vdW  Elec       q    Type
REMARK                         _______ _______ _______ _____ _____    ______ ____
ROOT
ATOM      1  C1  UNL     1     151.070 161.183 166.781  0.00  0.00    +0.218 C 
ATOM      2  N1  UNL     1     151.658 162.437 167.329  0.00  0.00    -0.310 N 
ATOM      3  C2  UNL     1     152.313 162.358 168.568  0.00  0.00    +0.040 A 
ATOM      4  C3  UNL     1     152.641 163.541 169.244  0.00  0.00    +0.024 A 
ATOM      5  C4  UNL     1     153.375 163.507 170.433  0.00  0.00    +0.002 A 
ATOM      6  C5  UNL     1     153.815 162.289 170.947  0.00  0.00    +0.001 A 
ATOM      7  C6  UNL     1     153.530 161.106 170.269  0.00  0.00    +0.013 A 
ATOM      8  C7  UNL     1     152.793 161.137 169.079  0.00  0.00    +0.038 A 
ATOM      9  C8  UNL     1     152.489 159.912 168.355  0.00  0.00    +0.146 A 
ATOM     10  N2  UNL     1     151.664 159.930 167.252  0.00  0.00    -0.290 N 
ATOM     11  C9  UNL     1     151.507 158.636 166.808  0.00  0.00    +0.072 A 
ATOM     12  C10 UNL     1     152.306 157.891 167.676  0.00  0.00    +0.090 A 
ATOM     13  C11 UNL     1     152.401 156.501 167.514  0.00  0.00    +0.030 A 
ATOM     14  C12 UNL     1     151.682 155.889 166.482  0.00  0.00    +0.002 A 
ATOM     15  C13 UNL     1     150.882 156.647 165.629  0.00  0.00    +0.002 A 
ATOM     16  C14 UNL     1     150.775 158.037 165.774  0.00  0.00    +0.028 A 
ATOM     17  N3  UNL     1     152.905 158.691 168.615  0.00  0.00    -0.227 NA
ATOM     18  C15 UNL     1     149.514 161.179 167.029  0.00  0.00    +0.267 C 
ATOM     19  O1  UNL     1     148.915 161.110 168.091  0.00  0.00    -0.271 OA
ATOM     20  N4  UNL     1     148.892 161.335 165.788  0.00  0.00    -0.281 N 
ATOM     21  C16 UNL     1     149.822 161.412 164.763  0.00  0.00    +0.041 A 
ATOM     22  C17 UNL     1     149.566 161.553 163.418  0.00  0.00    +0.027 A 
ATOM     23  C18 UNL     1     150.667 161.594 162.560  0.00  0.00    +0.047 A 
ATOM     24  C19 UNL     1     151.988 161.500 163.048  0.00  0.00    +0.121 A 
ATOM     25  C21 UNL     1     152.218 161.364 164.420  0.00  0.00    +0.055 A 
ATOM     26  C22 UNL     1     151.118 161.313 165.270  0.00  0.00    +0.030 A 
ATOM     27  H1  UNL     1     151.011 163.219 167.285  0.00  0.00    +0.149 HD
ATOM     28  H10 UNL     1     147.888 161.373 165.682  0.00  0.00    +0.155 HD
ENDROOT
BRANCH  24  29
ATOM     29  O2  UNL     1     152.952 161.560 162.080  0.00  0.00    -0.495 OA
ATOM     30  C20 UNL     1     152.504 161.663 160.733  0.00  0.00    +0.277 C 
ENDBRANCH  24  29
TORSDOF 1
ENDMDL
MODEL 4
REMARK VINA RESULT:    -3.741      2.991      5.237
REMARK INTER + INTRA:          -4.038
REMARK INTER:                  -3.960
REMARK INTRA:                  -0.078
REMARK UNBOUND:                -0.079
REMARK  Name = /home/vital/Documents/PhD_2021/Malaria_codes/data/pdb_ligands_mmv/ligand_213.pdb
REMARK  2 active torsions:
REMARK  status: ('A' for Active; 'I' for Inactive)
REMARK    1  A    between atoms: C19_24  and  O2_25
REMARK    2  A    between atoms: O2_25  and  C20_26
REMARK                            x       y       z     vdW  Elec       q    Type
REMARK                         _______ _______ _______ _____ _____    ______ ____
ROOT
ATOM      1  C1  UNL     1     152.091 157.913 163.395  0.00  0.00    +0.218 C 
ATOM      2  N1  UNL     1     151.857 158.311 161.979  0.00  0.00    -0.310 N 
ATOM      3  C2  UNL     1     151.426 157.315 161.089  0.00  0.00    +0.040 A 
ATOM      4  C3  UNL     1     151.452 157.572 159.712  0.00  0.00    +0.024 A 
ATOM      5  C4  UNL     1     150.945 156.643 158.799  0.00  0.00    +0.002 A 
ATOM      6  C5  UNL     1     150.378 155.454 159.255  0.00  0.00    +0.001 A 
ATOM      7  C6  UNL     1     150.310 155.198 160.623  0.00  0.00    +0.013 A 
ATOM      8  C7  UNL     1     150.821 156.126 161.539  0.00  0.00    +0.038 A 
ATOM      9  C8  UNL     1     150.755 155.878 162.971  0.00  0.00    +0.146 A 
ATOM     10  N2  UNL     1     151.362 156.732 163.865  0.00  0.00    -0.290 N 
ATOM     11  C9  UNL     1     151.191 156.226 165.133  0.00  0.00    +0.072 A 
ATOM     12  C10 UNL     1     150.430 155.075 164.928  0.00  0.00    +0.090 A 
ATOM     13  C11 UNL     1     150.046 154.289 166.025  0.00  0.00    +0.030 A 
ATOM     14  C12 UNL     1     150.443 154.678 167.308  0.00  0.00    +0.002 A 
ATOM     15  C13 UNL     1     151.210 155.826 167.495  0.00  0.00    +0.002 A 
ATOM     16  C14 UNL     1     151.603 156.624 166.412  0.00  0.00    +0.028 A 
ATOM     17  N3  UNL     1     150.167 154.880 163.596  0.00  0.00    -0.227 NA
ATOM     18  C15 UNL     1     153.637 157.737 163.644  0.00  0.00    +0.267 C 
ATOM     19  O1  UNL     1     154.389 156.892 163.181  0.00  0.00    -0.271 OA
ATOM     20  N4  UNL     1     154.051 158.784 164.470  0.00  0.00    -0.281 N 
ATOM     21  C16 UNL     1     152.987 159.603 164.818  0.00  0.00    +0.041 A 
ATOM     22  C17 UNL     1     153.026 160.716 165.627  0.00  0.00    +0.027 A 
ATOM     23  C18 UNL     1     151.819 161.382 165.852  0.00  0.00    +0.047 A 
ATOM     24  C19 UNL     1     150.611 160.939 165.273  0.00  0.00    +0.121 A 
ATOM     25  C21 UNL     1     150.603 159.808 164.451  0.00  0.00    +0.055 A 
ATOM     26  C22 UNL     1     151.805 159.142 164.238  0.00  0.00    +0.030 A 
ATOM     27  H1  UNL     1     152.622 158.861 161.600  0.00  0.00    +0.149 HD
ATOM     28  H10 UNL     1     155.009 158.898 164.768  0.00  0.00    +0.155 HD
ENDROOT
BRANCH  24  29
ATOM     29  O2  UNL     1     149.521 161.703 165.590  0.00  0.00    -0.495 OA
ATOM     30  C20 UNL     1     149.406 162.962 164.935  0.00  0.00    +0.277 C 
ENDBRANCH  24  29
TORSDOF 1
ENDMDL
MODEL 5
REMARK VINA RESULT:    -3.511     12.337     16.314
REMARK INTER + INTRA:          -3.795
REMARK INTER:                  -3.716
REMARK INTRA:                  -0.079
REMARK UNBOUND:                -0.079
REMARK  Name = /home/vital/Documents/PhD_2021/Malaria_codes/data/pdb_ligands_mmv/ligand_213.pdb
REMARK  2 active torsions:
REMARK  status: ('A' for Active; 'I' for Inactive)
REMARK    1  A    between atoms: C19_24  and  O2_25
REMARK    2  A    between atoms: O2_25  and  C20_26
REMARK                            x       y       z     vdW  Elec       q    Type
REMARK                         _______ _______ _______ _____ _____    ______ ____
ROOT
ATOM      1  C1  UNL     1     144.085 145.953 165.634  0.00  0.00    +0.218 C 
ATOM      2  N1  UNL     1     145.075 144.882 165.937  0.00  0.00    -0.310 N 
ATOM      3  C2  UNL     1     144.780 143.582 165.494  0.00  0.00    +0.040 A 
ATOM      4  C3  UNL     1     145.535 142.508 165.982  0.00  0.00    +0.024 A 
ATOM      5  C4  UNL     1     145.334 141.213 165.496  0.00  0.00    +0.002 A 
ATOM      6  C5  UNL     1     144.392 140.980 164.496  0.00  0.00    +0.001 A 
ATOM      7  C6  UNL     1     143.658 142.043 163.974  0.00  0.00    +0.013 A 
ATOM      8  C7  UNL     1     143.856 143.341 164.461  0.00  0.00    +0.038 A 
ATOM      9  C8  UNL     1     143.102 144.464 163.925  0.00  0.00    +0.146 A 
ATOM     10  N2  UNL     1     143.209 145.718 164.484  0.00  0.00    -0.290 N 
ATOM     11  C9  UNL     1     142.349 146.563 163.821  0.00  0.00    +0.072 A 
ATOM     12  C10 UNL     1     141.780 145.750 162.839  0.00  0.00    +0.090 A 
ATOM     13  C11 UNL     1     140.842 146.289 161.947  0.00  0.00    +0.030 A 
ATOM     14  C12 UNL     1     140.491 147.638 162.065  0.00  0.00    +0.002 A 
ATOM     15  C13 UNL     1     141.062 148.434 163.057  0.00  0.00    +0.002 A 
ATOM     16  C14 UNL     1     142.001 147.914 163.957  0.00  0.00    +0.028 A 
ATOM     17  N3  UNL     1     142.258 144.468 162.914  0.00  0.00    -0.227 NA
ATOM     18  C15 UNL     1     143.229 146.258 166.922  0.00  0.00    +0.267 C 
ATOM     19  O1  UNL     1     142.421 145.535 167.484  0.00  0.00    -0.271 OA
ATOM     20  N4  UNL     1     143.600 147.524 167.381  0.00  0.00    -0.281 N 
ATOM     21  C16 UNL     1     144.556 148.099 166.558  0.00  0.00    +0.041 A 
ATOM     22  C17 UNL     1     145.136 149.340 166.700  0.00  0.00    +0.027 A 
ATOM     23  C18 UNL     1     146.073 149.719 165.736  0.00  0.00    +0.047 A 
ATOM     24  C19 UNL     1     146.416 148.869 164.664  0.00  0.00    +0.121 A 
ATOM     25  C21 UNL     1     145.815 147.612 164.548  0.00  0.00    +0.055 A 
ATOM     26  C22 UNL     1     144.876 147.242 165.505  0.00  0.00    +0.030 A 
ATOM     27  H1  UNL     1     145.380 144.899 166.906  0.00  0.00    +0.149 HD
ATOM     28  H10 UNL     1     143.196 147.945 168.206  0.00  0.00    +0.155 HD
ENDROOT
BRANCH  24  29
ATOM     29  O2  UNL     1     147.350 149.388 163.810  0.00  0.00    -0.495 OA
ATOM     30  C20 UNL     1     147.447 150.807 163.750  0.00  0.00    +0.277 C 
ENDBRANCH  24  29
TORSDOF 1
ENDMDL
MODEL 6
REMARK VINA RESULT:    -3.297     11.802     15.312
REMARK INTER + INTRA:          -3.569
REMARK INTER:                  -3.498
REMARK INTRA:                  -0.071
REMARK UNBOUND:                -0.079
REMARK  Name = /home/vital/Documents/PhD_2021/Malaria_codes/data/pdb_ligands_mmv/ligand_213.pdb
REMARK  2 active torsions:
REMARK  status: ('A' for Active; 'I' for Inactive)
REMARK    1  A    between atoms: C19_24  and  O2_25
REMARK    2  A    between atoms: O2_25  and  C20_26
REMARK                            x       y       z     vdW  Elec       q    Type
REMARK                         _______ _______ _______ _____ _____    ______ ____
ROOT
ATOM      1  C1  UNL     1     145.072 146.718 164.823  0.00  0.00    +0.218 C 
ATOM      2  N1  UNL     1     145.637 145.648 163.955  0.00  0.00    -0.310 N 
ATOM      3  C2  UNL     1     145.028 144.384 164.004  0.00  0.00    +0.040 A 
ATOM      4  C3  UNL     1     145.680 143.289 163.422  0.00  0.00    +0.024 A 
ATOM      5  C4  UNL     1     145.065 142.036 163.368  0.00  0.00    +0.002 A 
ATOM      6  C5  UNL     1     143.777 141.867 163.872  0.00  0.00    +0.001 A 
ATOM      7  C6  UNL     1     143.100 142.954 164.421  0.00  0.00    +0.013 A 
ATOM      8  C7  UNL     1     143.715 144.210 164.479  0.00  0.00    +0.038 A 
ATOM      9  C8  UNL     1     143.022 145.357 165.046  0.00  0.00    +0.146 A 
ATOM     10  N2  UNL     1     143.669 146.562 165.212  0.00  0.00    -0.290 N 
ATOM     11  C9  UNL     1     142.799 147.441 165.817  0.00  0.00    +0.072 A 
ATOM     12  C10 UNL     1     141.623 146.700 165.951  0.00  0.00    +0.090 A 
ATOM     13  C11 UNL     1     140.491 147.292 166.530  0.00  0.00    +0.030 A 
ATOM     14  C12 UNL     1     140.568 148.617 166.969  0.00  0.00    +0.002 A 
ATOM     15  C13 UNL     1     141.753 149.340 166.835  0.00  0.00    +0.002 A 
ATOM     16  C14 UNL     1     142.894 148.767 166.259  0.00  0.00    +0.028 A 
ATOM     17  N3  UNL     1     141.777 145.427 165.467  0.00  0.00    -0.227 NA
ATOM     18  C15 UNL     1     145.978 146.895 166.100  0.00  0.00    +0.267 C 
ATOM     19  O1  UNL     1     146.156 146.111 167.019  0.00  0.00    -0.271 OA
ATOM     20  N4  UNL     1     146.628 148.126 165.985  0.00  0.00    -0.281 N 
ATOM     21  C16 UNL     1     146.252 148.790 164.827  0.00  0.00    +0.041 A 
ATOM     22  C17 UNL     1     146.682 150.026 164.402  0.00  0.00    +0.027 A 
ATOM     23  C18 UNL     1     146.154 150.506 163.201  0.00  0.00    +0.047 A 
ATOM     24  C19 UNL     1     145.223 149.757 162.451  0.00  0.00    +0.121 A 
ATOM     25  C21 UNL     1     144.809 148.501 162.905  0.00  0.00    +0.055 A 
ATOM     26  C22 UNL     1     145.330 148.031 164.106  0.00  0.00    +0.030 A 
ATOM     27  H1  UNL     1     146.650 145.591 164.021  0.00  0.00    +0.149 HD
ATOM     28  H10 UNL     1     147.277 148.467 166.680  0.00  0.00    +0.155 HD
ENDROOT
BRANCH  24  29
ATOM     29  O2  UNL     1     144.806 150.367 161.300  0.00  0.00    -0.495 OA
ATOM     30  C20 UNL     1     143.474 150.098 160.877  0.00  0.00    +0.277 C 
ENDBRANCH  24  29
TORSDOF 1
ENDMDL
MODEL 7
REMARK VINA RESULT:    -3.269     16.169     19.950
REMARK INTER + INTRA:          -3.539
REMARK INTER:                  -3.464
REMARK INTRA:                  -0.075
REMARK UNBOUND:                -0.079
REMARK  Name = /home/vital/Documents/PhD_2021/Malaria_codes/data/pdb_ligands_mmv/ligand_213.pdb
REMARK  2 active torsions:
REMARK  status: ('A' for Active; 'I' for Inactive)
REMARK    1  A    between atoms: C19_24  and  O2_25
REMARK    2  A    between atoms: O2_25  and  C20_26
REMARK                            x       y       z     vdW  Elec       q    Type
REMARK                         _______ _______ _______ _____ _____    ______ ____
ROOT
ATOM      1  C1  UNL     1     141.891 142.031 165.873  0.00  0.00    +0.218 C 
ATOM      2  N1  UNL     1     141.133 141.985 167.155  0.00  0.00    -0.310 N 
ATOM      3  C2  UNL     1     141.365 140.894 168.007  0.00  0.00    +0.040 A 
ATOM      4  C3  UNL     1     140.493 140.668 169.079  0.00  0.00    +0.024 A 
ATOM      5  C4  UNL     1     140.743 139.649 170.003  0.00  0.00    +0.002 A 
ATOM      6  C5  UNL     1     141.885 138.861 169.882  0.00  0.00    +0.001 A 
ATOM      7  C6  UNL     1     142.782 139.096 168.842  0.00  0.00    +0.013 A 
ATOM      8  C7  UNL     1     142.533 140.114 167.914  0.00  0.00    +0.038 A 
ATOM      9  C8  UNL     1     143.460 140.376 166.824  0.00  0.00    +0.146 A 
ATOM     10  N2  UNL     1     143.157 141.295 165.844  0.00  0.00    -0.290 N 
ATOM     11  C9  UNL     1     144.177 141.295 164.920  0.00  0.00    +0.072 A 
ATOM     12  C10 UNL     1     145.088 140.372 165.434  0.00  0.00    +0.090 A 
ATOM     13  C11 UNL     1     146.283 140.115 164.746  0.00  0.00    +0.030 A 
ATOM     14  C12 UNL     1     146.533 140.791 163.548  0.00  0.00    +0.002 A 
ATOM     15  C13 UNL     1     145.609 141.705 163.044  0.00  0.00    +0.002 A 
ATOM     16  C14 UNL     1     144.410 141.975 163.717  0.00  0.00    +0.028 A 
ATOM     17  N3  UNL     1     144.634 139.822 166.606  0.00  0.00    -0.227 NA
ATOM     18  C15 UNL     1     140.958 141.563 164.692  0.00  0.00    +0.267 C 
ATOM     19  O1  UNL     1     140.491 140.453 164.488  0.00  0.00    -0.271 OA
ATOM     20  N4  UNL     1     140.683 142.684 163.906  0.00  0.00    -0.281 N 
ATOM     21  C16 UNL     1     141.328 143.812 164.392  0.00  0.00    +0.041 A 
ATOM     22  C17 UNL     1     141.294 145.081 163.861  0.00  0.00    +0.027 A 
ATOM     23  C18 UNL     1     142.038 146.066 164.516  0.00  0.00    +0.047 A 
ATOM     24  C19 UNL     1     142.790 145.776 165.673  0.00  0.00    +0.121 A 
ATOM     25  C21 UNL     1     142.802 144.479 166.193  0.00  0.00    +0.055 A 
ATOM     26  C22 UNL     1     142.068 143.499 165.533  0.00  0.00    +0.030 A 
ATOM     27  H1  UNL     1     140.142 142.169 167.025  0.00  0.00    +0.149 HD
ATOM     28  H10 UNL     1     140.094 142.645 163.087  0.00  0.00    +0.155 HD
ENDROOT
BRANCH  24  29
ATOM     29  O2  UNL     1     143.459 146.850 166.194  0.00  0.00    -0.495 OA
ATOM     30  C20 UNL     1     142.869 147.491 167.320  0.00  0.00    +0.277 C 
ENDBRANCH  24  29
TORSDOF 1
ENDMDL
MODEL 8
REMARK VINA RESULT:    -2.866     12.942     16.337
REMARK INTER + INTRA:          -3.112
REMARK INTER:                  -3.032
REMARK INTRA:                  -0.080
REMARK UNBOUND:                -0.079
REMARK  Name = /home/vital/Documents/PhD_2021/Malaria_codes/data/pdb_ligands_mmv/ligand_213.pdb
REMARK  2 active torsions:
REMARK  status: ('A' for Active; 'I' for Inactive)
REMARK    1  A    between atoms: C19_24  and  O2_25
REMARK    2  A    between atoms: O2_25  and  C20_26
REMARK                            x       y       z     vdW  Elec       q    Type
REMARK                         _______ _______ _______ _____ _____    ______ ____
ROOT
ATOM      1  C1  UNL     1     144.143 145.445 165.431  0.00  0.00    +0.218 C 
ATOM      2  N1  UNL     1     144.096 144.212 164.596  0.00  0.00    -0.310 N 
ATOM      3  C2  UNL     1     142.904 143.470 164.603  0.00  0.00    +0.040 A 
ATOM      4  C3  UNL     1     142.901 142.179 164.058  0.00  0.00    +0.024 A 
ATOM      5  C4  UNL     1     141.716 141.445 163.962  0.00  0.00    +0.002 A 
ATOM      6  C5  UNL     1     140.512 142.004 164.385  0.00  0.00    +0.001 A 
ATOM      7  C6  UNL     1     140.491 143.300 164.896  0.00  0.00    +0.013 A 
ATOM      8  C7  UNL     1     141.678 144.036 164.996  0.00  0.00    +0.038 A 
ATOM      9  C8  UNL     1     141.675 145.393 165.524  0.00  0.00    +0.146 A 
ATOM     10  N2  UNL     1     142.854 146.072 165.733  0.00  0.00    -0.290 N 
ATOM     11  C9  UNL     1     142.557 147.296 166.287  0.00  0.00    +0.072 A 
ATOM     12  C10 UNL     1     141.163 147.301 166.345  0.00  0.00    +0.090 A 
ATOM     13  C11 UNL     1     140.491 148.422 166.856  0.00  0.00    +0.030 A 
ATOM     14  C12 UNL     1     141.240 149.514 167.304  0.00  0.00    +0.002 A 
ATOM     15  C13 UNL     1     142.633 149.490 167.246  0.00  0.00    +0.002 A 
ATOM     16  C14 UNL     1     143.322 148.380 166.738  0.00  0.00    +0.028 A 
ATOM     17  N3  UNL     1     140.638 146.128 165.868  0.00  0.00    -0.227 NA
ATOM     18  C15 UNL     1     144.934 145.149 166.762  0.00  0.00    +0.267 C 
ATOM     19  O1  UNL     1     144.615 144.418 167.687  0.00  0.00    -0.271 OA
ATOM     20  N4  UNL     1     146.145 145.840 166.692  0.00  0.00    -0.281 N 
ATOM     21  C16 UNL     1     146.245 146.567 165.515  0.00  0.00    +0.041 A 
ATOM     22  C17 UNL     1     147.290 147.372 165.121  0.00  0.00    +0.027 A 
ATOM     23  C18 UNL     1     147.165 148.023 163.892  0.00  0.00    +0.047 A 
ATOM     24  C19 UNL     1     146.020 147.863 163.084  0.00  0.00    +0.121 A 
ATOM     25  C21 UNL     1     144.975 147.035 163.507  0.00  0.00    +0.055 A 
ATOM     26  C22 UNL     1     145.100 146.396 164.736  0.00  0.00    +0.030 A 
ATOM     27  H1  UNL     1     144.916 143.626 164.724  0.00  0.00    +0.149 HD
ATOM     28  H10 UNL     1     146.838 145.803 167.426  0.00  0.00    +0.155 HD
ENDROOT
BRANCH  24  29
ATOM     29  O2  UNL     1     146.055 148.567 161.911  0.00  0.00    -0.495 OA
ATOM     30  C20 UNL     1     146.348 149.956 162.005  0.00  0.00    +0.277 C 
ENDBRANCH  24  29
TORSDOF 1
ENDMDL
