MODEL 1
REMARK VINA RESULT:    -5.101      0.000      0.000
REMARK INTER + INTRA:          -6.127
REMARK INTER:                  -5.399
REMARK INTRA:                  -0.728
REMARK UNBOUND:                -0.728
REMARK  Name = /home/vital/Documents/PhD_2021/Malaria_codes/data/pdb_ligands_mmv/ligand_249.pdb
REMARK  1 active torsions:
REMARK  status: ('A' for Active; 'I' for Inactive)
REMARK    1  A    between atoms: C5_6  and  C7_8
REMARK                            x       y       z     vdW  Elec       q    Type
REMARK                         _______ _______ _______ _____ _____    ______ ____
ROOT
ATOM      1  C7  UNL     1     144.499 147.818 163.462  0.00  0.00    +0.098 C 
ATOM      2  S1  UNL     1     142.741 148.393 163.488  0.00  0.00    -0.114 S 
ATOM      3  C8  UNL     1     142.416 148.374 165.242  0.00  0.00    +0.034 A 
ATOM      4  C9  UNL     1     142.095 149.589 165.865  0.00  0.00    +0.017 A 
ATOM      5  C10 UNL     1     141.828 149.633 167.234  0.00  0.00    +0.001 A 
ATOM      6  C11 UNL     1     141.864 148.462 167.985  0.00  0.00    +0.002 A 
ATOM      7  C12 UNL     1     142.165 147.247 167.367  0.00  0.00    +0.029 A 
ATOM      8  C13 UNL     1     142.451 147.186 165.998  0.00  0.00    +0.078 A 
ATOM      9  N1  UNL     1     142.707 145.914 165.451  0.00  0.00    -0.250 NA
ATOM     10  C14 UNL     1     143.790 145.725 164.770  0.00  0.00    +0.062 C 
ATOM     11  C15 UNL     1     144.896 146.723 164.465  0.00  0.00    +0.127 C 
ATOM     12  C16 UNL     1     145.960 145.839 163.824  0.00  0.00    +0.174 C 
ATOM     13  O1  UNL     1     147.069 146.169 163.447  0.00  0.00    -0.291 OA
ATOM     14  C17 UNL     1     145.431 144.484 163.686  0.00  0.00    +0.027 A 
ATOM     15  C18 UNL     1     146.036 143.378 163.117  0.00  0.00    +0.012 A 
ATOM     16  C19 UNL     1     145.313 142.182 163.102  0.00  0.00    +0.001 A 
ATOM     17  C20 UNL     1     144.017 142.117 163.651  0.00  0.00    +0.001 A 
ATOM     18  C21 UNL     1     143.425 143.248 164.224  0.00  0.00    +0.010 A 
ATOM     19  C22 UNL     1     144.155 144.422 164.224  0.00  0.00    +0.007 A 
ENDROOT
BRANCH   1  25
ATOM     20  F1  UNL     1     147.327 151.049 165.871  0.00  0.00    -0.205 F 
ATOM     21  C1  UNL     1     146.812 150.615 164.712  0.00  0.00    +0.124 A 
ATOM     22  C2  UNL     1     147.117 151.286 163.536  0.00  0.00    +0.038 A 
ATOM     23  C3  UNL     1     146.577 150.836 162.334  0.00  0.00    +0.003 A 
ATOM     24  C4  UNL     1     145.737 149.717 162.321  0.00  0.00    +0.005 A 
ATOM     25  C5  UNL     1     145.427 149.029 163.508  0.00  0.00    -0.030 A 
ATOM     26  C6  UNL     1     145.980 149.500 164.711  0.00  0.00    +0.043 A 
ENDBRANCH   1  25
TORSDOF 1
ENDMDL
MODEL 2
REMARK VINA RESULT:    -4.442     10.907     15.152
REMARK INTER + INTRA:          -5.430
REMARK INTER:                  -4.881
REMARK INTRA:                  -0.549
REMARK UNBOUND:                -0.728
REMARK  Name = /home/vital/Documents/PhD_2021/Malaria_codes/data/pdb_ligands_mmv/ligand_249.pdb
REMARK  1 active torsions:
REMARK  status: ('A' for Active; 'I' for Inactive)
REMARK    1  A    between atoms: C5_6  and  C7_8
REMARK                            x       y       z     vdW  Elec       q    Type
REMARK                         _______ _______ _______ _____ _____    ______ ____
ROOT
ATOM      1  C7  UNL     1     150.346 158.119 161.483  0.00  0.00    +0.098 C 
ATOM      2  S1  UNL     1     149.158 158.937 160.323  0.00  0.00    -0.114 S 
ATOM      3  C8  UNL     1     150.291 159.653 159.145  0.00  0.00    +0.034 A 
ATOM      4  C9  UNL     1     150.217 159.220 157.814  0.00  0.00    +0.017 A 
ATOM      5  C10 UNL     1     151.075 159.748 156.849  0.00  0.00    +0.001 A 
ATOM      6  C11 UNL     1     152.002 160.723 157.205  0.00  0.00    +0.002 A 
ATOM      7  C12 UNL     1     152.069 161.170 158.525  0.00  0.00    +0.029 A 
ATOM      8  C13 UNL     1     151.226 160.641 159.510  0.00  0.00    +0.078 A 
ATOM      9  N1  UNL     1     151.337 161.177 160.807  0.00  0.00    -0.250 NA
ATOM     10  C14 UNL     1     151.520 160.380 161.808  0.00  0.00    +0.062 C 
ATOM     11  C15 UNL     1     151.655 158.865 161.791  0.00  0.00    +0.127 C 
ATOM     12  C16 UNL     1     152.059 158.563 163.230  0.00  0.00    +0.174 C 
ATOM     13  O1  UNL     1     152.335 157.478 163.709  0.00  0.00    -0.291 OA
ATOM     14  C17 UNL     1     152.037 159.803 164.001  0.00  0.00    +0.027 A 
ATOM     15  C18 UNL     1     152.288 159.983 165.349  0.00  0.00    +0.012 A 
ATOM     16  C19 UNL     1     152.198 161.283 165.855  0.00  0.00    +0.001 A 
ATOM     17  C20 UNL     1     151.863 162.362 165.013  0.00  0.00    +0.001 A 
ATOM     18  C21 UNL     1     151.614 162.158 163.652  0.00  0.00    +0.010 A 
ATOM     19  C22 UNL     1     151.705 160.863 163.172  0.00  0.00    +0.007 A 
ENDROOT
BRANCH   1  25
ATOM     20  F1  UNL     1     152.178 154.761 158.383  0.00  0.00    -0.205 F 
ATOM     21  C1  UNL     1     151.483 155.038 159.494  0.00  0.00    +0.124 A 
ATOM     22  C2  UNL     1     150.954 153.997 160.245  0.00  0.00    +0.038 A 
ATOM     23  C3  UNL     1     150.228 154.288 161.397  0.00  0.00    +0.003 A 
ATOM     24  C4  UNL     1     150.040 155.618 161.788  0.00  0.00    +0.005 A 
ATOM     25  C5  UNL     1     150.578 156.678 161.035  0.00  0.00    -0.030 A 
ATOM     26  C6  UNL     1     151.305 156.365 159.874  0.00  0.00    +0.043 A 
ENDBRANCH   1  25
TORSDOF 1
ENDMDL
MODEL 3
REMARK VINA RESULT:    -4.228      9.406     12.796
REMARK INTER + INTRA:          -5.203
REMARK INTER:                  -4.471
REMARK INTRA:                  -0.732
REMARK UNBOUND:                -0.728
REMARK  Name = /home/vital/Documents/PhD_2021/Malaria_codes/data/pdb_ligands_mmv/ligand_249.pdb
REMARK  1 active torsions:
REMARK  status: ('A' for Active; 'I' for Inactive)
REMARK    1  A    between atoms: C5_6  and  C7_8
REMARK                            x       y       z     vdW  Elec       q    Type
REMARK                         _______ _______ _______ _____ _____    ______ ____
ROOT
ATOM      1  C7  UNL     1     152.390 157.569 164.386  0.00  0.00    +0.098 C 
ATOM      2  S1  UNL     1     153.365 157.311 162.835  0.00  0.00    -0.114 S 
ATOM      3  C8  UNL     1     152.081 157.482 161.608  0.00  0.00    +0.034 A 
ATOM      4  C9  UNL     1     152.193 158.528 160.680  0.00  0.00    +0.017 A 
ATOM      5  C10 UNL     1     151.220 158.707 159.696  0.00  0.00    +0.001 A 
ATOM      6  C11 UNL     1     150.138 157.834 159.624  0.00  0.00    +0.002 A 
ATOM      7  C12 UNL     1     150.031 156.781 160.534  0.00  0.00    +0.029 A 
ATOM      8  C13 UNL     1     150.989 156.595 161.537  0.00  0.00    +0.078 A 
ATOM      9  N1  UNL     1     150.822 155.486 162.388  0.00  0.00    -0.250 NA
ATOM     10  C14 UNL     1     150.824 155.665 163.668  0.00  0.00    +0.062 C 
ATOM     11  C15 UNL     1     150.975 156.969 164.436  0.00  0.00    +0.127 C 
ATOM     12  C16 UNL     1     150.681 156.535 165.868  0.00  0.00    +0.174 C 
ATOM     13  O1  UNL     1     150.629 157.240 166.859  0.00  0.00    -0.291 OA
ATOM     14  C17 UNL     1     150.496 155.086 165.898  0.00  0.00    +0.027 A 
ATOM     15  C18 UNL     1     150.258 154.272 166.989  0.00  0.00    +0.012 A 
ATOM     16  C19 UNL     1     150.120 152.901 166.754  0.00  0.00    +0.001 A 
ATOM     17  C20 UNL     1     150.218 152.381 165.448  0.00  0.00    +0.001 A 
ATOM     18  C21 UNL     1     150.457 153.223 164.358  0.00  0.00    +0.010 A 
ATOM     19  C22 UNL     1     150.596 154.576 164.613  0.00  0.00    +0.007 A 
ENDROOT
BRANCH   1  25
ATOM     20  F1  UNL     1     154.492 161.490 166.497  0.00  0.00    -0.205 F 
ATOM     21  C1  UNL     1     153.467 160.968 165.809  0.00  0.00    +0.124 A 
ATOM     22  C2  UNL     1     152.406 161.786 165.441  0.00  0.00    +0.038 A 
ATOM     23  C3  UNL     1     151.340 161.240 164.731  0.00  0.00    +0.003 A 
ATOM     24  C4  UNL     1     151.345 159.883 164.395  0.00  0.00    +0.005 A 
ATOM     25  C5  UNL     1     152.418 159.049 164.760  0.00  0.00    -0.030 A 
ATOM     26  C6  UNL     1     153.484 159.617 165.479  0.00  0.00    +0.043 A 
ENDBRANCH   1  25
TORSDOF 1
ENDMDL
MODEL 4
REMARK VINA RESULT:    -4.200     10.481     14.483
REMARK INTER + INTRA:          -5.174
REMARK INTER:                  -4.455
REMARK INTRA:                  -0.719
REMARK UNBOUND:                -0.728
REMARK  Name = /home/vital/Documents/PhD_2021/Malaria_codes/data/pdb_ligands_mmv/ligand_249.pdb
REMARK  1 active torsions:
REMARK  status: ('A' for Active; 'I' for Inactive)
REMARK    1  A    between atoms: C5_6  and  C7_8
REMARK                            x       y       z     vdW  Elec       q    Type
REMARK                         _______ _______ _______ _____ _____    ______ ____
ROOT
ATOM      1  C7  UNL     1     152.194 158.743 162.552  0.00  0.00    +0.098 C 
ATOM      2  S1  UNL     1     152.964 157.063 162.661  0.00  0.00    -0.114 S 
ATOM      3  C8  UNL     1     151.607 156.125 163.343  0.00  0.00    +0.034 A 
ATOM      4  C9  UNL     1     151.083 155.074 162.577  0.00  0.00    +0.017 A 
ATOM      5  C10 UNL     1     150.026 154.305 163.061  0.00  0.00    +0.001 A 
ATOM      6  C11 UNL     1     149.495 154.570 164.321  0.00  0.00    +0.002 A 
ATOM      7  C12 UNL     1     150.024 155.604 165.095  0.00  0.00    +0.029 A 
ATOM      8  C13 UNL     1     151.076 156.396 164.619  0.00  0.00    +0.078 A 
ATOM      9  N1  UNL     1     151.572 157.392 165.481  0.00  0.00    -0.250 NA
ATOM     10  C14 UNL     1     151.654 158.611 165.059  0.00  0.00    +0.062 C 
ATOM     11  C15 UNL     1     151.260 159.164 163.698  0.00  0.00    +0.127 C 
ATOM     12  C16 UNL     1     151.399 160.668 163.909  0.00  0.00    +0.174 C 
ATOM     13  O1  UNL     1     151.144 161.554 163.114  0.00  0.00    -0.291 OA
ATOM     14  C17 UNL     1     151.935 160.913 165.246  0.00  0.00    +0.027 A 
ATOM     15  C18 UNL     1     152.261 162.121 165.834  0.00  0.00    +0.012 A 
ATOM     16  C19 UNL     1     152.767 162.090 167.137  0.00  0.00    +0.001 A 
ATOM     17  C20 UNL     1     152.932 160.866 167.816  0.00  0.00    +0.001 A 
ATOM     18  C21 UNL     1     152.595 159.656 167.203  0.00  0.00    +0.010 A 
ATOM     19  C22 UNL     1     152.100 159.708 165.912  0.00  0.00    +0.007 A 
ENDROOT
BRANCH   1  25
ATOM     20  F1  UNL     1     152.436 159.755 157.739  0.00  0.00    -0.205 F 
ATOM     21  C1  UNL     1     151.696 159.424 158.807  0.00  0.00    +0.124 A 
ATOM     22  C2  UNL     1     150.326 159.251 158.660  0.00  0.00    +0.038 A 
ATOM     23  C3  UNL     1     149.560 158.912 159.772  0.00  0.00    +0.003 A 
ATOM     24  C4  UNL     1     150.171 158.748 161.020  0.00  0.00    +0.005 A 
ATOM     25  C5  UNL     1     151.559 158.918 161.175  0.00  0.00    -0.030 A 
ATOM     26  C6  UNL     1     152.316 159.263 160.042  0.00  0.00    +0.043 A 
ENDBRANCH   1  25
TORSDOF 1
ENDMDL
MODEL 5
REMARK VINA RESULT:    -4.190     12.477     15.017
REMARK INTER + INTRA:          -5.163
REMARK INTER:                  -4.528
REMARK INTRA:                  -0.635
REMARK UNBOUND:                -0.728
REMARK  Name = /home/vital/Documents/PhD_2021/Malaria_codes/data/pdb_ligands_mmv/ligand_249.pdb
REMARK  1 active torsions:
REMARK  status: ('A' for Active; 'I' for Inactive)
REMARK    1  A    between atoms: C5_6  and  C7_8
REMARK                            x       y       z     vdW  Elec       q    Type
REMARK                         _______ _______ _______ _____ _____    ______ ____
ROOT
ATOM      1  C7  UNL     1     152.381 158.906 164.237  0.00  0.00    +0.098 C 
ATOM      2  S1  UNL     1     153.450 160.257 164.912  0.00  0.00    -0.114 S 
ATOM      3  C8  UNL     1     152.231 161.531 165.189  0.00  0.00    +0.034 A 
ATOM      4  C9  UNL     1     152.034 161.977 166.503  0.00  0.00    +0.017 A 
ATOM      5  C10 UNL     1     151.097 162.974 166.779  0.00  0.00    +0.001 A 
ATOM      6  C11 UNL     1     150.363 163.541 165.741  0.00  0.00    +0.002 A 
ATOM      7  C12 UNL     1     150.568 163.113 164.428  0.00  0.00    +0.029 A 
ATOM      8  C13 UNL     1     151.493 162.104 164.135  0.00  0.00    +0.078 A 
ATOM      9  N1  UNL     1     151.662 161.760 162.780  0.00  0.00    -0.250 NA
ATOM     10  C14 UNL     1     151.553 160.523 162.423  0.00  0.00    +0.062 C 
ATOM     11  C15 UNL     1     151.239 159.316 163.293  0.00  0.00    +0.127 C 
ATOM     12  C16 UNL     1     151.044 158.214 162.258  0.00  0.00    +0.174 C 
ATOM     13  O1  UNL     1     150.724 157.057 162.459  0.00  0.00    -0.291 OA
ATOM     14  C17 UNL     1     151.340 158.750 160.931  0.00  0.00    +0.027 A 
ATOM     15  C18 UNL     1     151.337 158.090 159.716  0.00  0.00    +0.012 A 
ATOM     16  C19 UNL     1     151.663 158.832 158.578  0.00  0.00    +0.001 A 
ATOM     17  C20 UNL     1     151.980 160.202 158.677  0.00  0.00    +0.001 A 
ATOM     18  C21 UNL     1     151.975 160.850 159.916  0.00  0.00    +0.010 A 
ATOM     19  C22 UNL     1     151.654 160.097 161.030  0.00  0.00    +0.007 A 
ENDROOT
BRANCH   1  25
ATOM     20  F1  UNL     1     152.576 154.774 166.909  0.00  0.00    -0.205 F 
ATOM     21  C1  UNL     1     152.017 155.971 166.686  0.00  0.00    +0.124 A 
ATOM     22  C2  UNL     1     150.983 156.404 167.505  0.00  0.00    +0.038 A 
ATOM     23  C3  UNL     1     150.400 157.647 167.269  0.00  0.00    +0.003 A 
ATOM     24  C4  UNL     1     150.859 158.445 166.216  0.00  0.00    +0.005 A 
ATOM     25  C5  UNL     1     151.910 158.015 165.384  0.00  0.00    -0.030 A 
ATOM     26  C6  UNL     1     152.483 156.757 165.637  0.00  0.00    +0.043 A 
ENDBRANCH   1  25
TORSDOF 1
ENDMDL
MODEL 6
REMARK VINA RESULT:    -3.951      9.842     13.249
REMARK INTER + INTRA:          -4.910
REMARK INTER:                  -4.958
REMARK INTRA:                   0.048
REMARK UNBOUND:                -0.728
REMARK  Name = /home/vital/Documents/PhD_2021/Malaria_codes/data/pdb_ligands_mmv/ligand_249.pdb
REMARK  1 active torsions:
REMARK  status: ('A' for Active; 'I' for Inactive)
REMARK    1  A    between atoms: C5_6  and  C7_8
REMARK                            x       y       z     vdW  Elec       q    Type
REMARK                         _______ _______ _______ _____ _____    ______ ____
ROOT
ATOM      1  C7  UNL     1     151.633 156.462 161.779  0.00  0.00    +0.098 C 
ATOM      2  S1  UNL     1     152.869 157.662 162.454  0.00  0.00    -0.114 S 
ATOM      3  C8  UNL     1     151.829 159.087 162.725  0.00  0.00    +0.034 A 
ATOM      4  C9  UNL     1     151.688 159.559 164.038  0.00  0.00    +0.017 A 
ATOM      5  C10 UNL     1     150.891 160.671 164.308  0.00  0.00    +0.001 A 
ATOM      6  C11 UNL     1     150.241 161.327 163.267  0.00  0.00    +0.002 A 
ATOM      7  C12 UNL     1     150.391 160.872 161.956  0.00  0.00    +0.029 A 
ATOM      8  C13 UNL     1     151.176 159.749 161.668  0.00  0.00    +0.078 A 
ATOM      9  N1  UNL     1     151.302 159.383 160.314  0.00  0.00    -0.250 NA
ATOM     10  C14 UNL     1     151.031 158.170 159.959  0.00  0.00    +0.062 C 
ATOM     11  C15 UNL     1     150.558 157.017 160.831  0.00  0.00    +0.127 C 
ATOM     12  C16 UNL     1     150.223 155.948 159.798  0.00  0.00    +0.174 C 
ATOM     13  O1  UNL     1     149.752 154.844 160.000  0.00  0.00    -0.291 OA
ATOM     14  C17 UNL     1     150.591 156.437 158.471  0.00  0.00    +0.027 A 
ATOM     15  C18 UNL     1     150.504 155.780 157.257  0.00  0.00    +0.012 A 
ATOM     16  C19 UNL     1     150.929 156.470 156.118  0.00  0.00    +0.001 A 
ATOM     17  C20 UNL     1     151.423 157.785 156.215  0.00  0.00    +0.001 A 
ATOM     18  C21 UNL     1     151.500 158.432 157.453  0.00  0.00    +0.010 A 
ATOM     19  C22 UNL     1     151.080 157.730 158.568  0.00  0.00    +0.007 A 
ENDROOT
BRANCH   1  25
ATOM     20  F1  UNL     1     149.688 156.047 166.284  0.00  0.00    -0.205 F 
ATOM     21  C1  UNL     1     150.094 155.458 165.150  0.00  0.00    +0.124 A 
ATOM     22  C2  UNL     1     149.989 154.080 165.022  0.00  0.00    +0.038 A 
ATOM     23  C3  UNL     1     150.415 153.470 163.844  0.00  0.00    +0.003 A 
ATOM     24  C4  UNL     1     150.940 154.246 162.806  0.00  0.00    +0.005 A 
ATOM     25  C5  UNL     1     151.046 155.644 162.927  0.00  0.00    -0.030 A 
ATOM     26  C6  UNL     1     150.613 156.241 164.124  0.00  0.00    +0.043 A 
ENDBRANCH   1  25
TORSDOF 1
ENDMDL
MODEL 7
REMARK VINA RESULT:    -3.914      9.737     13.770
REMARK INTER + INTRA:          -4.871
REMARK INTER:                  -4.687
REMARK INTRA:                  -0.183
REMARK UNBOUND:                -0.728
REMARK  Name = /home/vital/Documents/PhD_2021/Malaria_codes/data/pdb_ligands_mmv/ligand_249.pdb
REMARK  1 active torsions:
REMARK  status: ('A' for Active; 'I' for Inactive)
REMARK    1  A    between atoms: C5_6  and  C7_8
REMARK                            x       y       z     vdW  Elec       q    Type
REMARK                         _______ _______ _______ _____ _____    ______ ____
ROOT
ATOM      1  C7  UNL     1     151.779 156.768 162.886  0.00  0.00    +0.098 C 
ATOM      2  S1  UNL     1     153.264 157.363 163.816  0.00  0.00    -0.114 S 
ATOM      3  C8  UNL     1     152.628 158.879 164.512  0.00  0.00    +0.034 A 
ATOM      4  C9  UNL     1     152.571 158.988 165.909  0.00  0.00    +0.017 A 
ATOM      5  C10 UNL     1     152.087 160.150 166.509  0.00  0.00    +0.001 A 
ATOM      6  C11 UNL     1     151.673 161.218 165.716  0.00  0.00    +0.002 A 
ATOM      7  C12 UNL     1     151.744 161.121 164.326  0.00  0.00    +0.029 A 
ATOM      8  C13 UNL     1     152.213 159.957 163.707  0.00  0.00    +0.078 A 
ATOM      9  N1  UNL     1     152.286 159.961 162.301  0.00  0.00    -0.250 NA
ATOM     10  C14 UNL     1     151.717 159.010 161.635  0.00  0.00    +0.062 C 
ATOM     11  C15 UNL     1     150.924 157.828 162.172  0.00  0.00    +0.127 C 
ATOM     12  C16 UNL     1     150.355 157.216 160.898  0.00  0.00    +0.174 C 
ATOM     13  O1  UNL     1     149.602 156.264 160.806  0.00  0.00    -0.291 OA
ATOM     14  C17 UNL     1     150.887 157.938 159.744  0.00  0.00    +0.027 A 
ATOM     15  C18 UNL     1     150.673 157.691 158.401  0.00  0.00    +0.012 A 
ATOM     16  C19 UNL     1     151.305 158.532 157.481  0.00  0.00    +0.001 A 
ATOM     17  C20 UNL     1     152.126 159.590 157.918  0.00  0.00    +0.001 A 
ATOM     18  C21 UNL     1     152.328 159.823 159.282  0.00  0.00    +0.010 A 
ATOM     19  C22 UNL     1     151.696 158.977 160.176  0.00  0.00    +0.007 A 
ENDROOT
BRANCH   1  25
ATOM     20  F1  UNL     1     149.551 152.489 163.872  0.00  0.00    -0.205 F 
ATOM     21  C1  UNL     1     149.859 153.737 164.251  0.00  0.00    +0.124 A 
ATOM     22  C2  UNL     1     149.411 154.207 165.479  0.00  0.00    +0.038 A 
ATOM     23  C3  UNL     1     149.729 155.505 165.869  0.00  0.00    +0.003 A 
ATOM     24  C4  UNL     1     150.493 156.320 165.028  0.00  0.00    +0.005 A 
ATOM     25  C5  UNL     1     150.955 155.850 163.785  0.00  0.00    -0.030 A 
ATOM     26  C6  UNL     1     150.622 154.538 163.407  0.00  0.00    +0.043 A 
ENDBRANCH   1  25
TORSDOF 1
ENDMDL
MODEL 8
REMARK VINA RESULT:    -3.611      4.457      8.250
REMARK INTER + INTRA:          -4.550
REMARK INTER:                  -4.269
REMARK INTRA:                  -0.280
REMARK UNBOUND:                -0.728
REMARK  Name = /home/vital/Documents/PhD_2021/Malaria_codes/data/pdb_ligands_mmv/ligand_249.pdb
REMARK  1 active torsions:
REMARK  status: ('A' for Active; 'I' for Inactive)
REMARK    1  A    between atoms: C5_6  and  C7_8
REMARK                            x       y       z     vdW  Elec       q    Type
REMARK                         _______ _______ _______ _____ _____    ______ ____
ROOT
ATOM      1  C7  UNL     1     141.353 142.765 165.897  0.00  0.00    +0.098 C 
ATOM      2  S1  UNL     1     141.425 141.896 164.265  0.00  0.00    -0.114 S 
ATOM      3  C8  UNL     1     143.170 142.013 163.909  0.00  0.00    +0.034 A 
ATOM      4  C9  UNL     1     143.898 140.820 163.792  0.00  0.00    +0.017 A 
ATOM      5  C10 UNL     1     145.264 140.850 163.511  0.00  0.00    +0.001 A 
ATOM      6  C11 UNL     1     145.907 142.071 163.329  0.00  0.00    +0.002 A 
ATOM      7  C12 UNL     1     145.184 143.261 163.428  0.00  0.00    +0.029 A 
ATOM      8  C13 UNL     1     143.816 143.250 163.724  0.00  0.00    +0.078 A 
ATOM      9  N1  UNL     1     143.157 144.494 163.766  0.00  0.00    -0.250 NA
ATOM     10  C14 UNL     1     142.466 144.808 164.812  0.00  0.00    +0.062 C 
ATOM     11  C15 UNL     1     142.255 143.995 166.081  0.00  0.00    +0.127 C 
ATOM     12  C16 UNL     1     141.541 144.992 166.987  0.00  0.00    +0.174 C 
ATOM     13  O1  UNL     1     141.198 144.827 168.143  0.00  0.00    -0.291 OA
ATOM     14  C17 UNL     1     141.279 146.217 166.234  0.00  0.00    +0.027 A 
ATOM     15  C18 UNL     1     140.615 147.356 166.649  0.00  0.00    +0.012 A 
ATOM     16  C19 UNL     1     140.491 148.402 165.730  0.00  0.00    +0.001 A 
ATOM     17  C20 UNL     1     141.029 148.288 164.433  0.00  0.00    +0.001 A 
ATOM     18  C21 UNL     1     141.698 147.127 164.034  0.00  0.00    +0.010 A 
ATOM     19  C22 UNL     1     141.806 146.102 164.957  0.00  0.00    +0.007 A 
ENDROOT
BRANCH   1  25
ATOM     20  F1  UNL     1     143.829 139.207 168.234  0.00  0.00    -0.205 F 
ATOM     21  C1  UNL     1     142.743 139.988 168.155  0.00  0.00    +0.124 A 
ATOM     22  C2  UNL     1     141.738 139.855 169.104  0.00  0.00    +0.038 A 
ATOM     23  C3  UNL     1     140.608 140.664 169.017  0.00  0.00    +0.003 A 
ATOM     24  C4  UNL     1     140.494 141.599 167.983  0.00  0.00    +0.005 A 
ATOM     25  C5  UNL     1     141.511 141.742 167.020  0.00  0.00    -0.030 A 
ATOM     26  C6  UNL     1     142.642 140.915 167.123  0.00  0.00    +0.043 A 
ENDBRANCH   1  25
TORSDOF 1
ENDMDL
