MODEL 1
REMARK VINA RESULT:    -5.599      0.000      0.000
REMARK INTER + INTRA:          -8.306
REMARK INTER:                  -6.908
REMARK INTRA:                  -1.398
REMARK UNBOUND:                -1.398
REMARK  Name = /home/vital/Documents/PhD_2021/Malaria_codes/data/pdb_ligands_mmv/ligand_248.pdb
REMARK  7 active torsions:
REMARK  status: ('A' for Active; 'I' for Inactive)
REMARK    1  A    between atoms: C1_1  and  C2_2
REMARK    2  A    between atoms: C2_2  and  C3_3
REMARK    3  A    between atoms: C2_2  and  C4_4
REMARK    4  A    between atoms: C2_2  and  C5_5
REMARK    5  A    between atoms: C8_8  and  C11_11
REMARK    6  A    between atoms: N1_13  and  C12_14
REMARK    7  A    between atoms: N3_21  and  C17_22
REMARK                            x       y       z     vdW  Elec       q    Type
REMARK                         _______ _______ _______ _____ _____    ______ ____
ROOT
ATOM      1  C12 UNL     1     151.261 158.529 160.252  0.00  0.00    +0.133 A 
ATOM      2  C13 UNL     1     151.658 159.763 160.713  0.00  0.00    +0.026 A 
ATOM      3  C14 UNL     1     152.437 160.903 160.204  0.00  0.00    +0.110 C 
ATOM      4  S1  UNL     1     152.265 162.205 161.515  0.00  0.00    -0.150 S 
ATOM      5  C15 UNL     1     151.143 161.223 162.634  0.00  0.00    +0.127 C 
ATOM      6  C16 UNL     1     151.002 159.932 161.933  0.00  0.00    +0.079 A 
ATOM      7  N2  UNL     1     150.271 158.883 162.290  0.00  0.00    -0.168 NA
ATOM      8  N3  UNL     1     150.561 157.940 161.328  0.00  0.00    -0.218 N 
ENDROOT
BRANCH   8   9
ATOM      9  C17 UNL     1     150.308 156.567 161.627  0.00  0.00    +0.069 A 
ATOM     10  C18 UNL     1     149.688 155.759 160.659  0.00  0.00    +0.028 A 
ATOM     11  C19 UNL     1     149.408 154.417 160.931  0.00  0.00    +0.003 A 
ATOM     12  C20 UNL     1     149.731 153.877 162.175  0.00  0.00    +0.020 A 
ATOM     13  C21 UNL     1     150.322 154.684 163.145  0.00  0.00    +0.043 A 
ATOM     14 CL1  UNL     1     150.695 154.025 164.691  0.00  0.00    -0.083 Cl
ATOM     15  C22 UNL     1     150.604 156.027 162.883  0.00  0.00    +0.047 A 
ENDBRANCH   8   9
BRANCH   1  18
ATOM     16  C11 UNL     1     150.590 158.172 157.953  0.00  0.00    +0.249 C 
ATOM     17  O1  UNL     1     149.525 158.773 158.032  0.00  0.00    -0.270 OA
ATOM     18  N1  UNL     1     151.503 158.006 158.987  0.00  0.00    -0.266 N 
ATOM     19  H14 UNL     1     152.472 157.898 158.711  0.00  0.00    +0.157 HD
BRANCH  16  23
ATOM     20  C5  UNL     1     151.827 156.481 154.166  0.00  0.00    -0.042 A 
ATOM     21  C6  UNL     1     151.943 157.865 154.413  0.00  0.00    +0.005 A 
ATOM     22  C7  UNL     1     151.549 158.429 155.632  0.00  0.00    +0.013 A 
ATOM     23  C8  UNL     1     151.020 157.618 156.638  0.00  0.00    +0.037 A 
ATOM     24  C9  UNL     1     150.915 156.243 156.422  0.00  0.00    +0.013 A 
ATOM     25  C10 UNL     1     151.309 155.684 155.201  0.00  0.00    +0.005 A 
BRANCH  20  27
ATOM     26  C1  UNL     1     151.440 154.642 152.486  0.00  0.00    +0.015 C 
ATOM     27  C2  UNL     1     152.274 155.899 152.813  0.00  0.00    -0.013 C 
ATOM     28  C3  UNL     1     153.762 155.480 152.774  0.00  0.00    +0.015 C 
ATOM     29  C4  UNL     1     152.066 156.951 151.703  0.00  0.00    +0.015 C 
ENDBRANCH  20  27
ENDBRANCH  16  23
ENDBRANCH   1  18
TORSDOF 4
ENDMDL
MODEL 2
REMARK VINA RESULT:    -5.437      2.525      4.282
REMARK INTER + INTRA:          -8.106
REMARK INTER:                  -7.109
REMARK INTRA:                  -0.997
REMARK UNBOUND:                -1.398
REMARK  Name = /home/vital/Documents/PhD_2021/Malaria_codes/data/pdb_ligands_mmv/ligand_248.pdb
REMARK  7 active torsions:
REMARK  status: ('A' for Active; 'I' for Inactive)
REMARK    1  A    between atoms: C1_1  and  C2_2
REMARK    2  A    between atoms: C2_2  and  C3_3
REMARK    3  A    between atoms: C2_2  and  C4_4
REMARK    4  A    between atoms: C2_2  and  C5_5
REMARK    5  A    between atoms: C8_8  and  C11_11
REMARK    6  A    between atoms: N1_13  and  C12_14
REMARK    7  A    between atoms: N3_21  and  C17_22
REMARK                            x       y       z     vdW  Elec       q    Type
REMARK                         _______ _______ _______ _____ _____    ______ ____
ROOT
ATOM      1  C12 UNL     1     151.162 156.576 160.587  0.00  0.00    +0.133 A 
ATOM      2  C13 UNL     1     150.514 155.660 161.383  0.00  0.00    +0.026 A 
ATOM      3  C14 UNL     1     149.853 154.358 161.205  0.00  0.00    +0.110 C 
ATOM      4  S1  UNL     1     149.436 153.810 162.928  0.00  0.00    -0.150 S 
ATOM      5  C15 UNL     1     150.190 155.276 163.798  0.00  0.00    +0.127 C 
ATOM      6  C16 UNL     1     150.687 156.114 162.690  0.00  0.00    +0.079 A 
ATOM      7  N2  UNL     1     151.347 157.264 162.767  0.00  0.00    -0.168 NA
ATOM      8  N3  UNL     1     151.500 157.642 161.451  0.00  0.00    -0.218 N 
ENDROOT
BRANCH   8   9
ATOM      9  C17 UNL     1     151.765 159.016 161.167  0.00  0.00    +0.069 A 
ATOM     10  C18 UNL     1     152.403 159.355 159.962  0.00  0.00    +0.028 A 
ATOM     11  C19 UNL     1     152.694 160.689 159.667  0.00  0.00    +0.003 A 
ATOM     12  C20 UNL     1     152.364 161.692 160.577  0.00  0.00    +0.020 A 
ATOM     13  C21 UNL     1     151.755 161.354 161.783  0.00  0.00    +0.043 A 
ATOM     14 CL1  UNL     1     151.372 162.590 162.920  0.00  0.00    -0.083 Cl
ATOM     15  C22 UNL     1     151.461 160.024 162.089  0.00  0.00    +0.047 A 
ENDBRANCH   8   9
BRANCH   1  18
ATOM     16  C11 UNL     1     150.645 157.099 158.280  0.00  0.00    +0.249 C 
ATOM     17  O1  UNL     1     149.690 157.828 158.521  0.00  0.00    -0.270 OA
ATOM     18  N1  UNL     1     151.424 156.448 159.228  0.00  0.00    -0.266 N 
ATOM     19  H14 UNL     1     152.383 156.258 158.960  0.00  0.00    +0.157 HD
BRANCH  16  23
ATOM     20  C5  UNL     1     151.944 156.501 154.196  0.00  0.00    -0.042 A 
ATOM     21  C6  UNL     1     151.873 157.796 154.750  0.00  0.00    +0.005 A 
ATOM     22  C7  UNL     1     151.457 158.008 156.070  0.00  0.00    +0.013 A 
ATOM     23  C8  UNL     1     151.092 156.923 156.870  0.00  0.00    +0.037 A 
ATOM     24  C9  UNL     1     151.174 155.631 156.347  0.00  0.00    +0.013 A 
ATOM     25  C10 UNL     1     151.589 155.424 155.026  0.00  0.00    +0.005 A 
BRANCH  20  27
ATOM     26  C1  UNL     1     151.669 155.111 152.111  0.00  0.00    +0.015 C 
ATOM     27  C2  UNL     1     152.410 156.309 152.741  0.00  0.00    -0.013 C 
ATOM     28  C3  UNL     1     153.924 156.031 152.602  0.00  0.00    +0.015 C 
ATOM     29  C4  UNL     1     152.102 157.584 151.927  0.00  0.00    +0.015 C 
ENDBRANCH  20  27
ENDBRANCH  16  23
ENDBRANCH   1  18
TORSDOF 4
ENDMDL
MODEL 3
REMARK VINA RESULT:    -5.004      3.766      5.539
REMARK INTER + INTRA:          -7.572
REMARK INTER:                  -6.078
REMARK INTRA:                  -1.494
REMARK UNBOUND:                -1.398
REMARK  Name = /home/vital/Documents/PhD_2021/Malaria_codes/data/pdb_ligands_mmv/ligand_248.pdb
REMARK  7 active torsions:
REMARK  status: ('A' for Active; 'I' for Inactive)
REMARK    1  A    between atoms: C1_1  and  C2_2
REMARK    2  A    between atoms: C2_2  and  C3_3
REMARK    3  A    between atoms: C2_2  and  C4_4
REMARK    4  A    between atoms: C2_2  and  C5_5
REMARK    5  A    between atoms: C8_8  and  C11_11
REMARK    6  A    between atoms: N1_13  and  C12_14
REMARK    7  A    between atoms: N3_21  and  C17_22
REMARK                            x       y       z     vdW  Elec       q    Type
REMARK                         _______ _______ _______ _____ _____    ______ ____
ROOT
ATOM      1  C12 UNL     1     151.783 158.146 165.661  0.00  0.00    +0.133 A 
ATOM      2  C13 UNL     1     152.395 159.167 166.351  0.00  0.00    +0.026 A 
ATOM      3  C14 UNL     1     153.037 160.450 166.028  0.00  0.00    +0.110 C 
ATOM      4  S1  UNL     1     153.402 161.215 167.678  0.00  0.00    -0.150 S 
ATOM      5  C15 UNL     1     152.652 159.853 168.707  0.00  0.00    +0.127 C 
ATOM      6  C16 UNL     1     152.197 158.874 167.700  0.00  0.00    +0.079 A 
ATOM      7  N2  UNL     1     151.556 157.729 167.904  0.00  0.00    -0.168 NA
ATOM      8  N3  UNL     1     151.442 157.188 166.643  0.00  0.00    -0.218 N 
ENDROOT
BRANCH   8   9
ATOM      9  C17 UNL     1     151.209 155.785 166.525  0.00  0.00    +0.069 A 
ATOM     10  C18 UNL     1     150.119 155.334 165.761  0.00  0.00    +0.028 A 
ATOM     11  C19 UNL     1     149.854 153.967 165.646  0.00  0.00    +0.003 A 
ATOM     12  C20 UNL     1     150.663 153.042 166.304  0.00  0.00    +0.020 A 
ATOM     13  C21 UNL     1     151.729 153.490 167.082  0.00  0.00    +0.043 A 
ATOM     14 CL1  UNL     1     152.712 152.349 167.917  0.00  0.00    -0.083 Cl
ATOM     15  C22 UNL     1     152.002 154.853 167.205  0.00  0.00    +0.047 A 
ENDBRANCH   8   9
BRANCH   1  18
ATOM     16  C11 UNL     1     152.472 157.523 163.425  0.00  0.00    +0.249 C 
ATOM     17  O1  UNL     1     153.535 157.009 163.754  0.00  0.00    -0.270 OA
ATOM     18  N1  UNL     1     151.552 158.100 164.291  0.00  0.00    -0.266 N 
ATOM     19  H14 UNL     1     150.585 158.083 163.987  0.00  0.00    +0.157 HD
BRANCH  16  23
ATOM     20  C5  UNL     1     151.269 157.497 159.269  0.00  0.00    -0.042 A 
ATOM     21  C6  UNL     1     151.141 156.341 160.065  0.00  0.00    +0.005 A 
ATOM     22  C7  UNL     1     151.523 156.331 161.412  0.00  0.00    +0.013 A 
ATOM     23  C8  UNL     1     152.054 157.484 161.996  0.00  0.00    +0.037 A 
ATOM     24  C9  UNL     1     152.171 158.645 161.230  0.00  0.00    +0.013 A 
ATOM     25  C10 UNL     1     151.788 158.649 159.883  0.00  0.00    +0.005 A 
BRANCH  20  27
ATOM     26  C1  UNL     1     150.388 156.041 157.409  0.00  0.00    +0.015 C 
ATOM     27  C2  UNL     1     150.834 157.468 157.792  0.00  0.00    -0.013 C 
ATOM     28  C3  UNL     1     151.949 157.877 156.804  0.00  0.00    +0.015 C 
ATOM     29  C4  UNL     1     149.655 158.443 157.581  0.00  0.00    +0.015 C 
ENDBRANCH  20  27
ENDBRANCH  16  23
ENDBRANCH   1  18
TORSDOF 4
ENDMDL
MODEL 4
REMARK VINA RESULT:    -4.879      4.016      6.398
REMARK INTER + INTRA:          -7.418
REMARK INTER:                  -5.932
REMARK INTRA:                  -1.485
REMARK UNBOUND:                -1.398
REMARK  Name = /home/vital/Documents/PhD_2021/Malaria_codes/data/pdb_ligands_mmv/ligand_248.pdb
REMARK  7 active torsions:
REMARK  status: ('A' for Active; 'I' for Inactive)
REMARK    1  A    between atoms: C1_1  and  C2_2
REMARK    2  A    between atoms: C2_2  and  C3_3
REMARK    3  A    between atoms: C2_2  and  C4_4
REMARK    4  A    between atoms: C2_2  and  C5_5
REMARK    5  A    between atoms: C8_8  and  C11_11
REMARK    6  A    between atoms: N1_13  and  C12_14
REMARK    7  A    between atoms: N3_21  and  C17_22
REMARK                            x       y       z     vdW  Elec       q    Type
REMARK                         _______ _______ _______ _____ _____    ______ ____
ROOT
ATOM      1  C12 UNL     1     151.454 156.914 164.996  0.00  0.00    +0.133 A 
ATOM      2  C13 UNL     1     151.191 155.761 165.698  0.00  0.00    +0.026 A 
ATOM      3  C14 UNL     1     150.614 154.437 165.417  0.00  0.00    +0.110 C 
ATOM      4  S1  UNL     1     150.856 153.481 166.988  0.00  0.00    -0.150 S 
ATOM      5  C15 UNL     1     151.745 154.832 167.916  0.00  0.00    +0.127 C 
ATOM      6  C16 UNL     1     151.766 155.952 166.955  0.00  0.00    +0.079 A 
ATOM      7  N2  UNL     1     152.320 157.149 167.106  0.00  0.00    -0.168 NA
ATOM      8  N3  UNL     1     151.983 157.814 165.947  0.00  0.00    -0.218 N 
ENDROOT
BRANCH   8   9
ATOM      9  C17 UNL     1     152.025 159.241 165.948  0.00  0.00    +0.069 A 
ATOM     10  C18 UNL     1     153.077 159.895 165.284  0.00  0.00    +0.028 A 
ATOM     11  C19 UNL     1     153.156 161.290 165.286  0.00  0.00    +0.003 A 
ATOM     12  C20 UNL     1     152.197 162.041 165.963  0.00  0.00    +0.020 A 
ATOM     13  C21 UNL     1     151.168 161.393 166.643  0.00  0.00    +0.043 A 
ATOM     14 CL1  UNL     1     149.998 162.320 167.502  0.00  0.00    -0.083 Cl
ATOM     15  C22 UNL     1     151.080 160.000 166.649  0.00  0.00    +0.047 A 
ENDBRANCH   8   9
BRANCH   1  18
ATOM     16  C11 UNL     1     152.302 157.118 162.737  0.00  0.00    +0.249 C 
ATOM     17  O1  UNL     1     153.481 156.942 163.023  0.00  0.00    -0.270 OA
ATOM     18  N1  UNL     1     151.244 157.117 163.636  0.00  0.00    -0.266 N 
ATOM     19  H14 UNL     1     150.344 156.838 163.263  0.00  0.00    +0.157 HD
BRANCH  16  23
ATOM     20  C5  UNL     1     151.160 157.488 158.580  0.00  0.00    -0.042 A 
ATOM     21  C6  UNL     1     151.691 158.588 159.284  0.00  0.00    +0.005 A 
ATOM     22  C7  UNL     1     152.067 158.487 160.629  0.00  0.00    +0.013 A 
ATOM     23  C8  UNL     1     151.914 157.275 161.307  0.00  0.00    +0.037 A 
ATOM     24  C9  UNL     1     151.408 156.169 160.623  0.00  0.00    +0.013 A 
ATOM     25  C10 UNL     1     151.032 156.276 159.279  0.00  0.00    +0.005 A 
BRANCH  20  27
ATOM     26  C1  UNL     1     150.052 156.357 156.618  0.00  0.00    +0.015 C 
ATOM     27  C2  UNL     1     150.761 157.640 157.100  0.00  0.00    -0.013 C 
ATOM     28  C3  UNL     1     151.958 157.882 156.152  0.00  0.00    +0.015 C 
ATOM     29  C4  UNL     1     149.803 158.840 156.943  0.00  0.00    +0.015 C 
ENDBRANCH  20  27
ENDBRANCH  16  23
ENDBRANCH   1  18
TORSDOF 4
ENDMDL
MODEL 5
REMARK VINA RESULT:    -4.838      2.842      7.894
REMARK INTER + INTRA:          -7.367
REMARK INTER:                  -5.881
REMARK INTRA:                  -1.486
REMARK UNBOUND:                -1.398
REMARK  Name = /home/vital/Documents/PhD_2021/Malaria_codes/data/pdb_ligands_mmv/ligand_248.pdb
REMARK  7 active torsions:
REMARK  status: ('A' for Active; 'I' for Inactive)
REMARK    1  A    between atoms: C1_1  and  C2_2
REMARK    2  A    between atoms: C2_2  and  C3_3
REMARK    3  A    between atoms: C2_2  and  C4_4
REMARK    4  A    between atoms: C2_2  and  C5_5
REMARK    5  A    between atoms: C8_8  and  C11_11
REMARK    6  A    between atoms: N1_13  and  C12_14
REMARK    7  A    between atoms: N3_21  and  C17_22
REMARK                            x       y       z     vdW  Elec       q    Type
REMARK                         _______ _______ _______ _____ _____    ______ ____
ROOT
ATOM      1  C12 UNL     1     150.698 156.888 160.066  0.00  0.00    +0.133 A 
ATOM      2  C13 UNL     1     151.001 157.079 158.737  0.00  0.00    +0.026 A 
ATOM      3  C14 UNL     1     151.180 158.222 157.829  0.00  0.00    +0.110 C 
ATOM      4  S1  UNL     1     151.767 157.465 156.240  0.00  0.00    -0.150 S 
ATOM      5  C15 UNL     1     151.804 155.705 156.852  0.00  0.00    +0.127 C 
ATOM      6  C16 UNL     1     151.324 155.815 158.244  0.00  0.00    +0.079 A 
ATOM      7  N2  UNL     1     151.196 154.848 159.144  0.00  0.00    -0.168 NA
ATOM      8  N3  UNL     1     150.646 155.486 160.234  0.00  0.00    -0.218 N 
ENDROOT
BRANCH   8   9
ATOM      9  C17 UNL     1     149.971 154.695 161.213  0.00  0.00    +0.069 A 
ATOM     10  C18 UNL     1     148.711 154.155 160.906  0.00  0.00    +0.028 A 
ATOM     11  C19 UNL     1     148.018 153.396 161.852  0.00  0.00    +0.003 A 
ATOM     12  C20 UNL     1     148.570 153.183 163.114  0.00  0.00    +0.020 A 
ATOM     13  C21 UNL     1     149.808 153.740 163.428  0.00  0.00    +0.043 A 
ATOM     14 CL1  UNL     1     150.477 153.500 164.997  0.00  0.00    -0.083 Cl
ATOM     15  C22 UNL     1     150.508 154.502 162.491  0.00  0.00    +0.047 A 
ENDBRANCH   8   9
BRANCH   1  18
ATOM     16  C11 UNL     1     151.498 158.216 161.925  0.00  0.00    +0.249 C 
ATOM     17  O1  UNL     1     152.610 157.705 161.982  0.00  0.00    -0.270 OA
ATOM     18  N1  UNL     1     150.501 157.881 161.018  0.00  0.00    -0.266 N 
ATOM     19  H14 UNL     1     149.847 158.619 160.784  0.00  0.00    +0.157 HD
BRANCH  16  23
ATOM     20  C5  UNL     1     150.557 161.452 164.640  0.00  0.00    -0.042 A 
ATOM     21  C6  UNL     1     150.263 161.554 163.264  0.00  0.00    +0.005 A 
ATOM     22  C7  UNL     1     150.559 160.516 162.371  0.00  0.00    +0.013 A 
ATOM     23  C8  UNL     1     151.167 159.348 162.835  0.00  0.00    +0.037 A 
ATOM     24  C9  UNL     1     151.449 159.219 164.197  0.00  0.00    +0.013 A 
ATOM     25  C10 UNL     1     151.152 160.259 165.085  0.00  0.00    +0.005 A 
BRANCH  20  27
ATOM     26  C1  UNL     1     151.436 163.542 165.741  0.00  0.00    +0.015 C 
ATOM     27  C2  UNL     1     150.213 162.613 165.590  0.00  0.00    -0.013 C 
ATOM     28  C3  UNL     1     149.808 162.160 167.011  0.00  0.00    +0.015 C 
ATOM     29  C4  UNL     1     149.030 163.420 165.013  0.00  0.00    +0.015 C 
ENDBRANCH  20  27
ENDBRANCH  16  23
ENDBRANCH   1  18
TORSDOF 4
ENDMDL
MODEL 6
REMARK VINA RESULT:    -4.626      3.166      8.310
REMARK INTER + INTRA:          -7.106
REMARK INTER:                  -5.678
REMARK INTRA:                  -1.428
REMARK UNBOUND:                -1.398
REMARK  Name = /home/vital/Documents/PhD_2021/Malaria_codes/data/pdb_ligands_mmv/ligand_248.pdb
REMARK  7 active torsions:
REMARK  status: ('A' for Active; 'I' for Inactive)
REMARK    1  A    between atoms: C1_1  and  C2_2
REMARK    2  A    between atoms: C2_2  and  C3_3
REMARK    3  A    between atoms: C2_2  and  C4_4
REMARK    4  A    between atoms: C2_2  and  C5_5
REMARK    5  A    between atoms: C8_8  and  C11_11
REMARK    6  A    between atoms: N1_13  and  C12_14
REMARK    7  A    between atoms: N3_21  and  C17_22
REMARK                            x       y       z     vdW  Elec       q    Type
REMARK                         _______ _______ _______ _____ _____    ______ ____
ROOT
ATOM      1  C12 UNL     1     151.551 157.508 160.756  0.00  0.00    +0.133 A 
ATOM      2  C13 UNL     1     151.542 158.031 159.483  0.00  0.00    +0.026 A 
ATOM      3  C14 UNL     1     151.872 159.314 158.844  0.00  0.00    +0.110 C 
ATOM      4  S1  UNL     1     151.709 158.983 157.025  0.00  0.00    -0.150 S 
ATOM      5  C15 UNL     1     151.273 157.177 157.183  0.00  0.00    +0.127 C 
ATOM      6  C16 UNL     1     151.249 156.956 158.643  0.00  0.00    +0.079 A 
ATOM      7  N2  UNL     1     151.025 155.821 159.294  0.00  0.00    -0.168 NA
ATOM      8  N3  UNL     1     151.047 156.195 160.620  0.00  0.00    -0.218 N 
ENDROOT
BRANCH   8   9
ATOM      9  C17 UNL     1     150.417 155.342 161.576  0.00  0.00    +0.069 A 
ATOM     10  C18 UNL     1     149.234 154.673 161.220  0.00  0.00    +0.028 A 
ATOM     11  C19 UNL     1     148.584 153.848 162.142  0.00  0.00    +0.003 A 
ATOM     12  C20 UNL     1     149.101 153.698 163.428  0.00  0.00    +0.020 A 
ATOM     13  C21 UNL     1     150.260 154.382 163.789  0.00  0.00    +0.043 A 
ATOM     14 CL1  UNL     1     150.883 154.218 165.387  0.00  0.00    -0.083 Cl
ATOM     15  C22 UNL     1     150.916 155.209 162.877  0.00  0.00    +0.047 A 
ENDBRANCH   8   9
BRANCH   1  18
ATOM     16  C11 UNL     1     151.146 159.024 162.600  0.00  0.00    +0.249 C 
ATOM     17  O1  UNL     1     149.992 159.300 162.292  0.00  0.00    -0.270 OA
ATOM     18  N1  UNL     1     151.981 158.155 161.909  0.00  0.00    -0.266 N 
ATOM     19  H14 UNL     1     152.691 157.689 162.460  0.00  0.00    +0.157 HD
BRANCH  16  23
ATOM     20  C5  UNL     1     152.798 160.577 166.286  0.00  0.00    -0.042 A 
ATOM     21  C6  UNL     1     152.629 161.411 165.161  0.00  0.00    +0.005 A 
ATOM     22  C7  UNL     1     152.095 160.926 163.961  0.00  0.00    +0.013 A 
ATOM     23  C8  UNL     1     151.721 159.585 163.855  0.00  0.00    +0.037 A 
ATOM     24  C9  UNL     1     151.862 158.747 164.962  0.00  0.00    +0.013 A 
ATOM     25  C10 UNL     1     152.398 159.236 166.159  0.00  0.00    +0.005 A 
BRANCH  20  27
ATOM     26  C1  UNL     1     152.713 162.500 167.914  0.00  0.00    +0.015 C 
ATOM     27  C2  UNL     1     153.386 161.149 167.588  0.00  0.00    -0.013 C 
ATOM     28  C3  UNL     1     154.909 161.403 167.528  0.00  0.00    +0.015 C 
ATOM     29  C4  UNL     1     153.133 160.162 168.748  0.00  0.00    +0.015 C 
ENDBRANCH  20  27
ENDBRANCH  16  23
ENDBRANCH   1  18
TORSDOF 4
ENDMDL
MODEL 7
REMARK VINA RESULT:    -4.550      3.658      8.771
REMARK INTER + INTRA:          -7.012
REMARK INTER:                  -5.659
REMARK INTRA:                  -1.353
REMARK UNBOUND:                -1.398
REMARK  Name = /home/vital/Documents/PhD_2021/Malaria_codes/data/pdb_ligands_mmv/ligand_248.pdb
REMARK  7 active torsions:
REMARK  status: ('A' for Active; 'I' for Inactive)
REMARK    1  A    between atoms: C1_1  and  C2_2
REMARK    2  A    between atoms: C2_2  and  C3_3
REMARK    3  A    between atoms: C2_2  and  C4_4
REMARK    4  A    between atoms: C2_2  and  C5_5
REMARK    5  A    between atoms: C8_8  and  C11_11
REMARK    6  A    between atoms: N1_13  and  C12_14
REMARK    7  A    between atoms: N3_21  and  C17_22
REMARK                            x       y       z     vdW  Elec       q    Type
REMARK                         _______ _______ _______ _____ _____    ______ ____
ROOT
ATOM      1  C12 UNL     1     151.128 157.500 161.444  0.00  0.00    +0.133 A 
ATOM      2  C13 UNL     1     151.309 158.153 160.247  0.00  0.00    +0.026 A 
ATOM      3  C14 UNL     1     151.657 159.512 159.804  0.00  0.00    +0.110 C 
ATOM      4  S1  UNL     1     151.843 159.367 157.964  0.00  0.00    -0.150 S 
ATOM      5  C15 UNL     1     151.513 157.535 157.867  0.00  0.00    +0.127 C 
ATOM      6  C16 UNL     1     151.245 157.160 159.269  0.00  0.00    +0.079 A 
ATOM      7  N2  UNL     1     150.989 155.952 159.758  0.00  0.00    -0.168 NA
ATOM      8  N3  UNL     1     150.749 156.184 161.095  0.00  0.00    -0.218 N 
ENDROOT
BRANCH   8   9
ATOM      9  C17 UNL     1     150.020 155.203 161.833  0.00  0.00    +0.069 A 
ATOM     10  C18 UNL     1     148.995 154.488 161.193  0.00  0.00    +0.028 A 
ATOM     11  C19 UNL     1     148.251 153.537 161.896  0.00  0.00    +0.003 A 
ATOM     12  C20 UNL     1     148.514 153.305 163.245  0.00  0.00    +0.020 A 
ATOM     13  C21 UNL     1     149.513 154.033 163.887  0.00  0.00    +0.043 A 
ATOM     14 CL1  UNL     1     149.820 153.767 165.561  0.00  0.00    -0.083 Cl
ATOM     15  C22 UNL     1     150.262 154.986 163.194  0.00  0.00    +0.047 A 
ENDBRANCH   8   9
BRANCH   1  18
ATOM     16  C11 UNL     1     152.534 158.012 163.347  0.00  0.00    +0.249 C 
ATOM     17  O1  UNL     1     153.563 157.533 162.883  0.00  0.00    -0.270 OA
ATOM     18  N1  UNL     1     151.299 158.042 162.713  0.00  0.00    -0.266 N 
ATOM     19  H14 UNL     1     150.684 158.804 162.975  0.00  0.00    +0.157 HD
BRANCH  16  23
ATOM     20  C5  UNL     1     152.713 160.064 167.153  0.00  0.00    -0.042 A 
ATOM     21  C6  UNL     1     152.206 158.751 167.062  0.00  0.00    +0.005 A 
ATOM     22  C7  UNL     1     152.142 158.071 165.840  0.00  0.00    +0.013 A 
ATOM     23  C8  UNL     1     152.580 158.695 164.670  0.00  0.00    +0.037 A 
ATOM     24  C9  UNL     1     153.103 159.988 164.740  0.00  0.00    +0.013 A 
ATOM     25  C10 UNL     1     153.164 160.664 165.965  0.00  0.00    +0.005 A 
BRANCH  20  27
ATOM     26  C1  UNL     1     154.000 160.288 169.308  0.00  0.00    +0.015 C 
ATOM     27  C2  UNL     1     152.769 160.776 168.516  0.00  0.00    -0.013 C 
ATOM     28  C3  UNL     1     151.529 160.526 169.404  0.00  0.00    +0.015 C 
ATOM     29  C4  UNL     1     152.876 162.301 168.300  0.00  0.00    +0.015 C 
ENDBRANCH  20  27
ENDBRANCH  16  23
ENDBRANCH   1  18
TORSDOF 4
ENDMDL
MODEL 8
REMARK VINA RESULT:    -4.143      3.198      8.197
REMARK INTER + INTRA:          -6.510
REMARK INTER:                  -5.037
REMARK INTRA:                  -1.473
REMARK UNBOUND:                -1.398
REMARK  Name = /home/vital/Documents/PhD_2021/Malaria_codes/data/pdb_ligands_mmv/ligand_248.pdb
REMARK  7 active torsions:
REMARK  status: ('A' for Active; 'I' for Inactive)
REMARK    1  A    between atoms: C1_1  and  C2_2
REMARK    2  A    between atoms: C2_2  and  C3_3
REMARK    3  A    between atoms: C2_2  and  C4_4
REMARK    4  A    between atoms: C2_2  and  C5_5
REMARK    5  A    between atoms: C8_8  and  C11_11
REMARK    6  A    between atoms: N1_13  and  C12_14
REMARK    7  A    between atoms: N3_21  and  C17_22
REMARK                            x       y       z     vdW  Elec       q    Type
REMARK                         _______ _______ _______ _____ _____    ______ ____
ROOT
ATOM      1  C12 UNL     1     150.506 156.669 160.872  0.00  0.00    +0.133 A 
ATOM      2  C13 UNL     1     150.606 156.894 159.518  0.00  0.00    +0.026 A 
ATOM      3  C14 UNL     1     150.771 158.055 158.630  0.00  0.00    +0.110 C 
ATOM      4  S1  UNL     1     150.990 157.320 156.941  0.00  0.00    -0.150 S 
ATOM      5  C15 UNL     1     150.910 155.537 157.480  0.00  0.00    +0.127 C 
ATOM      6  C16 UNL     1     150.685 155.629 158.936  0.00  0.00    +0.079 A 
ATOM      7  N2  UNL     1     150.590 154.637 159.814  0.00  0.00    -0.168 NA
ATOM      8  N3  UNL     1     150.311 155.276 161.002  0.00  0.00    -0.218 N 
ENDROOT
BRANCH   8   9
ATOM      9  C17 UNL     1     149.715 154.519 162.055  0.00  0.00    +0.069 A 
ATOM     10  C18 UNL     1     148.462 153.919 161.843  0.00  0.00    +0.028 A 
ATOM     11  C19 UNL     1     147.845 153.190 162.863  0.00  0.00    +0.003 A 
ATOM     12  C20 UNL     1     148.467 153.067 164.105  0.00  0.00    +0.020 A 
ATOM     13  C21 UNL     1     149.697 153.683 164.324  0.00  0.00    +0.043 A 
ATOM     14 CL1  UNL     1     150.452 153.554 165.867  0.00  0.00    -0.083 Cl
ATOM     15  C22 UNL     1     150.321 154.415 163.312  0.00  0.00    +0.047 A 
ENDBRANCH   8   9
BRANCH   1  18
ATOM     16  C11 UNL     1     151.802 157.909 162.498  0.00  0.00    +0.249 C 
ATOM     17  O1  UNL     1     152.876 157.377 162.244  0.00  0.00    -0.270 OA
ATOM     18  N1  UNL     1     150.593 157.628 161.875  0.00  0.00    -0.266 N 
ATOM     19  H14 UNL     1     149.920 158.385 161.848  0.00  0.00    +0.157 HD
BRANCH  16  23
ATOM     20  C5  UNL     1     151.653 161.043 165.478  0.00  0.00    -0.042 A 
ATOM     21  C6  UNL     1     151.559 161.347 164.105  0.00  0.00    +0.005 A 
ATOM     22  C7  UNL     1     151.604 160.346 163.126  0.00  0.00    +0.013 A 
ATOM     23  C8  UNL     1     151.752 159.009 163.502  0.00  0.00    +0.037 A 
ATOM     24  C9  UNL     1     151.827 158.685 164.858  0.00  0.00    +0.013 A 
ATOM     25  C10 UNL     1     151.784 159.690 165.832  0.00  0.00    +0.005 A 
BRANCH  20  27
ATOM     26  C1  UNL     1     152.840 162.100 167.435  0.00  0.00    +0.015 C 
ATOM     27  C2  UNL     1     151.597 162.173 166.523  0.00  0.00    -0.013 C 
ATOM     28  C3  UNL     1     150.355 162.113 167.442  0.00  0.00    +0.015 C 
ATOM     29  C4  UNL     1     151.570 163.540 165.807  0.00  0.00    +0.015 C 
ENDBRANCH  20  27
ENDBRANCH  16  23
ENDBRANCH   1  18
TORSDOF 4
ENDMDL
