MODEL 1
REMARK VINA RESULT:    -6.538      0.000      0.000
REMARK INTER + INTRA:          -7.813
REMARK INTER:                  -7.302
REMARK INTRA:                  -0.511
REMARK UNBOUND:                -0.511
REMARK  Name = /home/vital/Documents/PhD_2021/Malaria_codes/data/pdb_ligands_mmv/ligand_153.pdb
REMARK  5 active torsions:
REMARK  status: ('A' for Active; 'I' for Inactive)
REMARK    1  A    between atoms: C1_1  and  C2_2
REMARK    2  A    between atoms: C2_2  and  C3_3
REMARK    3  A    between atoms: C2_2  and  C4_4
REMARK    4  A    between atoms: C2_2  and  C5_5
REMARK    5  A    between atoms: C8_8  and  C11_11
REMARK                            x       y       z     vdW  Elec       q    Type
REMARK                         _______ _______ _______ _____ _____    ______ ____
ROOT
ATOM      1  C11 UNL     1     153.392 155.545 152.157  0.00  0.00    +0.250 C 
ATOM      2  O1  UNL     1     152.679 155.557 151.161  0.00  0.00    -0.270 OA
ATOM      3  N1  UNL     1     154.649 155.000 152.278  0.00  0.00    -0.261 N 
ATOM      4  C12 UNL     1     155.307 154.428 151.223  0.00  0.00    +0.166 A 
ATOM      5  N2  UNL     1     154.955 154.341 149.970  0.00  0.00    -0.225 NA
ATOM      6  C13 UNL     1     155.939 153.679 149.258  0.00  0.00    +0.080 A 
ATOM      7  C14 UNL     1     155.911 153.392 147.879  0.00  0.00    +0.029 A 
ATOM      8  C15 UNL     1     156.982 152.713 147.288  0.00  0.00    +0.002 A 
ATOM      9  C16 UNL     1     158.074 152.317 148.053  0.00  0.00    +0.001 A 
ATOM     10  C17 UNL     1     158.127 152.590 149.423  0.00  0.00    +0.017 A 
ATOM     11  C18 UNL     1     157.047 153.272 150.006  0.00  0.00    +0.041 A 
ATOM     12  S1  UNL     1     156.815 153.751 151.646  0.00  0.00    -0.052 S 
ATOM     13  H14 UNL     1     155.105 154.936 153.173  0.00  0.00    +0.157 HD
ENDROOT
BRANCH   1  17
ATOM     14  C5  UNL     1     151.846 157.351 155.774  0.00  0.00    -0.042 A 
ATOM     15  C6  UNL     1     151.917 155.953 155.644  0.00  0.00    +0.005 A 
ATOM     16  C7  UNL     1     152.418 155.351 154.482  0.00  0.00    +0.013 A 
ATOM     17  C8  UNL     1     152.855 156.140 153.414  0.00  0.00    +0.037 A 
ATOM     18  C9  UNL     1     152.813 157.531 153.530  0.00  0.00    +0.013 A 
ATOM     19  C10 UNL     1     152.310 158.124 154.692  0.00  0.00    +0.005 A 
BRANCH  14  21
ATOM     20  C1  UNL     1     151.279 157.039 158.210  0.00  0.00    +0.015 C 
ATOM     21  C2  UNL     1     151.302 158.042 157.038  0.00  0.00    -0.013 C 
ATOM     22  C3  UNL     1     152.139 159.258 157.494  0.00  0.00    +0.015 C 
ATOM     23  C4  UNL     1     149.868 158.548 156.773  0.00  0.00    +0.015 C 
ENDBRANCH  14  21
ENDBRANCH   1  17
TORSDOF 2
ENDMDL
MODEL 2
REMARK VINA RESULT:    -6.517      2.091      8.874
REMARK INTER + INTRA:          -7.791
REMARK INTER:                  -7.278
REMARK INTRA:                  -0.512
REMARK UNBOUND:                -0.511
REMARK  Name = /home/vital/Documents/PhD_2021/Malaria_codes/data/pdb_ligands_mmv/ligand_153.pdb
REMARK  5 active torsions:
REMARK  status: ('A' for Active; 'I' for Inactive)
REMARK    1  A    between atoms: C1_1  and  C2_2
REMARK    2  A    between atoms: C2_2  and  C3_3
REMARK    3  A    between atoms: C2_2  and  C4_4
REMARK    4  A    between atoms: C2_2  and  C5_5
REMARK    5  A    between atoms: C8_8  and  C11_11
REMARK                            x       y       z     vdW  Elec       q    Type
REMARK                         _______ _______ _______ _____ _____    ______ ____
ROOT
ATOM      1  C11 UNL     1     153.846 156.277 152.451  0.00  0.00    +0.250 C 
ATOM      2  O1  UNL     1     153.835 157.471 152.176  0.00  0.00    -0.270 OA
ATOM      3  N1  UNL     1     153.321 155.672 153.569  0.00  0.00    -0.261 N 
ATOM      4  C12 UNL     1     152.636 156.367 154.528  0.00  0.00    +0.166 A 
ATOM      5  N2  UNL     1     152.298 157.627 154.562  0.00  0.00    -0.225 NA
ATOM      6  C13 UNL     1     151.606 157.888 155.731  0.00  0.00    +0.080 A 
ATOM      7  C14 UNL     1     151.085 159.138 156.122  0.00  0.00    +0.029 A 
ATOM      8  C15 UNL     1     150.403 159.257 157.337  0.00  0.00    +0.002 A 
ATOM      9  C16 UNL     1     150.235 158.151 158.164  0.00  0.00    +0.001 A 
ATOM     10  C17 UNL     1     150.742 156.900 157.799  0.00  0.00    +0.017 A 
ATOM     11  C18 UNL     1     151.426 156.791 156.577  0.00  0.00    +0.041 A 
ATOM     12  S1  UNL     1     152.157 155.407 155.854  0.00  0.00    -0.052 S 
ATOM     13  H14 UNL     1     153.487 154.698 153.760  0.00  0.00    +0.157 HD
ENDROOT
BRANCH   1  17
ATOM     14  C5  UNL     1     155.915 153.567 149.785  0.00  0.00    -0.042 A 
ATOM     15  C6  UNL     1     154.666 154.106 149.432  0.00  0.00    +0.005 A 
ATOM     16  C7  UNL     1     153.984 154.988 150.281  0.00  0.00    +0.013 A 
ATOM     17  C8  UNL     1     154.537 155.346 151.513  0.00  0.00    +0.037 A 
ATOM     18  C9  UNL     1     155.786 154.840 151.875  0.00  0.00    +0.013 A 
ATOM     19  C10 UNL     1     156.460 153.958 151.023  0.00  0.00    +0.005 A 
BRANCH  14  21
ATOM     20  C1  UNL     1     156.622 153.089 147.413  0.00  0.00    +0.015 C 
ATOM     21  C2  UNL     1     156.690 152.597 148.874  0.00  0.00    -0.013 C 
ATOM     22  C3  UNL     1     158.184 152.456 149.239  0.00  0.00    +0.015 C 
ATOM     23  C4  UNL     1     156.062 151.189 148.966  0.00  0.00    +0.015 C 
ENDBRANCH  14  21
ENDBRANCH   1  17
TORSDOF 2
ENDMDL
MODEL 3
REMARK VINA RESULT:    -5.553      5.042      7.949
REMARK INTER + INTRA:          -6.714
REMARK INTER:                  -6.195
REMARK INTRA:                  -0.519
REMARK UNBOUND:                -0.511
REMARK  Name = /home/vital/Documents/PhD_2021/Malaria_codes/data/pdb_ligands_mmv/ligand_153.pdb
REMARK  5 active torsions:
REMARK  status: ('A' for Active; 'I' for Inactive)
REMARK    1  A    between atoms: C1_1  and  C2_2
REMARK    2  A    between atoms: C2_2  and  C3_3
REMARK    3  A    between atoms: C2_2  and  C4_4
REMARK    4  A    between atoms: C2_2  and  C5_5
REMARK    5  A    between atoms: C8_8  and  C11_11
REMARK                            x       y       z     vdW  Elec       q    Type
REMARK                         _______ _______ _______ _____ _____    ______ ____
ROOT
ATOM      1  C11 UNL     1     151.717 160.062 158.334  0.00  0.00    +0.250 C 
ATOM      2  O1  UNL     1     151.871 160.915 157.469  0.00  0.00    -0.270 OA
ATOM      3  N1  UNL     1     151.679 158.696 158.164  0.00  0.00    -0.261 N 
ATOM      4  C12 UNL     1     151.879 158.102 156.948  0.00  0.00    +0.166 A 
ATOM      5  N2  UNL     1     152.190 158.637 155.800  0.00  0.00    -0.225 NA
ATOM      6  C13 UNL     1     152.295 157.645 154.841  0.00  0.00    +0.080 A 
ATOM      7  C14 UNL     1     152.612 157.839 153.481  0.00  0.00    +0.029 A 
ATOM      8  C15 UNL     1     152.685 156.739 152.621  0.00  0.00    +0.002 A 
ATOM      9  C16 UNL     1     152.446 155.454 153.097  0.00  0.00    +0.001 A 
ATOM     10  C17 UNL     1     152.131 155.234 154.441  0.00  0.00    +0.017 A 
ATOM     11  C18 UNL     1     152.060 156.345 155.297  0.00  0.00    +0.041 A 
ATOM     12  S1  UNL     1     151.700 156.405 156.982  0.00  0.00    -0.052 S 
ATOM     13  H14 UNL     1     151.427 158.084 158.922  0.00  0.00    +0.157 HD
ENDROOT
BRANCH   1  17
ATOM     14  C5  UNL     1     151.151 161.424 162.402  0.00  0.00    -0.042 A 
ATOM     15  C6  UNL     1     150.278 160.480 161.834  0.00  0.00    +0.005 A 
ATOM     16  C7  UNL     1     150.448 160.025 160.520  0.00  0.00    +0.013 A 
ATOM     17  C8  UNL     1     151.498 160.513 159.738  0.00  0.00    +0.037 A 
ATOM     18  C9  UNL     1     152.390 161.436 160.289  0.00  0.00    +0.013 A 
ATOM     19  C10 UNL     1     152.212 161.887 161.601  0.00  0.00    +0.005 A 
BRANCH  14  21
ATOM     20  C1  UNL     1     151.283 163.459 163.886  0.00  0.00    +0.015 C 
ATOM     21  C2  UNL     1     150.991 161.944 163.844  0.00  0.00    -0.013 C 
ATOM     22  C3  UNL     1     149.576 161.735 164.430  0.00  0.00    +0.015 C 
ATOM     23  C4  UNL     1     151.982 161.208 164.771  0.00  0.00    +0.015 C 
ENDBRANCH  14  21
ENDBRANCH   1  17
TORSDOF 2
ENDMDL
MODEL 4
REMARK VINA RESULT:    -5.360      5.055     10.603
REMARK INTER + INTRA:          -6.498
REMARK INTER:                  -5.965
REMARK INTRA:                  -0.533
REMARK UNBOUND:                -0.511
REMARK  Name = /home/vital/Documents/PhD_2021/Malaria_codes/data/pdb_ligands_mmv/ligand_153.pdb
REMARK  5 active torsions:
REMARK  status: ('A' for Active; 'I' for Inactive)
REMARK    1  A    between atoms: C1_1  and  C2_2
REMARK    2  A    between atoms: C2_2  and  C3_3
REMARK    3  A    between atoms: C2_2  and  C4_4
REMARK    4  A    between atoms: C2_2  and  C5_5
REMARK    5  A    between atoms: C8_8  and  C11_11
REMARK                            x       y       z     vdW  Elec       q    Type
REMARK                         _______ _______ _______ _____ _____    ______ ____
ROOT
ATOM      1  C11 UNL     1     151.692 157.201 158.108  0.00  0.00    +0.250 C 
ATOM      2  O1  UNL     1     151.388 156.311 158.893  0.00  0.00    -0.270 OA
ATOM      3  N1  UNL     1     151.869 158.537 158.387  0.00  0.00    -0.261 N 
ATOM      4  C12 UNL     1     151.779 159.041 159.656  0.00  0.00    +0.166 A 
ATOM      5  N2  UNL     1     151.592 158.420 160.787  0.00  0.00    -0.225 NA
ATOM      6  C13 UNL     1     151.574 159.339 161.821  0.00  0.00    +0.080 A 
ATOM      7  C14 UNL     1     151.391 159.045 163.187  0.00  0.00    +0.029 A 
ATOM      8  C15 UNL     1     151.396 160.078 164.129  0.00  0.00    +0.002 A 
ATOM      9  C16 UNL     1     151.581 161.397 163.726  0.00  0.00    +0.001 A 
ATOM     10  C17 UNL     1     151.766 161.717 162.378  0.00  0.00    +0.017 A 
ATOM     11  C18 UNL     1     151.758 160.671 161.441  0.00  0.00    +0.041 A 
ATOM     12  S1  UNL     1     151.957 160.736 159.729  0.00  0.00    -0.052 S 
ATOM     13  H14 UNL     1     152.001 159.209 157.650  0.00  0.00    +0.157 HD
ENDROOT
BRANCH   1  17
ATOM     14  C5  UNL     1     152.195 156.246 153.917  0.00  0.00    -0.042 A 
ATOM     15  C6  UNL     1     151.627 155.313 154.801  0.00  0.00    +0.005 A 
ATOM     16  C7  UNL     1     151.453 155.607 156.161  0.00  0.00    +0.013 A 
ATOM     17  C8  UNL     1     151.853 156.845 156.669  0.00  0.00    +0.037 A 
ATOM     18  C9  UNL     1     152.401 157.795 155.804  0.00  0.00    +0.013 A 
ATOM     19  C10 UNL     1     152.573 157.494 154.450  0.00  0.00    +0.005 A 
BRANCH  14  21
ATOM     20  C1  UNL     1     153.872 155.574 152.159  0.00  0.00    +0.015 C 
ATOM     21  C2  UNL     1     152.399 155.954 152.419  0.00  0.00    -0.013 C 
ATOM     22  C3  UNL     1     151.527 154.796 151.883  0.00  0.00    +0.015 C 
ATOM     23  C4  UNL     1     152.046 157.211 151.594  0.00  0.00    +0.015 C 
ENDBRANCH  14  21
ENDBRANCH   1  17
TORSDOF 2
ENDMDL
MODEL 5
REMARK VINA RESULT:    -5.152      5.234     10.810
REMARK INTER + INTRA:          -6.265
REMARK INTER:                  -5.745
REMARK INTRA:                  -0.520
REMARK UNBOUND:                -0.511
REMARK  Name = /home/vital/Documents/PhD_2021/Malaria_codes/data/pdb_ligands_mmv/ligand_153.pdb
REMARK  5 active torsions:
REMARK  status: ('A' for Active; 'I' for Inactive)
REMARK    1  A    between atoms: C1_1  and  C2_2
REMARK    2  A    between atoms: C2_2  and  C3_3
REMARK    3  A    between atoms: C2_2  and  C4_4
REMARK    4  A    between atoms: C2_2  and  C5_5
REMARK    5  A    between atoms: C8_8  and  C11_11
REMARK                            x       y       z     vdW  Elec       q    Type
REMARK                         _______ _______ _______ _____ _____    ______ ____
ROOT
ATOM      1  C11 UNL     1     151.297 158.778 157.804  0.00  0.00    +0.250 C 
ATOM      2  O1  UNL     1     150.768 159.877 157.703  0.00  0.00    -0.270 OA
ATOM      3  N1  UNL     1     151.725 158.158 158.957  0.00  0.00    -0.261 N 
ATOM      4  C12 UNL     1     151.544 158.708 160.196  0.00  0.00    +0.166 A 
ATOM      5  N2  UNL     1     150.925 159.803 160.540  0.00  0.00    -0.225 NA
ATOM      6  C13 UNL     1     150.991 159.961 161.913  0.00  0.00    +0.080 A 
ATOM      7  C14 UNL     1     150.440 161.027 162.651  0.00  0.00    +0.029 A 
ATOM      8  C15 UNL     1     150.584 161.058 164.042  0.00  0.00    +0.002 A 
ATOM      9  C16 UNL     1     151.268 160.043 164.703  0.00  0.00    +0.001 A 
ATOM     10  C17 UNL     1     151.824 158.973 163.994  0.00  0.00    +0.017 A 
ATOM     11  C18 UNL     1     151.674 158.952 162.598  0.00  0.00    +0.041 A 
ATOM     12  S1  UNL     1     152.235 157.788 161.456  0.00  0.00    -0.052 S 
ATOM     13  H14 UNL     1     152.257 157.305 158.922  0.00  0.00    +0.157 HD
ENDROOT
BRANCH   1  17
ATOM     14  C5  UNL     1     152.089 156.618 154.139  0.00  0.00    -0.042 A 
ATOM     15  C6  UNL     1     151.777 155.929 155.323  0.00  0.00    +0.005 A 
ATOM     16  C7  UNL     1     151.514 156.612 156.518  0.00  0.00    +0.013 A 
ATOM     17  C8  UNL     1     151.566 158.008 156.556  0.00  0.00    +0.037 A 
ATOM     18  C9  UNL     1     151.853 158.713 155.386  0.00  0.00    +0.013 A 
ATOM     19  C10 UNL     1     152.116 158.025 154.197  0.00  0.00    +0.005 A 
BRANCH  14  21
ATOM     20  C1  UNL     1     152.052 156.831 151.627  0.00  0.00    +0.015 C 
ATOM     21  C2  UNL     1     152.382 155.896 152.810  0.00  0.00    -0.013 C 
ATOM     22  C3  UNL     1     153.856 155.459 152.648  0.00  0.00    +0.015 C 
ATOM     23  C4  UNL     1     151.514 154.623 152.710  0.00  0.00    +0.015 C 
ENDBRANCH  14  21
ENDBRANCH   1  17
TORSDOF 2
ENDMDL
MODEL 6
REMARK VINA RESULT:    -4.882      8.250     12.049
REMARK INTER + INTRA:          -5.964
REMARK INTER:                  -5.436
REMARK INTRA:                  -0.528
REMARK UNBOUND:                -0.511
REMARK  Name = /home/vital/Documents/PhD_2021/Malaria_codes/data/pdb_ligands_mmv/ligand_153.pdb
REMARK  5 active torsions:
REMARK  status: ('A' for Active; 'I' for Inactive)
REMARK    1  A    between atoms: C1_1  and  C2_2
REMARK    2  A    between atoms: C2_2  and  C3_3
REMARK    3  A    between atoms: C2_2  and  C4_4
REMARK    4  A    between atoms: C2_2  and  C5_5
REMARK    5  A    between atoms: C8_8  and  C11_11
REMARK                            x       y       z     vdW  Elec       q    Type
REMARK                         _______ _______ _______ _____ _____    ______ ____
ROOT
ATOM      1  C11 UNL     1     151.475 160.823 162.680  0.00  0.00    +0.250 C 
ATOM      2  O1  UNL     1     150.897 161.696 162.046  0.00  0.00    -0.270 OA
ATOM      3  N1  UNL     1     151.705 159.522 162.295  0.00  0.00    -0.261 N 
ATOM      4  C12 UNL     1     151.343 159.046 161.064  0.00  0.00    +0.166 A 
ATOM      5  N2  UNL     1     150.814 159.674 160.050  0.00  0.00    -0.225 NA
ATOM      6  C13 UNL     1     150.623 158.787 159.006  0.00  0.00    +0.080 A 
ATOM      7  C14 UNL     1     150.070 159.097 157.747  0.00  0.00    +0.029 A 
ATOM      8  C15 UNL     1     149.935 158.096 156.780  0.00  0.00    +0.002 A 
ATOM      9  C16 UNL     1     150.343 156.794 157.052  0.00  0.00    +0.001 A 
ATOM     10  C17 UNL     1     150.896 156.459 158.292  0.00  0.00    +0.017 A 
ATOM     11  C18 UNL     1     151.026 157.472 159.256  0.00  0.00    +0.041 A 
ATOM     12  S1  UNL     1     151.660 157.382 160.857  0.00  0.00    -0.052 S 
ATOM     13  H14 UNL     1     152.084 158.848 162.938  0.00  0.00    +0.157 HD
ENDROOT
BRANCH   1  17
ATOM     14  C5  UNL     1     152.953 161.725 166.647  0.00  0.00    -0.042 A 
ATOM     15  C6  UNL     1     151.843 162.409 166.122  0.00  0.00    +0.005 A 
ATOM     16  C7  UNL     1     151.349 162.127 164.842  0.00  0.00    +0.013 A 
ATOM     17  C8  UNL     1     151.963 161.154 164.050  0.00  0.00    +0.037 A 
ATOM     18  C9  UNL     1     153.054 160.447 164.559  0.00  0.00    +0.013 A 
ATOM     19  C10 UNL     1     153.543 160.735 165.837  0.00  0.00    +0.005 A 
BRANCH  14  21
ATOM     20  C1  UNL     1     155.029 161.692 168.076  0.00  0.00    +0.015 C 
ATOM     21  C2  UNL     1     153.519 162.011 168.050  0.00  0.00    -0.013 C 
ATOM     22  C3  UNL     1     153.355 163.479 168.504  0.00  0.00    +0.015 C 
ATOM     23  C4  UNL     1     152.795 161.128 169.089  0.00  0.00    +0.015 C 
ENDBRANCH  14  21
ENDBRANCH   1  17
TORSDOF 2
ENDMDL
MODEL 7
REMARK VINA RESULT:    -4.798      5.743      8.820
REMARK INTER + INTRA:          -5.870
REMARK INTER:                  -5.350
REMARK INTRA:                  -0.520
REMARK UNBOUND:                -0.511
REMARK  Name = /home/vital/Documents/PhD_2021/Malaria_codes/data/pdb_ligands_mmv/ligand_153.pdb
REMARK  5 active torsions:
REMARK  status: ('A' for Active; 'I' for Inactive)
REMARK    1  A    between atoms: C1_1  and  C2_2
REMARK    2  A    between atoms: C2_2  and  C3_3
REMARK    3  A    between atoms: C2_2  and  C4_4
REMARK    4  A    between atoms: C2_2  and  C5_5
REMARK    5  A    between atoms: C8_8  and  C11_11
REMARK                            x       y       z     vdW  Elec       q    Type
REMARK                         _______ _______ _______ _____ _____    ______ ____
ROOT
ATOM      1  C11 UNL     1     151.051 158.351 160.109  0.00  0.00    +0.250 C 
ATOM      2  O1  UNL     1     150.931 157.159 160.360  0.00  0.00    -0.270 OA
ATOM      3  N1  UNL     1     151.353 158.924 158.895  0.00  0.00    -0.261 N 
ATOM      4  C12 UNL     1     151.504 158.187 157.752  0.00  0.00    +0.166 A 
ATOM      5  N2  UNL     1     151.344 156.907 157.559  0.00  0.00    -0.225 NA
ATOM      6  C13 UNL     1     151.604 156.603 156.235  0.00  0.00    +0.080 A 
ATOM      7  C14 UNL     1     151.539 155.322 155.651  0.00  0.00    +0.029 A 
ATOM      8  C15 UNL     1     151.828 155.161 154.293  0.00  0.00    +0.002 A 
ATOM      9  C16 UNL     1     152.180 156.257 153.512  0.00  0.00    +0.001 A 
ATOM     10  C17 UNL     1     152.251 157.539 154.065  0.00  0.00    +0.017 A 
ATOM     11  C18 UNL     1     151.959 157.689 155.431  0.00  0.00    +0.041 A 
ATOM     12  S1  UNL     1     151.958 159.118 156.396  0.00  0.00    -0.052 S 
ATOM     13  H14 UNL     1     151.547 159.909 158.818  0.00  0.00    +0.157 HD
ENDROOT
BRANCH   1  17
ATOM     14  C5  UNL     1     150.668 161.123 163.410  0.00  0.00    -0.042 A 
ATOM     15  C6  UNL     1     150.084 161.408 162.164  0.00  0.00    +0.005 A 
ATOM     16  C7  UNL     1     150.195 160.520 161.086  0.00  0.00    +0.013 A 
ATOM     17  C8  UNL     1     150.903 159.324 161.229  0.00  0.00    +0.037 A 
ATOM     18  C9  UNL     1     151.473 159.011 162.465  0.00  0.00    +0.013 A 
ATOM     19  C10 UNL     1     151.361 159.903 163.536  0.00  0.00    +0.005 A 
BRANCH  14  21
ATOM     20  C1  UNL     1     149.108 162.111 165.127  0.00  0.00    +0.015 C 
ATOM     21  C2  UNL     1     150.564 162.077 164.615  0.00  0.00    -0.013 C 
ATOM     22  C3  UNL     1     151.458 161.676 165.810  0.00  0.00    +0.015 C 
ATOM     23  C4  UNL     1     150.985 163.499 164.187  0.00  0.00    +0.015 C 
ENDBRANCH  14  21
ENDBRANCH   1  17
TORSDOF 2
ENDMDL
MODEL 8
REMARK VINA RESULT:    -4.671      8.423     12.138
REMARK INTER + INTRA:          -5.729
REMARK INTER:                  -5.214
REMARK INTRA:                  -0.515
REMARK UNBOUND:                -0.511
REMARK  Name = /home/vital/Documents/PhD_2021/Malaria_codes/data/pdb_ligands_mmv/ligand_153.pdb
REMARK  5 active torsions:
REMARK  status: ('A' for Active; 'I' for Inactive)
REMARK    1  A    between atoms: C1_1  and  C2_2
REMARK    2  A    between atoms: C2_2  and  C3_3
REMARK    3  A    between atoms: C2_2  and  C4_4
REMARK    4  A    between atoms: C2_2  and  C5_5
REMARK    5  A    between atoms: C8_8  and  C11_11
REMARK                            x       y       z     vdW  Elec       q    Type
REMARK                         _______ _______ _______ _____ _____    ______ ____
ROOT
ATOM      1  C11 UNL     1     152.368 158.248 163.536  0.00  0.00    +0.250 C 
ATOM      2  O1  UNL     1     152.927 157.177 163.338  0.00  0.00    -0.270 OA
ATOM      3  N1  UNL     1     151.608 158.971 162.645  0.00  0.00    -0.261 N 
ATOM      4  C12 UNL     1     151.326 158.521 161.384  0.00  0.00    +0.166 A 
ATOM      5  N2  UNL     1     151.627 157.385 160.819  0.00  0.00    -0.225 NA
ATOM      6  C13 UNL     1     151.131 157.366 159.527  0.00  0.00    +0.080 A 
ATOM      7  C14 UNL     1     151.263 156.307 158.606  0.00  0.00    +0.029 A 
ATOM      8  C15 UNL     1     150.708 156.425 157.328  0.00  0.00    +0.002 A 
ATOM      9  C16 UNL     1     150.028 157.581 156.957  0.00  0.00    +0.001 A 
ATOM     10  C17 UNL     1     149.883 158.646 157.852  0.00  0.00    +0.017 A 
ATOM     11  C18 UNL     1     150.444 158.517 159.133  0.00  0.00    +0.041 A 
ATOM     12  S1  UNL     1     150.438 159.635 160.446  0.00  0.00    -0.052 S 
ATOM     13  H14 UNL     1     151.289 159.900 162.867  0.00  0.00    +0.157 HD
ENDROOT
BRANCH   1  17
ATOM     14  C5  UNL     1     152.906 160.201 167.360  0.00  0.00    -0.042 A 
ATOM     15  C6  UNL     1     152.332 158.920 167.284  0.00  0.00    +0.005 A 
ATOM     16  C7  UNL     1     152.153 158.272 166.054  0.00  0.00    +0.013 A 
ATOM     17  C8  UNL     1     152.541 158.897 164.866  0.00  0.00    +0.037 A 
ATOM     18  C9  UNL     1     153.133 160.161 164.921  0.00  0.00    +0.013 A 
ATOM     19  C10 UNL     1     153.306 160.803 166.151  0.00  0.00    +0.005 A 
BRANCH  14  21
ATOM     20  C1  UNL     1     151.857 160.793 169.575  0.00  0.00    +0.015 C 
ATOM     21  C2  UNL     1     153.116 160.940 168.695  0.00  0.00    -0.013 C 
ATOM     22  C3  UNL     1     154.313 160.413 169.519  0.00  0.00    +0.015 C 
ATOM     23  C4  UNL     1     153.374 162.437 168.422  0.00  0.00    +0.015 C 
ENDBRANCH  14  21
ENDBRANCH   1  17
TORSDOF 2
ENDMDL
MODEL 9
REMARK VINA RESULT:    -4.348      7.899     13.379
REMARK INTER + INTRA:          -5.368
REMARK INTER:                  -4.849
REMARK INTRA:                  -0.519
REMARK UNBOUND:                -0.511
REMARK  Name = /home/vital/Documents/PhD_2021/Malaria_codes/data/pdb_ligands_mmv/ligand_153.pdb
REMARK  5 active torsions:
REMARK  status: ('A' for Active; 'I' for Inactive)
REMARK    1  A    between atoms: C1_1  and  C2_2
REMARK    2  A    between atoms: C2_2  and  C3_3
REMARK    3  A    between atoms: C2_2  and  C4_4
REMARK    4  A    between atoms: C2_2  and  C5_5
REMARK    5  A    between atoms: C8_8  and  C11_11
REMARK                            x       y       z     vdW  Elec       q    Type
REMARK                         _______ _______ _______ _____ _____    ______ ____
ROOT
ATOM      1  C11 UNL     1     150.263 160.108 161.235  0.00  0.00    +0.250 C 
ATOM      2  O1  UNL     1     149.341 160.911 161.163  0.00  0.00    -0.270 OA
ATOM      3  N1  UNL     1     151.180 159.977 162.252  0.00  0.00    -0.261 N 
ATOM      4  C12 UNL     1     151.127 160.733 163.391  0.00  0.00    +0.166 A 
ATOM      5  N2  UNL     1     150.241 161.615 163.765  0.00  0.00    -0.225 NA
ATOM      6  C13 UNL     1     150.594 162.128 165.001  0.00  0.00    +0.080 A 
ATOM      7  C14 UNL     1     149.883 163.107 165.724  0.00  0.00    +0.029 A 
ATOM      8  C15 UNL     1     150.357 163.535 166.967  0.00  0.00    +0.002 A 
ATOM      9  C16 UNL     1     151.529 163.002 167.497  0.00  0.00    +0.001 A 
ATOM     10  C17 UNL     1     152.253 162.030 166.800  0.00  0.00    +0.017 A 
ATOM     11  C18 UNL     1     151.768 161.608 165.552  0.00  0.00    +0.041 A 
ATOM     12  S1  UNL     1     152.422 160.441 164.463  0.00  0.00    -0.052 S 
ATOM     13  H14 UNL     1     151.974 159.365 162.162  0.00  0.00    +0.157 HD
ENDROOT
BRANCH   1  17
ATOM     14  C5  UNL     1     150.864 157.472 157.855  0.00  0.00    -0.042 A 
ATOM     15  C6  UNL     1     151.061 157.011 159.168  0.00  0.00    +0.005 A 
ATOM     16  C7  UNL     1     150.867 157.850 160.274  0.00  0.00    +0.013 A 
ATOM     17  C8  UNL     1     150.477 159.178 160.089  0.00  0.00    +0.037 A 
ATOM     18  C9  UNL     1     150.255 159.652 158.795  0.00  0.00    +0.013 A 
ATOM     19  C10 UNL     1     150.452 158.810 157.695  0.00  0.00    +0.005 A 
BRANCH  14  21
ATOM     20  C1  UNL     1     152.191 155.555 156.897  0.00  0.00    +0.015 C 
ATOM     21  C2  UNL     1     151.067 156.576 156.619  0.00  0.00    -0.013 C 
ATOM     22  C3  UNL     1     149.810 155.773 156.216  0.00  0.00    +0.015 C 
ATOM     23  C4  UNL     1     151.460 157.448 155.407  0.00  0.00    +0.015 C 
ENDBRANCH  14  21
ENDBRANCH   1  17
TORSDOF 2
ENDMDL
