MODEL 1
REMARK VINA RESULT:    -3.688      0.000      0.000
REMARK INTER + INTRA:          -6.806
REMARK INTER:                  -5.089
REMARK INTRA:                  -1.717
REMARK UNBOUND:                -1.717
REMARK  Name = /home/vital/Documents/PhD_2021/Malaria_codes/data/pdb_ligands_mmv/ligand_1.pdb
REMARK  13 active torsions:
REMARK  status: ('A' for Active; 'I' for Inactive)
REMARK    1  A    between atoms: C1_1  and  N1_2
REMARK    2  A    between atoms: N1_2  and  C2_3
REMARK    3  A    between atoms: N1_2  and  C3_4
REMARK    4  A    between atoms: C6_7  and  C9_10
REMARK    5  A    between atoms: C9_10  and  O1_11
REMARK    6  A    between atoms: C9_10  and  C10_12
REMARK    7  A    between atoms: C9_10  and  C18_21
REMARK    8  A    between atoms: C13_15  and  N2_18
REMARK    9  A    between atoms: N2_18  and  C16_19
REMARK   10  A    between atoms: N2_18  and  C17_20
REMARK   11  A    between atoms: C21_24  and  N3_27
REMARK   12  A    between atoms: N3_27  and  C24_28
REMARK   13  A    between atoms: N3_27  and  C25_29
REMARK                            x       y       z     vdW  Elec       q    Type
REMARK                         _______ _______ _______ _____ _____    ______ ____
ROOT
ATOM      1  C9  UNL     1     151.785 156.762 165.684  0.00  0.00    +0.141 C 
ENDROOT
BRANCH   1   5
ATOM      2  C3  UNL     1     149.170 153.185 165.903  0.00  0.00    +0.029 A 
ATOM      3  C4  UNL     1     148.890 154.268 165.054  0.00  0.00    +0.023 A 
ATOM      4  C5  UNL     1     149.706 155.410 164.991  0.00  0.00    +0.009 A 
ATOM      5  C6  UNL     1     150.862 155.528 165.775  0.00  0.00    -0.007 A 
ATOM      6  C7  UNL     1     151.168 154.441 166.609  0.00  0.00    +0.009 A 
ATOM      7  C8  UNL     1     150.343 153.304 166.665  0.00  0.00    +0.023 A 
BRANCH   2   9
ATOM      8  C1  UNL     1     147.897 151.457 164.695  0.00  0.00    +0.129 C 
ATOM      9  N1  UNL     1     148.362 152.041 165.951  0.00  0.00    -0.336 N 
ATOM     10  C2  UNL     1     147.466 151.868 167.093  0.00  0.00    +0.129 C 
ENDBRANCH   2   9
ENDBRANCH   1   5
BRANCH   1  11
ATOM     11  C10 UNL     1     151.489 157.858 166.735  0.00  0.00    -0.007 A 
ATOM     12  C11 UNL     1     150.204 158.153 167.203  0.00  0.00    +0.009 A 
ATOM     13  C12 UNL     1     149.992 159.147 168.174  0.00  0.00    +0.023 A 
ATOM     14  C13 UNL     1     151.041 159.887 168.746  0.00  0.00    +0.029 A 
ATOM     15  C14 UNL     1     152.323 159.585 168.263  0.00  0.00    +0.023 A 
ATOM     16  C15 UNL     1     152.547 158.594 167.295  0.00  0.00    +0.009 A 
BRANCH  14  17
ATOM     17  N2  UNL     1     150.817 160.887 169.698  0.00  0.00    -0.336 N 
ATOM     18  C16 UNL     1     150.736 162.278 169.259  0.00  0.00    +0.129 C 
ATOM     19  C17 UNL     1     151.295 160.683 171.065  0.00  0.00    +0.129 C 
ENDBRANCH  14  17
ENDBRANCH   1  11
BRANCH   1  20
ATOM     20  C18 UNL     1     151.837 157.291 164.233  0.00  0.00    -0.007 A 
ATOM     21  C19 UNL     1     152.462 156.583 163.196  0.00  0.00    +0.009 A 
ATOM     22  C20 UNL     1     152.520 157.100 161.890  0.00  0.00    +0.023 A 
ATOM     23  C21 UNL     1     151.983 158.352 161.550  0.00  0.00    +0.029 A 
ATOM     24  C22 UNL     1     151.361 159.049 162.598  0.00  0.00    +0.023 A 
ATOM     25  C23 UNL     1     151.297 158.542 163.906  0.00  0.00    +0.009 A 
BRANCH  23  26
ATOM     26  N3  UNL     1     152.029 158.854 160.242  0.00  0.00    -0.336 N 
ATOM     27  C24 UNL     1     152.410 160.249 160.035  0.00  0.00    +0.129 C 
ATOM     28  C25 UNL     1     151.132 158.287 159.237  0.00  0.00    +0.129 C 
ENDBRANCH  23  26
ENDBRANCH   1  20
BRANCH   1  29
ATOM     29  O1  UNL     1     153.128 156.302 165.980  0.00  0.00    -0.375 OA
ATOM     30  H11 UNL     1     153.658 156.430 165.178  0.00  0.00    +0.211 HD
ENDBRANCH   1  29
TORSDOF 7
ENDMDL
MODEL 2
REMARK VINA RESULT:    -3.648      1.952      7.035
REMARK INTER + INTRA:          -6.751
REMARK INTER:                  -5.187
REMARK INTRA:                  -1.565
REMARK UNBOUND:                -1.717
REMARK  Name = /home/vital/Documents/PhD_2021/Malaria_codes/data/pdb_ligands_mmv/ligand_1.pdb
REMARK  13 active torsions:
REMARK  status: ('A' for Active; 'I' for Inactive)
REMARK    1  A    between atoms: C1_1  and  N1_2
REMARK    2  A    between atoms: N1_2  and  C2_3
REMARK    3  A    between atoms: N1_2  and  C3_4
REMARK    4  A    between atoms: C6_7  and  C9_10
REMARK    5  A    between atoms: C9_10  and  O1_11
REMARK    6  A    between atoms: C9_10  and  C10_12
REMARK    7  A    between atoms: C9_10  and  C18_21
REMARK    8  A    between atoms: C13_15  and  N2_18
REMARK    9  A    between atoms: N2_18  and  C16_19
REMARK   10  A    between atoms: N2_18  and  C17_20
REMARK   11  A    between atoms: C21_24  and  N3_27
REMARK   12  A    between atoms: N3_27  and  C24_28
REMARK   13  A    between atoms: N3_27  and  C25_29
REMARK                            x       y       z     vdW  Elec       q    Type
REMARK                         _______ _______ _______ _____ _____    ______ ____
ROOT
ATOM      1  C9  UNL     1     152.335 158.369 164.058  0.00  0.00    +0.141 C 
ENDROOT
BRANCH   1   5
ATOM      2  C3  UNL     1     150.909 159.312 159.964  0.00  0.00    +0.029 A 
ATOM      3  C4  UNL     1     150.415 159.973 161.100  0.00  0.00    +0.023 A 
ATOM      4  C5  UNL     1     150.853 159.669 162.401  0.00  0.00    +0.009 A 
ATOM      5  C6  UNL     1     151.821 158.683 162.635  0.00  0.00    -0.007 A 
ATOM      6  C7  UNL     1     152.341 158.032 161.506  0.00  0.00    +0.009 A 
ATOM      7  C8  UNL     1     151.896 158.344 160.210  0.00  0.00    +0.023 A 
BRANCH   2   9
ATOM      8  C1  UNL     1     149.746 158.623 157.904  0.00  0.00    +0.129 C 
ATOM      9  N1  UNL     1     150.482 159.629 158.668  0.00  0.00    -0.336 N 
ATOM     10  C2  UNL     1     151.291 160.552 157.872  0.00  0.00    +0.129 C 
ENDBRANCH   2   9
ENDBRANCH   1   5
BRANCH   1  11
ATOM     11  C10 UNL     1     151.744 157.081 164.679  0.00  0.00    -0.007 A 
ATOM     12  C11 UNL     1     150.740 156.321 164.071  0.00  0.00    +0.009 A 
ATOM     13  C12 UNL     1     150.251 155.146 164.670  0.00  0.00    +0.023 A 
ATOM     14  C13 UNL     1     150.745 154.654 165.889  0.00  0.00    +0.029 A 
ATOM     15  C14 UNL     1     151.748 155.429 166.490  0.00  0.00    +0.023 A 
ATOM     16  C15 UNL     1     152.244 156.603 165.902  0.00  0.00    +0.009 A 
BRANCH  14  17
ATOM     17  N2  UNL     1     150.239 153.493 166.486  0.00  0.00    -0.336 N 
ATOM     18  C16 UNL     1     151.149 152.384 166.763  0.00  0.00    +0.129 C 
ATOM     19  C17 UNL     1     148.846 153.122 166.242  0.00  0.00    +0.129 C 
ENDBRANCH  14  17
ENDBRANCH   1  11
BRANCH   1  20
ATOM     20  C18 UNL     1     152.203 159.613 164.966  0.00  0.00    -0.007 A 
ATOM     21  C19 UNL     1     153.269 160.495 165.193  0.00  0.00    +0.009 A 
ATOM     22  C20 UNL     1     153.131 161.604 166.046  0.00  0.00    +0.023 A 
ATOM     23  C21 UNL     1     151.939 161.882 166.733  0.00  0.00    +0.029 A 
ATOM     24  C22 UNL     1     150.881 160.990 166.497  0.00  0.00    +0.023 A 
ATOM     25  C23 UNL     1     151.008 159.880 165.647  0.00  0.00    +0.009 A 
BRANCH  23  26
ATOM     26  N3  UNL     1     151.803 162.999 167.570  0.00  0.00    -0.336 N 
ATOM     27  C24 UNL     1     152.792 163.217 168.622  0.00  0.00    +0.129 C 
ATOM     28  C25 UNL     1     150.464 163.515 167.844  0.00  0.00    +0.129 C 
ENDBRANCH  23  26
ENDBRANCH   1  20
BRANCH   1  29
ATOM     29  O1  UNL     1     153.758 158.120 163.941  0.00  0.00    -0.375 OA
ATOM     30  H11 UNL     1     154.213 158.807 164.454  0.00  0.00    +0.211 HD
ENDBRANCH   1  29
TORSDOF 7
ENDMDL
MODEL 3
REMARK VINA RESULT:    -3.482      3.390      7.991
REMARK INTER + INTRA:          -6.522
REMARK INTER:                  -5.558
REMARK INTRA:                  -0.965
REMARK UNBOUND:                -1.717
REMARK  Name = /home/vital/Documents/PhD_2021/Malaria_codes/data/pdb_ligands_mmv/ligand_1.pdb
REMARK  13 active torsions:
REMARK  status: ('A' for Active; 'I' for Inactive)
REMARK    1  A    between atoms: C1_1  and  N1_2
REMARK    2  A    between atoms: N1_2  and  C2_3
REMARK    3  A    between atoms: N1_2  and  C3_4
REMARK    4  A    between atoms: C6_7  and  C9_10
REMARK    5  A    between atoms: C9_10  and  O1_11
REMARK    6  A    between atoms: C9_10  and  C10_12
REMARK    7  A    between atoms: C9_10  and  C18_21
REMARK    8  A    between atoms: C13_15  and  N2_18
REMARK    9  A    between atoms: N2_18  and  C16_19
REMARK   10  A    between atoms: N2_18  and  C17_20
REMARK   11  A    between atoms: C21_24  and  N3_27
REMARK   12  A    between atoms: N3_27  and  C24_28
REMARK   13  A    between atoms: N3_27  and  C25_29
REMARK                            x       y       z     vdW  Elec       q    Type
REMARK                         _______ _______ _______ _____ _____    ______ ____
ROOT
ATOM      1  C9  UNL     1     151.309 155.970 161.169  0.00  0.00    +0.141 C 
ENDROOT
BRANCH   1   5
ATOM      2  C3  UNL     1     151.375 156.407 156.755  0.00  0.00    +0.029 A 
ATOM      3  C4  UNL     1     150.937 157.437 157.604  0.00  0.00    +0.023 A 
ATOM      4  C5  UNL     1     150.901 157.299 159.002  0.00  0.00    +0.009 A 
ATOM      5  C6  UNL     1     151.311 156.116 159.632  0.00  0.00    -0.007 A 
ATOM      6  C7  UNL     1     151.774 155.088 158.796  0.00  0.00    +0.009 A 
ATOM      7  C8  UNL     1     151.806 155.237 157.399  0.00  0.00    +0.023 A 
BRANCH   2   9
ATOM      8  C1  UNL     1     151.921 155.441 154.556  0.00  0.00    +0.129 C 
ATOM      9  N1  UNL     1     151.425 156.554 155.362  0.00  0.00    -0.336 N 
ATOM     10  C2  UNL     1     151.668 157.886 154.809  0.00  0.00    +0.129 C 
ENDBRANCH   2   9
ENDBRANCH   1   5
BRANCH   1  11
ATOM     11  C10 UNL     1     150.237 154.998 161.716  0.00  0.00    -0.007 A 
ATOM     12  C11 UNL     1     149.141 154.557 160.968  0.00  0.00    +0.009 A 
ATOM     13  C12 UNL     1     148.204 153.657 161.507  0.00  0.00    +0.023 A 
ATOM     14  C13 UNL     1     148.315 153.134 162.806  0.00  0.00    +0.029 A 
ATOM     15  C14 UNL     1     149.416 153.589 163.547  0.00  0.00    +0.023 A 
ATOM     16  C15 UNL     1     150.357 154.487 163.019  0.00  0.00    +0.009 A 
BRANCH  14  17
ATOM     17  N2  UNL     1     147.368 152.253 163.340  0.00  0.00    -0.336 N 
ATOM     18  C16 UNL     1     147.583 151.707 164.678  0.00  0.00    +0.129 C 
ATOM     19  C17 UNL     1     146.594 151.410 162.430  0.00  0.00    +0.129 C 
ENDBRANCH  14  17
ENDBRANCH   1  11
BRANCH   1  20
ATOM     20  C18 UNL     1     151.289 157.361 161.843  0.00  0.00    -0.007 A 
ATOM     21  C19 UNL     1     150.349 158.346 161.506  0.00  0.00    +0.009 A 
ATOM     22  C20 UNL     1     150.370 159.614 162.114  0.00  0.00    +0.023 A 
ATOM     23  C21 UNL     1     151.333 159.976 163.069  0.00  0.00    +0.029 A 
ATOM     24  C22 UNL     1     152.267 158.980 163.396  0.00  0.00    +0.023 A 
ATOM     25  C23 UNL     1     152.256 157.711 162.795  0.00  0.00    +0.009 A 
BRANCH  23  26
ATOM     26  N3  UNL     1     151.338 161.236 163.684  0.00  0.00    -0.336 N 
ATOM     27  C24 UNL     1     152.263 161.479 164.787  0.00  0.00    +0.129 C 
ATOM     28  C25 UNL     1     150.099 162.010 163.716  0.00  0.00    +0.129 C 
ENDBRANCH  23  26
ENDBRANCH   1  20
BRANCH   1  29
ATOM     29  O1  UNL     1     152.582 155.379 161.533  0.00  0.00    -0.375 OA
ATOM     30  H11 UNL     1     152.625 154.507 161.109  0.00  0.00    +0.211 HD
ENDBRANCH   1  29
TORSDOF 7
ENDMDL
MODEL 4
REMARK VINA RESULT:    -3.463      3.323      4.774
REMARK INTER + INTRA:          -6.496
REMARK INTER:                  -5.630
REMARK INTRA:                  -0.866
REMARK UNBOUND:                -1.717
REMARK  Name = /home/vital/Documents/PhD_2021/Malaria_codes/data/pdb_ligands_mmv/ligand_1.pdb
REMARK  13 active torsions:
REMARK  status: ('A' for Active; 'I' for Inactive)
REMARK    1  A    between atoms: C1_1  and  N1_2
REMARK    2  A    between atoms: N1_2  and  C2_3
REMARK    3  A    between atoms: N1_2  and  C3_4
REMARK    4  A    between atoms: C6_7  and  C9_10
REMARK    5  A    between atoms: C9_10  and  O1_11
REMARK    6  A    between atoms: C9_10  and  C10_12
REMARK    7  A    between atoms: C9_10  and  C18_21
REMARK    8  A    between atoms: C13_15  and  N2_18
REMARK    9  A    between atoms: N2_18  and  C16_19
REMARK   10  A    between atoms: N2_18  and  C17_20
REMARK   11  A    between atoms: C21_24  and  N3_27
REMARK   12  A    between atoms: N3_27  and  C24_28
REMARK   13  A    between atoms: N3_27  and  C25_29
REMARK                            x       y       z     vdW  Elec       q    Type
REMARK                         _______ _______ _______ _____ _____    ______ ____
ROOT
ATOM      1  C9  UNL     1     151.365 156.131 161.369  0.00  0.00    +0.141 C 
ENDROOT
BRANCH   1   5
ATOM      2  C3  UNL     1     148.317 153.262 162.840  0.00  0.00    +0.029 A 
ATOM      3  C4  UNL     1     148.283 153.791 161.539  0.00  0.00    +0.023 A 
ATOM      4  C5  UNL     1     149.237 154.711 161.072  0.00  0.00    +0.009 A 
ATOM      5  C6  UNL     1     150.290 155.149 161.886  0.00  0.00    -0.007 A 
ATOM      6  C7  UNL     1     150.351 154.609 163.180  0.00  0.00    +0.009 A 
ATOM      7  C8  UNL     1     149.391 153.690 163.637  0.00  0.00    +0.023 A 
BRANCH   2   9
ATOM      8  C1  UNL     1     147.649 151.598 164.529  0.00  0.00    +0.129 C 
ATOM      9  N1  UNL     1     147.373 152.332 163.296  0.00  0.00    -0.336 N 
ATOM     10  C2  UNL     1     146.562 151.619 162.310  0.00  0.00    +0.129 C 
ENDBRANCH   2   9
ENDBRANCH   1   5
BRANCH   1  11
ATOM     11  C10 UNL     1     151.297 157.541 162.002  0.00  0.00    -0.007 A 
ATOM     12  C11 UNL     1     150.391 158.526 161.597  0.00  0.00    +0.009 A 
ATOM     13  C12 UNL     1     150.358 159.786 162.220  0.00  0.00    +0.023 A 
ATOM     14  C13 UNL     1     151.207 160.129 163.286  0.00  0.00    +0.029 A 
ATOM     15  C14 UNL     1     152.114 159.133 163.678  0.00  0.00    +0.023 A 
ATOM     16  C15 UNL     1     152.156 157.872 163.064  0.00  0.00    +0.009 A 
BRANCH  14  17
ATOM     17  N2  UNL     1     151.179 161.393 163.887  0.00  0.00    -0.336 N 
ATOM     18  C16 UNL     1     152.196 161.727 164.882  0.00  0.00    +0.129 C 
ATOM     19  C17 UNL     1     149.895 162.074 164.042  0.00  0.00    +0.129 C 
ENDBRANCH  14  17
ENDBRANCH   1  11
BRANCH   1  20
ATOM     20  C18 UNL     1     151.384 156.144 159.823  0.00  0.00    -0.007 A 
ATOM     21  C19 UNL     1     151.739 155.019 159.066  0.00  0.00    +0.009 A 
ATOM     22  C20 UNL     1     151.776 155.066 157.661  0.00  0.00    +0.023 A 
ATOM     23  C21 UNL     1     151.484 156.233 156.938  0.00  0.00    +0.029 A 
ATOM     24  C22 UNL     1     151.131 157.351 157.710  0.00  0.00    +0.023 A 
ATOM     25  C23 UNL     1     151.091 157.316 159.113  0.00  0.00    +0.009 A 
BRANCH  23  26
ATOM     26  N3  UNL     1     151.506 156.268 155.536  0.00  0.00    -0.336 N 
ATOM     27  C24 UNL     1     151.808 155.041 154.805  0.00  0.00    +0.129 C 
ATOM     28  C25 UNL     1     151.885 157.512 154.869  0.00  0.00    +0.129 C 
ENDBRANCH  23  26
ENDBRANCH   1  20
BRANCH   1  29
ATOM     29  O1  UNL     1     152.650 155.592 161.770  0.00  0.00    -0.375 OA
ATOM     30  H11 UNL     1     152.481 154.936 162.466  0.00  0.00    +0.211 HD
ENDBRANCH   1  29
TORSDOF 7
ENDMDL
MODEL 5
REMARK VINA RESULT:    -3.238      2.225      8.016
REMARK INTER + INTRA:          -6.186
REMARK INTER:                  -4.554
REMARK INTRA:                  -1.632
REMARK UNBOUND:                -1.717
REMARK  Name = /home/vital/Documents/PhD_2021/Malaria_codes/data/pdb_ligands_mmv/ligand_1.pdb
REMARK  13 active torsions:
REMARK  status: ('A' for Active; 'I' for Inactive)
REMARK    1  A    between atoms: C1_1  and  N1_2
REMARK    2  A    between atoms: N1_2  and  C2_3
REMARK    3  A    between atoms: N1_2  and  C3_4
REMARK    4  A    between atoms: C6_7  and  C9_10
REMARK    5  A    between atoms: C9_10  and  O1_11
REMARK    6  A    between atoms: C9_10  and  C10_12
REMARK    7  A    between atoms: C9_10  and  C18_21
REMARK    8  A    between atoms: C13_15  and  N2_18
REMARK    9  A    between atoms: N2_18  and  C16_19
REMARK   10  A    between atoms: N2_18  and  C17_20
REMARK   11  A    between atoms: C21_24  and  N3_27
REMARK   12  A    between atoms: N3_27  and  C24_28
REMARK   13  A    between atoms: N3_27  and  C25_29
REMARK                            x       y       z     vdW  Elec       q    Type
REMARK                         _______ _______ _______ _____ _____    ______ ____
ROOT
ATOM      1  C9  UNL     1     152.096 158.728 164.178  0.00  0.00    +0.141 C 
ENDROOT
BRANCH   1   5
ATOM      2  C3  UNL     1     150.476 162.153 166.485  0.00  0.00    +0.029 A 
ATOM      3  C4  UNL     1     149.838 160.903 166.453  0.00  0.00    +0.023 A 
ATOM      4  C5  UNL     1     150.339 159.818 165.712  0.00  0.00    +0.009 A 
ATOM      5  C6  UNL     1     151.519 159.925 164.964  0.00  0.00    -0.007 A 
ATOM      6  C7  UNL     1     152.180 161.162 165.008  0.00  0.00    +0.009 A 
ATOM      7  C8  UNL     1     151.670 162.240 165.752  0.00  0.00    +0.023 A 
BRANCH   2   9
ATOM      8  C1  UNL     1     150.620 163.542 168.515  0.00  0.00    +0.129 C 
ATOM      9  N1  UNL     1     149.983 163.227 167.238  0.00  0.00    -0.336 N 
ATOM     10  C2  UNL     1     148.557 163.542 167.154  0.00  0.00    +0.129 C 
ENDBRANCH   2   9
ENDBRANCH   1   5
BRANCH   1  11
ATOM     11  C10 UNL     1     151.601 158.627 162.716  0.00  0.00    -0.007 A 
ATOM     12  C11 UNL     1     150.564 159.407 162.196  0.00  0.00    +0.009 A 
ATOM     13  C12 UNL     1     150.166 159.290 160.852  0.00  0.00    +0.023 A 
ATOM     14  C13 UNL     1     150.787 158.409 159.951  0.00  0.00    +0.029 A 
ATOM     15  C14 UNL     1     151.822 157.628 160.487  0.00  0.00    +0.023 A 
ATOM     16  C15 UNL     1     152.228 157.738 161.826  0.00  0.00    +0.009 A 
BRANCH  14  17
ATOM     17  N2  UNL     1     150.371 158.286 158.620  0.00  0.00    -0.336 N 
ATOM     18  C16 UNL     1     150.685 157.060 157.890  0.00  0.00    +0.129 C 
ATOM     19  C17 UNL     1     150.243 159.492 157.805  0.00  0.00    +0.129 C 
ENDBRANCH  14  17
ENDBRANCH   1  11
BRANCH   1  20
ATOM     20  C18 UNL     1     151.922 157.420 164.984  0.00  0.00    -0.007 A 
ATOM     21  C19 UNL     1     150.972 156.447 164.643  0.00  0.00    +0.009 A 
ATOM     22  C20 UNL     1     150.815 155.279 165.410  0.00  0.00    +0.023 A 
ATOM     23  C21 UNL     1     151.574 155.026 166.563  0.00  0.00    +0.029 A 
ATOM     24  C22 UNL     1     152.521 156.009 166.892  0.00  0.00    +0.023 A 
ATOM     25  C23 UNL     1     152.687 157.179 166.133  0.00  0.00    +0.009 A 
BRANCH  23  26
ATOM     26  N3  UNL     1     151.424 153.851 167.313  0.00  0.00    -0.336 N 
ATOM     27  C24 UNL     1     152.492 153.457 168.227  0.00  0.00    +0.129 C 
ATOM     28  C25 UNL     1     150.630 152.757 166.758  0.00  0.00    +0.129 C 
ENDBRANCH  23  26
ENDBRANCH   1  20
BRANCH   1  29
ATOM     29  O1  UNL     1     153.527 158.941 164.084  0.00  0.00    -0.375 OA
ATOM     30  H11 UNL     1     153.661 159.803 163.661  0.00  0.00    +0.211 HD
ENDBRANCH   1  29
TORSDOF 7
ENDMDL
MODEL 6
REMARK VINA RESULT:    -3.144      3.121      9.002
REMARK INTER + INTRA:          -6.056
REMARK INTER:                  -5.177
REMARK INTRA:                  -0.879
REMARK UNBOUND:                -1.717
REMARK  Name = /home/vital/Documents/PhD_2021/Malaria_codes/data/pdb_ligands_mmv/ligand_1.pdb
REMARK  13 active torsions:
REMARK  status: ('A' for Active; 'I' for Inactive)
REMARK    1  A    between atoms: C1_1  and  N1_2
REMARK    2  A    between atoms: N1_2  and  C2_3
REMARK    3  A    between atoms: N1_2  and  C3_4
REMARK    4  A    between atoms: C6_7  and  C9_10
REMARK    5  A    between atoms: C9_10  and  O1_11
REMARK    6  A    between atoms: C9_10  and  C10_12
REMARK    7  A    between atoms: C9_10  and  C18_21
REMARK    8  A    between atoms: C13_15  and  N2_18
REMARK    9  A    between atoms: N2_18  and  C16_19
REMARK   10  A    between atoms: N2_18  and  C17_20
REMARK   11  A    between atoms: C21_24  and  N3_27
REMARK   12  A    between atoms: N3_27  and  C24_28
REMARK   13  A    between atoms: N3_27  and  C25_29
REMARK                            x       y       z     vdW  Elec       q    Type
REMARK                         _______ _______ _______ _____ _____    ______ ____
ROOT
ATOM      1  C9  UNL     1     151.499 155.876 161.399  0.00  0.00    +0.141 C 
ENDROOT
BRANCH   1   5
ATOM      2  C3  UNL     1     151.332 159.778 163.503  0.00  0.00    +0.029 A 
ATOM      3  C4  UNL     1     152.246 158.773 163.860  0.00  0.00    +0.023 A 
ATOM      4  C5  UNL     1     152.294 157.529 163.207  0.00  0.00    +0.009 A 
ATOM      5  C6  UNL     1     151.428 157.225 162.147  0.00  0.00    -0.007 A 
ATOM      6  C7  UNL     1     150.527 158.231 161.764  0.00  0.00    +0.009 A 
ATOM      7  C8  UNL     1     150.488 159.471 162.425  0.00  0.00    +0.023 A 
BRANCH   2   9
ATOM      8  C1  UNL     1     151.064 162.221 163.345  0.00  0.00    +0.129 C 
ATOM      9  N1  UNL     1     151.298 161.023 164.146  0.00  0.00    -0.336 N 
ATOM     10  C2  UNL     1     152.126 161.216 165.336  0.00  0.00    +0.129 C 
ENDBRANCH   2   9
ENDBRANCH   1   5
BRANCH   1  11
ATOM     11  C10 UNL     1     151.529 156.003 159.857  0.00  0.00    -0.007 A 
ATOM     12  C11 UNL     1     151.793 154.932 158.998  0.00  0.00    +0.009 A 
ATOM     13  C12 UNL     1     151.788 155.098 157.602  0.00  0.00    +0.023 A 
ATOM     14  C13 UNL     1     151.502 156.327 156.985  0.00  0.00    +0.029 A 
ATOM     15  C14 UNL     1     151.244 157.395 157.858  0.00  0.00    +0.023 A 
ATOM     16  C15 UNL     1     151.246 157.240 159.253  0.00  0.00    +0.009 A 
BRANCH  14  17
ATOM     17  N2  UNL     1     151.518 156.486 155.595  0.00  0.00    -0.336 N 
ATOM     18  C16 UNL     1     152.004 155.388 154.761  0.00  0.00    +0.129 C 
ATOM     19  C17 UNL     1     151.692 157.826 155.038  0.00  0.00    +0.129 C 
ENDBRANCH  14  17
ENDBRANCH   1  11
BRANCH   1  20
ATOM     20  C18 UNL     1     150.411 154.911 161.922  0.00  0.00    -0.007 A 
ATOM     21  C19 UNL     1     149.282 154.569 161.164  0.00  0.00    +0.009 A 
ATOM     22  C20 UNL     1     148.292 153.711 161.675  0.00  0.00    +0.023 A 
ATOM     23  C21 UNL     1     148.359 153.167 162.967  0.00  0.00    +0.029 A 
ATOM     24  C22 UNL     1     149.495 153.518 163.714  0.00  0.00    +0.023 A 
ATOM     25  C23 UNL     1     150.490 154.374 163.214  0.00  0.00    +0.009 A 
BRANCH  23  26
ATOM     26  N3  UNL     1     147.377 152.298 163.463  0.00  0.00    -0.336 N 
ATOM     27  C24 UNL     1     147.619 151.610 164.728  0.00  0.00    +0.129 C 
ATOM     28  C25 UNL     1     146.512 151.597 162.517  0.00  0.00    +0.129 C 
ENDBRANCH  23  26
ENDBRANCH   1  20
BRANCH   1  29
ATOM     29  O1  UNL     1     152.765 155.267 161.757  0.00  0.00    -0.375 OA
ATOM     30  H11 UNL     1     153.244 155.905 162.311  0.00  0.00    +0.211 HD
ENDBRANCH   1  29
TORSDOF 7
ENDMDL
