MODEL 1
REMARK VINA RESULT:     1.874      0.000      0.000
REMARK INTER + INTRA:           2.048
REMARK INTER:                   2.422
REMARK INTRA:                  -0.374
REMARK UNBOUND:                -0.374
REMARK  Name = /home/vital/Documents/PhD_2021/Malaria_codes/data/pdb_ligands_mmv/ligand_318.pdb
REMARK  6 active torsions:
REMARK  status: ('A' for Active; 'I' for Inactive)
REMARK    1  A    between atoms: C1_1  and  C2_2
REMARK    2  A    between atoms: C6_6  and  N1_8
REMARK    3  A    between atoms: C12_15  and  C37_45
REMARK    4  A    between atoms: C14_18  and  C31_39
REMARK    5  A    between atoms: C15_19  and  C24_30
REMARK    6  A    between atoms: C16_20  and  C17_21
REMARK                            x       y       z     vdW  Elec       q    Type
REMARK                         _______ _______ _______ _____ _____    ______ ____
ROOT
ATOM      1  N1  UNL     1     140.749 147.388 163.295  0.00  0.00    -0.210 N 
ATOM      2  C8  UNL     1     140.615 146.058 163.626  0.00  0.00    +0.232 C 
ATOM      3  O1  UNL     1     140.493 145.094 162.880  0.00  0.00    -0.274 OA
ATOM      4  C9  UNL     1     140.562 145.898 165.115  0.00  0.00    +0.111 C 
ATOM      5  C10 UNL     1     140.523 147.352 165.649  0.00  0.00    +0.111 C 
ATOM      6  C11 UNL     1     140.598 148.195 164.403  0.00  0.00    +0.232 C 
ATOM      7  O2  UNL     1     140.520 149.414 164.452  0.00  0.00    -0.274 OA
ATOM      8  C12 UNL     1     141.744 147.473 166.608  0.00  0.00    +0.093 C 
ATOM      9  C13 UNL     1     141.702 146.016 167.034  0.00  0.00    +0.164 C 
ATOM     10  O3  UNL     1     141.534 145.543 168.147  0.00  0.00    -0.295 OA
ATOM     11  C14 UNL     1     141.830 145.246 165.735  0.00  0.00    +0.093 C 
ATOM     12  C15 UNL     1     143.108 145.998 165.343  0.00  0.00    -0.017 C 
ATOM     13  C16 UNL     1     143.055 147.262 165.833  0.00  0.00    -0.017 C 
ENDROOT
BRANCH  13  14
ATOM     14  C17 UNL     1     144.065 148.305 165.634  0.00  0.00    -0.017 A 
ATOM     15  C18 UNL     1     144.274 148.862 164.352  0.00  0.00    +0.012 A 
ATOM     16  C19 UNL     1     145.226 149.866 164.151  0.00  0.00    +0.050 A 
ATOM     17  C20 UNL     1     145.941 150.301 165.245  0.00  0.00    +0.166 A 
ATOM     18  O4  UNL     1     146.895 151.270 165.240  0.00  0.00    -0.453 OA
ATOM     19  C21 UNL     1     147.259 151.300 166.635  0.00  0.00    +0.466 C 
ATOM     20  O5  UNL     1     146.535 150.346 167.438  0.00  0.00    -0.453 OA
ATOM     21  C22 UNL     1     145.736 149.774 166.497  0.00  0.00    +0.167 A 
ATOM     22  C23 UNL     1     144.809 148.778 166.726  0.00  0.00    +0.057 A 
ENDBRANCH  13  14
BRANCH  12  23
ATOM     23  C24 UNL     1     144.196 145.385 164.562  0.00  0.00    -0.017 A 
ATOM     24  C25 UNL     1     145.482 145.976 164.555  0.00  0.00    +0.012 A 
ATOM     25  C26 UNL     1     146.543 145.416 163.835  0.00  0.00    +0.050 A 
ATOM     26  C27 UNL     1     146.296 144.260 163.133  0.00  0.00    +0.166 A 
ATOM     27  O6  UNL     1     147.198 143.574 162.383  0.00  0.00    -0.453 OA
ATOM     28  C28 UNL     1     146.386 142.472 161.925  0.00  0.00    +0.466 C 
ATOM     29  O7  UNL     1     145.022 142.533 162.388  0.00  0.00    -0.453 OA
ATOM     30  C29 UNL     1     145.058 143.667 163.139  0.00  0.00    +0.167 A 
ATOM     31  C30 UNL     1     143.996 144.197 163.845  0.00  0.00    +0.057 A 
ENDBRANCH  12  23
BRANCH   1  37
ATOM     32  C1  UNL     1     142.424 150.861 160.091  0.00  0.00    +0.044 C 
ATOM     33  C2  UNL     1     141.744 149.548 160.353  0.00  0.00    -0.049 A 
ATOM     34  C3  UNL     1     141.318 148.758 159.287  0.00  0.00    +0.003 A 
ATOM     35  C4  UNL     1     140.701 147.538 159.535  0.00  0.00    +0.002 A 
ATOM     36  C5  UNL     1     140.509 147.099 160.850  0.00  0.00    +0.024 A 
ATOM     37  C6  UNL     1     140.932 147.861 161.953  0.00  0.00    +0.044 A 
ATOM     38  C7  UNL     1     141.562 149.086 161.671  0.00  0.00    +0.027 A 
ENDBRANCH   1  37
BRANCH  11  39
ATOM     39  C31 UNL     1     141.914 143.743 165.895  0.00  0.00    -0.029 A 
ATOM     40  C32 UNL     1     141.003 142.898 165.233  0.00  0.00    +0.005 A 
ATOM     41  C33 UNL     1     141.047 141.511 165.388  0.00  0.00    +0.000 A 
ATOM     42  C34 UNL     1     142.006 140.934 166.212  0.00  0.00    +0.000 A 
ATOM     43  C35 UNL     1     142.919 141.746 166.878  0.00  0.00    +0.000 A 
ATOM     44  C36 UNL     1     142.873 143.135 166.722  0.00  0.00    +0.005 A 
ENDBRANCH  11  39
BRANCH   8  45
ATOM     45  C37 UNL     1     141.658 148.567 167.655  0.00  0.00    -0.029 A 
ATOM     46  C38 UNL     1     140.618 149.515 167.591  0.00  0.00    +0.005 A 
ATOM     47  C39 UNL     1     140.491 150.543 168.531  0.00  0.00    +0.000 A 
ATOM     48  C40 UNL     1     141.400 150.648 169.574  0.00  0.00    +0.000 A 
ATOM     49  C41 UNL     1     142.435 149.726 169.670  0.00  0.00    +0.000 A 
ATOM     50  C42 UNL     1     142.560 148.701 168.723  0.00  0.00    +0.005 A 
ENDBRANCH   8  45
TORSDOF 5
ENDMDL
