MODEL 1
REMARK VINA RESULT:    -4.098      0.000      0.000
REMARK INTER + INTRA:          -5.998
REMARK INTER:                  -5.535
REMARK INTRA:                  -0.463
REMARK UNBOUND:                -0.463
REMARK  Name = /home/vital/Documents/PhD_2021/Malaria_codes/data/pdb_ligands_mmv/ligand_45.pdb
REMARK  8 active torsions:
REMARK  status: ('A' for Active; 'I' for Inactive)
REMARK    1  A    between atoms: C2_2  and  N2_6
REMARK    2  A    between atoms: N2_6  and  C5_7
REMARK    3  A    between atoms: C5_7  and  C6_8
REMARK    4  A    between atoms: C6_8  and  N3_9
REMARK    5  A    between atoms: N3_9  and  C7_10
REMARK    6  A    between atoms: N3_9  and  C9_12
REMARK    7  A    between atoms: C7_10  and  C8_11
REMARK    8  A    between atoms: C9_12  and  C10_13
REMARK                            x       y       z     vdW  Elec       q    Type
REMARK                         _______ _______ _______ _____ _____    ______ ____
ROOT
ATOM      1  C1  UNL     1     152.193 157.291 155.146  0.00  0.00    +0.021 A 
ATOM      2  C2  UNL     1     151.746 157.825 156.391  0.00  0.00    +0.038 A 
ATOM      3  C3  UNL     1     151.477 156.927 157.425  0.00  0.00    +0.043 A 
ATOM      4  C4  UNL     1     151.577 155.570 157.184  0.00  0.00    +0.113 A 
ATOM      5  N1  UNL     1     151.944 155.039 156.003  0.00  0.00    -0.255 NA
ATOM      6  C11 UNL     1     152.586 158.087 154.041  0.00  0.00    +0.013 A 
ATOM      7  C12 UNL     1     153.001 157.511 152.841  0.00  0.00    +0.021 A 
ATOM      8  C13 UNL     1     153.034 156.130 152.729  0.00  0.00    +0.043 A 
ATOM      9 CL1  UNL     1     153.542 155.404 151.255  0.00  0.00    -0.083 Cl
ATOM     10  C14 UNL     1     152.667 155.328 153.807  0.00  0.00    +0.048 A 
ATOM     11  C15 UNL     1     152.256 155.882 155.011  0.00  0.00    +0.074 A 
ENDROOT
BRANCH   2  12
ATOM     12  N2  UNL     1     151.682 159.222 156.569  0.00  0.00    -0.342 N 
ATOM     13  H3  UNL     1     151.097 159.643 155.851  0.00  0.00    +0.146 HD
BRANCH  12  14
ATOM     14  C5  UNL     1     151.435 159.826 157.883  0.00  0.00    +0.117 C 
BRANCH  14  15
ATOM     15  C6  UNL     1     152.751 160.057 158.655  0.00  0.00    +0.103 C 
BRANCH  15  16
ATOM     16  N3  UNL     1     152.604 160.109 160.126  0.00  0.00    -0.301 NA
BRANCH  16  17
ATOM     17  C7  UNL     1     152.418 161.493 160.597  0.00  0.00    +0.081 C 
ATOM     18  C8  UNL     1     151.800 161.659 161.984  0.00  0.00    +0.020 C 
ENDBRANCH  16  17
BRANCH  16  19
ATOM     19  C9  UNL     1     151.559 159.209 160.639  0.00  0.00    +0.081 C 
ATOM     20  C10 UNL     1     152.174 157.938 161.214  0.00  0.00    +0.020 C 
ENDBRANCH  16  19
ENDBRANCH  15  16
ENDBRANCH  14  15
ENDBRANCH  12  14
ENDBRANCH   2  12
TORSDOF 6
ENDMDL
MODEL 2
REMARK VINA RESULT:    -4.091      2.722      4.238
REMARK INTER + INTRA:          -5.990
REMARK INTER:                  -5.503
REMARK INTRA:                  -0.486
REMARK UNBOUND:                -0.463
REMARK  Name = /home/vital/Documents/PhD_2021/Malaria_codes/data/pdb_ligands_mmv/ligand_45.pdb
REMARK  8 active torsions:
REMARK  status: ('A' for Active; 'I' for Inactive)
REMARK    1  A    between atoms: C2_2  and  N2_6
REMARK    2  A    between atoms: N2_6  and  C5_7
REMARK    3  A    between atoms: C5_7  and  C6_8
REMARK    4  A    between atoms: C6_8  and  N3_9
REMARK    5  A    between atoms: N3_9  and  C7_10
REMARK    6  A    between atoms: N3_9  and  C9_12
REMARK    7  A    between atoms: C7_10  and  C8_11
REMARK    8  A    between atoms: C9_12  and  C10_13
REMARK                            x       y       z     vdW  Elec       q    Type
REMARK                         _______ _______ _______ _____ _____    ______ ____
ROOT
ATOM      1  C1  UNL     1     151.312 156.712 156.110  0.00  0.00    +0.021 A 
ATOM      2  C2  UNL     1     150.578 156.743 157.332  0.00  0.00    +0.038 A 
ATOM      3  C3  UNL     1     150.119 157.981 157.784  0.00  0.00    +0.043 A 
ATOM      4  C4  UNL     1     150.454 159.123 157.081  0.00  0.00    +0.113 A 
ATOM      5  N1  UNL     1     151.190 159.126 155.955  0.00  0.00    -0.255 NA
ATOM      6  C11 UNL     1     151.761 155.519 155.489  0.00  0.00    +0.013 A 
ATOM      7  C12 UNL     1     152.489 155.548 154.300  0.00  0.00    +0.021 A 
ATOM      8  C13 UNL     1     152.774 156.770 153.711  0.00  0.00    +0.043 A 
ATOM      9 CL1  UNL     1     153.673 156.823 152.245  0.00  0.00    -0.083 Cl
ATOM     10  C14 UNL     1     152.329 157.953 154.294  0.00  0.00    +0.048 A 
ATOM     11  C15 UNL     1     151.600 157.945 155.475  0.00  0.00    +0.074 A 
ENDROOT
BRANCH   2  12
ATOM     12  N2  UNL     1     150.260 155.536 157.987  0.00  0.00    -0.342 N 
ATOM     13  H3  UNL     1     150.346 154.752 157.344  0.00  0.00    +0.146 HD
BRANCH  12  14
ATOM     14  C5  UNL     1     150.802 155.205 159.310  0.00  0.00    +0.117 C 
BRANCH  14  15
ATOM     15  C6  UNL     1     149.711 154.626 160.237  0.00  0.00    +0.103 C 
BRANCH  15  16
ATOM     16  N3  UNL     1     149.536 155.354 161.513  0.00  0.00    -0.301 NA
BRANCH  16  17
ATOM     17  C7  UNL     1     149.772 154.470 162.670  0.00  0.00    +0.081 C 
ATOM     18  C8  UNL     1     148.618 153.550 163.065  0.00  0.00    +0.020 C 
ENDBRANCH  16  17
BRANCH  16  19
ATOM     19  C9  UNL     1     150.330 156.588 161.593  0.00  0.00    +0.081 C 
ATOM     20  C10 UNL     1     151.082 156.663 162.918  0.00  0.00    +0.020 C 
ENDBRANCH  16  19
ENDBRANCH  15  16
ENDBRANCH  14  15
ENDBRANCH  12  14
ENDBRANCH   2  12
TORSDOF 6
ENDMDL
MODEL 3
REMARK VINA RESULT:    -4.029      3.519      7.404
REMARK INTER + INTRA:          -5.906
REMARK INTER:                  -5.489
REMARK INTRA:                  -0.417
REMARK UNBOUND:                -0.463
REMARK  Name = /home/vital/Documents/PhD_2021/Malaria_codes/data/pdb_ligands_mmv/ligand_45.pdb
REMARK  8 active torsions:
REMARK  status: ('A' for Active; 'I' for Inactive)
REMARK    1  A    between atoms: C2_2  and  N2_6
REMARK    2  A    between atoms: N2_6  and  C5_7
REMARK    3  A    between atoms: C5_7  and  C6_8
REMARK    4  A    between atoms: C6_8  and  N3_9
REMARK    5  A    between atoms: N3_9  and  C7_10
REMARK    6  A    between atoms: N3_9  and  C9_12
REMARK    7  A    between atoms: C7_10  and  C8_11
REMARK    8  A    between atoms: C9_12  and  C10_13
REMARK                            x       y       z     vdW  Elec       q    Type
REMARK                         _______ _______ _______ _____ _____    ______ ____
ROOT
ATOM      1  C1  UNL     1     150.809 156.775 158.204  0.00  0.00    +0.021 A 
ATOM      2  C2  UNL     1     150.900 157.039 156.806  0.00  0.00    +0.038 A 
ATOM      3  C3  UNL     1     150.613 158.333 156.369  0.00  0.00    +0.043 A 
ATOM      4  C4  UNL     1     150.183 159.275 157.284  0.00  0.00    +0.113 A 
ATOM      5  N1  UNL     1     150.037 159.036 158.600  0.00  0.00    -0.255 NA
ATOM      6  C11 UNL     1     151.157 155.535 158.797  0.00  0.00    +0.013 A 
ATOM      7  C12 UNL     1     151.034 155.325 160.170  0.00  0.00    +0.021 A 
ATOM      8  C13 UNL     1     150.567 156.355 160.972  0.00  0.00    +0.043 A 
ATOM      9 CL1  UNL     1     150.409 156.112 162.668  0.00  0.00    -0.083 Cl
ATOM     10  C14 UNL     1     150.236 157.586 160.414  0.00  0.00    +0.048 A 
ATOM     11  C15 UNL     1     150.355 157.816 159.051  0.00  0.00    +0.074 A 
ENDROOT
BRANCH   2  12
ATOM     12  N2  UNL     1     151.360 156.033 155.933  0.00  0.00    -0.342 N 
ATOM     13  H3  UNL     1     150.594 155.682 155.362  0.00  0.00    +0.146 HD
BRANCH  12  14
ATOM     14  C5  UNL     1     152.586 156.193 155.142  0.00  0.00    +0.117 C 
BRANCH  14  15
ATOM     15  C6  UNL     1     152.533 155.360 153.844  0.00  0.00    +0.103 C 
BRANCH  15  16
ATOM     16  N3  UNL     1     152.520 156.159 152.598  0.00  0.00    -0.301 NA
BRANCH  16  17
ATOM     17  C7  UNL     1     153.882 156.573 152.214  0.00  0.00    +0.081 C 
ATOM     18  C8  UNL     1     154.803 155.470 151.695  0.00  0.00    +0.020 C 
ENDBRANCH  16  17
BRANCH  16  19
ATOM     19  C9  UNL     1     151.814 155.498 151.491  0.00  0.00    +0.081 C 
ATOM     20  C10 UNL     1     150.820 154.469 152.019  0.00  0.00    +0.020 C 
ENDBRANCH  16  19
ENDBRANCH  15  16
ENDBRANCH  14  15
ENDBRANCH  12  14
ENDBRANCH   2  12
TORSDOF 6
ENDMDL
MODEL 4
REMARK VINA RESULT:    -3.861      1.828      3.207
REMARK INTER + INTRA:          -5.678
REMARK INTER:                  -5.151
REMARK INTRA:                  -0.527
REMARK UNBOUND:                -0.463
REMARK  Name = /home/vital/Documents/PhD_2021/Malaria_codes/data/pdb_ligands_mmv/ligand_45.pdb
REMARK  8 active torsions:
REMARK  status: ('A' for Active; 'I' for Inactive)
REMARK    1  A    between atoms: C2_2  and  N2_6
REMARK    2  A    between atoms: N2_6  and  C5_7
REMARK    3  A    between atoms: C5_7  and  C6_8
REMARK    4  A    between atoms: C6_8  and  N3_9
REMARK    5  A    between atoms: N3_9  and  C7_10
REMARK    6  A    between atoms: N3_9  and  C9_12
REMARK    7  A    between atoms: C7_10  and  C8_11
REMARK    8  A    between atoms: C9_12  and  C10_13
REMARK                            x       y       z     vdW  Elec       q    Type
REMARK                         _______ _______ _______ _____ _____    ______ ____
ROOT
ATOM      1  C1  UNL     1     151.443 156.794 156.056  0.00  0.00    +0.021 A 
ATOM      2  C2  UNL     1     150.680 156.865 157.260  0.00  0.00    +0.038 A 
ATOM      3  C3  UNL     1     150.216 158.118 157.662  0.00  0.00    +0.043 A 
ATOM      4  C4  UNL     1     150.571 159.236 156.933  0.00  0.00    +0.113 A 
ATOM      5  N1  UNL     1     151.334 159.203 155.825  0.00  0.00    -0.255 NA
ATOM      6  C11 UNL     1     151.901 155.582 155.482  0.00  0.00    +0.013 A 
ATOM      7  C12 UNL     1     152.657 155.572 154.311  0.00  0.00    +0.021 A 
ATOM      8  C13 UNL     1     152.961 156.775 153.691  0.00  0.00    +0.043 A 
ATOM      9 CL1  UNL     1     153.893 156.780 152.246  0.00  0.00    -0.083 Cl
ATOM     10  C14 UNL     1     152.506 157.976 154.228  0.00  0.00    +0.048 A 
ATOM     11  C15 UNL     1     151.750 158.007 155.390  0.00  0.00    +0.074 A 
ENDROOT
BRANCH   2  12
ATOM     12  N2  UNL     1     150.343 155.679 157.943  0.00  0.00    -0.342 N 
ATOM     13  H3  UNL     1     150.197 154.919 157.281  0.00  0.00    +0.146 HD
BRANCH  12  14
ATOM     14  C5  UNL     1     151.087 155.225 159.124  0.00  0.00    +0.117 C 
BRANCH  14  15
ATOM     15  C6  UNL     1     150.448 155.746 160.428  0.00  0.00    +0.103 C 
BRANCH  15  16
ATOM     16  N3  UNL     1     151.175 156.864 161.069  0.00  0.00    -0.301 NA
BRANCH  16  17
ATOM     17  C7  UNL     1     150.249 157.924 161.508  0.00  0.00    +0.081 C 
ATOM     18  C8  UNL     1     150.688 159.361 161.234  0.00  0.00    +0.020 C 
ENDBRANCH  16  17
BRANCH  16  19
ATOM     19  C9  UNL     1     152.068 156.431 162.153  0.00  0.00    +0.081 C 
ATOM     20  C10 UNL     1     151.268 156.043 163.392  0.00  0.00    +0.020 C 
ENDBRANCH  16  19
ENDBRANCH  15  16
ENDBRANCH  14  15
ENDBRANCH  12  14
ENDBRANCH   2  12
TORSDOF 6
ENDMDL
MODEL 5
REMARK VINA RESULT:    -3.765      3.044      6.774
REMARK INTER + INTRA:          -5.548
REMARK INTER:                  -4.880
REMARK INTRA:                  -0.668
REMARK UNBOUND:                -0.463
REMARK  Name = /home/vital/Documents/PhD_2021/Malaria_codes/data/pdb_ligands_mmv/ligand_45.pdb
REMARK  8 active torsions:
REMARK  status: ('A' for Active; 'I' for Inactive)
REMARK    1  A    between atoms: C2_2  and  N2_6
REMARK    2  A    between atoms: N2_6  and  C5_7
REMARK    3  A    between atoms: C5_7  and  C6_8
REMARK    4  A    between atoms: C6_8  and  N3_9
REMARK    5  A    between atoms: N3_9  and  C7_10
REMARK    6  A    between atoms: N3_9  and  C9_12
REMARK    7  A    between atoms: C7_10  and  C8_11
REMARK    8  A    between atoms: C9_12  and  C10_13
REMARK                            x       y       z     vdW  Elec       q    Type
REMARK                         _______ _______ _______ _____ _____    ______ ____
ROOT
ATOM      1  C1  UNL     1     151.392 158.185 159.396  0.00  0.00    +0.021 A 
ATOM      2  C2  UNL     1     151.451 159.094 158.299  0.00  0.00    +0.038 A 
ATOM      3  C3  UNL     1     152.164 160.280 158.475  0.00  0.00    +0.043 A 
ATOM      4  C4  UNL     1     152.712 160.561 159.713  0.00  0.00    +0.113 A 
ATOM      5  N1  UNL     1     152.624 159.746 160.779  0.00  0.00    -0.255 NA
ATOM      6  C11 UNL     1     150.781 156.907 159.331  0.00  0.00    +0.013 A 
ATOM      7  C12 UNL     1     150.738 156.064 160.440  0.00  0.00    +0.021 A 
ATOM      8  C13 UNL     1     151.311 156.483 161.631  0.00  0.00    +0.043 A 
ATOM      9 CL1  UNL     1     151.265 155.455 163.010  0.00  0.00    -0.083 Cl
ATOM     10  C14 UNL     1     151.931 157.727 161.714  0.00  0.00    +0.048 A 
ATOM     11  C15 UNL     1     151.988 158.578 160.620  0.00  0.00    +0.074 A 
ENDROOT
BRANCH   2  12
ATOM     12  N2  UNL     1     150.882 158.733 157.061  0.00  0.00    -0.342 N 
ATOM     13  H3  UNL     1     149.938 159.106 156.984  0.00  0.00    +0.146 HD
BRANCH  12  14
ATOM     14  C5  UNL     1     151.617 158.872 155.798  0.00  0.00    +0.117 C 
BRANCH  14  15
ATOM     15  C6  UNL     1     152.626 157.720 155.603  0.00  0.00    +0.103 C 
BRANCH  15  16
ATOM     16  N3  UNL     1     152.119 156.586 154.800  0.00  0.00    -0.301 NA
BRANCH  16  17
ATOM     17  C7  UNL     1     153.086 156.194 153.758  0.00  0.00    +0.081 C 
ATOM     18  C8  UNL     1     153.298 157.193 152.622  0.00  0.00    +0.020 C 
ENDBRANCH  16  17
BRANCH  16  19
ATOM     19  C9  UNL     1     151.694 155.439 155.616  0.00  0.00    +0.081 C 
ATOM     20  C10 UNL     1     150.193 155.485 155.875  0.00  0.00    +0.020 C 
ENDBRANCH  16  19
ENDBRANCH  15  16
ENDBRANCH  14  15
ENDBRANCH  12  14
ENDBRANCH   2  12
TORSDOF 6
ENDMDL
MODEL 6
REMARK VINA RESULT:    -3.637      3.158      4.415
REMARK INTER + INTRA:          -5.376
REMARK INTER:                  -4.886
REMARK INTRA:                  -0.489
REMARK UNBOUND:                -0.463
REMARK  Name = /home/vital/Documents/PhD_2021/Malaria_codes/data/pdb_ligands_mmv/ligand_45.pdb
REMARK  8 active torsions:
REMARK  status: ('A' for Active; 'I' for Inactive)
REMARK    1  A    between atoms: C2_2  and  N2_6
REMARK    2  A    between atoms: N2_6  and  C5_7
REMARK    3  A    between atoms: C5_7  and  C6_8
REMARK    4  A    between atoms: C6_8  and  N3_9
REMARK    5  A    between atoms: N3_9  and  C7_10
REMARK    6  A    between atoms: N3_9  and  C9_12
REMARK    7  A    between atoms: C7_10  and  C8_11
REMARK    8  A    between atoms: C9_12  and  C10_13
REMARK                            x       y       z     vdW  Elec       q    Type
REMARK                         _______ _______ _______ _____ _____    ______ ____
ROOT
ATOM      1  C1  UNL     1     150.442 157.605 159.337  0.00  0.00    +0.021 A 
ATOM      2  C2  UNL     1     150.285 158.206 160.621  0.00  0.00    +0.038 A 
ATOM      3  C3  UNL     1     150.764 157.505 161.729  0.00  0.00    +0.043 A 
ATOM      4  C4  UNL     1     151.293 156.241 161.552  0.00  0.00    +0.113 A 
ATOM      5  N1  UNL     1     151.402 155.630 160.358  0.00  0.00    -0.255 NA
ATOM      6  C11 UNL     1     150.084 158.239 158.120  0.00  0.00    +0.013 A 
ATOM      7  C12 UNL     1     150.245 157.598 156.892  0.00  0.00    +0.021 A 
ATOM      8  C13 UNL     1     150.770 156.316 156.862  0.00  0.00    +0.043 A 
ATOM      9 CL1  UNL     1     150.973 155.511 155.355  0.00  0.00    -0.083 Cl
ATOM     10  C14 UNL     1     151.144 155.681 158.043  0.00  0.00    +0.048 A 
ATOM     11  C15 UNL     1     150.996 156.303 159.274  0.00  0.00    +0.074 A 
ENDROOT
BRANCH   2  12
ATOM     12  N2  UNL     1     149.750 159.506 160.724  0.00  0.00    -0.342 N 
ATOM     13  H3  UNL     1     148.902 159.495 161.286  0.00  0.00    +0.146 HD
BRANCH  12  14
ATOM     14  C5  UNL     1     150.589 160.667 161.043  0.00  0.00    +0.117 C 
BRANCH  14  15
ATOM     15  C6  UNL     1     150.098 161.384 162.319  0.00  0.00    +0.103 C 
BRANCH  15  16
ATOM     16  N3  UNL     1     151.168 161.744 163.275  0.00  0.00    -0.301 NA
BRANCH  16  17
ATOM     17  C7  UNL     1     150.715 162.781 164.219  0.00  0.00    +0.081 C 
ATOM     18  C8  UNL     1     149.306 162.612 164.785  0.00  0.00    +0.020 C 
ENDBRANCH  16  17
BRANCH  16  19
ATOM     19  C9  UNL     1     151.744 160.583 163.968  0.00  0.00    +0.081 C 
ATOM     20  C10 UNL     1     152.932 161.000 164.828  0.00  0.00    +0.020 C 
ENDBRANCH  16  19
ENDBRANCH  15  16
ENDBRANCH  14  15
ENDBRANCH  12  14
ENDBRANCH   2  12
TORSDOF 6
ENDMDL
MODEL 7
REMARK VINA RESULT:    -3.592      3.163      4.557
REMARK INTER + INTRA:          -5.315
REMARK INTER:                  -4.632
REMARK INTRA:                  -0.684
REMARK UNBOUND:                -0.463
REMARK  Name = /home/vital/Documents/PhD_2021/Malaria_codes/data/pdb_ligands_mmv/ligand_45.pdb
REMARK  8 active torsions:
REMARK  status: ('A' for Active; 'I' for Inactive)
REMARK    1  A    between atoms: C2_2  and  N2_6
REMARK    2  A    between atoms: N2_6  and  C5_7
REMARK    3  A    between atoms: C5_7  and  C6_8
REMARK    4  A    between atoms: C6_8  and  N3_9
REMARK    5  A    between atoms: N3_9  and  C7_10
REMARK    6  A    between atoms: N3_9  and  C9_12
REMARK    7  A    between atoms: C7_10  and  C8_11
REMARK    8  A    between atoms: C9_12  and  C10_13
REMARK                            x       y       z     vdW  Elec       q    Type
REMARK                         _______ _______ _______ _____ _____    ______ ____
ROOT
ATOM      1  C1  UNL     1     150.435 157.604 159.348  0.00  0.00    +0.021 A 
ATOM      2  C2  UNL     1     150.267 158.207 160.630  0.00  0.00    +0.038 A 
ATOM      3  C3  UNL     1     150.725 157.503 161.744  0.00  0.00    +0.043 A 
ATOM      4  C4  UNL     1     151.244 156.234 161.575  0.00  0.00    +0.113 A 
ATOM      5  N1  UNL     1     151.363 155.621 160.383  0.00  0.00    -0.255 NA
ATOM      6  C11 UNL     1     150.100 158.240 158.127  0.00  0.00    +0.013 A 
ATOM      7  C12 UNL     1     150.270 157.597 156.901  0.00  0.00    +0.021 A 
ATOM      8  C13 UNL     1     150.784 156.310 156.878  0.00  0.00    +0.043 A 
ATOM      9 CL1  UNL     1     150.999 155.502 155.375  0.00  0.00    -0.083 Cl
ATOM     10  C14 UNL     1     151.136 155.672 158.065  0.00  0.00    +0.048 A 
ATOM     11  C15 UNL     1     150.978 156.297 159.293  0.00  0.00    +0.074 A 
ENDROOT
BRANCH   2  12
ATOM     12  N2  UNL     1     149.744 159.512 160.725  0.00  0.00    -0.342 N 
ATOM     13  H3  UNL     1     148.893 159.512 161.284  0.00  0.00    +0.146 HD
BRANCH  12  14
ATOM     14  C5  UNL     1     150.591 160.668 161.041  0.00  0.00    +0.117 C 
BRANCH  14  15
ATOM     15  C6  UNL     1     150.048 161.450 162.256  0.00  0.00    +0.103 C 
BRANCH  15  16
ATOM     16  N3  UNL     1     150.435 160.894 163.571  0.00  0.00    -0.301 NA
BRANCH  16  17
ATOM     17  C7  UNL     1     151.899 160.771 163.690  0.00  0.00    +0.081 C 
ATOM     18  C8  UNL     1     152.413 159.622 164.556  0.00  0.00    +0.020 C 
ENDBRANCH  16  17
BRANCH  16  19
ATOM     19  C9  UNL     1     149.851 161.623 164.706  0.00  0.00    +0.081 C 
ATOM     20  C10 UNL     1     150.287 163.084 164.693  0.00  0.00    +0.020 C 
ENDBRANCH  16  19
ENDBRANCH  15  16
ENDBRANCH  14  15
ENDBRANCH  12  14
ENDBRANCH   2  12
TORSDOF 6
ENDMDL
MODEL 8
REMARK VINA RESULT:    -3.555     15.960     17.934
REMARK INTER + INTRA:          -5.265
REMARK INTER:                  -3.972
REMARK INTRA:                  -1.293
REMARK UNBOUND:                -0.463
REMARK  Name = /home/vital/Documents/PhD_2021/Malaria_codes/data/pdb_ligands_mmv/ligand_45.pdb
REMARK  8 active torsions:
REMARK  status: ('A' for Active; 'I' for Inactive)
REMARK    1  A    between atoms: C2_2  and  N2_6
REMARK    2  A    between atoms: N2_6  and  C5_7
REMARK    3  A    between atoms: C5_7  and  C6_8
REMARK    4  A    between atoms: C6_8  and  N3_9
REMARK    5  A    between atoms: N3_9  and  C7_10
REMARK    6  A    between atoms: N3_9  and  C9_12
REMARK    7  A    between atoms: C7_10  and  C8_11
REMARK    8  A    between atoms: C9_12  and  C10_13
REMARK                            x       y       z     vdW  Elec       q    Type
REMARK                         _______ _______ _______ _____ _____    ______ ____
ROOT
ATOM      1  C1  UNL     1     145.010 144.313 165.521  0.00  0.00    +0.021 A 
ATOM      2  C2  UNL     1     144.844 145.549 166.213  0.00  0.00    +0.038 A 
ATOM      3  C3  UNL     1     145.085 146.728 165.506  0.00  0.00    +0.043 A 
ATOM      4  C4  UNL     1     145.544 146.653 164.204  0.00  0.00    +0.113 A 
ATOM      5  N1  UNL     1     145.760 145.499 163.547  0.00  0.00    -0.255 NA
ATOM      6  C11 UNL     1     144.715 143.047 166.086  0.00  0.00    +0.013 A 
ATOM      7  C12 UNL     1     144.911 141.868 165.368  0.00  0.00    +0.021 A 
ATOM      8  C13 UNL     1     145.399 141.937 164.073  0.00  0.00    +0.043 A 
ATOM      9 CL1  UNL     1     145.647 140.491 163.174  0.00  0.00    -0.083 Cl
ATOM     10  C14 UNL     1     145.679 143.171 163.492  0.00  0.00    +0.048 A 
ATOM     11  C15 UNL     1     145.487 144.356 164.188  0.00  0.00    +0.074 A 
ENDROOT
BRANCH   2  12
ATOM     12  N2  UNL     1     144.358 145.550 167.536  0.00  0.00    -0.342 N 
ATOM     13  H3  UNL     1     145.129 145.623 168.196  0.00  0.00    +0.146 HD
BRANCH  12  14
ATOM     14  C5  UNL     1     143.222 146.385 167.946  0.00  0.00    +0.117 C 
BRANCH  14  15
ATOM     15  C6  UNL     1     141.890 145.836 167.394  0.00  0.00    +0.103 C 
BRANCH  15  16
ATOM     16  N3  UNL     1     141.099 146.809 166.609  0.00  0.00    -0.301 NA
BRANCH  16  17
ATOM     17  C7  UNL     1     141.414 148.194 167.000  0.00  0.00    +0.081 C 
ATOM     18  C8  UNL     1     141.424 149.229 165.876  0.00  0.00    +0.020 C 
ENDBRANCH  16  17
BRANCH  16  19
ATOM     19  C9  UNL     1     141.207 146.610 165.156  0.00  0.00    +0.081 C 
ATOM     20  C10 UNL     1     141.208 145.124 164.812  0.00  0.00    +0.020 C 
ENDBRANCH  16  19
ENDBRANCH  15  16
ENDBRANCH  14  15
ENDBRANCH  12  14
ENDBRANCH   2  12
TORSDOF 6
ENDMDL
MODEL 9
REMARK VINA RESULT:    -3.497      2.897      4.763
REMARK INTER + INTRA:          -5.186
REMARK INTER:                  -4.496
REMARK INTRA:                  -0.691
REMARK UNBOUND:                -0.463
REMARK  Name = /home/vital/Documents/PhD_2021/Malaria_codes/data/pdb_ligands_mmv/ligand_45.pdb
REMARK  8 active torsions:
REMARK  status: ('A' for Active; 'I' for Inactive)
REMARK    1  A    between atoms: C2_2  and  N2_6
REMARK    2  A    between atoms: N2_6  and  C5_7
REMARK    3  A    between atoms: C5_7  and  C6_8
REMARK    4  A    between atoms: C6_8  and  N3_9
REMARK    5  A    between atoms: N3_9  and  C7_10
REMARK    6  A    between atoms: N3_9  and  C9_12
REMARK    7  A    between atoms: C7_10  and  C8_11
REMARK    8  A    between atoms: C9_12  and  C10_13
REMARK                            x       y       z     vdW  Elec       q    Type
REMARK                         _______ _______ _______ _____ _____    ______ ____
ROOT
ATOM      1  C1  UNL     1     151.148 157.603 157.980  0.00  0.00    +0.021 A 
ATOM      2  C2  UNL     1     150.704 158.366 159.101  0.00  0.00    +0.038 A 
ATOM      3  C3  UNL     1     150.870 159.751 159.051  0.00  0.00    +0.043 A 
ATOM      4  C4  UNL     1     151.519 160.315 157.968  0.00  0.00    +0.113 A 
ATOM      5  N1  UNL     1     151.994 159.612 156.925  0.00  0.00    -0.255 NA
ATOM      6  C11 UNL     1     150.963 156.203 157.856  0.00  0.00    +0.013 A 
ATOM      7  C12 UNL     1     151.431 155.504 156.745  0.00  0.00    +0.021 A 
ATOM      8  C13 UNL     1     152.086 156.195 155.737  0.00  0.00    +0.043 A 
ATOM      9 CL1  UNL     1     152.671 155.346 154.360  0.00  0.00    -0.083 Cl
ATOM     10  C14 UNL     1     152.264 157.572 155.830  0.00  0.00    +0.048 A 
ATOM     11  C15 UNL     1     151.802 158.287 156.926  0.00  0.00    +0.074 A 
ENDROOT
BRANCH   2  12
ATOM     12  N2  UNL     1     150.037 157.725 160.163  0.00  0.00    -0.342 N 
ATOM     13  H3  UNL     1     149.881 156.743 159.941  0.00  0.00    +0.146 HD
BRANCH  12  14
ATOM     14  C5  UNL     1     150.454 157.897 161.560  0.00  0.00    +0.117 C 
BRANCH  14  15
ATOM     15  C6  UNL     1     151.038 156.592 162.139  0.00  0.00    +0.103 C 
BRANCH  15  16
ATOM     16  N3  UNL     1     150.032 155.653 162.683  0.00  0.00    -0.301 NA
BRANCH  16  17
ATOM     17  C7  UNL     1     150.041 154.375 161.948  0.00  0.00    +0.081 C 
ATOM     18  C8  UNL     1     149.047 154.251 160.795  0.00  0.00    +0.020 C 
ENDBRANCH  16  17
BRANCH  16  19
ATOM     19  C9  UNL     1     150.147 155.454 164.135  0.00  0.00    +0.081 C 
ATOM     20  C10 UNL     1     150.455 153.996 164.459  0.00  0.00    +0.020 C 
ENDBRANCH  16  19
ENDBRANCH  15  16
ENDBRANCH  14  15
ENDBRANCH  12  14
ENDBRANCH   2  12
TORSDOF 6
ENDMDL
