MODEL 1
REMARK VINA RESULT:    -4.621      0.000      0.000
REMARK INTER + INTRA:          -7.406
REMARK INTER:                  -6.242
REMARK INTRA:                  -1.164
REMARK UNBOUND:                -1.164
REMARK  Name = /home/vital/Documents/PhD_2021/Malaria_codes/data/pdb_ligands_mmv/ligand_141.pdb
REMARK  7 active torsions:
REMARK  status: ('A' for Active; 'I' for Inactive)
REMARK    1  A    between atoms: C1_1  and  C2_2
REMARK    2  A    between atoms: C2_2  and  C3_3
REMARK    3  A    between atoms: C3_3  and  C4_4
REMARK    4  A    between atoms: C4_4  and  N1_5
REMARK    5  A    between atoms: C4_4  and  C14_18
REMARK    6  A    between atoms: C9_11  and  C10_13
REMARK    7  A    between atoms: N6_22  and  C15_23
REMARK                            x       y       z     vdW  Elec       q    Type
REMARK                         _______ _______ _______ _____ _____    ______ ____
ROOT
ATOM      1  C4  UNL     1     150.194 161.312 165.857  0.00  0.00    +0.127 C 
ENDROOT
BRANCH   1   2
ATOM      2  N1  UNL     1     150.906 160.788 164.670  0.00  0.00    -0.290 NA
ATOM      3  C5  UNL     1     150.205 160.950 163.384  0.00  0.00    +0.104 C 
ATOM      4  C6  UNL     1     151.096 160.530 162.195  0.00  0.00    +0.123 C 
ATOM      5  N2  UNL     1     151.668 159.189 162.359  0.00  0.00    -0.293 N 
ATOM      6  C7  UNL     1     152.208 158.894 163.684  0.00  0.00    +0.123 C 
ATOM      7  C8  UNL     1     151.296 159.369 164.828  0.00  0.00    +0.104 C 
ATOM      8  C9  UNL     1     151.998 158.325 161.308  0.00  0.00    +0.282 C 
ATOM      9  O1  UNL     1     152.439 157.197 161.536  0.00  0.00    -0.267 OA
BRANCH   8  10
ATOM     10  C10 UNL     1     151.833 158.805 159.947  0.00  0.00    +0.189 A 
ATOM     11  O2  UNL     1     152.840 159.548 159.388  0.00  0.00    -0.458 OA
ATOM     12  C11 UNL     1     152.439 159.918 158.149  0.00  0.00    +0.196 A 
ATOM     13  C12 UNL     1     151.178 159.442 157.891  0.00  0.00    +0.042 A 
ATOM     14  C13 UNL     1     150.785 158.725 159.050  0.00  0.00    +0.054 A 
ENDBRANCH   8  10
ENDBRANCH   1   2
BRANCH   1  15
ATOM     15  C14 UNL     1     149.874 160.301 166.928  0.00  0.00    +0.169 A 
ATOM     16  N3  UNL     1     148.955 159.354 166.909  0.00  0.00    -0.112 NA
ATOM     17  N4  UNL     1     149.082 158.657 168.081  0.00  0.00    -0.023 NA
ATOM     18  N5  UNL     1     150.054 159.160 168.826  0.00  0.00    -0.044 NA
ATOM     19  N6  UNL     1     150.522 160.214 168.136  0.00  0.00    -0.225 N 
BRANCH  19  20
ATOM     20  C15 UNL     1     151.570 161.057 168.691  0.00  0.00    +0.111 C 
ATOM     21  C16 UNL     1     151.057 162.050 169.758  0.00  0.00    +0.027 C 
ATOM     22  C17 UNL     1     151.398 161.606 171.178  0.00  0.00    +0.002 C 
ATOM     23  C18 UNL     1     152.904 161.437 171.381  0.00  0.00    +0.000 C 
ATOM     24  C19 UNL     1     153.650 160.994 170.123  0.00  0.00    +0.002 C 
ATOM     25  C20 UNL     1     152.749 160.200 169.182  0.00  0.00    +0.027 C 
ENDBRANCH  19  20
ENDBRANCH   1  15
BRANCH   1  26
ATOM     26  C3  UNL     1     148.916 162.113 165.504  0.00  0.00    +0.026 C 
BRANCH  26  28
ATOM     27  C1  UNL     1     147.559 163.226 167.364  0.00  0.00    +0.004 C 
ATOM     28  C2  UNL     1     148.677 163.377 166.340  0.00  0.00    -0.001 C 
ENDBRANCH  26  28
ENDBRANCH   1  26
TORSDOF 6
ENDMDL
MODEL 2
REMARK VINA RESULT:    -4.534      3.093      4.689
REMARK INTER + INTRA:          -7.288
REMARK INTER:                  -6.104
REMARK INTRA:                  -1.184
REMARK UNBOUND:                -1.164
REMARK  Name = /home/vital/Documents/PhD_2021/Malaria_codes/data/pdb_ligands_mmv/ligand_141.pdb
REMARK  7 active torsions:
REMARK  status: ('A' for Active; 'I' for Inactive)
REMARK    1  A    between atoms: C1_1  and  C2_2
REMARK    2  A    between atoms: C2_2  and  C3_3
REMARK    3  A    between atoms: C3_3  and  C4_4
REMARK    4  A    between atoms: C4_4  and  N1_5
REMARK    5  A    between atoms: C4_4  and  C14_18
REMARK    6  A    between atoms: C9_11  and  C10_13
REMARK    7  A    between atoms: N6_22  and  C15_23
REMARK                            x       y       z     vdW  Elec       q    Type
REMARK                         _______ _______ _______ _____ _____    ______ ____
ROOT
ATOM      1  C4  UNL     1     151.868 158.934 163.964  0.00  0.00    +0.127 C 
ENDROOT
BRANCH   1   2
ATOM      2  N1  UNL     1     151.302 158.524 162.660  0.00  0.00    -0.290 NA
ATOM      3  C5  UNL     1     152.266 157.966 161.694  0.00  0.00    +0.104 C 
ATOM      4  C6  UNL     1     151.557 157.414 160.439  0.00  0.00    +0.123 C 
ATOM      5  N2  UNL     1     150.645 158.386 159.826  0.00  0.00    -0.293 N 
ATOM      6  C7  UNL     1     149.793 159.122 160.757  0.00  0.00    +0.123 C 
ATOM      7  C8  UNL     1     150.544 159.614 162.005  0.00  0.00    +0.104 C 
ATOM      8  C9  UNL     1     150.329 158.439 158.463  0.00  0.00    +0.282 C 
ATOM      9  O1  UNL     1     149.581 159.316 158.025  0.00  0.00    -0.267 OA
BRANCH   8  10
ATOM     10  C10 UNL     1     150.880 157.418 157.591  0.00  0.00    +0.189 A 
ATOM     11  O2  UNL     1     152.075 157.665 156.967  0.00  0.00    -0.458 OA
ATOM     12  C11 UNL     1     152.356 156.600 156.179  0.00  0.00    +0.196 A 
ATOM     13  C12 UNL     1     151.356 155.664 156.263  0.00  0.00    +0.042 A 
ATOM     14  C13 UNL     1     150.403 156.190 157.173  0.00  0.00    +0.054 A 
ENDBRANCH   8  10
ENDBRANCH   1   2
BRANCH   1  15
ATOM     15  C14 UNL     1     150.947 158.798 165.149  0.00  0.00    +0.169 A 
ATOM     16  N3  UNL     1     150.185 159.721 165.702  0.00  0.00    -0.112 NA
ATOM     17  N4  UNL     1     149.492 159.109 166.713  0.00  0.00    -0.023 NA
ATOM     18  N5  UNL     1     149.818 157.829 166.800  0.00  0.00    -0.044 NA
ATOM     19  N6  UNL     1     150.758 157.637 165.860  0.00  0.00    -0.225 N 
BRANCH  19  20
ATOM     20  C15 UNL     1     151.403 156.341 165.710  0.00  0.00    +0.111 C 
ATOM     21  C16 UNL     1     152.646 156.166 166.610  0.00  0.00    +0.027 C 
ATOM     22  C17 UNL     1     152.364 155.290 167.828  0.00  0.00    +0.002 C 
ATOM     23  C18 UNL     1     151.873 153.898 167.433  0.00  0.00    +0.000 C 
ATOM     24  C19 UNL     1     151.070 153.873 166.133  0.00  0.00    +0.002 C 
ATOM     25  C20 UNL     1     150.376 155.206 165.872  0.00  0.00    +0.027 C 
ENDBRANCH  19  20
ENDBRANCH   1  15
BRANCH   1  26
ATOM     26  C3  UNL     1     152.483 160.355 163.948  0.00  0.00    +0.026 C 
BRANCH  26  28
ATOM     27  C1  UNL     1     153.260 161.516 166.092  0.00  0.00    +0.004 C 
ATOM     28  C2  UNL     1     153.631 160.589 164.940  0.00  0.00    -0.001 C 
ENDBRANCH  26  28
ENDBRANCH   1  26
TORSDOF 6
ENDMDL
MODEL 3
REMARK VINA RESULT:    -4.490      3.404      9.132
REMARK INTER + INTRA:          -7.229
REMARK INTER:                  -6.293
REMARK INTRA:                  -0.935
REMARK UNBOUND:                -1.164
REMARK  Name = /home/vital/Documents/PhD_2021/Malaria_codes/data/pdb_ligands_mmv/ligand_141.pdb
REMARK  7 active torsions:
REMARK  status: ('A' for Active; 'I' for Inactive)
REMARK    1  A    between atoms: C1_1  and  C2_2
REMARK    2  A    between atoms: C2_2  and  C3_3
REMARK    3  A    between atoms: C3_3  and  C4_4
REMARK    4  A    between atoms: C4_4  and  N1_5
REMARK    5  A    between atoms: C4_4  and  C14_18
REMARK    6  A    between atoms: C9_11  and  C10_13
REMARK    7  A    between atoms: N6_22  and  C15_23
REMARK                            x       y       z     vdW  Elec       q    Type
REMARK                         _______ _______ _______ _____ _____    ______ ____
ROOT
ATOM      1  C4  UNL     1     151.541 157.861 161.826  0.00  0.00    +0.127 C 
ENDROOT
BRANCH   1   2
ATOM      2  N1  UNL     1     152.186 158.784 162.786  0.00  0.00    -0.290 NA
ATOM      3  C5  UNL     1     152.285 158.293 164.173  0.00  0.00    +0.104 C 
ATOM      4  C6  UNL     1     153.119 159.247 165.054  0.00  0.00    +0.123 C 
ATOM      5  N2  UNL     1     152.658 160.638 164.981  0.00  0.00    -0.293 N 
ATOM      6  C7  UNL     1     152.352 161.129 163.639  0.00  0.00    +0.123 C 
ATOM      7  C8  UNL     1     151.553 160.122 162.795  0.00  0.00    +0.104 C 
ATOM      8  C9  UNL     1     152.779 161.578 166.013  0.00  0.00    +0.282 C 
ATOM      9  O1  UNL     1     152.328 162.718 165.880  0.00  0.00    -0.267 OA
BRANCH   8  10
ATOM     10  C10 UNL     1     153.473 161.181 167.225  0.00  0.00    +0.189 A 
ATOM     11  O2  UNL     1     152.821 160.369 168.116  0.00  0.00    -0.458 OA
ATOM     12  C11 UNL     1     153.642 160.179 169.176  0.00  0.00    +0.196 A 
ATOM     13  C12 UNL     1     154.817 160.866 169.001  0.00  0.00    +0.042 A 
ATOM     14  C13 UNL     1     154.709 161.513 167.743  0.00  0.00    +0.054 A 
ENDBRANCH   8  10
ENDBRANCH   1   2
BRANCH   1  15
ATOM     15  C14 UNL     1     150.411 158.443 161.017  0.00  0.00    +0.169 A 
ATOM     16  N3  UNL     1     149.297 159.001 161.453  0.00  0.00    -0.112 NA
ATOM     17  N4  UNL     1     148.609 159.427 160.348  0.00  0.00    -0.023 NA
ATOM     18  N5  UNL     1     149.271 159.134 159.239  0.00  0.00    -0.044 NA
ATOM     19  N6  UNL     1     150.372 158.479 159.644  0.00  0.00    -0.225 N 
BRANCH  19  20
ATOM     20  C15 UNL     1     151.315 157.942 158.675  0.00  0.00    +0.111 C 
ATOM     21  C16 UNL     1     150.901 156.563 158.115  0.00  0.00    +0.027 C 
ATOM     22  C17 UNL     1     150.321 156.656 156.706  0.00  0.00    +0.002 C 
ATOM     23  C18 UNL     1     151.306 157.284 155.721  0.00  0.00    +0.000 C 
ATOM     24  C19 UNL     1     152.238 158.317 156.353  0.00  0.00    +0.002 C 
ATOM     25  C20 UNL     1     151.604 158.977 157.573  0.00  0.00    +0.027 C 
ENDBRANCH  19  20
ENDBRANCH   1  15
BRANCH   1  26
ATOM     26  C3  UNL     1     151.085 156.527 162.466  0.00  0.00    +0.026 C 
BRANCH  26  28
ATOM     27  C1  UNL     1     150.053 154.503 161.290  0.00  0.00    +0.004 C 
ATOM     28  C2  UNL     1     151.328 155.271 161.619  0.00  0.00    -0.001 C 
ENDBRANCH  26  28
ENDBRANCH   1  26
TORSDOF 6
ENDMDL
MODEL 4
REMARK VINA RESULT:    -4.418      2.819      4.645
REMARK INTER + INTRA:          -7.133
REMARK INTER:                  -5.717
REMARK INTRA:                  -1.416
REMARK UNBOUND:                -1.164
REMARK  Name = /home/vital/Documents/PhD_2021/Malaria_codes/data/pdb_ligands_mmv/ligand_141.pdb
REMARK  7 active torsions:
REMARK  status: ('A' for Active; 'I' for Inactive)
REMARK    1  A    between atoms: C1_1  and  C2_2
REMARK    2  A    between atoms: C2_2  and  C3_3
REMARK    3  A    between atoms: C3_3  and  C4_4
REMARK    4  A    between atoms: C4_4  and  N1_5
REMARK    5  A    between atoms: C4_4  and  C14_18
REMARK    6  A    between atoms: C9_11  and  C10_13
REMARK    7  A    between atoms: N6_22  and  C15_23
REMARK                            x       y       z     vdW  Elec       q    Type
REMARK                         _______ _______ _______ _____ _____    ______ ____
ROOT
ATOM      1  C4  UNL     1     151.539 158.155 164.210  0.00  0.00    +0.127 C 
ENDROOT
BRANCH   1   2
ATOM      2  N1  UNL     1     151.678 157.611 162.840  0.00  0.00    -0.290 NA
ATOM      3  C5  UNL     1     151.378 158.554 161.748  0.00  0.00    +0.104 C 
ATOM      4  C6  UNL     1     151.714 157.948 160.368  0.00  0.00    +0.123 C 
ATOM      5  N2  UNL     1     151.101 156.632 160.160  0.00  0.00    -0.293 N 
ATOM      6  C7  UNL     1     151.192 155.710 161.289  0.00  0.00    +0.123 C 
ATOM      7  C8  UNL     1     150.885 156.377 162.640  0.00  0.00    +0.104 C 
ATOM      8  C9  UNL     1     150.726 156.111 158.915  0.00  0.00    +0.282 C 
ATOM      9  O1  UNL     1     150.179 155.009 158.834  0.00  0.00    -0.267 OA
BRANCH   8  10
ATOM     10  C10 UNL     1     151.024 156.890 157.727  0.00  0.00    +0.189 A 
ATOM     11  O2  UNL     1     150.297 158.028 157.489  0.00  0.00    -0.458 OA
ATOM     12  C11 UNL     1     150.720 158.548 156.313  0.00  0.00    +0.196 A 
ATOM     13  C12 UNL     1     151.703 157.762 155.767  0.00  0.00    +0.042 A 
ATOM     14  C13 UNL     1     151.900 156.692 156.677  0.00  0.00    +0.054 A 
ENDBRANCH   8  10
ENDBRANCH   1   2
BRANCH   1  15
ATOM     15  C14 UNL     1     152.303 159.424 164.490  0.00  0.00    +0.169 A 
ATOM     16  N3  UNL     1     153.608 159.611 164.478  0.00  0.00    -0.112 NA
ATOM     17  N4  UNL     1     153.820 160.939 164.739  0.00  0.00    -0.023 NA
ATOM     18  N5  UNL     1     152.672 161.572 164.922  0.00  0.00    -0.044 NA
ATOM     19  N6  UNL     1     151.724 160.627 164.815  0.00  0.00    -0.225 N 
BRANCH  19  20
ATOM     20  C15 UNL     1     150.322 160.955 165.026  0.00  0.00    +0.111 C 
ATOM     21  C16 UNL     1     149.907 160.948 166.515  0.00  0.00    +0.027 C 
ATOM     22  C17 UNL     1     149.774 162.356 167.089  0.00  0.00    +0.002 C 
ATOM     23  C18 UNL     1     148.752 163.194 166.323  0.00  0.00    +0.000 C 
ATOM     24  C19 UNL     1     148.653 162.842 164.839  0.00  0.00    +0.002 C 
ATOM     25  C20 UNL     1     149.961 162.266 164.306  0.00  0.00    +0.027 C 
ENDBRANCH  19  20
ENDBRANCH   1  15
BRANCH   1  26
ATOM     26  C3  UNL     1     151.838 157.116 165.318  0.00  0.00    +0.026 C 
BRANCH  26  28
ATOM     27  C1  UNL     1     152.348 157.688 167.759  0.00  0.00    +0.004 C 
ATOM     28  C2  UNL     1     151.273 157.449 166.705  0.00  0.00    -0.001 C 
ENDBRANCH  26  28
ENDBRANCH   1  26
TORSDOF 6
ENDMDL
MODEL 5
REMARK VINA RESULT:    -4.311      2.853      4.792
REMARK INTER + INTRA:          -6.988
REMARK INTER:                  -5.867
REMARK INTRA:                  -1.121
REMARK UNBOUND:                -1.164
REMARK  Name = /home/vital/Documents/PhD_2021/Malaria_codes/data/pdb_ligands_mmv/ligand_141.pdb
REMARK  7 active torsions:
REMARK  status: ('A' for Active; 'I' for Inactive)
REMARK    1  A    between atoms: C1_1  and  C2_2
REMARK    2  A    between atoms: C2_2  and  C3_3
REMARK    3  A    between atoms: C3_3  and  C4_4
REMARK    4  A    between atoms: C4_4  and  N1_5
REMARK    5  A    between atoms: C4_4  and  C14_18
REMARK    6  A    between atoms: C9_11  and  C10_13
REMARK    7  A    between atoms: N6_22  and  C15_23
REMARK                            x       y       z     vdW  Elec       q    Type
REMARK                         _______ _______ _______ _____ _____    ______ ____
ROOT
ATOM      1  C4  UNL     1     151.487 158.892 163.538  0.00  0.00    +0.127 C 
ENDROOT
BRANCH   1   2
ATOM      2  N1  UNL     1     151.242 159.111 162.095  0.00  0.00    -0.290 NA
ATOM      3  C5  UNL     1     151.853 158.122 161.189  0.00  0.00    +0.104 C 
ATOM      4  C6  UNL     1     151.402 158.337 159.728  0.00  0.00    +0.123 C 
ATOM      5  N2  UNL     1     151.598 159.717 159.270  0.00  0.00    -0.293 N 
ATOM      6  C7  UNL     1     151.190 160.756 160.213  0.00  0.00    +0.123 C 
ATOM      7  C8  UNL     1     151.633 160.469 161.657  0.00  0.00    +0.104 C 
ATOM      8  C9  UNL     1     151.845 160.093 157.944  0.00  0.00    +0.282 C 
ATOM      9  O1  UNL     1     152.037 161.275 157.651  0.00  0.00    -0.267 OA
BRANCH   8  10
ATOM     10  C10 UNL     1     151.840 159.059 156.925  0.00  0.00    +0.189 A 
ATOM     11  O2  UNL     1     153.011 158.397 156.658  0.00  0.00    -0.458 OA
ATOM     12  C11 UNL     1     152.770 157.526 155.650  0.00  0.00    +0.196 A 
ATOM     13  C12 UNL     1     151.463 157.615 155.241  0.00  0.00    +0.042 A 
ATOM     14  C13 UNL     1     150.862 158.605 156.062  0.00  0.00    +0.054 A 
ENDBRANCH   8  10
ENDBRANCH   1   2
BRANCH   1  15
ATOM     15  C14 UNL     1     152.162 160.025 164.267  0.00  0.00    +0.169 A 
ATOM     16  N3  UNL     1     153.453 160.227 164.446  0.00  0.00    -0.112 NA
ATOM     17  N4  UNL     1     153.579 161.413 165.119  0.00  0.00    -0.023 NA
ATOM     18  N5  UNL     1     152.391 161.943 165.366  0.00  0.00    -0.044 NA
ATOM     19  N6  UNL     1     151.501 161.062 164.881  0.00  0.00    -0.225 N 
BRANCH  19  20
ATOM     20  C15 UNL     1     150.072 161.288 165.037  0.00  0.00    +0.111 C 
ATOM     21  C16 UNL     1     149.539 160.907 166.436  0.00  0.00    +0.027 C 
ATOM     22  C17 UNL     1     149.291 162.128 167.317  0.00  0.00    +0.002 C 
ATOM     23  C18 UNL     1     148.293 163.098 166.685  0.00  0.00    +0.000 C 
ATOM     24  C19 UNL     1     148.331 163.115 165.158  0.00  0.00    +0.002 C 
ATOM     25  C20 UNL     1     149.705 162.724 164.623  0.00  0.00    +0.027 C 
ENDBRANCH  19  20
ENDBRANCH   1  15
BRANCH   1  26
ATOM     26  C3  UNL     1     152.228 157.567 163.843  0.00  0.00    +0.026 C 
BRANCH  26  28
ATOM     27  C1  UNL     1     152.384 156.683 166.239  0.00  0.00    +0.004 C 
ATOM     28  C2  UNL     1     151.596 156.692 164.934  0.00  0.00    -0.001 C 
ENDBRANCH  26  28
ENDBRANCH   1  26
TORSDOF 6
ENDMDL
MODEL 6
REMARK VINA RESULT:    -4.306      4.540      8.699
REMARK INTER + INTRA:          -6.980
REMARK INTER:                  -5.793
REMARK INTRA:                  -1.187
REMARK UNBOUND:                -1.164
REMARK  Name = /home/vital/Documents/PhD_2021/Malaria_codes/data/pdb_ligands_mmv/ligand_141.pdb
REMARK  7 active torsions:
REMARK  status: ('A' for Active; 'I' for Inactive)
REMARK    1  A    between atoms: C1_1  and  C2_2
REMARK    2  A    between atoms: C2_2  and  C3_3
REMARK    3  A    between atoms: C3_3  and  C4_4
REMARK    4  A    between atoms: C4_4  and  N1_5
REMARK    5  A    between atoms: C4_4  and  C14_18
REMARK    6  A    between atoms: C9_11  and  C10_13
REMARK    7  A    between atoms: N6_22  and  C15_23
REMARK                            x       y       z     vdW  Elec       q    Type
REMARK                         _______ _______ _______ _____ _____    ______ ____
ROOT
ATOM      1  C4  UNL     1     150.971 154.666 165.754  0.00  0.00    +0.127 C 
ENDROOT
BRANCH   1   2
ATOM      2  N1  UNL     1     151.203 156.078 166.132  0.00  0.00    -0.290 NA
ATOM      3  C5  UNL     1     152.475 156.350 166.825  0.00  0.00    +0.104 C 
ATOM      4  C6  UNL     1     152.700 157.865 167.023  0.00  0.00    +0.123 C 
ATOM      5  N2  UNL     1     151.558 158.532 167.658  0.00  0.00    -0.293 N 
ATOM      6  C7  UNL     1     150.244 158.154 167.144  0.00  0.00    +0.123 C 
ATOM      7  C8  UNL     1     150.091 156.638 166.931  0.00  0.00    +0.104 C 
ATOM      8  C9  UNL     1     151.644 159.672 168.466  0.00  0.00    +0.282 C 
ATOM      9  O1  UNL     1     150.636 160.147 168.993  0.00  0.00    -0.267 OA
BRANCH   8  10
ATOM     10  C10 UNL     1     152.945 160.294 168.639  0.00  0.00    +0.189 A 
ATOM     11  O2  UNL     1     153.455 161.043 167.611  0.00  0.00    -0.458 OA
ATOM     12  C11 UNL     1     154.683 161.472 167.985  0.00  0.00    +0.196 A 
ATOM     13  C12 UNL     1     154.995 161.004 169.236  0.00  0.00    +0.042 A 
ATOM     14  C13 UNL     1     153.875 160.243 169.659  0.00  0.00    +0.054 A 
ENDBRANCH   8  10
ENDBRANCH   1   2
BRANCH   1  15
ATOM     15  C14 UNL     1     149.831 154.423 164.799  0.00  0.00    +0.169 A 
ATOM     16  N3  UNL     1     148.641 153.915 165.058  0.00  0.00    -0.112 NA
ATOM     17  N4  UNL     1     147.935 153.943 163.885  0.00  0.00    -0.023 NA
ATOM     18  N5  UNL     1     148.667 154.450 162.906  0.00  0.00    -0.044 NA
ATOM     19  N6  UNL     1     149.865 154.708 163.455  0.00  0.00    -0.225 N 
BRANCH  19  20
ATOM     20  C15 UNL     1     150.958 155.221 162.643  0.00  0.00    +0.111 C 
ATOM     21  C16 UNL     1     151.378 154.265 161.503  0.00  0.00    +0.027 C 
ATOM     22  C17 UNL     1     150.857 154.719 160.142  0.00  0.00    +0.002 C 
ATOM     23  C18 UNL     1     151.345 156.121 159.779  0.00  0.00    +0.000 C 
ATOM     24  C19 UNL     1     151.548 157.036 160.987  0.00  0.00    +0.002 C 
ATOM     25  C20 UNL     1     150.642 156.644 162.150  0.00  0.00    +0.027 C 
ENDBRANCH  19  20
ENDBRANCH   1  15
BRANCH   1  26
ATOM     26  C3  UNL     1     150.836 153.717 166.971  0.00  0.00    +0.026 C 
BRANCH  26  28
ATOM     27  C1  UNL     1     152.849 152.581 168.065  0.00  0.00    +0.004 C 
ATOM     28  C2  UNL     1     151.785 152.511 166.976  0.00  0.00    -0.001 C 
ENDBRANCH  26  28
ENDBRANCH   1  26
TORSDOF 6
ENDMDL
MODEL 7
REMARK VINA RESULT:    -4.275      2.812      4.467
REMARK INTER + INTRA:          -6.939
REMARK INTER:                  -5.893
REMARK INTRA:                  -1.046
REMARK UNBOUND:                -1.164
REMARK  Name = /home/vital/Documents/PhD_2021/Malaria_codes/data/pdb_ligands_mmv/ligand_141.pdb
REMARK  7 active torsions:
REMARK  status: ('A' for Active; 'I' for Inactive)
REMARK    1  A    between atoms: C1_1  and  C2_2
REMARK    2  A    between atoms: C2_2  and  C3_3
REMARK    3  A    between atoms: C3_3  and  C4_4
REMARK    4  A    between atoms: C4_4  and  N1_5
REMARK    5  A    between atoms: C4_4  and  C14_18
REMARK    6  A    between atoms: C9_11  and  C10_13
REMARK    7  A    between atoms: N6_22  and  C15_23
REMARK                            x       y       z     vdW  Elec       q    Type
REMARK                         _______ _______ _______ _____ _____    ______ ____
ROOT
ATOM      1  C4  UNL     1     152.313 159.463 166.526  0.00  0.00    +0.127 C 
ENDROOT
BRANCH   1   2
ATOM      2  N1  UNL     1     151.856 159.868 165.178  0.00  0.00    -0.290 NA
ATOM      3  C5  UNL     1     151.990 158.844 164.126  0.00  0.00    +0.104 C 
ATOM      4  C6  UNL     1     151.334 159.299 162.805  0.00  0.00    +0.123 C 
ATOM      5  N2  UNL     1     151.795 160.621 162.366  0.00  0.00    -0.293 N 
ATOM      6  C7  UNL     1     151.873 161.639 163.412  0.00  0.00    +0.123 C 
ATOM      7  C8  UNL     1     152.499 161.118 164.716  0.00  0.00    +0.104 C 
ATOM      8  C9  UNL     1     151.867 161.043 161.033  0.00  0.00    +0.282 C 
ATOM      9  O1  UNL     1     152.304 162.160 160.749  0.00  0.00    -0.267 OA
BRANCH   8  10
ATOM     10  C10 UNL     1     151.386 160.141 160.001  0.00  0.00    +0.189 A 
ATOM     11  O2  UNL     1     150.033 159.976 159.854  0.00  0.00    -0.458 OA
ATOM     12  C11 UNL     1     149.835 159.062 158.875  0.00  0.00    +0.196 A 
ATOM     13  C12 UNL     1     151.036 158.613 158.387  0.00  0.00    +0.042 A 
ATOM     14  C13 UNL     1     152.038 159.308 159.113  0.00  0.00    +0.054 A 
ENDBRANCH   8  10
ENDBRANCH   1   2
BRANCH   1  15
ATOM     15  C14 UNL     1     151.256 158.874 167.425  0.00  0.00    +0.169 A 
ATOM     16  N3  UNL     1     150.481 159.497 168.292  0.00  0.00    -0.112 NA
ATOM     17  N4  UNL     1     149.647 158.552 168.828  0.00  0.00    -0.023 NA
ATOM     18  N5  UNL     1     149.900 157.357 168.317  0.00  0.00    -0.044 NA
ATOM     19  N6  UNL     1     150.932 157.539 167.477  0.00  0.00    -0.225 N 
BRANCH  19  20
ATOM     20  C15 UNL     1     151.526 156.412 166.776  0.00  0.00    +0.111 C 
ATOM     21  C16 UNL     1     152.702 155.763 167.542  0.00  0.00    +0.027 C 
ATOM     22  C17 UNL     1     152.305 154.453 168.216  0.00  0.00    +0.002 C 
ATOM     23  C18 UNL     1     151.778 153.427 167.212  0.00  0.00    +0.000 C 
ATOM     24  C19 UNL     1     151.059 154.048 166.016  0.00  0.00    +0.002 C 
ATOM     25  C20 UNL     1     150.443 155.399 166.366  0.00  0.00    +0.027 C 
ENDBRANCH  19  20
ENDBRANCH   1  15
BRANCH   1  26
ATOM     26  C3  UNL     1     153.069 160.582 167.282  0.00  0.00    +0.026 C 
BRANCH  26  28
ATOM     27  C1  UNL     1     154.893 161.087 169.003  0.00  0.00    +0.004 C 
ATOM     28  C2  UNL     1     153.773 160.147 168.575  0.00  0.00    -0.001 C 
ENDBRANCH  26  28
ENDBRANCH   1  26
TORSDOF 6
ENDMDL
MODEL 8
REMARK VINA RESULT:    -4.120      3.496      5.919
REMARK INTER + INTRA:          -6.729
REMARK INTER:                  -5.749
REMARK INTRA:                  -0.980
REMARK UNBOUND:                -1.164
REMARK  Name = /home/vital/Documents/PhD_2021/Malaria_codes/data/pdb_ligands_mmv/ligand_141.pdb
REMARK  7 active torsions:
REMARK  status: ('A' for Active; 'I' for Inactive)
REMARK    1  A    between atoms: C1_1  and  C2_2
REMARK    2  A    between atoms: C2_2  and  C3_3
REMARK    3  A    between atoms: C3_3  and  C4_4
REMARK    4  A    between atoms: C4_4  and  N1_5
REMARK    5  A    between atoms: C4_4  and  C14_18
REMARK    6  A    between atoms: C9_11  and  C10_13
REMARK    7  A    between atoms: N6_22  and  C15_23
REMARK                            x       y       z     vdW  Elec       q    Type
REMARK                         _______ _______ _______ _____ _____    ______ ____
ROOT
ATOM      1  C4  UNL     1     150.766 156.870 162.321  0.00  0.00    +0.127 C 
ENDROOT
BRANCH   1   2
ATOM      2  N1  UNL     1     150.640 157.028 160.855  0.00  0.00    -0.290 NA
ATOM      3  C5  UNL     1     151.470 156.120 160.043  0.00  0.00    +0.104 C 
ATOM      4  C6  UNL     1     151.144 156.245 158.540  0.00  0.00    +0.123 C 
ATOM      5  N2  UNL     1     151.190 157.631 158.060  0.00  0.00    -0.293 N 
ATOM      6  C7  UNL     1     150.549 158.617 158.926  0.00  0.00    +0.123 C 
ATOM      7  C8  UNL     1     150.880 158.420 160.415  0.00  0.00    +0.104 C 
ATOM      8  C9  UNL     1     151.515 158.015 156.753  0.00  0.00    +0.282 C 
ATOM      9  O1  UNL     1     151.568 159.208 156.444  0.00  0.00    -0.267 OA
BRANCH   8  10
ATOM     10  C10 UNL     1     151.757 156.974 155.771  0.00  0.00    +0.189 A 
ATOM     11  O2  UNL     1     150.796 156.015 155.583  0.00  0.00    -0.458 OA
ATOM     12  C11 UNL     1     151.265 155.137 154.665  0.00  0.00    +0.196 A 
ATOM     13  C12 UNL     1     152.525 155.496 154.259  0.00  0.00    +0.042 A 
ATOM     14  C13 UNL     1     152.844 156.680 154.972  0.00  0.00    +0.054 A 
ENDBRANCH   8  10
ENDBRANCH   1   2
BRANCH   1  15
ATOM     15  C14 UNL     1     152.122 157.185 162.899  0.00  0.00    +0.169 A 
ATOM     16  N3  UNL     1     153.241 156.498 162.778  0.00  0.00    -0.112 NA
ATOM     17  N4  UNL     1     154.214 157.209 163.430  0.00  0.00    -0.023 NA
ATOM     18  N5  UNL     1     153.715 158.316 163.957  0.00  0.00    -0.044 NA
ATOM     19  N6  UNL     1     152.403 158.286 163.672  0.00  0.00    -0.225 N 
BRANCH  19  20
ATOM     20  C15 UNL     1     151.514 159.330 164.160  0.00  0.00    +0.111 C 
ATOM     21  C16 UNL     1     151.550 159.499 165.695  0.00  0.00    +0.027 C 
ATOM     22  C17 UNL     1     152.356 160.720 166.128  0.00  0.00    +0.002 C 
ATOM     23  C18 UNL     1     151.804 162.014 165.528  0.00  0.00    +0.000 C 
ATOM     24  C19 UNL     1     151.162 161.831 164.153  0.00  0.00    +0.002 C 
ATOM     25  C20 UNL     1     151.761 160.646 163.403  0.00  0.00    +0.027 C 
ENDBRANCH  19  20
ENDBRANCH   1  15
BRANCH   1  26
ATOM     26  C3  UNL     1     150.295 155.487 162.834  0.00  0.00    +0.026 C 
BRANCH  26  28
ATOM     27  C1  UNL     1     149.221 154.353 164.859  0.00  0.00    +0.004 C 
ATOM     28  C2  UNL     1     150.292 155.315 164.359  0.00  0.00    -0.001 C 
ENDBRANCH  26  28
ENDBRANCH   1  26
TORSDOF 6
ENDMDL
MODEL 9
REMARK VINA RESULT:    -3.977      3.765      7.942
REMARK INTER + INTRA:          -6.537
REMARK INTER:                  -5.525
REMARK INTRA:                  -1.012
REMARK UNBOUND:                -1.164
REMARK  Name = /home/vital/Documents/PhD_2021/Malaria_codes/data/pdb_ligands_mmv/ligand_141.pdb
REMARK  7 active torsions:
REMARK  status: ('A' for Active; 'I' for Inactive)
REMARK    1  A    between atoms: C1_1  and  C2_2
REMARK    2  A    between atoms: C2_2  and  C3_3
REMARK    3  A    between atoms: C3_3  and  C4_4
REMARK    4  A    between atoms: C4_4  and  N1_5
REMARK    5  A    between atoms: C4_4  and  C14_18
REMARK    6  A    between atoms: C9_11  and  C10_13
REMARK    7  A    between atoms: N6_22  and  C15_23
REMARK                            x       y       z     vdW  Elec       q    Type
REMARK                         _______ _______ _______ _____ _____    ______ ____
ROOT
ATOM      1  C4  UNL     1     151.687 156.096 165.741  0.00  0.00    +0.127 C 
ENDROOT
BRANCH   1   2
ATOM      2  N1  UNL     1     151.603 157.552 165.993  0.00  0.00    -0.290 NA
ATOM      3  C5  UNL     1     150.259 158.066 166.312  0.00  0.00    +0.104 C 
ATOM      4  C6  UNL     1     150.304 159.553 166.723  0.00  0.00    +0.123 C 
ATOM      5  N2  UNL     1     151.011 160.392 165.749  0.00  0.00    -0.293 N 
ATOM      6  C7  UNL     1     152.265 159.842 165.240  0.00  0.00    +0.123 C 
ATOM      7  C8  UNL     1     152.171 158.350 164.883  0.00  0.00    +0.104 C 
ATOM      8  C9  UNL     1     150.743 161.746 165.515  0.00  0.00    +0.282 C 
ATOM      9  O1  UNL     1     151.360 162.368 164.647  0.00  0.00    -0.267 OA
BRANCH   8  10
ATOM     10  C10 UNL     1     149.744 162.401 166.340  0.00  0.00    +0.189 A 
ATOM     11  O2  UNL     1     150.095 162.796 167.604  0.00  0.00    -0.458 OA
ATOM     12  C11 UNL     1     148.997 163.330 168.188  0.00  0.00    +0.196 A 
ATOM     13  C12 UNL     1     147.926 163.278 167.333  0.00  0.00    +0.042 A 
ATOM     14  C13 UNL     1     148.406 162.678 166.140  0.00  0.00    +0.054 A 
ENDBRANCH   8  10
ENDBRANCH   1   2
BRANCH   1  15
ATOM     15  C14 UNL     1     150.474 155.472 165.097  0.00  0.00    +0.169 A 
ATOM     16  N3  UNL     1     149.403 154.975 165.684  0.00  0.00    -0.112 NA
ATOM     17  N4  UNL     1     148.554 154.576 164.685  0.00  0.00    -0.023 NA
ATOM     18  N5  UNL     1     149.085 154.809 163.495  0.00  0.00    -0.044 NA
ATOM     19  N6  UNL     1     150.301 155.324 163.742  0.00  0.00    -0.225 N 
BRANCH  19  20
ATOM     20  C15 UNL     1     151.206 155.645 162.649  0.00  0.00    +0.111 C 
ATOM     21  C16 UNL     1     151.649 154.408 161.835  0.00  0.00    +0.027 C 
ATOM     22  C17 UNL     1     150.922 154.301 160.498  0.00  0.00    +0.002 C 
ATOM     23  C18 UNL     1     151.140 155.537 159.625  0.00  0.00    +0.000 C 
ATOM     24  C19 UNL     1     151.322 156.830 160.421  0.00  0.00    +0.002 C 
ATOM     25  C20 UNL     1     150.618 156.764 161.772  0.00  0.00    +0.027 C 
ENDBRANCH  19  20
ENDBRANCH   1  15
BRANCH   1  26
ATOM     26  C3  UNL     1     152.086 155.276 166.992  0.00  0.00    +0.026 C 
BRANCH  26  28
ATOM     27  C1  UNL     1     154.308 154.787 168.161  0.00  0.00    +0.004 C 
ATOM     28  C2  UNL     1     153.263 155.837 167.801  0.00  0.00    -0.001 C 
ENDBRANCH  26  28
ENDBRANCH   1  26
TORSDOF 6
ENDMDL
