MODEL 1
REMARK VINA RESULT:    -6.280      0.000      0.000
REMARK INTER + INTRA:          -6.463
REMARK INTER:                  -6.463
REMARK INTRA:                   0.000
REMARK UNBOUND:                 0.000
REMARK  Name = /home/vital/Documents/PhD_2021/Malaria_codes/data/pdb_ligands_mmv/ligand_281.pdb
REMARK  4 active torsions:
REMARK  status: ('A' for Active; 'I' for Inactive)
REMARK    1  A    between atoms: C1_1  and  C2_2
REMARK    2  A    between atoms: C8_8  and  N1_9
REMARK    3  A    between atoms: C10_11  and  C11_12
REMARK    4  A    between atoms: C14_15  and  C15_16
REMARK                            x       y       z     vdW  Elec       q    Type
REMARK                         _______ _______ _______ _____ _____    ______ ____
ROOT
ATOM      1  C1  UNL     1     153.778 155.112 151.066  0.00  0.00    +0.044 C 
ATOM      2  C2  UNL     1     153.132 155.913 152.157  0.00  0.00    -0.048 A 
ATOM      3  C3  UNL     1     152.681 157.211 151.917  0.00  0.00    +0.004 A 
ATOM      4  C4  UNL     1     152.113 157.952 152.953  0.00  0.00    +0.010 A 
ATOM      5  C5  UNL     1     152.002 157.401 154.242  0.00  0.00    +0.001 A 
ATOM      6  C6  UNL     1     151.443 158.106 155.311  0.00  0.00    +0.023 A 
ATOM      7  C7  UNL     1     151.357 157.524 156.596  0.00  0.00    +0.041 A 
ATOM      8  C8  UNL     1     150.820 158.165 157.751  0.00  0.00    +0.045 A 
ATOM      9  C9  UNL     1     150.701 157.453 158.988  0.00  0.00    +0.025 A 
ATOM     10  C10 UNL     1     150.144 157.953 160.218  0.00  0.00    -0.039 A 
ATOM     11  C11 UNL     1     149.613 159.357 160.372  0.00  0.00    +0.044 C 
ATOM     12  C12 UNL     1     150.087 157.133 161.353  0.00  0.00    +0.004 A 
ATOM     13  C13 UNL     1     150.583 155.842 161.312  0.00  0.00    +0.006 A 
ATOM     14  C14 UNL     1     151.148 155.348 160.133  0.00  0.00    -0.024 A 
ATOM     15  C15 UNL     1     151.689 153.940 160.119  0.00  0.00    +0.046 C 
ATOM     16  C16 UNL     1     151.211 156.135 158.976  0.00  0.00    +0.078 A 
ATOM     17  N2  UNL     1     151.761 155.575 157.888  0.00  0.00    -0.227 NA
ATOM     18  C17 UNL     1     151.837 156.220 156.734  0.00  0.00    +0.163 A 
ATOM     19  N3  UNL     1     152.375 155.547 155.716  0.00  0.00    -0.227 NA
ATOM     20  C18 UNL     1     152.463 156.105 154.500  0.00  0.00    +0.074 A 
ATOM     21  C19 UNL     1     153.026 155.386 153.454  0.00  0.00    +0.031 A 
ENDROOT
BRANCH   8  22
ATOM     22  N1  UNL     1     150.196 159.440 157.611  0.00  0.00    -0.357 N 
ATOM     23  H7  UNL     1     149.747 159.508 156.699  0.00  0.00    +0.142 HD
ATOM     24  H8  UNL     1     150.829 160.220 157.750  0.00  0.00    +0.142 HD
ENDBRANCH   8  22
TORSDOF 1
ENDMDL
MODEL 2
REMARK VINA RESULT:    -5.856      2.006      3.630
REMARK INTER + INTRA:          -6.027
REMARK INTER:                  -6.027
REMARK INTRA:                   0.000
REMARK UNBOUND:                 0.000
REMARK  Name = /home/vital/Documents/PhD_2021/Malaria_codes/data/pdb_ligands_mmv/ligand_281.pdb
REMARK  4 active torsions:
REMARK  status: ('A' for Active; 'I' for Inactive)
REMARK    1  A    between atoms: C1_1  and  C2_2
REMARK    2  A    between atoms: C8_8  and  N1_9
REMARK    3  A    between atoms: C10_11  and  C11_12
REMARK    4  A    between atoms: C14_15  and  C15_16
REMARK                            x       y       z     vdW  Elec       q    Type
REMARK                         _______ _______ _______ _____ _____    ______ ____
ROOT
ATOM      1  C1  UNL     1     152.421 156.269 151.065  0.00  0.00    +0.044 C 
ATOM      2  C2  UNL     1     152.223 156.271 152.551  0.00  0.00    -0.048 A 
ATOM      3  C3  UNL     1     152.024 155.077 153.245  0.00  0.00    +0.004 A 
ATOM      4  C4  UNL     1     151.809 155.100 154.622  0.00  0.00    +0.010 A 
ATOM      5  C5  UNL     1     151.781 156.323 155.315  0.00  0.00    +0.001 A 
ATOM      6  C6  UNL     1     151.567 156.398 156.694  0.00  0.00    +0.023 A 
ATOM      7  C7  UNL     1     151.535 157.646 157.356  0.00  0.00    +0.041 A 
ATOM      8  C8  UNL     1     151.309 157.827 158.752  0.00  0.00    +0.045 A 
ATOM      9  C9  UNL     1     151.383 159.131 159.337  0.00  0.00    +0.025 A 
ATOM     10  C10 UNL     1     151.219 159.460 160.729  0.00  0.00    -0.039 A 
ATOM     11  C11 UNL     1     150.913 158.431 161.790  0.00  0.00    +0.044 C 
ATOM     12  C12 UNL     1     151.327 160.790 161.159  0.00  0.00    +0.004 A 
ATOM     13  C13 UNL     1     151.571 161.804 160.250  0.00  0.00    +0.006 A 
ATOM     14  C14 UNL     1     151.710 161.506 158.892  0.00  0.00    -0.024 A 
ATOM     15  C15 UNL     1     151.967 162.631 157.921  0.00  0.00    +0.046 C 
ATOM     16  C16 UNL     1     151.620 160.187 158.428  0.00  0.00    +0.078 A 
ATOM     17  N2  UNL     1     151.776 159.993 157.110  0.00  0.00    -0.227 NA
ATOM     18  C17 UNL     1     151.745 158.783 156.574  0.00  0.00    +0.163 A 
ATOM     19  N3  UNL     1     151.946 158.715 155.257  0.00  0.00    -0.227 NA
ATOM     20  C18 UNL     1     151.966 157.530 154.631  0.00  0.00    +0.074 A 
ATOM     21  C19 UNL     1     152.178 157.483 153.259  0.00  0.00    +0.031 A 
ENDROOT
BRANCH   8  22
ATOM     22  N1  UNL     1     151.231 156.681 159.598  0.00  0.00    -0.357 N 
ATOM     23  H7  UNL     1     151.952 156.730 160.316  0.00  0.00    +0.142 HD
ATOM     24  H8  UNL     1     151.292 155.801 159.098  0.00  0.00    +0.142 HD
ENDBRANCH   8  22
TORSDOF 1
ENDMDL
MODEL 3
REMARK VINA RESULT:    -4.941      3.589      8.273
REMARK INTER + INTRA:          -5.085
REMARK INTER:                  -5.085
REMARK INTRA:                   0.000
REMARK UNBOUND:                 0.000
REMARK  Name = /home/vital/Documents/PhD_2021/Malaria_codes/data/pdb_ligands_mmv/ligand_281.pdb
REMARK  4 active torsions:
REMARK  status: ('A' for Active; 'I' for Inactive)
REMARK    1  A    between atoms: C1_1  and  C2_2
REMARK    2  A    between atoms: C8_8  and  N1_9
REMARK    3  A    between atoms: C10_11  and  C11_12
REMARK    4  A    between atoms: C14_15  and  C15_16
REMARK                            x       y       z     vdW  Elec       q    Type
REMARK                         _______ _______ _______ _____ _____    ______ ____
ROOT
ATOM      1  C1  UNL     1     151.058 162.024 167.203  0.00  0.00    +0.044 C 
ATOM      2  C2  UNL     1     151.085 161.832 165.715  0.00  0.00    -0.048 A 
ATOM      3  C3  UNL     1     151.226 162.925 164.859  0.00  0.00    +0.004 A 
ATOM      4  C4  UNL     1     151.217 162.732 163.478  0.00  0.00    +0.010 A 
ATOM      5  C5  UNL     1     151.055 161.441 162.943  0.00  0.00    +0.001 A 
ATOM      6  C6  UNL     1     151.036 161.198 161.568  0.00  0.00    +0.023 A 
ATOM      7  C7  UNL     1     150.861 159.888 161.065  0.00  0.00    +0.041 A 
ATOM      8  C8  UNL     1     150.812 159.541 159.684  0.00  0.00    +0.045 A 
ATOM      9  C9  UNL     1     150.717 158.170 159.282  0.00  0.00    +0.025 A 
ATOM     10  C10 UNL     1     150.700 157.669 157.932  0.00  0.00    -0.039 A 
ATOM     11  C11 UNL     1     150.760 158.563 156.719  0.00  0.00    +0.044 C 
ATOM     12  C12 UNL     1     150.609 156.291 157.691  0.00  0.00    +0.004 A 
ATOM     13  C13 UNL     1     150.515 155.398 158.745  0.00  0.00    +0.006 A 
ATOM     14  C14 UNL     1     150.507 155.870 160.060  0.00  0.00    -0.024 A 
ATOM     15  C15 UNL     1     150.394 154.876 161.189  0.00  0.00    +0.046 C 
ATOM     16  C16 UNL     1     150.607 157.239 160.339  0.00  0.00    +0.078 A 
ATOM     17  N2  UNL     1     150.601 157.599 161.631  0.00  0.00    -0.227 NA
ATOM     18  C17 UNL     1     150.727 158.863 162.004  0.00  0.00    +0.163 A 
ATOM     19  N3  UNL     1     150.741 159.093 163.317  0.00  0.00    -0.227 NA
ATOM     20  C18 UNL     1     150.898 160.337 163.790  0.00  0.00    +0.074 A 
ATOM     21  C19 UNL     1     150.910 160.554 165.162  0.00  0.00    +0.031 A 
ENDROOT
BRANCH   8  22
ATOM     22  N1  UNL     1     151.084 160.543 158.705  0.00  0.00    -0.357 N 
ATOM     23  H7  UNL     1     151.480 161.367 159.154  0.00  0.00    +0.142 HD
ATOM     24  H8  UNL     1     150.276 160.799 158.149  0.00  0.00    +0.142 HD
ENDBRANCH   8  22
TORSDOF 1
ENDMDL
MODEL 4
REMARK VINA RESULT:    -4.879      3.454      8.428
REMARK INTER + INTRA:          -5.021
REMARK INTER:                  -5.021
REMARK INTRA:                   0.000
REMARK UNBOUND:                 0.000
REMARK  Name = /home/vital/Documents/PhD_2021/Malaria_codes/data/pdb_ligands_mmv/ligand_281.pdb
REMARK  4 active torsions:
REMARK  status: ('A' for Active; 'I' for Inactive)
REMARK    1  A    between atoms: C1_1  and  C2_2
REMARK    2  A    between atoms: C8_8  and  N1_9
REMARK    3  A    between atoms: C10_11  and  C11_12
REMARK    4  A    between atoms: C14_15  and  C15_16
REMARK                            x       y       z     vdW  Elec       q    Type
REMARK                         _______ _______ _______ _____ _____    ______ ____
ROOT
ATOM      1  C1  UNL     1     151.507 163.541 165.426  0.00  0.00    +0.044 C 
ATOM      2  C2  UNL     1     151.595 162.143 164.892  0.00  0.00    -0.048 A 
ATOM      3  C3  UNL     1     152.015 161.093 165.709  0.00  0.00    +0.004 A 
ATOM      4  C4  UNL     1     152.122 159.805 165.186  0.00  0.00    +0.010 A 
ATOM      5  C5  UNL     1     151.818 159.560 163.835  0.00  0.00    +0.001 A 
ATOM      6  C6  UNL     1     151.912 158.288 163.266  0.00  0.00    +0.023 A 
ATOM      7  C7  UNL     1     151.608 158.080 161.901  0.00  0.00    +0.041 A 
ATOM      8  C8  UNL     1     151.689 156.827 161.225  0.00  0.00    +0.045 A 
ATOM      9  C9  UNL     1     151.275 156.710 159.860  0.00  0.00    +0.025 A 
ATOM     10  C10 UNL     1     151.260 155.509 159.065  0.00  0.00    -0.039 A 
ATOM     11  C11 UNL     1     151.720 154.170 159.586  0.00  0.00    +0.044 C 
ATOM     12  C12 UNL     1     150.819 155.547 157.735  0.00  0.00    +0.004 A 
ATOM     13  C13 UNL     1     150.412 156.740 157.164  0.00  0.00    +0.006 A 
ATOM     14  C14 UNL     1     150.441 157.919 157.914  0.00  0.00    -0.024 A 
ATOM     15  C15 UNL     1     150.000 159.206 157.263  0.00  0.00    +0.046 C 
ATOM     16  C16 UNL     1     150.865 157.917 159.249  0.00  0.00    +0.078 A 
ATOM     17  N2  UNL     1     150.851 159.093 159.893  0.00  0.00    -0.227 NA
ATOM     18  C17 UNL     1     151.197 159.195 161.167  0.00  0.00    +0.163 A 
ATOM     19  N3  UNL     1     151.110 160.411 161.707  0.00  0.00    -0.227 NA
ATOM     20  C18 UNL     1     151.408 160.606 163.000  0.00  0.00    +0.074 A 
ATOM     21  C19 UNL     1     151.310 161.881 163.542  0.00  0.00    +0.031 A 
ENDROOT
BRANCH   8  22
ATOM     22  N1  UNL     1     151.969 155.648 161.978  0.00  0.00    -0.357 N 
ATOM     23  H7  UNL     1     152.937 155.366 161.832  0.00  0.00    +0.142 HD
ATOM     24  H8  UNL     1     151.344 154.877 161.775  0.00  0.00    +0.142 HD
ENDBRANCH   8  22
TORSDOF 1
ENDMDL
MODEL 5
REMARK VINA RESULT:    -4.867      3.952      6.177
REMARK INTER + INTRA:          -5.009
REMARK INTER:                  -5.009
REMARK INTRA:                   0.000
REMARK UNBOUND:                 0.000
REMARK  Name = /home/vital/Documents/PhD_2021/Malaria_codes/data/pdb_ligands_mmv/ligand_281.pdb
REMARK  4 active torsions:
REMARK  status: ('A' for Active; 'I' for Inactive)
REMARK    1  A    between atoms: C1_1  and  C2_2
REMARK    2  A    between atoms: C8_8  and  N1_9
REMARK    3  A    between atoms: C10_11  and  C11_12
REMARK    4  A    between atoms: C14_15  and  C15_16
REMARK                            x       y       z     vdW  Elec       q    Type
REMARK                         _______ _______ _______ _____ _____    ______ ____
ROOT
ATOM      1  C1  UNL     1     150.787 155.507 156.982  0.00  0.00    +0.044 C 
ATOM      2  C2  UNL     1     150.596 156.702 157.868  0.00  0.00    -0.048 A 
ATOM      3  C3  UNL     1     150.061 157.887 157.361  0.00  0.00    +0.004 A 
ATOM      4  C4  UNL     1     149.921 158.997 158.192  0.00  0.00    +0.010 A 
ATOM      5  C5  UNL     1     150.326 158.933 159.537  0.00  0.00    +0.001 A 
ATOM      6  C6  UNL     1     150.208 160.020 160.407  0.00  0.00    +0.023 A 
ATOM      7  C7  UNL     1     150.635 159.923 161.751  0.00  0.00    +0.041 A 
ATOM      8  C8  UNL     1     150.571 160.976 162.709  0.00  0.00    +0.045 A 
ATOM      9  C9  UNL     1     150.951 160.746 164.070  0.00  0.00    +0.025 A 
ATOM     10  C10 UNL     1     150.901 161.696 165.150  0.00  0.00    -0.039 A 
ATOM     11  C11 UNL     1     150.442 163.123 164.973  0.00  0.00    +0.044 C 
ATOM     12  C12 UNL     1     151.302 161.322 166.440  0.00  0.00    +0.004 A 
ATOM     13  C13 UNL     1     151.770 160.043 166.687  0.00  0.00    +0.006 A 
ATOM     14  C14 UNL     1     151.847 159.115 165.645  0.00  0.00    -0.024 A 
ATOM     15  C15 UNL     1     152.369 157.731 165.940  0.00  0.00    +0.046 C 
ATOM     16  C16 UNL     1     151.444 159.450 164.346  0.00  0.00    +0.078 A 
ATOM     17  N2  UNL     1     151.544 158.493 163.412  0.00  0.00    -0.227 NA
ATOM     18  C17 UNL     1     151.157 158.694 162.162  0.00  0.00    +0.163 A 
ATOM     19  N3  UNL     1     151.274 157.657 161.333  0.00  0.00    -0.227 NA
ATOM     20  C18 UNL     1     150.877 157.755 160.056  0.00  0.00    +0.074 A 
ATOM     21  C19 UNL     1     151.008 156.662 159.210  0.00  0.00    +0.031 A 
ENDROOT
BRANCH   8  22
ATOM     22  N1  UNL     1     149.916 162.195 162.359  0.00  0.00    -0.357 N 
ATOM     23  H7  UNL     1     149.819 162.785 163.184  0.00  0.00    +0.142 HD
ATOM     24  H8  UNL     1     149.014 162.060 161.915  0.00  0.00    +0.142 HD
ENDBRANCH   8  22
TORSDOF 1
ENDMDL
MODEL 6
REMARK VINA RESULT:    -4.728      3.257      8.486
REMARK INTER + INTRA:          -4.867
REMARK INTER:                  -4.867
REMARK INTRA:                   0.000
REMARK UNBOUND:                 0.000
REMARK  Name = /home/vital/Documents/PhD_2021/Malaria_codes/data/pdb_ligands_mmv/ligand_281.pdb
REMARK  4 active torsions:
REMARK  status: ('A' for Active; 'I' for Inactive)
REMARK    1  A    between atoms: C1_1  and  C2_2
REMARK    2  A    between atoms: C8_8  and  N1_9
REMARK    3  A    between atoms: C10_11  and  C11_12
REMARK    4  A    between atoms: C14_15  and  C15_16
REMARK                            x       y       z     vdW  Elec       q    Type
REMARK                         _______ _______ _______ _____ _____    ______ ____
ROOT
ATOM      1  C1  UNL     1     150.832 154.924 167.831  0.00  0.00    +0.044 C 
ATOM      2  C2  UNL     1     150.699 154.812 166.342  0.00  0.00    -0.048 A 
ATOM      3  C3  UNL     1     150.544 153.567 165.732  0.00  0.00    +0.004 A 
ATOM      4  C4  UNL     1     150.454 153.479 164.343  0.00  0.00    +0.010 A 
ATOM      5  C5  UNL     1     150.531 154.639 163.553  0.00  0.00    +0.001 A 
ATOM      6  C6  UNL     1     150.450 154.602 162.158  0.00  0.00    +0.023 A 
ATOM      7  C7  UNL     1     150.541 155.788 161.394  0.00  0.00    +0.041 A 
ATOM      8  C8  UNL     1     150.485 155.851 159.972  0.00  0.00    +0.045 A 
ATOM      9  C9  UNL     1     150.501 157.115 159.299  0.00  0.00    +0.025 A 
ATOM     10  C10 UNL     1     150.409 157.336 157.880  0.00  0.00    -0.039 A 
ATOM     11  C11 UNL     1     150.303 156.215 156.876  0.00  0.00    +0.044 C 
ATOM     12  C12 UNL     1     150.431 158.639 157.364  0.00  0.00    +0.004 A 
ATOM     13  C13 UNL     1     150.560 159.727 158.209  0.00  0.00    +0.006 A 
ATOM     14  C14 UNL     1     150.673 159.530 159.588  0.00  0.00    -0.024 A 
ATOM     15  C15 UNL     1     150.822 160.733 160.486  0.00  0.00    +0.046 C 
ATOM     16  C16 UNL     1     150.644 158.243 160.140  0.00  0.00    +0.078 A 
ATOM     17  N2  UNL     1     150.749 158.150 161.474  0.00  0.00    -0.227 NA
ATOM     18  C17 UNL     1     150.697 156.984 162.099  0.00  0.00    +0.163 A 
ATOM     19  N3  UNL     1     150.778 157.022 163.429  0.00  0.00    -0.227 NA
ATOM     20  C18 UNL     1     150.701 155.894 164.150  0.00  0.00    +0.074 A 
ATOM     21  C19 UNL     1     150.788 155.957 165.535  0.00  0.00    +0.031 A 
ENDROOT
BRANCH   8  22
ATOM     22  N1  UNL     1     150.187 154.667 159.234  0.00  0.00    -0.357 N 
ATOM     23  H7  UNL     1     150.998 154.389 158.683  0.00  0.00    +0.142 HD
ATOM     24  H8  UNL     1     149.371 154.752 158.639  0.00  0.00    +0.142 HD
ENDBRANCH   8  22
TORSDOF 1
ENDMDL
MODEL 7
REMARK VINA RESULT:    -4.495      4.237      7.032
REMARK INTER + INTRA:          -4.626
REMARK INTER:                  -4.626
REMARK INTRA:                   0.000
REMARK UNBOUND:                 0.000
REMARK  Name = /home/vital/Documents/PhD_2021/Malaria_codes/data/pdb_ligands_mmv/ligand_281.pdb
REMARK  4 active torsions:
REMARK  status: ('A' for Active; 'I' for Inactive)
REMARK    1  A    between atoms: C1_1  and  C2_2
REMARK    2  A    between atoms: C8_8  and  N1_9
REMARK    3  A    between atoms: C10_11  and  C11_12
REMARK    4  A    between atoms: C14_15  and  C15_16
REMARK                            x       y       z     vdW  Elec       q    Type
REMARK                         _______ _______ _______ _____ _____    ______ ____
ROOT
ATOM      1  C1  UNL     1     150.490 158.433 156.686  0.00  0.00    +0.044 C 
ATOM      2  C2  UNL     1     150.676 157.796 158.031  0.00  0.00    -0.048 A 
ATOM      3  C3  UNL     1     150.582 156.413 158.184  0.00  0.00    +0.004 A 
ATOM      4  C4  UNL     1     150.726 155.841 159.448  0.00  0.00    +0.010 A 
ATOM      5  C5  UNL     1     150.956 156.654 160.572  0.00  0.00    +0.001 A 
ATOM      6  C6  UNL     1     151.104 156.128 161.858  0.00  0.00    +0.023 A 
ATOM      7  C7  UNL     1     151.324 156.976 162.967  0.00  0.00    +0.041 A 
ATOM      8  C8  UNL     1     151.472 156.539 164.316  0.00  0.00    +0.045 A 
ATOM      9  C9  UNL     1     151.778 157.476 165.354  0.00  0.00    +0.025 A 
ATOM     10  C10 UNL     1     151.995 157.177 166.746  0.00  0.00    -0.039 A 
ATOM     11  C11 UNL     1     151.902 155.783 167.314  0.00  0.00    +0.044 C 
ATOM     12  C12 UNL     1     152.295 158.205 167.651  0.00  0.00    +0.004 A 
ATOM     13  C13 UNL     1     152.367 159.519 167.223  0.00  0.00    +0.006 A 
ATOM     14  C14 UNL     1     152.136 159.829 165.880  0.00  0.00    -0.024 A 
ATOM     15  C15 UNL     1     152.212 161.271 165.443  0.00  0.00    +0.046 C 
ATOM     16  C16 UNL     1     151.845 158.828 164.945  0.00  0.00    +0.078 A 
ATOM     17  N2  UNL     1     151.648 159.217 163.677  0.00  0.00    -0.227 NA
ATOM     18  C17 UNL     1     151.402 158.347 162.710  0.00  0.00    +0.163 A 
ATOM     19  N3  UNL     1     151.257 158.851 161.484  0.00  0.00    -0.227 NA
ATOM     20  C18 UNL     1     151.040 158.045 160.436  0.00  0.00    +0.074 A 
ATOM     21  C19 UNL     1     150.893 158.592 159.168  0.00  0.00    +0.031 A 
ENDROOT
BRANCH   8  22
ATOM     22  N1  UNL     1     151.536 155.141 164.590  0.00  0.00    -0.357 N 
ATOM     23  H7  UNL     1     152.151 154.971 165.384  0.00  0.00    +0.142 HD
ATOM     24  H8  UNL     1     151.826 154.582 163.795  0.00  0.00    +0.142 HD
ENDBRANCH   8  22
TORSDOF 1
ENDMDL
MODEL 8
REMARK VINA RESULT:    -4.473      3.576      8.520
REMARK INTER + INTRA:          -4.603
REMARK INTER:                  -4.603
REMARK INTRA:                   0.000
REMARK UNBOUND:                 0.000
REMARK  Name = /home/vital/Documents/PhD_2021/Malaria_codes/data/pdb_ligands_mmv/ligand_281.pdb
REMARK  4 active torsions:
REMARK  status: ('A' for Active; 'I' for Inactive)
REMARK    1  A    between atoms: C1_1  and  C2_2
REMARK    2  A    between atoms: C8_8  and  N1_9
REMARK    3  A    between atoms: C10_11  and  C11_12
REMARK    4  A    between atoms: C14_15  and  C15_16
REMARK                            x       y       z     vdW  Elec       q    Type
REMARK                         _______ _______ _______ _____ _____    ______ ____
ROOT
ATOM      1  C1  UNL     1     153.030 161.584 166.762  0.00  0.00    +0.044 C 
ATOM      2  C2  UNL     1     152.609 160.561 165.750  0.00  0.00    -0.048 A 
ATOM      3  C3  UNL     1     152.313 159.253 166.138  0.00  0.00    +0.004 A 
ATOM      4  C4  UNL     1     151.954 158.307 165.179  0.00  0.00    +0.010 A 
ATOM      5  C5  UNL     1     151.899 158.662 163.819  0.00  0.00    +0.001 A 
ATOM      6  C6  UNL     1     151.548 157.749 162.821  0.00  0.00    +0.023 A 
ATOM      7  C7  UNL     1     151.513 158.138 161.462  0.00  0.00    +0.041 A 
ATOM      8  C8  UNL     1     151.183 157.279 160.374  0.00  0.00    +0.045 A 
ATOM      9  C9  UNL     1     151.094 157.796 159.041  0.00  0.00    +0.025 A 
ATOM     10  C10 UNL     1     150.733 157.063 157.856  0.00  0.00    -0.039 A 
ATOM     11  C11 UNL     1     150.412 155.589 157.864  0.00  0.00    +0.044 C 
ATOM     12  C12 UNL     1     150.680 157.709 156.613  0.00  0.00    +0.004 A 
ATOM     13  C13 UNL     1     150.993 159.053 156.507  0.00  0.00    +0.006 A 
ATOM     14  C14 UNL     1     151.367 159.775 157.644  0.00  0.00    -0.024 A 
ATOM     15  C15 UNL     1     151.712 161.236 157.498  0.00  0.00    +0.046 C 
ATOM     16  C16 UNL     1     151.420 159.165 158.903  0.00  0.00    +0.078 A 
ATOM     17  N2  UNL     1     151.780 159.937 159.939  0.00  0.00    -0.227 NA
ATOM     18  C17 UNL     1     151.826 159.468 161.177  0.00  0.00    +0.163 A 
ATOM     19  N3  UNL     1     152.166 160.340 162.126  0.00  0.00    -0.227 NA
ATOM     20  C18 UNL     1     152.207 159.966 163.413  0.00  0.00    +0.074 A 
ATOM     21  C19 UNL     1     152.562 160.891 164.386  0.00  0.00    +0.031 A 
ENDROOT
BRANCH   8  22
ATOM     22  N1  UNL     1     150.725 155.956 160.646  0.00  0.00    -0.357 N 
ATOM     23  H7  UNL     1     151.390 155.276 160.281  0.00  0.00    +0.142 HD
ATOM     24  H8  UNL     1     149.795 155.765 160.288  0.00  0.00    +0.142 HD
ENDBRANCH   8  22
TORSDOF 1
ENDMDL
MODEL 9
REMARK VINA RESULT:    -4.181      3.305      8.113
REMARK INTER + INTRA:          -4.303
REMARK INTER:                  -4.303
REMARK INTRA:                   0.000
REMARK UNBOUND:                 0.000
REMARK  Name = /home/vital/Documents/PhD_2021/Malaria_codes/data/pdb_ligands_mmv/ligand_281.pdb
REMARK  4 active torsions:
REMARK  status: ('A' for Active; 'I' for Inactive)
REMARK    1  A    between atoms: C1_1  and  C2_2
REMARK    2  A    between atoms: C8_8  and  N1_9
REMARK    3  A    between atoms: C10_11  and  C11_12
REMARK    4  A    between atoms: C14_15  and  C15_16
REMARK                            x       y       z     vdW  Elec       q    Type
REMARK                         _______ _______ _______ _____ _____    ______ ____
ROOT
ATOM      1  C1  UNL     1     151.530 155.939 167.323  0.00  0.00    +0.044 C 
ATOM      2  C2  UNL     1     151.645 156.892 166.172  0.00  0.00    -0.048 A 
ATOM      3  C3  UNL     1     151.952 158.236 166.387  0.00  0.00    +0.004 A 
ATOM      4  C4  UNL     1     152.023 159.115 165.307  0.00  0.00    +0.010 A 
ATOM      5  C5  UNL     1     151.776 158.656 164.001  0.00  0.00    +0.001 A 
ATOM      6  C6  UNL     1     151.833 159.499 162.888  0.00  0.00    +0.023 A 
ATOM      7  C7  UNL     1     151.569 159.004 161.591  0.00  0.00    +0.041 A 
ATOM      8  C8  UNL     1     151.587 159.785 160.398  0.00  0.00    +0.045 A 
ATOM      9  C9  UNL     1     151.390 159.166 159.122  0.00  0.00    +0.025 A 
ATOM     10  C10 UNL     1     151.421 159.816 157.837  0.00  0.00    -0.039 A 
ATOM     11  C11 UNL     1     151.654 161.297 157.667  0.00  0.00    +0.044 C 
ATOM     12  C12 UNL     1     151.216 159.075 156.665  0.00  0.00    +0.004 A 
ATOM     13  C13 UNL     1     150.961 157.716 156.729  0.00  0.00    +0.006 A 
ATOM     14  C14 UNL     1     150.904 157.074 157.969  0.00  0.00    -0.024 A 
ATOM     15  C15 UNL     1     150.615 155.594 158.010  0.00  0.00    +0.046 C 
ATOM     16  C16 UNL     1     151.115 157.780 159.160  0.00  0.00    +0.078 A 
ATOM     17  N2  UNL     1     151.051 157.081 160.302  0.00  0.00    -0.227 NA
ATOM     18  C17 UNL     1     151.271 157.644 161.480  0.00  0.00    +0.163 A 
ATOM     19  N3  UNL     1     151.213 156.839 162.541  0.00  0.00    -0.227 NA
ATOM     20  C18 UNL     1     151.454 157.313 163.771  0.00  0.00    +0.074 A 
ATOM     21  C19 UNL     1     151.389 156.456 164.862  0.00  0.00    +0.031 A 
ENDROOT
BRANCH   8  22
ATOM     22  N1  UNL     1     152.024 161.141 160.461  0.00  0.00    -0.357 N 
ATOM     23  H7  UNL     1     152.572 161.368 159.633  0.00  0.00    +0.142 HD
ATOM     24  H8  UNL     1     152.548 161.362 161.300  0.00  0.00    +0.142 HD
ENDBRANCH   8  22
TORSDOF 1
ENDMDL
