MODEL 1
REMARK VINA RESULT:    -7.864      0.000      0.000
REMARK INTER + INTRA:         -12.405
REMARK INTER:                 -11.083
REMARK INTRA:                  -1.322
REMARK UNBOUND:                -1.322
REMARK  Name = /home/vital/Documents/PhD_2021/Malaria_codes/data/pdb_ligands_mmv/ligand_63.pdb
REMARK  11 active torsions:
REMARK  status: ('A' for Active; 'I' for Inactive)
REMARK    1  A    between atoms: C1_1  and  O1_2
REMARK    2  A    between atoms: O1_2  and  C2_3
REMARK    3  A    between atoms: C5_6  and  N1_11
REMARK    4  A    between atoms: C6_7  and  O2_8
REMARK    5  A    between atoms: O2_8  and  C7_9
REMARK    6  A    between atoms: C11_15  and  S1_16
REMARK    7  A    between atoms: S1_16  and  C12_17
REMARK    8  A    between atoms: C12_17  and  C13_18
REMARK    9  A    between atoms: N3_20  and  C14_21
REMARK   10  A    between atoms: C16_23  and  C17_24
REMARK   11  A    between atoms: C20_27  and  C21_28
REMARK                            x       y       z     vdW  Elec       q    Type
REMARK                         _______ _______ _______ _____ _____    ______ ____
ROOT
ATOM      1  N1  UNL     1     151.165 159.539 161.733  0.00  0.00    -0.291 N 
ATOM      2  C9  UNL     1     150.634 160.339 162.730  0.00  0.00    +0.113 A 
ATOM      3  C10 UNL     1     151.142 161.598 162.535  0.00  0.00    +0.131 A 
ATOM      4  N2  UNL     1     151.961 161.628 161.442  0.00  0.00    -0.230 NA
ATOM      5  C11 UNL     1     151.926 160.405 160.953  0.00  0.00    +0.174 A 
ENDROOT
BRANCH   1   9
ATOM      6  C2  UNL     1     150.607 155.365 161.272  0.00  0.00    +0.124 A 
ATOM      7  C3  UNL     1     149.665 156.269 160.789  0.00  0.00    +0.048 A 
ATOM      8  C4  UNL     1     149.846 157.643 160.958  0.00  0.00    +0.033 A 
ATOM      9  C5  UNL     1     150.982 158.129 161.623  0.00  0.00    +0.090 A 
ATOM     10  C6  UNL     1     151.938 157.221 162.125  0.00  0.00    +0.147 A 
ATOM     11  C8  UNL     1     151.740 155.842 161.937  0.00  0.00    +0.093 A 
BRANCH   6  13
ATOM     12  C1  UNL     1     149.067 153.567 161.532  0.00  0.00    +0.277 C 
ATOM     13  O1  UNL     1     150.306 154.053 161.032  0.00  0.00    -0.495 OA
ENDBRANCH   6  13
BRANCH  10  14
ATOM     14  O2  UNL     1     152.995 157.742 162.826  0.00  0.00    -0.493 OA
ATOM     15  C7  UNL     1     152.965 157.673 164.245  0.00  0.00    +0.277 C 
ENDBRANCH  10  14
ENDBRANCH   1   9
BRANCH   5  16
ATOM     16  S1  UNL     1     152.614 159.999 159.407  0.00  0.00    -0.078 S 
BRANCH  16  17
ATOM     17  C12 UNL     1     151.268 160.477 158.285  0.00  0.00    +0.173 C 
BRANCH  17  18
ATOM     18  C13 UNL     1     150.981 159.380 157.270  0.00  0.00    +0.227 C 
ATOM     19  O3  UNL     1     149.831 159.204 156.872  0.00  0.00    -0.275 OA
ATOM     20  N3  UNL     1     152.109 158.686 156.864  0.00  0.00    -0.285 N 
ATOM     21  H14 UNL     1     152.969 158.942 157.349  0.00  0.00    +0.155 HD
BRANCH  20  22
ATOM     22  C14 UNL     1     152.193 157.631 155.923  0.00  0.00    +0.037 A 
ATOM     23  C15 UNL     1     152.537 157.848 154.581  0.00  0.00    +0.027 A 
ATOM     24  C16 UNL     1     152.620 156.790 153.659  0.00  0.00    -0.049 A 
ATOM     25  C17 UNL     1     152.980 157.075 152.230  0.00  0.00    +0.044 C 
ATOM     26  C18 UNL     1     152.353 155.492 154.087  0.00  0.00    +0.004 A 
ATOM     27  C19 UNL     1     152.012 155.255 155.418  0.00  0.00    +0.005 A 
ATOM     28  C20 UNL     1     151.927 156.310 156.345  0.00  0.00    -0.029 A 
ATOM     29  C21 UNL     1     151.535 155.978 157.760  0.00  0.00    +0.045 C 
ENDBRANCH  20  22
ENDBRANCH  17  18
ENDBRANCH  16  17
ENDBRANCH   5  16
TORSDOF 7
ENDMDL
MODEL 2
REMARK VINA RESULT:    -7.613      3.898      5.354
REMARK INTER + INTRA:         -12.050
REMARK INTER:                 -11.039
REMARK INTRA:                  -1.011
REMARK UNBOUND:                -1.322
REMARK  Name = /home/vital/Documents/PhD_2021/Malaria_codes/data/pdb_ligands_mmv/ligand_63.pdb
REMARK  11 active torsions:
REMARK  status: ('A' for Active; 'I' for Inactive)
REMARK    1  A    between atoms: C1_1  and  O1_2
REMARK    2  A    between atoms: O1_2  and  C2_3
REMARK    3  A    between atoms: C5_6  and  N1_11
REMARK    4  A    between atoms: C6_7  and  O2_8
REMARK    5  A    between atoms: O2_8  and  C7_9
REMARK    6  A    between atoms: C11_15  and  S1_16
REMARK    7  A    between atoms: S1_16  and  C12_17
REMARK    8  A    between atoms: C12_17  and  C13_18
REMARK    9  A    between atoms: N3_20  and  C14_21
REMARK   10  A    between atoms: C16_23  and  C17_24
REMARK   11  A    between atoms: C20_27  and  C21_28
REMARK                            x       y       z     vdW  Elec       q    Type
REMARK                         _______ _______ _______ _____ _____    ______ ____
ROOT
ATOM      1  N1  UNL     1     151.243 157.451 166.731  0.00  0.00    -0.291 N 
ATOM      2  C9  UNL     1     150.596 158.259 167.650  0.00  0.00    +0.113 A 
ATOM      3  C10 UNL     1     150.373 159.461 167.029  0.00  0.00    +0.131 A 
ATOM      4  N2  UNL     1     150.842 159.439 165.746  0.00  0.00    -0.230 NA
ATOM      5  C11 UNL     1     151.314 158.220 165.573  0.00  0.00    +0.174 A 
ENDROOT
BRANCH   1   9
ATOM      6  C2  UNL     1     152.787 153.615 167.652  0.00  0.00    +0.124 A 
ATOM      7  C3  UNL     1     153.534 154.763 167.896  0.00  0.00    +0.048 A 
ATOM      8  C4  UNL     1     153.027 156.024 167.576  0.00  0.00    +0.033 A 
ATOM      9  C5  UNL     1     151.756 156.147 166.998  0.00  0.00    +0.090 A 
ATOM     10  C6  UNL     1     150.993 154.990 166.736  0.00  0.00    +0.147 A 
ATOM     11  C8  UNL     1     151.519 153.731 167.074  0.00  0.00    +0.093 A 
BRANCH   6  13
ATOM     12  C1  UNL     1     152.686 151.579 168.884  0.00  0.00    +0.277 C 
ATOM     13  O1  UNL     1     153.402 152.450 168.019  0.00  0.00    -0.495 OA
ENDBRANCH   6  13
BRANCH  10  14
ATOM     14  O2  UNL     1     149.786 155.157 166.107  0.00  0.00    -0.493 OA
ATOM     15  C7  UNL     1     149.593 154.549 164.838  0.00  0.00    +0.277 C 
ENDBRANCH  10  14
ENDBRANCH   1   9
BRANCH   5  16
ATOM     16  S1  UNL     1     151.795 157.618 164.014  0.00  0.00    -0.078 S 
BRANCH  16  17
ATOM     17  C12 UNL     1     151.465 159.062 162.961  0.00  0.00    +0.173 C 
BRANCH  17  18
ATOM     18  C13 UNL     1     150.729 158.660 161.691  0.00  0.00    +0.227 C 
ATOM     19  O3  UNL     1     149.580 159.056 161.502  0.00  0.00    -0.275 OA
ATOM     20  N3  UNL     1     151.483 157.879 160.831  0.00  0.00    -0.285 N 
ATOM     21  H14 UNL     1     152.400 157.609 161.188  0.00  0.00    +0.155 HD
BRANCH  20  22
ATOM     22  C14 UNL     1     151.110 157.361 159.567  0.00  0.00    +0.037 A 
ATOM     23  C15 UNL     1     151.195 158.119 158.390  0.00  0.00    +0.027 A 
ATOM     24  C16 UNL     1     150.824 157.590 157.142  0.00  0.00    -0.049 A 
ATOM     25  C17 UNL     1     150.922 158.444 155.912  0.00  0.00    +0.044 C 
ATOM     26  C18 UNL     1     150.357 156.280 157.070  0.00  0.00    +0.004 A 
ATOM     27  C19 UNL     1     150.267 155.509 158.229  0.00  0.00    +0.005 A 
ATOM     28  C20 UNL     1     150.637 156.034 159.481  0.00  0.00    -0.029 A 
ATOM     29  C21 UNL     1     150.494 155.147 160.688  0.00  0.00    +0.045 C 
ENDBRANCH  20  22
ENDBRANCH  17  18
ENDBRANCH  16  17
ENDBRANCH   5  16
TORSDOF 7
ENDMDL
MODEL 3
REMARK VINA RESULT:    -7.381      4.142      6.909
REMARK INTER + INTRA:         -11.723
REMARK INTER:                 -10.093
REMARK INTRA:                  -1.630
REMARK UNBOUND:                -1.322
REMARK  Name = /home/vital/Documents/PhD_2021/Malaria_codes/data/pdb_ligands_mmv/ligand_63.pdb
REMARK  11 active torsions:
REMARK  status: ('A' for Active; 'I' for Inactive)
REMARK    1  A    between atoms: C1_1  and  O1_2
REMARK    2  A    between atoms: O1_2  and  C2_3
REMARK    3  A    between atoms: C5_6  and  N1_11
REMARK    4  A    between atoms: C6_7  and  O2_8
REMARK    5  A    between atoms: O2_8  and  C7_9
REMARK    6  A    between atoms: C11_15  and  S1_16
REMARK    7  A    between atoms: S1_16  and  C12_17
REMARK    8  A    between atoms: C12_17  and  C13_18
REMARK    9  A    between atoms: N3_20  and  C14_21
REMARK   10  A    between atoms: C16_23  and  C17_24
REMARK   11  A    between atoms: C20_27  and  C21_28
REMARK                            x       y       z     vdW  Elec       q    Type
REMARK                         _______ _______ _______ _____ _____    ______ ____
ROOT
ATOM      1  N1  UNL     1     151.976 155.949 167.101  0.00  0.00    -0.291 N 
ATOM      2  C9  UNL     1     153.137 155.568 167.752  0.00  0.00    +0.113 A 
ATOM      3  C10 UNL     1     153.016 154.229 168.020  0.00  0.00    +0.131 A 
ATOM      4  N2  UNL     1     151.829 153.744 167.549  0.00  0.00    -0.230 NA
ATOM      5  C11 UNL     1     151.245 154.772 166.966  0.00  0.00    +0.174 A 
ENDROOT
BRANCH   1   9
ATOM      6  C2  UNL     1     151.047 159.962 166.112  0.00  0.00    +0.124 A 
ATOM      7  C3  UNL     1     150.794 159.464 167.386  0.00  0.00    +0.048 A 
ATOM      8  C4  UNL     1     151.088 158.136 167.703  0.00  0.00    +0.033 A 
ATOM      9  C5  UNL     1     151.638 157.285 166.733  0.00  0.00    +0.090 A 
ATOM     10  C6  UNL     1     151.889 157.776 165.435  0.00  0.00    +0.147 A 
ATOM     11  C8  UNL     1     151.594 159.118 165.140  0.00  0.00    +0.093 A 
BRANCH   6  13
ATOM     12  C1  UNL     1     150.075 161.638 164.727  0.00  0.00    +0.277 C 
ATOM     13  O1  UNL     1     150.717 161.278 165.943  0.00  0.00    -0.495 OA
ENDBRANCH   6  13
BRANCH  10  14
ATOM     14  O2  UNL     1     152.363 156.887 164.505  0.00  0.00    -0.493 OA
ATOM     15  C7  UNL     1     153.545 157.221 163.790  0.00  0.00    +0.277 C 
ENDBRANCH  10  14
ENDBRANCH   1   9
BRANCH   5  16
ATOM     16  S1  UNL     1     149.814 154.602 165.991  0.00  0.00    -0.078 S 
BRANCH  16  17
ATOM     17  C12 UNL     1     150.475 153.727 164.543  0.00  0.00    +0.173 C 
BRANCH  17  18
ATOM     18  C13 UNL     1     149.967 154.343 163.248  0.00  0.00    +0.227 C 
ATOM     19  O3  UNL     1     148.793 154.187 162.919  0.00  0.00    -0.275 OA
ATOM     20  N3  UNL     1     150.924 155.074 162.564  0.00  0.00    -0.285 N 
ATOM     21  H14 UNL     1     151.860 155.043 162.969  0.00  0.00    +0.155 HD
BRANCH  20  22
ATOM     22  C14 UNL     1     150.775 155.789 161.351  0.00  0.00    +0.037 A 
ATOM     23  C15 UNL     1     150.236 157.083 161.302  0.00  0.00    +0.027 A 
ATOM     24  C16 UNL     1     150.097 157.781 160.090  0.00  0.00    -0.049 A 
ATOM     25  C17 UNL     1     149.503 159.159 160.088  0.00  0.00    +0.044 C 
ATOM     26  C18 UNL     1     150.504 157.173 158.905  0.00  0.00    +0.004 A 
ATOM     27  C19 UNL     1     151.044 155.888 158.931  0.00  0.00    +0.005 A 
ATOM     28  C20 UNL     1     151.186 155.185 160.142  0.00  0.00    -0.029 A 
ATOM     29  C21 UNL     1     151.760 153.795 160.089  0.00  0.00    +0.045 C 
ENDBRANCH  20  22
ENDBRANCH  17  18
ENDBRANCH  16  17
ENDBRANCH   5  16
TORSDOF 7
ENDMDL
MODEL 4
REMARK VINA RESULT:    -7.249      3.543      4.796
REMARK INTER + INTRA:         -11.537
REMARK INTER:                 -10.491
REMARK INTRA:                  -1.047
REMARK UNBOUND:                -1.322
REMARK  Name = /home/vital/Documents/PhD_2021/Malaria_codes/data/pdb_ligands_mmv/ligand_63.pdb
REMARK  11 active torsions:
REMARK  status: ('A' for Active; 'I' for Inactive)
REMARK    1  A    between atoms: C1_1  and  O1_2
REMARK    2  A    between atoms: O1_2  and  C2_3
REMARK    3  A    between atoms: C5_6  and  N1_11
REMARK    4  A    between atoms: C6_7  and  O2_8
REMARK    5  A    between atoms: O2_8  and  C7_9
REMARK    6  A    between atoms: C11_15  and  S1_16
REMARK    7  A    between atoms: S1_16  and  C12_17
REMARK    8  A    between atoms: C12_17  and  C13_18
REMARK    9  A    between atoms: N3_20  and  C14_21
REMARK   10  A    between atoms: C16_23  and  C17_24
REMARK   11  A    between atoms: C20_27  and  C21_28
REMARK                            x       y       z     vdW  Elec       q    Type
REMARK                         _______ _______ _______ _____ _____    ______ ____
ROOT
ATOM      1  N1  UNL     1     150.995 157.279 166.578  0.00  0.00    -0.291 N 
ATOM      2  C9  UNL     1     150.393 158.092 167.523  0.00  0.00    +0.113 A 
ATOM      3  C10 UNL     1     151.007 159.315 167.437  0.00  0.00    +0.131 A 
ATOM      4  N2  UNL     1     151.964 159.311 166.462  0.00  0.00    -0.230 NA
ATOM      5  C11 UNL     1     151.910 158.105 165.933  0.00  0.00    +0.174 A 
ENDROOT
BRANCH   1   9
ATOM      6  C2  UNL     1     150.233 153.164 165.914  0.00  0.00    +0.124 A 
ATOM      7  C3  UNL     1     149.519 154.143 165.229  0.00  0.00    +0.048 A 
ATOM      8  C4  UNL     1     149.763 155.497 165.463  0.00  0.00    +0.033 A 
ATOM      9  C5  UNL     1     150.731 155.888 166.400  0.00  0.00    +0.090 A 
ATOM     10  C6  UNL     1     151.454 154.905 167.107  0.00  0.00    +0.147 A 
ATOM     11  C8  UNL     1     151.198 153.548 166.850  0.00  0.00    +0.093 A 
BRANCH   6  13
ATOM     12  C1  UNL     1     148.636 151.680 164.956  0.00  0.00    +0.277 C 
ATOM     13  O1  UNL     1     149.896 151.881 165.583  0.00  0.00    -0.495 OA
ENDBRANCH   6  13
BRANCH  10  14
ATOM     14  O2  UNL     1     152.340 155.338 168.061  0.00  0.00    -0.493 OA
ATOM     15  C7  UNL     1     153.728 155.299 167.761  0.00  0.00    +0.277 C 
ENDBRANCH  10  14
ENDBRANCH   1   9
BRANCH   5  16
ATOM     16  S1  UNL     1     152.768 157.686 164.478  0.00  0.00    -0.078 S 
BRANCH  16  17
ATOM     17  C12 UNL     1     151.463 157.887 163.229  0.00  0.00    +0.173 C 
BRANCH  17  18
ATOM     18  C13 UNL     1     152.011 157.683 161.824  0.00  0.00    +0.227 C 
ATOM     19  O3  UNL     1     153.200 157.895 161.598  0.00  0.00    -0.275 OA
ATOM     20  N3  UNL     1     151.067 157.230 160.917  0.00  0.00    -0.285 N 
ATOM     21  H14 UNL     1     150.116 157.165 161.282  0.00  0.00    +0.155 HD
BRANCH  20  22
ATOM     22  C14 UNL     1     151.251 156.920 159.548  0.00  0.00    +0.037 A 
ATOM     23  C15 UNL     1     151.207 157.897 158.543  0.00  0.00    +0.027 A 
ATOM     24  C16 UNL     1     151.396 157.574 157.189  0.00  0.00    -0.049 A 
ATOM     25  C17 UNL     1     151.328 158.654 156.149  0.00  0.00    +0.044 C 
ATOM     26  C18 UNL     1     151.630 156.249 156.832  0.00  0.00    +0.004 A 
ATOM     27  C19 UNL     1     151.680 155.261 157.816  0.00  0.00    +0.005 A 
ATOM     28  C20 UNL     1     151.492 155.580 159.173  0.00  0.00    -0.029 A 
ATOM     29  C21 UNL     1     151.541 154.457 160.175  0.00  0.00    +0.045 C 
ENDBRANCH  20  22
ENDBRANCH  17  18
ENDBRANCH  16  17
ENDBRANCH   5  16
TORSDOF 7
ENDMDL
MODEL 5
REMARK VINA RESULT:    -7.019      3.906      6.201
REMARK INTER + INTRA:         -11.214
REMARK INTER:                 -10.303
REMARK INTRA:                  -0.910
REMARK UNBOUND:                -1.322
REMARK  Name = /home/vital/Documents/PhD_2021/Malaria_codes/data/pdb_ligands_mmv/ligand_63.pdb
REMARK  11 active torsions:
REMARK  status: ('A' for Active; 'I' for Inactive)
REMARK    1  A    between atoms: C1_1  and  O1_2
REMARK    2  A    between atoms: O1_2  and  C2_3
REMARK    3  A    between atoms: C5_6  and  N1_11
REMARK    4  A    between atoms: C6_7  and  O2_8
REMARK    5  A    between atoms: O2_8  and  C7_9
REMARK    6  A    between atoms: C11_15  and  S1_16
REMARK    7  A    between atoms: S1_16  and  C12_17
REMARK    8  A    between atoms: C12_17  and  C13_18
REMARK    9  A    between atoms: N3_20  and  C14_21
REMARK   10  A    between atoms: C16_23  and  C17_24
REMARK   11  A    between atoms: C20_27  and  C21_28
REMARK                            x       y       z     vdW  Elec       q    Type
REMARK                         _______ _______ _______ _____ _____    ______ ____
ROOT
ATOM      1  N1  UNL     1     150.333 161.668 165.849  0.00  0.00    -0.291 N 
ATOM      2  C9  UNL     1     149.134 162.335 166.033  0.00  0.00    +0.113 A 
ATOM      3  C10 UNL     1     148.647 162.618 164.783  0.00  0.00    +0.131 A 
ATOM      4  N2  UNL     1     149.485 162.141 163.815  0.00  0.00    -0.230 NA
ATOM      5  C11 UNL     1     150.458 161.540 164.469  0.00  0.00    +0.174 A 
ENDROOT
BRANCH   1   9
ATOM      6  C2  UNL     1     152.964 160.632 169.004  0.00  0.00    +0.124 A 
ATOM      7  C3  UNL     1     153.126 161.822 168.300  0.00  0.00    +0.048 A 
ATOM      8  C4  UNL     1     152.266 162.151 167.251  0.00  0.00    +0.033 A 
ATOM      9  C5  UNL     1     151.228 161.279 166.890  0.00  0.00    +0.090 A 
ATOM     10  C6  UNL     1     151.061 160.067 167.590  0.00  0.00    +0.147 A 
ATOM     11  C8  UNL     1     151.932 159.759 168.648  0.00  0.00    +0.093 A 
BRANCH   6  13
ATOM     12  C1  UNL     1     155.230 160.247 169.632  0.00  0.00    +0.277 C 
ATOM     13  O1  UNL     1     153.872 160.441 170.008  0.00  0.00    -0.495 OA
ENDBRANCH   6  13
BRANCH  10  14
ATOM     14  O2  UNL     1     150.075 159.218 167.155  0.00  0.00    -0.493 OA
ATOM     15  C7  UNL     1     150.399 157.849 166.956  0.00  0.00    +0.277 C 
ENDBRANCH  10  14
ENDBRANCH   1   9
BRANCH   5  16
ATOM     16  S1  UNL     1     151.647 160.552 163.671  0.00  0.00    -0.078 S 
BRANCH  16  17
ATOM     17  C12 UNL     1     151.215 160.820 161.926  0.00  0.00    +0.173 C 
BRANCH  17  18
ATOM     18  C13 UNL     1     150.654 159.553 161.298  0.00  0.00    +0.227 C 
ATOM     19  O3  UNL     1     149.565 159.119 161.670  0.00  0.00    -0.275 OA
ATOM     20  N3  UNL     1     151.457 159.019 160.304  0.00  0.00    -0.285 N 
ATOM     21  H14 UNL     1     152.352 159.492 160.173  0.00  0.00    +0.155 HD
BRANCH  20  22
ATOM     22  C14 UNL     1     151.218 157.870 159.511  0.00  0.00    +0.037 A 
ATOM     23  C15 UNL     1     151.574 156.580 159.930  0.00  0.00    +0.027 A 
ATOM     24  C16 UNL     1     151.326 155.449 159.133  0.00  0.00    -0.049 A 
ATOM     25  C17 UNL     1     151.737 154.091 159.620  0.00  0.00    +0.044 C 
ATOM     26  C18 UNL     1     150.713 155.612 157.893  0.00  0.00    +0.004 A 
ATOM     27  C19 UNL     1     150.349 156.886 157.459  0.00  0.00    +0.005 A 
ATOM     28  C20 UNL     1     150.594 158.022 158.253  0.00  0.00    -0.029 A 
ATOM     29  C21 UNL     1     150.190 159.365 157.708  0.00  0.00    +0.045 C 
ENDBRANCH  20  22
ENDBRANCH  17  18
ENDBRANCH  16  17
ENDBRANCH   5  16
TORSDOF 7
ENDMDL
MODEL 6
REMARK VINA RESULT:    -6.953      3.818      5.848
REMARK INTER + INTRA:         -11.120
REMARK INTER:                 -10.267
REMARK INTRA:                  -0.853
REMARK UNBOUND:                -1.322
REMARK  Name = /home/vital/Documents/PhD_2021/Malaria_codes/data/pdb_ligands_mmv/ligand_63.pdb
REMARK  11 active torsions:
REMARK  status: ('A' for Active; 'I' for Inactive)
REMARK    1  A    between atoms: C1_1  and  O1_2
REMARK    2  A    between atoms: O1_2  and  C2_3
REMARK    3  A    between atoms: C5_6  and  N1_11
REMARK    4  A    between atoms: C6_7  and  O2_8
REMARK    5  A    between atoms: O2_8  and  C7_9
REMARK    6  A    between atoms: C11_15  and  S1_16
REMARK    7  A    between atoms: S1_16  and  C12_17
REMARK    8  A    between atoms: C12_17  and  C13_18
REMARK    9  A    between atoms: N3_20  and  C14_21
REMARK   10  A    between atoms: C16_23  and  C17_24
REMARK   11  A    between atoms: C20_27  and  C21_28
REMARK                            x       y       z     vdW  Elec       q    Type
REMARK                         _______ _______ _______ _____ _____    ______ ____
ROOT
ATOM      1  N1  UNL     1     150.284 161.779 165.818  0.00  0.00    -0.291 N 
ATOM      2  C9  UNL     1     149.275 162.668 166.148  0.00  0.00    +0.113 A 
ATOM      3  C10 UNL     1     148.718 163.086 164.967  0.00  0.00    +0.131 A 
ATOM      4  N2  UNL     1     149.325 162.482 163.903  0.00  0.00    -0.230 NA
ATOM      5  C11 UNL     1     150.223 161.675 164.431  0.00  0.00    +0.174 A 
ENDROOT
BRANCH   1   9
ATOM      6  C2  UNL     1     152.981 160.126 168.636  0.00  0.00    +0.124 A 
ATOM      7  C3  UNL     1     153.275 161.318 167.980  0.00  0.00    +0.048 A 
ATOM      8  C4  UNL     1     152.390 161.850 167.041  0.00  0.00    +0.033 A 
ATOM      9  C5  UNL     1     151.192 161.183 166.743  0.00  0.00    +0.090 A 
ATOM     10  C6  UNL     1     150.889 159.970 167.394  0.00  0.00    +0.147 A 
ATOM     11  C8  UNL     1     151.790 159.456 168.342  0.00  0.00    +0.093 A 
BRANCH   6  13
ATOM     12  C1  UNL     1     155.084 160.546 169.672  0.00  0.00    +0.277 C 
ATOM     13  O1  UNL     1     153.932 159.725 169.533  0.00  0.00    -0.495 OA
ENDBRANCH   6  13
BRANCH  10  14
ATOM     14  O2  UNL     1     149.740 159.322 167.019  0.00  0.00    -0.493 OA
ATOM     15  C7  UNL     1     148.606 159.406 167.871  0.00  0.00    +0.277 C 
ENDBRANCH  10  14
ENDBRANCH   1   9
BRANCH   5  16
ATOM     16  S1  UNL     1     151.086 160.494 163.489  0.00  0.00    -0.078 S 
BRANCH  16  17
ATOM     17  C12 UNL     1     150.384 160.778 161.838  0.00  0.00    +0.173 C 
BRANCH  17  18
ATOM     18  C13 UNL     1     151.021 159.861 160.804  0.00  0.00    +0.227 C 
ATOM     19  O3  UNL     1     152.243 159.731 160.776  0.00  0.00    -0.275 OA
ATOM     20  N3  UNL     1     150.104 159.218 159.988  0.00  0.00    -0.285 N 
ATOM     21  H14 UNL     1     149.133 159.497 160.129  0.00  0.00    +0.155 HD
BRANCH  20  22
ATOM     22  C14 UNL     1     150.361 158.288 158.951  0.00  0.00    +0.037 A 
ATOM     23  C15 UNL     1     150.614 158.687 157.630  0.00  0.00    +0.027 A 
ATOM     24  C16 UNL     1     150.870 157.752 156.612  0.00  0.00    -0.049 A 
ATOM     25  C17 UNL     1     151.123 158.228 155.211  0.00  0.00    +0.044 C 
ATOM     26  C18 UNL     1     150.872 156.394 156.921  0.00  0.00    +0.004 A 
ATOM     27  C19 UNL     1     150.625 155.977 158.229  0.00  0.00    +0.005 A 
ATOM     28  C20 UNL     1     150.368 156.909 159.251  0.00  0.00    -0.029 A 
ATOM     29  C21 UNL     1     150.092 156.382 160.634  0.00  0.00    +0.045 C 
ENDBRANCH  20  22
ENDBRANCH  17  18
ENDBRANCH  16  17
ENDBRANCH   5  16
TORSDOF 7
ENDMDL
MODEL 7
REMARK VINA RESULT:    -6.828      3.522      5.601
REMARK INTER + INTRA:         -10.944
REMARK INTER:                 -10.136
REMARK INTRA:                  -0.808
REMARK UNBOUND:                -1.322
REMARK  Name = /home/vital/Documents/PhD_2021/Malaria_codes/data/pdb_ligands_mmv/ligand_63.pdb
REMARK  11 active torsions:
REMARK  status: ('A' for Active; 'I' for Inactive)
REMARK    1  A    between atoms: C1_1  and  O1_2
REMARK    2  A    between atoms: O1_2  and  C2_3
REMARK    3  A    between atoms: C5_6  and  N1_11
REMARK    4  A    between atoms: C6_7  and  O2_8
REMARK    5  A    between atoms: O2_8  and  C7_9
REMARK    6  A    between atoms: C11_15  and  S1_16
REMARK    7  A    between atoms: S1_16  and  C12_17
REMARK    8  A    between atoms: C12_17  and  C13_18
REMARK    9  A    between atoms: N3_20  and  C14_21
REMARK   10  A    between atoms: C16_23  and  C17_24
REMARK   11  A    between atoms: C20_27  and  C21_28
REMARK                            x       y       z     vdW  Elec       q    Type
REMARK                         _______ _______ _______ _____ _____    ______ ____
ROOT
ATOM      1  N1  UNL     1     151.804 159.054 164.778  0.00  0.00    -0.291 N 
ATOM      2  C9  UNL     1     151.730 157.688 164.992  0.00  0.00    +0.113 A 
ATOM      3  C10 UNL     1     151.255 157.134 163.831  0.00  0.00    +0.131 A 
ATOM      4  N2  UNL     1     151.041 158.097 162.885  0.00  0.00    -0.230 NA
ATOM      5  C11 UNL     1     151.416 159.225 163.452  0.00  0.00    +0.174 A 
ENDROOT
BRANCH   1   9
ATOM      6  C2  UNL     1     152.883 162.016 167.608  0.00  0.00    +0.124 A 
ATOM      7  C3  UNL     1     153.833 161.466 166.753  0.00  0.00    +0.048 A 
ATOM      8  C4  UNL     1     153.475 160.479 165.833  0.00  0.00    +0.033 A 
ATOM      9  C5  UNL     1     152.150 160.025 165.765  0.00  0.00    +0.090 A 
ATOM     10  C6  UNL     1     151.181 160.568 166.634  0.00  0.00    +0.147 A 
ATOM     11  C8  UNL     1     151.561 161.567 167.546  0.00  0.00    +0.093 A 
BRANCH   6  13
ATOM     12  C1  UNL     1     152.623 163.248 169.630  0.00  0.00    +0.277 C 
ATOM     13  O1  UNL     1     153.371 162.975 168.452  0.00  0.00    -0.495 OA
ENDBRANCH   6  13
BRANCH  10  14
ATOM     14  O2  UNL     1     149.915 160.044 166.575  0.00  0.00    -0.493 OA
ATOM     15  C7  UNL     1     149.251 159.741 167.794  0.00  0.00    +0.277 C 
ENDBRANCH  10  14
ENDBRANCH   1   9
BRANCH   5  16
ATOM     16  S1  UNL     1     151.571 160.711 162.561  0.00  0.00    -0.078 S 
BRANCH  16  17
ATOM     17  C12 UNL     1     150.558 160.351 161.095  0.00  0.00    +0.173 C 
BRANCH  17  18
ATOM     18  C13 UNL     1     151.368 159.623 160.032  0.00  0.00    +0.227 C 
ATOM     19  O3  UNL     1     152.562 159.882 159.893  0.00  0.00    -0.275 OA
ATOM     20  N3  UNL     1     150.642 158.681 159.324  0.00  0.00    -0.285 N 
ATOM     21  H14 UNL     1     149.647 158.647 159.548  0.00  0.00    +0.155 HD
BRANCH  20  22
ATOM     22  C14 UNL     1     151.096 157.822 158.293  0.00  0.00    +0.037 A 
ATOM     23  C15 UNL     1     151.296 158.267 156.979  0.00  0.00    +0.027 A 
ATOM     24  C16 UNL     1     151.752 157.403 155.967  0.00  0.00    -0.049 A 
ATOM     25  C17 UNL     1     151.939 157.924 154.572  0.00  0.00    +0.044 C 
ATOM     26  C18 UNL     1     152.009 156.070 156.277  0.00  0.00    +0.004 A 
ATOM     27  C19 UNL     1     151.819 155.608 157.579  0.00  0.00    +0.005 A 
ATOM     28  C20 UNL     1     151.364 156.469 158.595  0.00  0.00    -0.029 A 
ATOM     29  C21 UNL     1     151.164 155.893 159.971  0.00  0.00    +0.045 C 
ENDBRANCH  20  22
ENDBRANCH  17  18
ENDBRANCH  16  17
ENDBRANCH   5  16
TORSDOF 7
ENDMDL
MODEL 8
REMARK VINA RESULT:    -6.581      4.075      6.447
REMARK INTER + INTRA:         -10.596
REMARK INTER:                  -9.743
REMARK INTRA:                  -0.852
REMARK UNBOUND:                -1.322
REMARK  Name = /home/vital/Documents/PhD_2021/Malaria_codes/data/pdb_ligands_mmv/ligand_63.pdb
REMARK  11 active torsions:
REMARK  status: ('A' for Active; 'I' for Inactive)
REMARK    1  A    between atoms: C1_1  and  O1_2
REMARK    2  A    between atoms: O1_2  and  C2_3
REMARK    3  A    between atoms: C5_6  and  N1_11
REMARK    4  A    between atoms: C6_7  and  O2_8
REMARK    5  A    between atoms: O2_8  and  C7_9
REMARK    6  A    between atoms: C11_15  and  S1_16
REMARK    7  A    between atoms: S1_16  and  C12_17
REMARK    8  A    between atoms: C12_17  and  C13_18
REMARK    9  A    between atoms: N3_20  and  C14_21
REMARK   10  A    between atoms: C16_23  and  C17_24
REMARK   11  A    between atoms: C20_27  and  C21_28
REMARK                            x       y       z     vdW  Elec       q    Type
REMARK                         _______ _______ _______ _____ _____    ______ ____
ROOT
ATOM      1  N1  UNL     1     151.142 161.146 165.126  0.00  0.00    -0.291 N 
ATOM      2  C9  UNL     1     150.376 161.992 164.343  0.00  0.00    +0.113 A 
ATOM      3  C10 UNL     1     150.502 161.552 163.050  0.00  0.00    +0.131 A 
ATOM      4  N2  UNL     1     151.307 160.449 162.988  0.00  0.00    -0.230 NA
ATOM      5  C11 UNL     1     151.640 160.197 164.238  0.00  0.00    +0.174 A 
ENDROOT
BRANCH   1   9
ATOM      6  C2  UNL     1     151.836 161.755 169.261  0.00  0.00    +0.124 A 
ATOM      7  C3  UNL     1     152.653 162.350 168.304  0.00  0.00    +0.048 A 
ATOM      8  C4  UNL     1     152.430 162.134 166.943  0.00  0.00    +0.033 A 
ATOM      9  C5  UNL     1     151.378 161.305 166.524  0.00  0.00    +0.090 A 
ATOM     10  C6  UNL     1     150.551 160.688 167.485  0.00  0.00    +0.147 A 
ATOM     11  C8  UNL     1     150.788 160.927 168.850  0.00  0.00    +0.093 A 
BRANCH   6  13
ATOM     12  C1  UNL     1     153.490 162.512 170.799  0.00  0.00    +0.277 C 
ATOM     13  O1  UNL     1     152.165 162.058 170.553  0.00  0.00    -0.495 OA
ENDBRANCH   6  13
BRANCH  10  14
ATOM     14  O2  UNL     1     149.580 159.834 167.027  0.00  0.00    -0.493 OA
ATOM     15  C7  UNL     1     148.428 159.625 167.832  0.00  0.00    +0.277 C 
ENDBRANCH  10  14
ENDBRANCH   1   9
BRANCH   5  16
ATOM     16  S1  UNL     1     152.457 158.734 164.708  0.00  0.00    -0.078 S 
BRANCH  16  17
ATOM     17  C12 UNL     1     151.545 157.494 163.743  0.00  0.00    +0.173 C 
BRANCH  17  18
ATOM     18  C13 UNL     1     152.035 157.448 162.303  0.00  0.00    +0.227 C 
ATOM     19  O3  UNL     1     153.241 157.498 162.068  0.00  0.00    -0.275 OA
ATOM     20  N3  UNL     1     151.019 157.318 161.371  0.00  0.00    -0.285 N 
ATOM     21  H14 UNL     1     150.075 157.347 161.757  0.00  0.00    +0.155 HD
BRANCH  20  22
ATOM     22  C14 UNL     1     151.133 157.222 159.963  0.00  0.00    +0.037 A 
ATOM     23  C15 UNL     1     151.320 158.346 159.146  0.00  0.00    +0.027 A 
ATOM     24  C16 UNL     1     151.436 158.234 157.749  0.00  0.00    -0.049 A 
ATOM     25  C17 UNL     1     151.622 159.468 156.916  0.00  0.00    +0.044 C 
ATOM     26  C18 UNL     1     151.361 156.974 157.159  0.00  0.00    +0.004 A 
ATOM     27  C19 UNL     1     151.178 155.843 157.955  0.00  0.00    +0.005 A 
ATOM     28  C20 UNL     1     151.062 155.950 159.353  0.00  0.00    -0.029 A 
ATOM     29  C21 UNL     1     150.847 154.687 160.142  0.00  0.00    +0.045 C 
ENDBRANCH  20  22
ENDBRANCH  17  18
ENDBRANCH  16  17
ENDBRANCH   5  16
TORSDOF 7
ENDMDL
MODEL 9
REMARK VINA RESULT:    -6.492      3.739      5.663
REMARK INTER + INTRA:         -10.471
REMARK INTER:                  -9.440
REMARK INTRA:                  -1.031
REMARK UNBOUND:                -1.322
REMARK  Name = /home/vital/Documents/PhD_2021/Malaria_codes/data/pdb_ligands_mmv/ligand_63.pdb
REMARK  11 active torsions:
REMARK  status: ('A' for Active; 'I' for Inactive)
REMARK    1  A    between atoms: C1_1  and  O1_2
REMARK    2  A    between atoms: O1_2  and  C2_3
REMARK    3  A    between atoms: C5_6  and  N1_11
REMARK    4  A    between atoms: C6_7  and  O2_8
REMARK    5  A    between atoms: O2_8  and  C7_9
REMARK    6  A    between atoms: C11_15  and  S1_16
REMARK    7  A    between atoms: S1_16  and  C12_17
REMARK    8  A    between atoms: C12_17  and  C13_18
REMARK    9  A    between atoms: N3_20  and  C14_21
REMARK   10  A    between atoms: C16_23  and  C17_24
REMARK   11  A    between atoms: C20_27  and  C21_28
REMARK                            x       y       z     vdW  Elec       q    Type
REMARK                         _______ _______ _______ _____ _____    ______ ____
ROOT
ATOM      1  N1  UNL     1     151.135 161.259 167.000  0.00  0.00    -0.291 N 
ATOM      2  C9  UNL     1     150.390 162.086 167.822  0.00  0.00    +0.113 A 
ATOM      3  C10 UNL     1     150.556 163.363 167.349  0.00  0.00    +0.131 A 
ATOM      4  N2  UNL     1     151.366 163.372 166.248  0.00  0.00    -0.230 NA
ATOM      5  C11 UNL     1     151.662 162.106 166.030  0.00  0.00    +0.174 A 
ENDROOT
BRANCH   1   9
ATOM      6  C2  UNL     1     151.686 157.082 167.452  0.00  0.00    +0.124 A 
ATOM      7  C3  UNL     1     150.514 157.593 166.901  0.00  0.00    +0.048 A 
ATOM      8  C4  UNL     1     150.331 158.970 166.769  0.00  0.00    +0.033 A 
ATOM      9  C5  UNL     1     151.329 159.859 167.197  0.00  0.00    +0.090 A 
ATOM     10  C6  UNL     1     152.516 159.353 167.765  0.00  0.00    +0.147 A 
ATOM     11  C8  UNL     1     152.684 157.963 167.881  0.00  0.00    +0.093 A 
BRANCH   6  13
ATOM     12  C1  UNL     1     152.974 155.124 167.879  0.00  0.00    +0.277 C 
ATOM     13  O1  UNL     1     151.734 155.717 167.515  0.00  0.00    -0.495 OA
ENDBRANCH   6  13
BRANCH  10  14
ATOM     14  O2  UNL     1     153.431 160.263 168.230  0.00  0.00    -0.493 OA
ATOM     15  C7  UNL     1     153.462 160.542 169.623  0.00  0.00    +0.277 C 
ENDBRANCH  10  14
ENDBRANCH   1   9
BRANCH   5  16
ATOM     16  S1  UNL     1     152.469 161.574 164.583  0.00  0.00    -0.078 S 
BRANCH  16  17
ATOM     17  C12 UNL     1     151.059 161.331 163.462  0.00  0.00    +0.173 C 
BRANCH  17  18
ATOM     18  C13 UNL     1     151.487 160.624 162.185  0.00  0.00    +0.227 C 
ATOM     19  O3  UNL     1     152.461 161.037 161.557  0.00  0.00    -0.275 OA
ATOM     20  N3  UNL     1     150.713 159.519 161.871  0.00  0.00    -0.285 N 
ATOM     21  H14 UNL     1     149.914 159.366 162.486  0.00  0.00    +0.155 HD
BRANCH  20  22
ATOM     22  C14 UNL     1     150.857 158.635 160.774  0.00  0.00    +0.037 A 
ATOM     23  C15 UNL     1     150.545 159.011 159.460  0.00  0.00    +0.027 A 
ATOM     24  C16 UNL     1     150.697 158.124 158.380  0.00  0.00    -0.049 A 
ATOM     25  C17 UNL     1     150.337 158.569 156.993  0.00  0.00    +0.044 C 
ATOM     26  C18 UNL     1     151.169 156.836 158.621  0.00  0.00    +0.004 A 
ATOM     27  C19 UNL     1     151.487 156.442 159.921  0.00  0.00    +0.005 A 
ATOM     28  C20 UNL     1     151.337 157.327 161.004  0.00  0.00    -0.029 A 
ATOM     29  C21 UNL     1     151.684 156.825 162.380  0.00  0.00    +0.045 C 
ENDBRANCH  20  22
ENDBRANCH  17  18
ENDBRANCH  16  17
ENDBRANCH   5  16
TORSDOF 7
ENDMDL
