MODEL 1
REMARK VINA RESULT:    -4.680      0.000      0.000
REMARK INTER + INTRA:          -8.739
REMARK INTER:                  -6.869
REMARK INTRA:                  -1.870
REMARK UNBOUND:                -1.870
REMARK  Name = /home/vital/Documents/PhD_2021/Malaria_codes/data/pdb_ligands_mmv/ligand_301.pdb
REMARK  8 active torsions:
REMARK  status: ('A' for Active; 'I' for Inactive)
REMARK    1  A    between atoms: C1_2  and  C8_10
REMARK    2  A    between atoms: N1_3  and  C2_4
REMARK    3  A    between atoms: C8_10  and  N2_11
REMARK    4  A    between atoms: C8_10  and  C22_27
REMARK    5  A    between atoms: N2_11  and  C9_12
REMARK    6  A    between atoms: C9_12  and  C10_13
REMARK    7  A    between atoms: C10_13  and  C11_14
REMARK    8  A    between atoms: C17_20  and  C18_22
REMARK                            x       y       z     vdW  Elec       q    Type
REMARK                         _______ _______ _______ _____ _____    ______ ____
ROOT
ATOM      1  C8  UNL     1     150.691 160.754 164.575  0.00  0.00    +0.199 C 
ENDROOT
BRANCH   1   2
ATOM      2  C22 UNL     1     149.701 161.546 165.416  0.00  0.00    +0.019 A 
ATOM      3  C23 UNL     1     149.225 162.818 165.141  0.00  0.00    +0.013 A 
ATOM      4  C24 UNL     1     148.298 163.286 166.114  0.00  0.00    +0.008 A 
ATOM      5  C25 UNL     1     148.084 162.358 167.107  0.00  0.00    +0.045 A 
ATOM      6  S1  UNL     1     148.997 160.938 166.861  0.00  0.00    -0.099 S 
ENDBRANCH   1   2
BRANCH   1   8
ATOM      7  O1  UNL     1     150.760 162.250 162.626  0.00  0.00    -0.273 OA
ATOM      8  C1  UNL     1     150.656 161.101 163.057  0.00  0.00    +0.239 C 
ATOM      9  N1  UNL     1     150.594 160.003 162.209  0.00  0.00    -0.311 N 
ATOM     10  H1  UNL     1     150.255 159.132 162.603  0.00  0.00    +0.149 HD
BRANCH   9  11
ATOM     11  C2  UNL     1     150.501 160.165 160.765  0.00  0.00    +0.073 C 
ATOM     12  C3  UNL     1     151.894 160.167 160.135  0.00  0.00    +0.022 C 
ATOM     13  C4  UNL     1     151.839 160.450 158.631  0.00  0.00    +0.002 C 
ATOM     14  C5  UNL     1     150.537 159.992 157.970  0.00  0.00    +0.000 C 
ATOM     15  C6  UNL     1     149.941 158.783 158.675  0.00  0.00    +0.002 C 
ATOM     16  C7  UNL     1     149.611 159.076 160.140  0.00  0.00    +0.022 C 
ENDBRANCH   9  11
ENDBRANCH   1   8
BRANCH   1  17
ATOM     17  N2  UNL     1     152.038 160.845 165.177  0.00  0.00    -0.279 N 
ATOM     18  C17 UNL     1     153.093 159.979 164.848  0.00  0.00    +0.283 C 
ATOM     19  O2  UNL     1     154.262 160.315 165.051  0.00  0.00    -0.267 OA
BRANCH  18  20
ATOM     20  C18 UNL     1     152.807 158.664 164.297  0.00  0.00    +0.189 A 
ATOM     21  O3  UNL     1     152.990 158.401 162.964  0.00  0.00    -0.458 OA
ATOM     22  C19 UNL     1     152.580 157.126 162.740  0.00  0.00    +0.196 A 
ATOM     23  C20 UNL     1     152.112 156.560 163.901  0.00  0.00    +0.042 A 
ATOM     24  C21 UNL     1     152.238 157.554 164.899  0.00  0.00    +0.054 A 
ENDBRANCH  18  20
BRANCH  17  25
ATOM     25  C9  UNL     1     152.409 162.107 165.836  0.00  0.00    +0.114 C 
BRANCH  25  26
ATOM     26  C10 UNL     1     153.185 161.861 167.136  0.00  0.00    +0.054 C 
BRANCH  26  27
ATOM     27  C11 UNL     1     152.327 162.092 168.353  0.00  0.00    -0.046 A 
ATOM     28  C12 UNL     1     152.207 161.099 169.334  0.00  0.00    +0.004 A 
ATOM     29  C13 UNL     1     151.432 161.320 170.472  0.00  0.00    +0.000 A 
ATOM     30  C14 UNL     1     150.771 162.536 170.642  0.00  0.00    +0.000 A 
ATOM     31  C15 UNL     1     150.889 163.533 169.675  0.00  0.00    +0.000 A 
ATOM     32  C16 UNL     1     151.665 163.314 168.536  0.00  0.00    +0.004 A 
ENDBRANCH  26  27
ENDBRANCH  25  26
ENDBRANCH  17  25
ENDBRANCH   1  17
TORSDOF 8
ENDMDL
MODEL 2
REMARK VINA RESULT:    -4.358      2.754      5.604
REMARK INTER + INTRA:          -8.267
REMARK INTER:                  -7.612
REMARK INTRA:                  -0.655
REMARK UNBOUND:                -1.870
REMARK  Name = /home/vital/Documents/PhD_2021/Malaria_codes/data/pdb_ligands_mmv/ligand_301.pdb
REMARK  8 active torsions:
REMARK  status: ('A' for Active; 'I' for Inactive)
REMARK    1  A    between atoms: C1_2  and  C8_10
REMARK    2  A    between atoms: N1_3  and  C2_4
REMARK    3  A    between atoms: C8_10  and  N2_11
REMARK    4  A    between atoms: C8_10  and  C22_27
REMARK    5  A    between atoms: N2_11  and  C9_12
REMARK    6  A    between atoms: C9_12  and  C10_13
REMARK    7  A    between atoms: C10_13  and  C11_14
REMARK    8  A    between atoms: C17_20  and  C18_22
REMARK                            x       y       z     vdW  Elec       q    Type
REMARK                         _______ _______ _______ _____ _____    ______ ____
ROOT
ATOM      1  C8  UNL     1     151.729 160.767 165.958  0.00  0.00    +0.199 C 
ENDROOT
BRANCH   1   2
ATOM      2  C22 UNL     1     152.884 161.031 166.913  0.00  0.00    +0.019 A 
ATOM      3  C23 UNL     1     154.177 161.382 166.560  0.00  0.00    +0.013 A 
ATOM      4  C24 UNL     1     155.028 161.571 167.685  0.00  0.00    +0.008 A 
ATOM      5  C25 UNL     1     154.363 161.365 168.871  0.00  0.00    +0.045 A 
ATOM      6  S1  UNL     1     152.727 160.947 168.623  0.00  0.00    -0.099 S 
ENDBRANCH   1   2
BRANCH   1   8
ATOM      7  O1  UNL     1     153.273 159.910 164.248  0.00  0.00    -0.273 OA
ATOM      8  C1  UNL     1     152.174 160.399 164.511  0.00  0.00    +0.239 C 
ATOM      9  N1  UNL     1     151.197 160.571 163.539  0.00  0.00    -0.311 N 
ATOM     10  H1  UNL     1     150.433 161.201 163.758  0.00  0.00    +0.149 HD
BRANCH   9  11
ATOM     11  C2  UNL     1     151.477 160.321 162.132  0.00  0.00    +0.073 C 
ATOM     12  C3  UNL     1     150.201 159.905 161.398  0.00  0.00    +0.022 C 
ATOM     13  C4  UNL     1     150.479 159.524 159.942  0.00  0.00    +0.002 C 
ATOM     14  C5  UNL     1     151.684 160.250 159.339  0.00  0.00    +0.000 C 
ATOM     15  C6  UNL     1     151.881 161.626 159.957  0.00  0.00    +0.002 C 
ATOM     16  C7  UNL     1     152.123 161.550 161.467  0.00  0.00    +0.022 C 
ENDBRANCH   9  11
ENDBRANCH   1   8
BRANCH   1  17
ATOM     17  N2  UNL     1     150.798 159.793 166.562  0.00  0.00    -0.279 N 
ATOM     18  C17 UNL     1     149.484 160.112 166.943  0.00  0.00    +0.283 C 
ATOM     19  O2  UNL     1     148.637 159.224 167.062  0.00  0.00    -0.267 OA
BRANCH  18  20
ATOM     20  C18 UNL     1     149.128 161.492 167.233  0.00  0.00    +0.189 A 
ATOM     21  O3  UNL     1     149.731 162.177 168.256  0.00  0.00    -0.458 OA
ATOM     22  C19 UNL     1     149.151 163.403 168.322  0.00  0.00    +0.196 A 
ATOM     23  C20 UNL     1     148.164 163.521 167.373  0.00  0.00    +0.042 A 
ATOM     24  C21 UNL     1     148.135 162.285 166.685  0.00  0.00    +0.054 A 
ENDBRANCH  18  20
BRANCH  17  25
ATOM     25  C9  UNL     1     151.103 158.363 166.401  0.00  0.00    +0.114 C 
BRANCH  25  26
ATOM     26  C10 UNL     1     151.881 157.810 167.601  0.00  0.00    +0.054 C 
BRANCH  26  27
ATOM     27  C11 UNL     1     151.968 156.305 167.567  0.00  0.00    -0.046 A 
ATOM     28  C12 UNL     1     153.174 155.660 167.874  0.00  0.00    +0.004 A 
ATOM     29  C13 UNL     1     153.250 154.267 167.865  0.00  0.00    +0.000 A 
ATOM     30  C14 UNL     1     152.123 153.507 167.554  0.00  0.00    +0.000 A 
ATOM     31  C15 UNL     1     150.919 154.140 167.253  0.00  0.00    +0.000 A 
ATOM     32  C16 UNL     1     150.840 155.533 167.262  0.00  0.00    +0.004 A 
ENDBRANCH  26  27
ENDBRANCH  25  26
ENDBRANCH  17  25
ENDBRANCH   1  17
TORSDOF 8
ENDMDL
MODEL 3
REMARK VINA RESULT:    -4.336     14.238     16.764
REMARK INTER + INTRA:          -8.234
REMARK INTER:                  -5.534
REMARK INTRA:                  -2.700
REMARK UNBOUND:                -1.870
REMARK  Name = /home/vital/Documents/PhD_2021/Malaria_codes/data/pdb_ligands_mmv/ligand_301.pdb
REMARK  8 active torsions:
REMARK  status: ('A' for Active; 'I' for Inactive)
REMARK    1  A    between atoms: C1_2  and  C8_10
REMARK    2  A    between atoms: N1_3  and  C2_4
REMARK    3  A    between atoms: C8_10  and  N2_11
REMARK    4  A    between atoms: C8_10  and  C22_27
REMARK    5  A    between atoms: N2_11  and  C9_12
REMARK    6  A    between atoms: C9_12  and  C10_13
REMARK    7  A    between atoms: C10_13  and  C11_14
REMARK    8  A    between atoms: C17_20  and  C18_22
REMARK                            x       y       z     vdW  Elec       q    Type
REMARK                         _______ _______ _______ _____ _____    ______ ____
ROOT
ATOM      1  C8  UNL     1     144.358 145.063 164.175  0.00  0.00    +0.199 C 
ENDROOT
BRANCH   1   2
ATOM      2  C22 UNL     1     142.935 145.495 163.854  0.00  0.00    +0.019 A 
ATOM      3  C23 UNL     1     142.542 146.734 163.373  0.00  0.00    +0.013 A 
ATOM      4  C24 UNL     1     141.137 146.826 163.161  0.00  0.00    +0.008 A 
ATOM      5  C25 UNL     1     140.491 145.655 163.481  0.00  0.00    +0.045 A 
ATOM      6  S1  UNL     1     141.575 144.458 164.031  0.00  0.00    -0.099 S 
ENDBRANCH   1   2
BRANCH   1   8
ATOM      7  O1  UNL     1     146.505 145.844 163.267  0.00  0.00    -0.273 OA
ATOM      8  C1  UNL     1     145.439 146.125 163.815  0.00  0.00    +0.239 C 
ATOM      9  N1  UNL     1     145.071 147.440 164.070  0.00  0.00    -0.311 N 
ATOM     10  H1  UNL     1     144.324 147.590 164.739  0.00  0.00    +0.149 HD
BRANCH   9  11
ATOM     11  C2  UNL     1     145.993 148.543 163.838  0.00  0.00    +0.073 C 
ATOM     12  C3  UNL     1     145.431 149.498 162.783  0.00  0.00    +0.022 C 
ATOM     13  C4  UNL     1     146.425 150.607 162.431  0.00  0.00    +0.002 C 
ATOM     14  C5  UNL     1     147.371 150.968 163.579  0.00  0.00    +0.000 C 
ATOM     15  C6  UNL     1     146.721 150.747 164.937  0.00  0.00    +0.002 C 
ATOM     16  C7  UNL     1     146.310 149.287 165.147  0.00  0.00    +0.022 C 
ENDBRANCH   9  11
ENDBRANCH   1   8
BRANCH   1  17
ATOM     17  N2  UNL     1     144.429 144.587 165.571  0.00  0.00    -0.279 N 
ATOM     18  C17 UNL     1     144.786 143.276 165.925  0.00  0.00    +0.283 C 
ATOM     19  O2  UNL     1     145.214 143.029 167.055  0.00  0.00    -0.267 OA
BRANCH  18  20
ATOM     20  C18 UNL     1     144.618 142.195 164.966  0.00  0.00    +0.189 A 
ATOM     21  O3  UNL     1     143.427 141.525 164.858  0.00  0.00    -0.458 OA
ATOM     22  C19 UNL     1     143.596 140.541 163.937  0.00  0.00    +0.196 A 
ATOM     23  C20 UNL     1     144.884 140.544 163.460  0.00  0.00    +0.042 A 
ATOM     24  C21 UNL     1     145.548 141.595 164.135  0.00  0.00    +0.054 A 
ENDBRANCH  18  20
BRANCH  17  25
ATOM     25  C9  UNL     1     144.521 145.599 166.636  0.00  0.00    +0.114 C 
BRANCH  25  26
ATOM     26  C10 UNL     1     143.203 145.728 167.410  0.00  0.00    +0.054 C 
BRANCH  26  27
ATOM     27  C11 UNL     1     142.547 147.066 167.182  0.00  0.00    -0.046 A 
ATOM     28  C12 UNL     1     143.327 148.221 167.039  0.00  0.00    +0.004 A 
ATOM     29  C13 UNL     1     142.723 149.456 166.805  0.00  0.00    +0.000 A 
ATOM     30  C14 UNL     1     141.335 149.548 166.708  0.00  0.00    +0.000 A 
ATOM     31  C15 UNL     1     140.551 148.403 166.844  0.00  0.00    +0.000 A 
ATOM     32  C16 UNL     1     141.153 147.167 167.077  0.00  0.00    +0.004 A 
ENDBRANCH  26  27
ENDBRANCH  25  26
ENDBRANCH  17  25
ENDBRANCH   1  17
TORSDOF 8
ENDMDL
MODEL 4
REMARK VINA RESULT:    -4.038      2.463      6.459
REMARK INTER + INTRA:          -7.796
REMARK INTER:                  -6.304
REMARK INTRA:                  -1.492
REMARK UNBOUND:                -1.870
REMARK  Name = /home/vital/Documents/PhD_2021/Malaria_codes/data/pdb_ligands_mmv/ligand_301.pdb
REMARK  8 active torsions:
REMARK  status: ('A' for Active; 'I' for Inactive)
REMARK    1  A    between atoms: C1_2  and  C8_10
REMARK    2  A    between atoms: N1_3  and  C2_4
REMARK    3  A    between atoms: C8_10  and  N2_11
REMARK    4  A    between atoms: C8_10  and  C22_27
REMARK    5  A    between atoms: N2_11  and  C9_12
REMARK    6  A    between atoms: C9_12  and  C10_13
REMARK    7  A    between atoms: C10_13  and  C11_14
REMARK    8  A    between atoms: C17_20  and  C18_22
REMARK                            x       y       z     vdW  Elec       q    Type
REMARK                         _______ _______ _______ _____ _____    ______ ____
ROOT
ATOM      1  C8  UNL     1     151.146 160.354 167.402  0.00  0.00    +0.199 C 
ENDROOT
BRANCH   1   2
ATOM      2  C22 UNL     1     150.120 161.442 167.124  0.00  0.00    +0.019 A 
ATOM      3  C23 UNL     1     149.347 161.568 165.981  0.00  0.00    +0.013 A 
ATOM      4  C24 UNL     1     148.468 162.688 166.026  0.00  0.00    +0.008 A 
ATOM      5  C25 UNL     1     148.589 163.387 167.204  0.00  0.00    +0.045 A 
ATOM      6  S1  UNL     1     149.751 162.694 168.243  0.00  0.00    -0.099 S 
ENDBRANCH   1   2
BRANCH   1   8
ATOM      7  O1  UNL     1     149.458 158.660 166.834  0.00  0.00    -0.273 OA
ATOM      8  C1  UNL     1     150.617 158.908 167.166  0.00  0.00    +0.239 C 
ATOM      9  N1  UNL     1     151.580 157.912 167.264  0.00  0.00    -0.311 N 
ATOM     10  H1  UNL     1     152.424 158.133 167.780  0.00  0.00    +0.149 HD
BRANCH   9  11
ATOM     11  C2  UNL     1     151.232 156.505 167.123  0.00  0.00    +0.073 C 
ATOM     12  C3  UNL     1     151.163 156.116 165.645  0.00  0.00    +0.022 C 
ATOM     13  C4  UNL     1     150.687 154.673 165.458  0.00  0.00    +0.002 C 
ATOM     14  C5  UNL     1     151.043 153.754 166.628  0.00  0.00    +0.000 C 
ATOM     15  C6  UNL     1     152.327 154.190 167.318  0.00  0.00    +0.002 C 
ATOM     16  C7  UNL     1     152.222 155.608 167.886  0.00  0.00    +0.022 C 
ENDBRANCH   9  11
ENDBRANCH   1   8
BRANCH   1  17
ATOM     17  N2  UNL     1     152.398 160.657 166.679  0.00  0.00    -0.279 N 
ATOM     18  C17 UNL     1     153.559 161.135 167.308  0.00  0.00    +0.283 C 
ATOM     19  O2  UNL     1     154.661 160.998 166.772  0.00  0.00    -0.267 OA
BRANCH  18  20
ATOM     20  C18 UNL     1     153.460 161.827 168.584  0.00  0.00    +0.189 A 
ATOM     21  O3  UNL     1     153.169 163.165 168.642  0.00  0.00    -0.458 OA
ATOM     22  C19 UNL     1     153.210 163.535 169.948  0.00  0.00    +0.196 A 
ATOM     23  C20 UNL     1     153.543 162.463 170.741  0.00  0.00    +0.042 A 
ATOM     24  C21 UNL     1     153.723 161.369 169.863  0.00  0.00    +0.054 A 
ENDBRANCH  18  20
BRANCH  17  25
ATOM     25  C9  UNL     1     152.574 160.074 165.340  0.00  0.00    +0.114 C 
BRANCH  25  26
ATOM     26  C10 UNL     1     152.414 161.128 164.237  0.00  0.00    +0.054 C 
BRANCH  26  27
ATOM     27  C11 UNL     1     151.560 160.625 163.101  0.00  0.00    -0.046 A 
ATOM     28  C12 UNL     1     151.470 159.252 162.838  0.00  0.00    +0.004 A 
ATOM     29  C13 UNL     1     150.663 158.784 161.801  0.00  0.00    +0.000 A 
ATOM     30  C14 UNL     1     149.936 159.682 161.020  0.00  0.00    +0.000 A 
ATOM     31  C15 UNL     1     150.015 161.049 161.279  0.00  0.00    +0.000 A 
ATOM     32  C16 UNL     1     150.821 161.520 162.316  0.00  0.00    +0.004 A 
ENDBRANCH  26  27
ENDBRANCH  25  26
ENDBRANCH  17  25
ENDBRANCH   1  17
TORSDOF 8
ENDMDL
MODEL 5
REMARK VINA RESULT:    -3.965      2.474      6.490
REMARK INTER + INTRA:          -7.690
REMARK INTER:                  -6.604
REMARK INTRA:                  -1.086
REMARK UNBOUND:                -1.870
REMARK  Name = /home/vital/Documents/PhD_2021/Malaria_codes/data/pdb_ligands_mmv/ligand_301.pdb
REMARK  8 active torsions:
REMARK  status: ('A' for Active; 'I' for Inactive)
REMARK    1  A    between atoms: C1_2  and  C8_10
REMARK    2  A    between atoms: N1_3  and  C2_4
REMARK    3  A    between atoms: C8_10  and  N2_11
REMARK    4  A    between atoms: C8_10  and  C22_27
REMARK    5  A    between atoms: N2_11  and  C9_12
REMARK    6  A    between atoms: C9_12  and  C10_13
REMARK    7  A    between atoms: C10_13  and  C11_14
REMARK    8  A    between atoms: C17_20  and  C18_22
REMARK                            x       y       z     vdW  Elec       q    Type
REMARK                         _______ _______ _______ _____ _____    ______ ____
ROOT
ATOM      1  C8  UNL     1     150.864 160.170 167.083  0.00  0.00    +0.199 C 
ENDROOT
BRANCH   1   2
ATOM      2  C22 UNL     1     149.877 161.310 167.286  0.00  0.00    +0.019 A 
ATOM      3  C23 UNL     1     148.665 161.472 166.635  0.00  0.00    +0.013 A 
ATOM      4  C24 UNL     1     147.962 162.638 167.053  0.00  0.00    +0.008 A 
ATOM      5  C25 UNL     1     148.652 163.336 168.015  0.00  0.00    +0.045 A 
ATOM      6  S1  UNL     1     150.134 162.587 168.409  0.00  0.00    -0.099 S 
ENDBRANCH   1   2
BRANCH   1   8
ATOM      7  O1  UNL     1     148.982 158.594 166.958  0.00  0.00    -0.273 OA
ATOM      8  C1  UNL     1     150.200 158.763 167.012  0.00  0.00    +0.239 C 
ATOM      9  N1  UNL     1     151.092 157.702 166.916  0.00  0.00    -0.311 N 
ATOM     10  H1  UNL     1     152.045 157.869 167.222  0.00  0.00    +0.149 HD
BRANCH   9  11
ATOM     11  C2  UNL     1     150.628 156.322 166.896  0.00  0.00    +0.073 C 
ATOM     12  C3  UNL     1     150.420 155.848 165.456  0.00  0.00    +0.022 C 
ATOM     13  C4  UNL     1     149.824 154.440 165.401  0.00  0.00    +0.002 C 
ATOM     14  C5  UNL     1     150.195 153.570 166.604  0.00  0.00    +0.000 C 
ATOM     15  C6  UNL     1     151.556 153.943 167.172  0.00  0.00    +0.002 C 
ATOM     16  C7  UNL     1     151.602 155.398 167.648  0.00  0.00    +0.022 C 
ENDBRANCH   9  11
ENDBRANCH   1   8
BRANCH   1  17
ATOM     17  N2  UNL     1     151.744 160.474 165.936  0.00  0.00    -0.279 N 
ATOM     18  C17 UNL     1     153.138 160.604 166.042  0.00  0.00    +0.283 C 
ATOM     19  O2  UNL     1     153.855 160.460 165.050  0.00  0.00    -0.267 OA
BRANCH  18  20
ATOM     20  C18 UNL     1     153.738 160.944 167.323  0.00  0.00    +0.189 A 
ATOM     21  O3  UNL     1     154.006 159.977 168.257  0.00  0.00    -0.458 OA
ATOM     22  C19 UNL     1     154.496 160.600 169.359  0.00  0.00    +0.196 A 
ATOM     23  C20 UNL     1     154.531 161.960 169.168  0.00  0.00    +0.042 A 
ATOM     24  C21 UNL     1     154.026 162.184 167.866  0.00  0.00    +0.054 A 
ENDBRANCH  18  20
BRANCH  17  25
ATOM     25  C9  UNL     1     151.211 160.243 164.584  0.00  0.00    +0.114 C 
BRANCH  25  26
ATOM     26  C10 UNL     1     151.205 161.530 163.750  0.00  0.00    +0.054 C 
BRANCH  26  27
ATOM     27  C11 UNL     1     151.249 161.240 162.271  0.00  0.00    -0.046 A 
ATOM     28  C12 UNL     1     152.223 161.838 161.462  0.00  0.00    +0.004 A 
ATOM     29  C13 UNL     1     152.279 161.553 160.097  0.00  0.00    +0.000 A 
ATOM     30  C14 UNL     1     151.366 160.666 159.530  0.00  0.00    +0.000 A 
ATOM     31  C15 UNL     1     150.396 160.062 160.329  0.00  0.00    +0.000 A 
ATOM     32  C16 UNL     1     150.338 160.345 161.694  0.00  0.00    +0.004 A 
ENDBRANCH  26  27
ENDBRANCH  25  26
ENDBRANCH  17  25
ENDBRANCH   1  17
TORSDOF 8
ENDMDL
MODEL 6
REMARK VINA RESULT:    -3.940      3.096      6.157
REMARK INTER + INTRA:          -7.653
REMARK INTER:                  -6.667
REMARK INTRA:                  -0.986
REMARK UNBOUND:                -1.870
REMARK  Name = /home/vital/Documents/PhD_2021/Malaria_codes/data/pdb_ligands_mmv/ligand_301.pdb
REMARK  8 active torsions:
REMARK  status: ('A' for Active; 'I' for Inactive)
REMARK    1  A    between atoms: C1_2  and  C8_10
REMARK    2  A    between atoms: N1_3  and  C2_4
REMARK    3  A    between atoms: C8_10  and  N2_11
REMARK    4  A    between atoms: C8_10  and  C22_27
REMARK    5  A    between atoms: N2_11  and  C9_12
REMARK    6  A    between atoms: C9_12  and  C10_13
REMARK    7  A    between atoms: C10_13  and  C11_14
REMARK    8  A    between atoms: C17_20  and  C18_22
REMARK                            x       y       z     vdW  Elec       q    Type
REMARK                         _______ _______ _______ _____ _____    ______ ____
ROOT
ATOM      1  C8  UNL     1     151.836 159.835 166.410  0.00  0.00    +0.199 C 
ENDROOT
BRANCH   1   2
ATOM      2  C22 UNL     1     153.028 160.353 167.201  0.00  0.00    +0.019 A 
ATOM      3  C23 UNL     1     153.874 161.385 166.828  0.00  0.00    +0.013 A 
ATOM      4  C24 UNL     1     154.893 161.642 167.789  0.00  0.00    +0.008 A 
ATOM      5  C25 UNL     1     154.797 160.804 168.874  0.00  0.00    +0.045 A 
ATOM      6  S1  UNL     1     153.489 159.718 168.731  0.00  0.00    -0.099 S 
ENDBRANCH   1   2
BRANCH   1   8
ATOM      7  O1  UNL     1     153.313 158.509 164.960  0.00  0.00    -0.273 OA
ATOM      8  C1  UNL     1     152.222 159.059 165.116  0.00  0.00    +0.239 C 
ATOM      9  N1  UNL     1     151.204 158.946 164.178  0.00  0.00    -0.311 N 
ATOM     10  H1  UNL     1     150.445 159.616 164.237  0.00  0.00    +0.149 HD
BRANCH   9  11
ATOM     11  C2  UNL     1     151.425 158.295 162.894  0.00  0.00    +0.073 C 
ATOM     12  C3  UNL     1     151.118 156.801 162.991  0.00  0.00    +0.022 C 
ATOM     13  C4  UNL     1     151.449 156.065 161.690  0.00  0.00    +0.002 C 
ATOM     14  C5  UNL     1     151.328 156.944 160.443  0.00  0.00    +0.000 C 
ATOM     15  C6  UNL     1     150.273 158.027 160.614  0.00  0.00    +0.002 C 
ATOM     16  C7  UNL     1     150.594 158.962 161.783  0.00  0.00    +0.022 C 
ENDBRANCH   9  11
ENDBRANCH   1   8
BRANCH   1  17
ATOM     17  N2  UNL     1     150.932 159.086 167.308  0.00  0.00    -0.279 N 
ATOM     18  C17 UNL     1     149.950 159.698 168.104  0.00  0.00    +0.283 C 
ATOM     19  O2  UNL     1     148.986 159.048 168.514  0.00  0.00    -0.267 OA
BRANCH  18  20
ATOM     20  C18 UNL     1     150.087 161.098 168.475  0.00  0.00    +0.189 A 
ATOM     21  O3  UNL     1     150.800 161.467 169.587  0.00  0.00    -0.458 OA
ATOM     22  C19 UNL     1     150.694 162.816 169.708  0.00  0.00    +0.196 A 
ATOM     23  C20 UNL     1     149.905 163.329 168.707  0.00  0.00    +0.042 A 
ATOM     24  C21 UNL     1     149.498 162.223 167.925  0.00  0.00    +0.054 A 
ENDBRANCH  18  20
BRANCH  17  25
ATOM     25  C9  UNL     1     150.778 157.642 167.075  0.00  0.00    +0.114 C 
BRANCH  25  26
ATOM     26  C10 UNL     1     151.917 156.839 167.716  0.00  0.00    +0.054 C 
BRANCH  26  27
ATOM     27  C11 UNL     1     151.842 155.376 167.359  0.00  0.00    -0.046 A 
ATOM     28  C12 UNL     1     152.703 154.455 167.969  0.00  0.00    +0.004 A 
ATOM     29  C13 UNL     1     152.620 153.097 167.657  0.00  0.00    +0.000 A 
ATOM     30  C14 UNL     1     151.675 152.649 166.735  0.00  0.00    +0.000 A 
ATOM     31  C15 UNL     1     150.811 153.559 166.127  0.00  0.00    +0.000 A 
ATOM     32  C16 UNL     1     150.891 154.916 166.439  0.00  0.00    +0.004 A 
ENDBRANCH  26  27
ENDBRANCH  25  26
ENDBRANCH  17  25
ENDBRANCH   1  17
TORSDOF 8
ENDMDL
MODEL 7
REMARK VINA RESULT:    -3.893      2.638      6.967
REMARK INTER + INTRA:          -7.584
REMARK INTER:                  -6.270
REMARK INTRA:                  -1.315
REMARK UNBOUND:                -1.870
REMARK  Name = /home/vital/Documents/PhD_2021/Malaria_codes/data/pdb_ligands_mmv/ligand_301.pdb
REMARK  8 active torsions:
REMARK  status: ('A' for Active; 'I' for Inactive)
REMARK    1  A    between atoms: C1_2  and  C8_10
REMARK    2  A    between atoms: N1_3  and  C2_4
REMARK    3  A    between atoms: C8_10  and  N2_11
REMARK    4  A    between atoms: C8_10  and  C22_27
REMARK    5  A    between atoms: N2_11  and  C9_12
REMARK    6  A    between atoms: C9_12  and  C10_13
REMARK    7  A    between atoms: C10_13  and  C11_14
REMARK    8  A    between atoms: C17_20  and  C18_22
REMARK                            x       y       z     vdW  Elec       q    Type
REMARK                         _______ _______ _______ _____ _____    ______ ____
ROOT
ATOM      1  C8  UNL     1     151.333 159.348 166.709  0.00  0.00    +0.199 C 
ENDROOT
BRANCH   1   2
ATOM      2  C22 UNL     1     150.191 160.353 166.719  0.00  0.00    +0.019 A 
ATOM      3  C23 UNL     1     149.396 160.681 167.806  0.00  0.00    +0.013 A 
ATOM      4  C24 UNL     1     148.416 161.667 167.500  0.00  0.00    +0.008 A 
ATOM      5  C25 UNL     1     148.489 162.072 166.187  0.00  0.00    +0.045 A 
ATOM      6  S1  UNL     1     149.730 161.266 165.338  0.00  0.00    -0.099 S 
ENDBRANCH   1   2
BRANCH   1   8
ATOM      7  O1  UNL     1     149.794 157.496 166.216  0.00  0.00    -0.273 OA
ATOM      8  C1  UNL     1     150.869 157.861 166.692  0.00  0.00    +0.239 C 
ATOM      9  N1  UNL     1     151.806 156.953 167.167  0.00  0.00    -0.311 N 
ATOM     10  H1  UNL     1     152.538 157.315 167.769  0.00  0.00    +0.149 HD
BRANCH   9  11
ATOM     11  C2  UNL     1     151.503 155.532 167.265  0.00  0.00    +0.073 C 
ATOM     12  C3  UNL     1     151.306 154.930 165.873  0.00  0.00    +0.022 C 
ATOM     13  C4  UNL     1     150.873 153.463 165.942  0.00  0.00    +0.002 C 
ATOM     14  C5  UNL     1     151.377 152.735 167.190  0.00  0.00    +0.000 C 
ATOM     15  C6  UNL     1     152.704 153.300 167.677  0.00  0.00    +0.002 C 
ATOM     16  C7  UNL     1     152.597 154.782 168.044  0.00  0.00    +0.022 C 
ENDBRANCH   9  11
ENDBRANCH   1   8
BRANCH   1  17
ATOM     17  N2  UNL     1     152.285 159.690 165.632  0.00  0.00    -0.279 N 
ATOM     18  C17 UNL     1     153.356 160.583 165.800  0.00  0.00    +0.283 C 
ATOM     19  O2  UNL     1     154.328 160.539 165.043  0.00  0.00    -0.267 OA
BRANCH  18  20
ATOM     20  C18 UNL     1     153.304 161.587 166.851  0.00  0.00    +0.189 A 
ATOM     21  O3  UNL     1     152.465 162.667 166.756  0.00  0.00    -0.458 OA
ATOM     22  C19 UNL     1     152.687 163.452 167.842  0.00  0.00    +0.196 A 
ATOM     23  C20 UNL     1     153.672 162.912 168.632  0.00  0.00    +0.042 A 
ATOM     24  C21 UNL     1     154.084 161.723 167.986  0.00  0.00    +0.054 A 
ENDBRANCH  18  20
BRANCH  17  25
ATOM     25  C9  UNL     1     152.365 158.783 164.476  0.00  0.00    +0.114 C 
BRANCH  25  26
ATOM     26  C10 UNL     1     151.680 159.380 163.240  0.00  0.00    +0.054 C 
BRANCH  26  27
ATOM     27  C11 UNL     1     151.095 158.311 162.353  0.00  0.00    -0.046 A 
ATOM     28  C12 UNL     1     151.075 156.975 162.774  0.00  0.00    +0.004 A 
ATOM     29  C13 UNL     1     150.514 155.987 161.964  0.00  0.00    +0.000 A 
ATOM     30  C14 UNL     1     149.965 156.326 160.728  0.00  0.00    +0.000 A 
ATOM     31  C15 UNL     1     149.976 157.654 160.303  0.00  0.00    +0.000 A 
ATOM     32  C16 UNL     1     150.536 158.643 161.111  0.00  0.00    +0.004 A 
ENDBRANCH  26  27
ENDBRANCH  25  26
ENDBRANCH  17  25
ENDBRANCH   1  17
TORSDOF 8
ENDMDL
MODEL 8
REMARK VINA RESULT:    -3.455     16.738     19.920
REMARK INTER + INTRA:          -6.941
REMARK INTER:                  -4.917
REMARK INTRA:                  -2.023
REMARK UNBOUND:                -1.870
REMARK  Name = /home/vital/Documents/PhD_2021/Malaria_codes/data/pdb_ligands_mmv/ligand_301.pdb
REMARK  8 active torsions:
REMARK  status: ('A' for Active; 'I' for Inactive)
REMARK    1  A    between atoms: C1_2  and  C8_10
REMARK    2  A    between atoms: N1_3  and  C2_4
REMARK    3  A    between atoms: C8_10  and  N2_11
REMARK    4  A    between atoms: C8_10  and  C22_27
REMARK    5  A    between atoms: N2_11  and  C9_12
REMARK    6  A    between atoms: C9_12  and  C10_13
REMARK    7  A    between atoms: C10_13  and  C11_14
REMARK    8  A    between atoms: C17_20  and  C18_22
REMARK                            x       y       z     vdW  Elec       q    Type
REMARK                         _______ _______ _______ _____ _____    ______ ____
ROOT
ATOM      1  C8  UNL     1     141.749 145.008 166.210  0.00  0.00    +0.199 C 
ENDROOT
BRANCH   1   2
ATOM      2  C22 UNL     1     141.439 145.070 164.722  0.00  0.00    +0.019 A 
ATOM      3  C23 UNL     1     141.844 144.158 163.761  0.00  0.00    +0.013 A 
ATOM      4  C24 UNL     1     141.383 144.487 162.454  0.00  0.00    +0.008 A 
ATOM      5  C25 UNL     1     140.634 145.641 162.450  0.00  0.00    +0.045 A 
ATOM      6  S1  UNL     1     140.490 146.315 164.010  0.00  0.00    -0.099 S 
ENDBRANCH   1   2
BRANCH   1   8
ATOM      7  O1  UNL     1     140.584 143.637 167.885  0.00  0.00    -0.273 OA
ATOM      8  C1  UNL     1     141.313 143.678 166.894  0.00  0.00    +0.239 C 
ATOM      9  N1  UNL     1     141.729 142.524 166.241  0.00  0.00    -0.311 N 
ATOM     10  H1  UNL     1     142.517 142.609 165.608  0.00  0.00    +0.149 HD
BRANCH   9  11
ATOM     11  C2  UNL     1     141.447 141.203 166.785  0.00  0.00    +0.073 C 
ATOM     12  C3  UNL     1     141.436 140.156 165.670  0.00  0.00    +0.022 C 
ATOM     13  C4  UNL     1     141.030 138.775 166.189  0.00  0.00    +0.002 C 
ATOM     14  C5  UNL     1     141.393 138.542 167.657  0.00  0.00    +0.000 C 
ATOM     15  C6  UNL     1     142.637 139.320 168.062  0.00  0.00    +0.002 C 
ATOM     16  C7  UNL     1     142.454 140.829 167.887  0.00  0.00    +0.022 C 
ENDBRANCH   9  11
ENDBRANCH   1   8
BRANCH   1  17
ATOM     17  N2  UNL     1     143.166 145.360 166.437  0.00  0.00    -0.279 N 
ATOM     18  C17 UNL     1     143.588 146.622 166.887  0.00  0.00    +0.283 C 
ATOM     19  O2  UNL     1     144.686 146.754 167.432  0.00  0.00    -0.267 OA
BRANCH  18  20
ATOM     20  C18 UNL     1     142.741 147.786 166.679  0.00  0.00    +0.189 A 
ATOM     21  O3  UNL     1     141.832 148.177 167.628  0.00  0.00    -0.458 OA
ATOM     22  C19 UNL     1     141.153 149.241 167.126  0.00  0.00    +0.196 A 
ATOM     23  C20 UNL     1     141.588 149.536 165.857  0.00  0.00    +0.042 A 
ATOM     24  C21 UNL     1     142.596 148.589 165.561  0.00  0.00    +0.054 A 
ENDBRANCH  18  20
BRANCH  17  25
ATOM     25  C9  UNL     1     144.130 144.258 166.582  0.00  0.00    +0.114 C 
BRANCH  25  26
ATOM     26  C10 UNL     1     145.222 144.315 165.506  0.00  0.00    +0.054 C 
BRANCH  26  27
ATOM     27  C11 UNL     1     145.355 143.004 164.774  0.00  0.00    -0.046 A 
ATOM     28  C12 UNL     1     145.335 141.794 165.481  0.00  0.00    +0.004 A 
ATOM     29  C13 UNL     1     145.436 140.579 164.802  0.00  0.00    +0.000 A 
ATOM     30  C14 UNL     1     145.554 140.561 163.414  0.00  0.00    +0.000 A 
ATOM     31  C15 UNL     1     145.569 141.760 162.702  0.00  0.00    +0.000 A 
ATOM     32  C16 UNL     1     145.468 142.976 163.378  0.00  0.00    +0.004 A 
ENDBRANCH  26  27
ENDBRANCH  25  26
ENDBRANCH  17  25
ENDBRANCH   1  17
TORSDOF 8
ENDMDL
MODEL 9
REMARK VINA RESULT:    -3.011     15.933     19.002
REMARK INTER + INTRA:          -6.289
REMARK INTER:                  -5.344
REMARK INTRA:                  -0.945
REMARK UNBOUND:                -1.870
REMARK  Name = /home/vital/Documents/PhD_2021/Malaria_codes/data/pdb_ligands_mmv/ligand_301.pdb
REMARK  8 active torsions:
REMARK  status: ('A' for Active; 'I' for Inactive)
REMARK    1  A    between atoms: C1_2  and  C8_10
REMARK    2  A    between atoms: N1_3  and  C2_4
REMARK    3  A    between atoms: C8_10  and  N2_11
REMARK    4  A    between atoms: C8_10  and  C22_27
REMARK    5  A    between atoms: N2_11  and  C9_12
REMARK    6  A    between atoms: C9_12  and  C10_13
REMARK    7  A    between atoms: C10_13  and  C11_14
REMARK    8  A    between atoms: C17_20  and  C18_22
REMARK                            x       y       z     vdW  Elec       q    Type
REMARK                         _______ _______ _______ _____ _____    ______ ____
ROOT
ATOM      1  C8  UNL     1     142.074 146.003 164.293  0.00  0.00    +0.199 C 
ENDROOT
BRANCH   1   2
ATOM      2  C22 UNL     1     141.604 146.859 163.127  0.00  0.00    +0.019 A 
ATOM      3  C23 UNL     1     142.003 148.157 162.848  0.00  0.00    +0.013 A 
ATOM      4  C24 UNL     1     141.392 148.685 161.676  0.00  0.00    +0.008 A 
ATOM      5  C25 UNL     1     140.544 147.778 161.085  0.00  0.00    +0.045 A 
ATOM      6  S1  UNL     1     140.490 146.303 161.941  0.00  0.00    -0.099 S 
ENDBRANCH   1   2
BRANCH   1   8
ATOM      7  O1  UNL     1     141.747 143.914 163.041  0.00  0.00    -0.273 OA
ATOM      8  C1  UNL     1     141.764 144.485 164.131  0.00  0.00    +0.239 C 
ATOM      9  N1  UNL     1     141.602 143.792 165.324  0.00  0.00    -0.311 N 
ATOM     10  H1  UNL     1     141.370 144.337 166.147  0.00  0.00    +0.149 HD
BRANCH   9  11
ATOM     11  C2  UNL     1     141.255 142.378 165.338  0.00  0.00    +0.073 C 
ATOM     12  C3  UNL     1     141.826 141.675 164.106  0.00  0.00    +0.022 C 
ATOM     13  C4  UNL     1     141.385 140.211 164.029  0.00  0.00    +0.002 C 
ATOM     14  C5  UNL     1     141.115 139.581 165.398  0.00  0.00    +0.000 C 
ATOM     15  C6  UNL     1     141.982 140.198 166.485  0.00  0.00    +0.002 C 
ATOM     16  C7  UNL     1     141.734 141.702 166.634  0.00  0.00    +0.022 C 
ENDBRANCH   9  11
ENDBRANCH   1   8
BRANCH   1  17
ATOM     17  N2  UNL     1     143.492 146.296 164.584  0.00  0.00    -0.279 N 
ATOM     18  C17 UNL     1     143.921 146.996 165.724  0.00  0.00    +0.283 C 
ATOM     19  O2  UNL     1     145.079 146.876 166.130  0.00  0.00    -0.267 OA
BRANCH  18  20
ATOM     20  C18 UNL     1     143.004 147.893 166.410  0.00  0.00    +0.189 A 
ATOM     21  O3  UNL     1     142.233 147.451 167.454  0.00  0.00    -0.458 OA
ATOM     22  C19 UNL     1     141.443 148.486 167.841  0.00  0.00    +0.196 A 
ATOM     23  C20 UNL     1     141.670 149.587 167.053  0.00  0.00    +0.042 A 
ATOM     24  C21 UNL     1     142.660 149.201 166.119  0.00  0.00    +0.054 A 
ENDBRANCH  18  20
BRANCH  17  25
ATOM     25  C9  UNL     1     144.513 145.501 163.883  0.00  0.00    +0.114 C 
BRANCH  25  26
ATOM     26  C10 UNL     1     145.398 144.723 164.865  0.00  0.00    +0.054 C 
BRANCH  26  27
ATOM     27  C11 UNL     1     145.431 143.250 164.544  0.00  0.00    -0.046 A 
ATOM     28  C12 UNL     1     145.416 142.302 165.575  0.00  0.00    +0.004 A 
ATOM     29  C13 UNL     1     145.424 140.938 165.279  0.00  0.00    +0.000 A 
ATOM     30  C14 UNL     1     145.443 140.510 163.953  0.00  0.00    +0.000 A 
ATOM     31  C15 UNL     1     145.451 141.447 162.920  0.00  0.00    +0.000 A 
ATOM     32  C16 UNL     1     145.443 142.811 163.213  0.00  0.00    +0.004 A 
ENDBRANCH  26  27
ENDBRANCH  25  26
ENDBRANCH  17  25
ENDBRANCH   1  17
TORSDOF 8
ENDMDL
