MODEL 1
REMARK VINA RESULT:    -5.106      0.000      0.000
REMARK INTER + INTRA:          -6.604
REMARK INTER:                  -6.150
REMARK INTRA:                  -0.454
REMARK UNBOUND:                -0.454
REMARK  Name = /home/vital/Documents/PhD_2021/Malaria_codes/data/pdb_ligands_mmv/ligand_57.pdb
REMARK  5 active torsions:
REMARK  status: ('A' for Active; 'I' for Inactive)
REMARK    1  A    between atoms: C1_1  and  O1_2
REMARK    2  A    between atoms: O1_2  and  C2_3
REMARK    3  A    between atoms: C7_8  and  N1_9
REMARK    4  A    between atoms: C16_19  and  O3_27
REMARK    5  A    between atoms: C17_20  and  N2_21
REMARK                            x       y       z     vdW  Elec       q    Type
REMARK                         _______ _______ _______ _____ _____    ______ ____
ROOT
ATOM      1  N1  UNL     1     152.061 157.231 165.548  0.00  0.00    -0.238 NA
ATOM      2  C8  UNL     1     152.030 158.453 166.000  0.00  0.00    +0.136 C 
ATOM      3  C9  UNL     1     151.999 158.814 167.482  0.00  0.00    +0.214 C 
ATOM      4  O2  UNL     1     151.213 158.329 168.279  0.00  0.00    -0.285 OA
ATOM      5  C10 UNL     1     152.984 159.822 167.884  0.00  0.00    +0.035 A 
ATOM      6  C11 UNL     1     153.480 159.851 169.191  0.00  0.00    +0.012 A 
ATOM      7  C12 UNL     1     154.454 160.785 169.528  0.00  0.00    +0.001 A 
ATOM      8  C13 UNL     1     154.925 161.676 168.562  0.00  0.00    +0.001 A 
ATOM      9  C14 UNL     1     154.405 161.649 167.263  0.00  0.00    +0.012 A 
ATOM     10  C15 UNL     1     153.408 160.728 166.909  0.00  0.00    +0.029 A 
ATOM     11  C16 UNL     1     152.773 160.719 165.570  0.00  0.00    +0.148 C 
ATOM     12  C17 UNL     1     152.094 159.656 165.073  0.00  0.00    +0.102 C 
ENDROOT
BRANCH   1  18
ATOM     13  C2  UNL     1     150.857 155.376 166.614  0.00  0.00    +0.145 A 
ATOM     14  C3  UNL     1     150.870 154.273 167.475  0.00  0.00    +0.048 A 
ATOM     15  C4  UNL     1     152.031 153.946 168.176  0.00  0.00    +0.004 A 
ATOM     16  C5  UNL     1     153.188 154.705 168.007  0.00  0.00    +0.002 A 
ATOM     17  C6  UNL     1     153.183 155.795 167.135  0.00  0.00    +0.031 A 
ATOM     18  C7  UNL     1     152.021 156.148 166.440  0.00  0.00    +0.106 A 
BRANCH  13  20
ATOM     19  C1  UNL     1     149.443 154.768 164.854  0.00  0.00    +0.277 C 
ATOM     20  O1  UNL     1     149.750 155.715 165.874  0.00  0.00    -0.493 OA
ENDBRANCH  13  20
ENDBRANCH   1  18
BRANCH  12  21
ATOM     21  N2  UNL     1     151.475 159.565 163.806  0.00  0.00    -0.325 N 
ATOM     22  C18 UNL     1     151.931 158.595 162.790  0.00  0.00    +0.105 C 
ATOM     23  C19 UNL     1     150.768 158.164 161.901  0.00  0.00    +0.019 C 
ATOM     24  C20 UNL     1     150.160 159.344 161.148  0.00  0.00    +0.003 C 
ATOM     25  C21 UNL     1     150.377 160.667 161.875  0.00  0.00    +0.019 C 
ATOM     26  C22 UNL     1     150.405 160.487 163.391  0.00  0.00    +0.105 C 
ENDBRANCH  12  21
BRANCH  11  27
ATOM     27  O3  UNL     1     152.860 161.909 164.862  0.00  0.00    -0.504 OA
ATOM     28  H22 UNL     1     152.196 162.522 165.224  0.00  0.00    +0.292 HD
ENDBRANCH  11  27
TORSDOF 4
ENDMDL
MODEL 2
REMARK VINA RESULT:    -4.965      4.677      6.894
REMARK INTER + INTRA:          -6.434
REMARK INTER:                  -6.126
REMARK INTRA:                  -0.308
REMARK UNBOUND:                -0.454
REMARK  Name = /home/vital/Documents/PhD_2021/Malaria_codes/data/pdb_ligands_mmv/ligand_57.pdb
REMARK  5 active torsions:
REMARK  status: ('A' for Active; 'I' for Inactive)
REMARK    1  A    between atoms: C1_1  and  O1_2
REMARK    2  A    between atoms: O1_2  and  C2_3
REMARK    3  A    between atoms: C7_8  and  N1_9
REMARK    4  A    between atoms: C16_19  and  O3_27
REMARK    5  A    between atoms: C17_20  and  N2_21
REMARK                            x       y       z     vdW  Elec       q    Type
REMARK                         _______ _______ _______ _____ _____    ______ ____
ROOT
ATOM      1  N1  UNL     1     151.188 156.151 159.623  0.00  0.00    -0.238 NA
ATOM      2  C8  UNL     1     150.930 157.422 159.487  0.00  0.00    +0.136 C 
ATOM      3  C9  UNL     1     150.116 158.238 160.488  0.00  0.00    +0.214 C 
ATOM      4  O2  UNL     1     149.024 157.896 160.908  0.00  0.00    -0.285 OA
ATOM      5  C10 UNL     1     150.744 159.497 160.900  0.00  0.00    +0.035 A 
ATOM      6  C11 UNL     1     150.467 160.054 162.152  0.00  0.00    +0.012 A 
ATOM      7  C12 UNL     1     151.119 161.222 162.535  0.00  0.00    +0.001 A 
ATOM      8  C13 UNL     1     152.039 161.819 161.672  0.00  0.00    +0.001 A 
ATOM      9  C14 UNL     1     152.291 161.262 160.413  0.00  0.00    +0.012 A 
ATOM     10  C15 UNL     1     151.629 160.096 159.999  0.00  0.00    +0.029 A 
ATOM     11  C16 UNL     1     151.804 159.519 158.646  0.00  0.00    +0.148 C 
ATOM     12  C17 UNL     1     151.487 158.239 158.333  0.00  0.00    +0.102 C 
ENDROOT
BRANCH   1  18
ATOM     13  C2  UNL     1     151.288 155.470 161.979  0.00  0.00    +0.145 A 
ATOM     14  C3  UNL     1     150.714 154.788 163.057  0.00  0.00    +0.048 A 
ATOM     15  C4  UNL     1     149.537 154.060 162.878  0.00  0.00    +0.004 A 
ATOM     16  C5  UNL     1     148.918 154.026 161.630  0.00  0.00    +0.002 A 
ATOM     17  C6  UNL     1     149.479 154.721 160.556  0.00  0.00    +0.031 A 
ATOM     18  C7  UNL     1     150.670 155.439 160.715  0.00  0.00    +0.106 A 
BRANCH  13  20
ATOM     19  C1  UNL     1     152.483 156.939 163.349  0.00  0.00    +0.277 C 
ATOM     20  O1  UNL     1     152.425 156.231 162.114  0.00  0.00    -0.493 OA
ENDBRANCH  13  20
ENDBRANCH   1  18
BRANCH  12  21
ATOM     21  N2  UNL     1     151.637 157.613 157.075  0.00  0.00    -0.325 N 
ATOM     22  C18 UNL     1     151.036 158.181 155.852  0.00  0.00    +0.105 C 
ATOM     23  C19 UNL     1     151.877 157.827 154.628  0.00  0.00    +0.019 C 
ATOM     24  C20 UNL     1     151.969 156.318 154.419  0.00  0.00    +0.003 C 
ATOM     25  C21 UNL     1     151.787 155.542 155.720  0.00  0.00    +0.019 C 
ATOM     26  C22 UNL     1     152.317 156.316 156.925  0.00  0.00    +0.105 C 
ENDBRANCH  12  21
BRANCH  11  27
ATOM     27  O3  UNL     1     152.264 160.401 157.678  0.00  0.00    -0.504 OA
ATOM     28  H22 UNL     1     151.511 160.942 157.385  0.00  0.00    +0.292 HD
ENDBRANCH  11  27
TORSDOF 4
ENDMDL
MODEL 3
REMARK VINA RESULT:    -4.812      2.254      5.524
REMARK INTER + INTRA:          -6.250
REMARK INTER:                  -5.631
REMARK INTRA:                  -0.619
REMARK UNBOUND:                -0.454
REMARK  Name = /home/vital/Documents/PhD_2021/Malaria_codes/data/pdb_ligands_mmv/ligand_57.pdb
REMARK  5 active torsions:
REMARK  status: ('A' for Active; 'I' for Inactive)
REMARK    1  A    between atoms: C1_1  and  O1_2
REMARK    2  A    between atoms: O1_2  and  C2_3
REMARK    3  A    between atoms: C7_8  and  N1_9
REMARK    4  A    between atoms: C16_19  and  O3_27
REMARK    5  A    between atoms: C17_20  and  N2_21
REMARK                            x       y       z     vdW  Elec       q    Type
REMARK                         _______ _______ _______ _____ _____    ______ ____
ROOT
ATOM      1  N1  UNL     1     151.660 157.545 163.434  0.00  0.00    -0.238 NA
ATOM      2  C8  UNL     1     151.331 157.187 164.643  0.00  0.00    +0.136 C 
ATOM      3  C9  UNL     1     150.546 155.921 164.975  0.00  0.00    +0.214 C 
ATOM      4  O2  UNL     1     149.501 155.612 164.427  0.00  0.00    -0.285 OA
ATOM      5  C10 UNL     1     151.136 155.098 166.035  0.00  0.00    +0.035 A 
ATOM      6  C11 UNL     1     150.915 153.718 166.071  0.00  0.00    +0.012 A 
ATOM      7  C12 UNL     1     151.532 152.957 167.058  0.00  0.00    +0.001 A 
ATOM      8  C13 UNL     1     152.363 153.575 167.994  0.00  0.00    +0.001 A 
ATOM      9  C14 UNL     1     152.560 154.961 167.958  0.00  0.00    +0.012 A 
ATOM     10  C15 UNL     1     151.930 155.749 166.984  0.00  0.00    +0.029 A 
ATOM     11  C16 UNL     1     152.044 157.226 166.959  0.00  0.00    +0.148 C 
ATOM     12  C17 UNL     1     151.770 157.978 165.865  0.00  0.00    +0.102 C 
ENDROOT
BRANCH   1  18
ATOM     13  C2  UNL     1     150.337 157.266 161.385  0.00  0.00    +0.145 A 
ATOM     14  C3  UNL     1     149.991 156.488 160.275  0.00  0.00    +0.048 A 
ATOM     15  C4  UNL     1     150.538 155.214 160.116  0.00  0.00    +0.004 A 
ATOM     16  C5  UNL     1     151.445 154.721 161.052  0.00  0.00    +0.002 A 
ATOM     17  C6  UNL     1     151.806 155.502 162.151  0.00  0.00    +0.031 A 
ATOM     18  C7  UNL     1     151.250 156.774 162.334  0.00  0.00    +0.106 A 
BRANCH  13  20
ATOM     19  C1  UNL     1     149.738 159.275 160.350  0.00  0.00    +0.277 C 
ATOM     20  O1  UNL     1     149.854 158.541 161.565  0.00  0.00    -0.493 OA
ENDBRANCH  13  20
ENDBRANCH   1  18
BRANCH  12  21
ATOM     21  N2  UNL     1     151.868 159.383 165.758  0.00  0.00    -0.325 N 
ATOM     22  C18 UNL     1     153.142 160.046 165.414  0.00  0.00    +0.105 C 
ATOM     23  C19 UNL     1     152.883 161.349 164.663  0.00  0.00    +0.019 C 
ATOM     24  C20 UNL     1     152.079 162.338 165.502  0.00  0.00    +0.003 C 
ATOM     25  C21 UNL     1     151.214 161.641 166.547  0.00  0.00    +0.019 C 
ATOM     26  C22 UNL     1     150.736 160.272 166.071  0.00  0.00    +0.105 C 
ENDBRANCH  12  21
BRANCH  11  27
ATOM     27  O3  UNL     1     152.396 157.816 168.165  0.00  0.00    -0.504 OA
ATOM     28  H22 UNL     1     151.768 158.538 168.339  0.00  0.00    +0.292 HD
ENDBRANCH  11  27
TORSDOF 4
ENDMDL
MODEL 4
REMARK VINA RESULT:    -4.737      2.389      5.061
REMARK INTER + INTRA:          -6.160
REMARK INTER:                  -5.227
REMARK INTRA:                  -0.933
REMARK UNBOUND:                -0.454
REMARK  Name = /home/vital/Documents/PhD_2021/Malaria_codes/data/pdb_ligands_mmv/ligand_57.pdb
REMARK  5 active torsions:
REMARK  status: ('A' for Active; 'I' for Inactive)
REMARK    1  A    between atoms: C1_1  and  O1_2
REMARK    2  A    between atoms: O1_2  and  C2_3
REMARK    3  A    between atoms: C7_8  and  N1_9
REMARK    4  A    between atoms: C16_19  and  O3_27
REMARK    5  A    between atoms: C17_20  and  N2_21
REMARK                            x       y       z     vdW  Elec       q    Type
REMARK                         _______ _______ _______ _____ _____    ______ ____
ROOT
ATOM      1  N1  UNL     1     150.895 158.360 165.627  0.00  0.00    -0.238 NA
ATOM      2  C8  UNL     1     151.277 158.668 164.419  0.00  0.00    +0.136 C 
ATOM      3  C9  UNL     1     152.093 157.742 163.520  0.00  0.00    +0.214 C 
ATOM      4  O2  UNL     1     153.119 157.188 163.877  0.00  0.00    -0.285 OA
ATOM      5  C10 UNL     1     151.557 157.581 162.165  0.00  0.00    +0.035 A 
ATOM      6  C11 UNL     1     151.798 156.411 161.439  0.00  0.00    +0.012 A 
ATOM      7  C12 UNL     1     151.231 156.266 160.177  0.00  0.00    +0.001 A 
ATOM      8  C13 UNL     1     150.431 157.282 159.654  0.00  0.00    +0.001 A 
ATOM      9  C14 UNL     1     150.213 158.457 160.384  0.00  0.00    +0.012 A 
ATOM     10  C15 UNL     1     150.793 158.631 161.650  0.00  0.00    +0.029 A 
ATOM     11  C16 UNL     1     150.656 159.889 162.420  0.00  0.00    +0.148 C 
ATOM     12  C17 UNL     1     150.876 159.975 163.755  0.00  0.00    +0.102 C 
ENDROOT
BRANCH   1  18
ATOM     13  C2  UNL     1     150.595 155.938 165.887  0.00  0.00    +0.145 A 
ATOM     14  C3  UNL     1     151.030 154.726 166.433  0.00  0.00    +0.048 A 
ATOM     15  C4  UNL     1     152.126 154.701 167.297  0.00  0.00    +0.004 A 
ATOM     16  C5  UNL     1     152.802 155.880 167.603  0.00  0.00    +0.002 A 
ATOM     17  C6  UNL     1     152.381 157.089 167.046  0.00  0.00    +0.031 A 
ATOM     18  C7  UNL     1     151.271 157.133 166.194  0.00  0.00    +0.106 A 
BRANCH  13  20
ATOM     19  C1  UNL     1     149.423 154.850 164.181  0.00  0.00    +0.277 C 
ATOM     20  O1  UNL     1     149.545 156.008 165.003  0.00  0.00    -0.493 OA
ENDBRANCH  13  20
ENDBRANCH   1  18
BRANCH  12  21
ATOM     21  N2  UNL     1     150.754 161.130 164.561  0.00  0.00    -0.325 N 
ATOM     22  C18 UNL     1     149.442 161.592 165.056  0.00  0.00    +0.105 C 
ATOM     23  C19 UNL     1     149.598 162.308 166.395  0.00  0.00    +0.019 C 
ATOM     24  C20 UNL     1     150.490 163.541 166.280  0.00  0.00    +0.003 C 
ATOM     25  C21 UNL     1     151.481 163.432 165.126  0.00  0.00    +0.019 C 
ATOM     26  C22 UNL     1     151.909 161.988 164.875  0.00  0.00    +0.105 C 
ENDBRANCH  12  21
BRANCH  11  27
ATOM     27  O3  UNL     1     150.345 161.015 161.671  0.00  0.00    -0.504 OA
ATOM     28  H22 UNL     1     149.401 161.211 161.804  0.00  0.00    +0.292 HD
ENDBRANCH  11  27
TORSDOF 4
ENDMDL
MODEL 5
REMARK VINA RESULT:    -4.541      1.742      5.121
REMARK INTER + INTRA:          -5.923
REMARK INTER:                  -5.101
REMARK INTRA:                  -0.822
REMARK UNBOUND:                -0.454
REMARK  Name = /home/vital/Documents/PhD_2021/Malaria_codes/data/pdb_ligands_mmv/ligand_57.pdb
REMARK  5 active torsions:
REMARK  status: ('A' for Active; 'I' for Inactive)
REMARK    1  A    between atoms: C1_1  and  O1_2
REMARK    2  A    between atoms: O1_2  and  C2_3
REMARK    3  A    between atoms: C7_8  and  N1_9
REMARK    4  A    between atoms: C16_19  and  O3_27
REMARK    5  A    between atoms: C17_20  and  N2_21
REMARK                            x       y       z     vdW  Elec       q    Type
REMARK                         _______ _______ _______ _____ _____    ______ ____
ROOT
ATOM      1  N1  UNL     1     151.166 157.566 167.242  0.00  0.00    -0.238 NA
ATOM      2  C8  UNL     1     151.708 158.418 166.417  0.00  0.00    +0.136 C 
ATOM      3  C9  UNL     1     152.190 158.058 165.014  0.00  0.00    +0.214 C 
ATOM      4  O2  UNL     1     152.923 157.114 164.774  0.00  0.00    -0.285 OA
ATOM      5  C10 UNL     1     151.718 158.959 163.959  0.00  0.00    +0.035 A 
ATOM      6  C11 UNL     1     151.567 158.500 162.647  0.00  0.00    +0.012 A 
ATOM      7  C12 UNL     1     151.066 159.364 161.678  0.00  0.00    +0.001 A 
ATOM      8  C13 UNL     1     150.720 160.671 162.025  0.00  0.00    +0.001 A 
ATOM      9  C14 UNL     1     150.894 161.123 163.339  0.00  0.00    +0.012 A 
ATOM     10  C15 UNL     1     151.417 160.274 164.325  0.00  0.00    +0.029 A 
ATOM     11  C16 UNL     1     151.695 160.734 165.706  0.00  0.00    +0.148 C 
ATOM     12  C17 UNL     1     151.846 159.893 166.758  0.00  0.00    +0.102 C 
ENDROOT
BRANCH   1  18
ATOM     13  C2  UNL     1     151.900 155.228 167.390  0.00  0.00    +0.145 A 
ATOM     14  C3  UNL     1     151.711 153.886 167.045  0.00  0.00    +0.048 A 
ATOM     15  C4  UNL     1     150.676 153.525 166.179  0.00  0.00    +0.004 A 
ATOM     16  C5  UNL     1     149.818 154.498 165.671  0.00  0.00    +0.002 A 
ATOM     17  C6  UNL     1     149.994 155.836 166.028  0.00  0.00    +0.031 A 
ATOM     18  C7  UNL     1     151.038 156.216 166.879  0.00  0.00    +0.106 A 
BRANCH  13  20
ATOM     19  C1  UNL     1     154.125 154.967 168.059  0.00  0.00    +0.277 C 
ATOM     20  O1  UNL     1     152.880 155.628 168.267  0.00  0.00    -0.493 OA
ENDBRANCH  13  20
ENDBRANCH   1  18
BRANCH  12  21
ATOM     21  N2  UNL     1     152.098 160.253 168.101  0.00  0.00    -0.325 N 
ATOM     22  C18 UNL     1     153.314 159.802 168.807  0.00  0.00    +0.105 C 
ATOM     23  C19 UNL     1     153.732 160.826 169.859  0.00  0.00    +0.019 C 
ATOM     24  C20 UNL     1     152.652 161.027 170.918  0.00  0.00    +0.003 C 
ATOM     25  C21 UNL     1     151.258 160.705 170.389  0.00  0.00    +0.019 C 
ATOM     26  C22 UNL     1     151.125 161.016 168.901  0.00  0.00    +0.105 C 
ENDBRANCH  12  21
BRANCH  11  27
ATOM     27  O3  UNL     1     151.857 162.105 165.855  0.00  0.00    -0.504 OA
ATOM     28  H22 UNL     1     151.270 162.546 165.217  0.00  0.00    +0.292 HD
ENDBRANCH  11  27
TORSDOF 4
ENDMDL
MODEL 6
REMARK VINA RESULT:    -4.500      2.153      5.747
REMARK INTER + INTRA:          -5.874
REMARK INTER:                  -5.175
REMARK INTRA:                  -0.700
REMARK UNBOUND:                -0.454
REMARK  Name = /home/vital/Documents/PhD_2021/Malaria_codes/data/pdb_ligands_mmv/ligand_57.pdb
REMARK  5 active torsions:
REMARK  status: ('A' for Active; 'I' for Inactive)
REMARK    1  A    between atoms: C1_1  and  O1_2
REMARK    2  A    between atoms: O1_2  and  C2_3
REMARK    3  A    between atoms: C7_8  and  N1_9
REMARK    4  A    between atoms: C16_19  and  O3_27
REMARK    5  A    between atoms: C17_20  and  N2_21
REMARK                            x       y       z     vdW  Elec       q    Type
REMARK                         _______ _______ _______ _____ _____    ______ ____
ROOT
ATOM      1  N1  UNL     1     150.438 156.837 163.095  0.00  0.00    -0.238 NA
ATOM      2  C8  UNL     1     151.251 157.049 164.091  0.00  0.00    +0.136 C 
ATOM      3  C9  UNL     1     152.473 157.960 164.015  0.00  0.00    +0.214 C 
ATOM      4  O2  UNL     1     153.313 157.890 163.134  0.00  0.00    -0.285 OA
ATOM      5  C10 UNL     1     152.579 158.929 165.110  0.00  0.00    +0.035 A 
ATOM      6  C11 UNL     1     153.241 160.146 164.922  0.00  0.00    +0.012 A 
ATOM      7  C12 UNL     1     153.279 161.067 165.963  0.00  0.00    +0.001 A 
ATOM      8  C13 UNL     1     152.656 160.770 167.176  0.00  0.00    +0.001 A 
ATOM      9  C14 UNL     1     152.013 159.539 167.358  0.00  0.00    +0.012 A 
ATOM     10  C15 UNL     1     151.982 158.589 166.327  0.00  0.00    +0.029 A 
ATOM     11  C16 UNL     1     151.385 157.244 166.503  0.00  0.00    +0.148 C 
ATOM     12  C17 UNL     1     151.012 156.451 165.468  0.00  0.00    +0.102 C 
ENDROOT
BRANCH   1  18
ATOM     13  C2  UNL     1     151.260 156.698 160.786  0.00  0.00    +0.145 A 
ATOM     14  C3  UNL     1     151.445 157.304 159.539  0.00  0.00    +0.048 A 
ATOM     15  C4  UNL     1     151.074 158.636 159.346  0.00  0.00    +0.004 A 
ATOM     16  C5  UNL     1     150.502 159.361 160.389  0.00  0.00    +0.002 A 
ATOM     17  C6  UNL     1     150.300 158.754 161.630  0.00  0.00    +0.031 A 
ATOM     18  C7  UNL     1     150.685 157.425 161.844  0.00  0.00    +0.106 A 
BRANCH  13  20
ATOM     19  C1  UNL     1     150.669 154.471 160.391  0.00  0.00    +0.277 C 
ATOM     20  O1  UNL     1     151.573 155.379 161.014  0.00  0.00    -0.493 OA
ENDBRANCH  13  20
ENDBRANCH   1  18
BRANCH  12  21
ATOM     21  N2  UNL     1     150.426 155.168 165.553  0.00  0.00    -0.325 N 
ATOM     22  C18 UNL     1     148.984 154.959 165.311  0.00  0.00    +0.105 C 
ATOM     23  C19 UNL     1     148.733 153.566 164.742  0.00  0.00    +0.019 C 
ATOM     24  C20 UNL     1     149.187 152.469 165.701  0.00  0.00    +0.003 C 
ATOM     25  C21 UNL     1     150.296 152.942 166.636  0.00  0.00    +0.019 C 
ATOM     26  C22 UNL     1     151.193 153.985 165.976  0.00  0.00    +0.105 C 
ENDBRANCH  12  21
BRANCH  11  27
ATOM     27  O3  UNL     1     151.284 156.804 167.815  0.00  0.00    -0.504 OA
ATOM     28  H22 UNL     1     152.030 156.204 167.988  0.00  0.00    +0.292 HD
ENDBRANCH  11  27
TORSDOF 4
ENDMDL
MODEL 7
REMARK VINA RESULT:    -4.474      1.720      5.115
REMARK INTER + INTRA:          -5.843
REMARK INTER:                  -5.018
REMARK INTRA:                  -0.825
REMARK UNBOUND:                -0.454
REMARK  Name = /home/vital/Documents/PhD_2021/Malaria_codes/data/pdb_ligands_mmv/ligand_57.pdb
REMARK  5 active torsions:
REMARK  status: ('A' for Active; 'I' for Inactive)
REMARK    1  A    between atoms: C1_1  and  O1_2
REMARK    2  A    between atoms: O1_2  and  C2_3
REMARK    3  A    between atoms: C7_8  and  N1_9
REMARK    4  A    between atoms: C16_19  and  O3_27
REMARK    5  A    between atoms: C17_20  and  N2_21
REMARK                            x       y       z     vdW  Elec       q    Type
REMARK                         _______ _______ _______ _____ _____    ______ ____
ROOT
ATOM      1  N1  UNL     1     151.211 157.534 167.119  0.00  0.00    -0.238 NA
ATOM      2  C8  UNL     1     151.868 158.330 166.323  0.00  0.00    +0.136 C 
ATOM      3  C9  UNL     1     152.430 157.908 164.969  0.00  0.00    +0.214 C 
ATOM      4  O2  UNL     1     153.117 156.914 164.803  0.00  0.00    -0.285 OA
ATOM      5  C10 UNL     1     152.099 158.813 163.864  0.00  0.00    +0.035 A 
ATOM      6  C11 UNL     1     152.018 158.335 162.553  0.00  0.00    +0.012 A 
ATOM      7  C12 UNL     1     151.649 159.206 161.533  0.00  0.00    +0.001 A 
ATOM      8  C13 UNL     1     151.363 160.540 161.829  0.00  0.00    +0.001 A 
ATOM      9  C14 UNL     1     151.467 161.010 163.143  0.00  0.00    +0.012 A 
ATOM     10  C15 UNL     1     151.857 160.152 164.182  0.00  0.00    +0.029 A 
ATOM     11  C16 UNL     1     152.059 160.626 165.571  0.00  0.00    +0.148 C 
ATOM     12  C17 UNL     1     152.076 159.801 166.647  0.00  0.00    +0.102 C 
ENDROOT
BRANCH   1  18
ATOM     13  C2  UNL     1     151.774 155.158 167.370  0.00  0.00    +0.145 A 
ATOM     14  C3  UNL     1     151.525 153.822 167.036  0.00  0.00    +0.048 A 
ATOM     15  C4  UNL     1     150.542 153.509 166.095  0.00  0.00    +0.004 A 
ATOM     16  C5  UNL     1     149.793 154.523 165.501  0.00  0.00    +0.002 A 
ATOM     17  C6  UNL     1     150.028 155.855 165.846  0.00  0.00    +0.031 A 
ATOM     18  C7  UNL     1     151.024 156.186 166.772  0.00  0.00    +0.106 A 
BRANCH  13  20
ATOM     19  C1  UNL     1     154.014 155.032 168.028  0.00  0.00    +0.277 C 
ATOM     20  O1  UNL     1     152.705 155.514 168.317  0.00  0.00    -0.493 OA
ENDBRANCH  13  20
ENDBRANCH   1  18
BRANCH  12  21
ATOM     21  N2  UNL     1     152.248 160.175 167.999  0.00  0.00    -0.325 N 
ATOM     22  C18 UNL     1     151.328 161.119 168.664  0.00  0.00    +0.105 C 
ATOM     23  C19 UNL     1     151.233 160.814 170.156  0.00  0.00    +0.019 C 
ATOM     24  C20 UNL     1     152.586 160.948 170.850  0.00  0.00    +0.003 C 
ATOM     25  C21 UNL     1     153.752 160.721 169.893  0.00  0.00    +0.019 C 
ATOM     26  C22 UNL     1     153.402 159.722 168.794  0.00  0.00    +0.105 C 
ENDBRANCH  12  21
BRANCH  11  27
ATOM     27  O3  UNL     1     152.299 161.986 165.708  0.00  0.00    -0.504 OA
ATOM     28  H22 UNL     1     151.463 162.455 165.541  0.00  0.00    +0.292 HD
ENDBRANCH  11  27
TORSDOF 4
ENDMDL
MODEL 8
REMARK VINA RESULT:    -4.382      2.882      6.733
REMARK INTER + INTRA:          -5.732
REMARK INTER:                  -5.242
REMARK INTRA:                  -0.490
REMARK UNBOUND:                -0.454
REMARK  Name = /home/vital/Documents/PhD_2021/Malaria_codes/data/pdb_ligands_mmv/ligand_57.pdb
REMARK  5 active torsions:
REMARK  status: ('A' for Active; 'I' for Inactive)
REMARK    1  A    between atoms: C1_1  and  O1_2
REMARK    2  A    between atoms: O1_2  and  C2_3
REMARK    3  A    between atoms: C7_8  and  N1_9
REMARK    4  A    between atoms: C16_19  and  O3_27
REMARK    5  A    between atoms: C17_20  and  N2_21
REMARK                            x       y       z     vdW  Elec       q    Type
REMARK                         _______ _______ _______ _____ _____    ______ ____
ROOT
ATOM      1  N1  UNL     1     149.498 155.032 164.093  0.00  0.00    -0.238 NA
ATOM      2  C8  UNL     1     150.493 155.391 163.332  0.00  0.00    +0.136 C 
ATOM      3  C9  UNL     1     150.951 154.611 162.102  0.00  0.00    +0.214 C 
ATOM      4  O2  UNL     1     151.178 153.413 162.109  0.00  0.00    -0.285 OA
ATOM      5  C10 UNL     1     151.122 155.424 160.895  0.00  0.00    +0.035 A 
ATOM      6  C11 UNL     1     150.969 154.856 159.626  0.00  0.00    +0.012 A 
ATOM      7  C12 UNL     1     151.086 155.665 158.501  0.00  0.00    +0.001 A 
ATOM      8  C13 UNL     1     151.349 157.027 158.649  0.00  0.00    +0.001 A 
ATOM      9  C14 UNL     1     151.519 157.580 159.924  0.00  0.00    +0.012 A 
ATOM     10  C15 UNL     1     151.427 156.777 161.071  0.00  0.00    +0.029 A 
ATOM     11  C16 UNL     1     151.681 157.303 162.432  0.00  0.00    +0.148 C 
ATOM     12  C17 UNL     1     151.259 156.684 163.563  0.00  0.00    +0.102 C 
ENDROOT
BRANCH   1  18
ATOM     13  C2  UNL     1     148.973 152.696 164.633  0.00  0.00    +0.145 A 
ATOM     14  C3  UNL     1     148.226 151.542 164.373  0.00  0.00    +0.048 A 
ATOM     15  C4  UNL     1     147.324 151.517 163.308  0.00  0.00    +0.004 A 
ATOM     16  C5  UNL     1     147.151 152.648 162.512  0.00  0.00    +0.002 A 
ATOM     17  C6  UNL     1     147.882 153.807 162.780  0.00  0.00    +0.031 A 
ATOM     18  C7  UNL     1     148.804 153.840 163.832  0.00  0.00    +0.106 A 
BRANCH  13  20
ATOM     19  C1  UNL     1     151.057 152.064 165.482  0.00  0.00    +0.277 C 
ATOM     20  O1  UNL     1     149.844 152.781 165.693  0.00  0.00    -0.493 OA
ENDBRANCH  13  20
ENDBRANCH   1  18
BRANCH  12  21
ATOM     21  N2  UNL     1     151.449 157.126 164.891  0.00  0.00    -0.325 N 
ATOM     22  C18 UNL     1     151.357 158.556 165.251  0.00  0.00    +0.105 C 
ATOM     23  C19 UNL     1     150.867 158.716 166.687  0.00  0.00    +0.019 C 
ATOM     24  C20 UNL     1     151.818 158.065 167.688  0.00  0.00    +0.003 C 
ATOM     25  C21 UNL     1     152.622 156.928 167.066  0.00  0.00    +0.019 C 
ATOM     26  C22 UNL     1     151.838 156.206 165.973  0.00  0.00    +0.105 C 
ENDBRANCH  12  21
BRANCH  11  27
ATOM     27  O3  UNL     1     152.446 158.459 162.491  0.00  0.00    -0.504 OA
ATOM     28  H22 UNL     1     152.880 158.486 163.361  0.00  0.00    +0.292 HD
ENDBRANCH  11  27
TORSDOF 4
ENDMDL
MODEL 9
REMARK VINA RESULT:    -4.053      1.668      5.354
REMARK INTER + INTRA:          -5.336
REMARK INTER:                  -4.592
REMARK INTRA:                  -0.744
REMARK UNBOUND:                -0.454
REMARK  Name = /home/vital/Documents/PhD_2021/Malaria_codes/data/pdb_ligands_mmv/ligand_57.pdb
REMARK  5 active torsions:
REMARK  status: ('A' for Active; 'I' for Inactive)
REMARK    1  A    between atoms: C1_1  and  O1_2
REMARK    2  A    between atoms: O1_2  and  C2_3
REMARK    3  A    between atoms: C7_8  and  N1_9
REMARK    4  A    between atoms: C16_19  and  O3_27
REMARK    5  A    between atoms: C17_20  and  N2_21
REMARK                            x       y       z     vdW  Elec       q    Type
REMARK                         _______ _______ _______ _____ _____    ______ ____
ROOT
ATOM      1  N1  UNL     1     150.849 157.555 165.800  0.00  0.00    -0.238 NA
ATOM      2  C8  UNL     1     151.290 158.110 164.706  0.00  0.00    +0.136 C 
ATOM      3  C9  UNL     1     151.668 157.333 163.448  0.00  0.00    +0.214 C 
ATOM      4  O2  UNL     1     152.413 156.368 163.450  0.00  0.00    -0.285 OA
ATOM      5  C10 UNL     1     151.079 157.853 162.210  0.00  0.00    +0.035 A 
ATOM      6  C11 UNL     1     150.838 157.005 161.126  0.00  0.00    +0.012 A 
ATOM      7  C12 UNL     1     150.229 157.517 159.985  0.00  0.00    +0.001 A 
ATOM      8  C13 UNL     1     149.865 158.864 159.937  0.00  0.00    +0.001 A 
ATOM      9  C14 UNL     1     150.130 159.707 161.023  0.00  0.00    +0.012 A 
ATOM     10  C15 UNL     1     150.762 159.214 162.175  0.00  0.00    +0.029 A 
ATOM     11  C16 UNL     1     151.135 160.087 163.312  0.00  0.00    +0.148 C 
ATOM     12  C17 UNL     1     151.403 159.619 164.556  0.00  0.00    +0.102 C 
ENDROOT
BRANCH   1  18
ATOM     13  C2  UNL     1     151.610 155.400 166.693  0.00  0.00    +0.145 A 
ATOM     14  C3  UNL     1     151.440 154.015 166.796  0.00  0.00    +0.048 A 
ATOM     15  C4  UNL     1     150.418 153.381 166.087  0.00  0.00    +0.004 A 
ATOM     16  C5  UNL     1     149.552 154.127 165.291  0.00  0.00    +0.002 A 
ATOM     17  C6  UNL     1     149.708 155.511 165.200  0.00  0.00    +0.031 A 
ATOM     18  C7  UNL     1     150.741 156.159 165.888  0.00  0.00    +0.106 A 
BRANCH  13  20
ATOM     19  C1  UNL     1     153.634 155.230 167.851  0.00  0.00    +0.277 C 
ATOM     20  O1  UNL     1     152.577 156.073 167.400  0.00  0.00    -0.493 OA
ENDBRANCH  13  20
ENDBRANCH   1  18
BRANCH  12  21
ATOM     21  N2  UNL     1     151.750 160.384 165.692  0.00  0.00    -0.325 N 
ATOM     22  C18 UNL     1     150.757 161.222 166.394  0.00  0.00    +0.105 C 
ATOM     23  C19 UNL     1     151.100 161.329 167.877  0.00  0.00    +0.019 C 
ATOM     24  C20 UNL     1     152.464 161.976 168.099  0.00  0.00    +0.003 C 
ATOM     25  C21 UNL     1     153.396 161.785 166.907  0.00  0.00    +0.019 C 
ATOM     26  C22 UNL     1     153.135 160.466 166.185  0.00  0.00    +0.105 C 
ENDBRANCH  12  21
BRANCH  11  27
ATOM     27  O3  UNL     1     151.260 161.436 163.012  0.00  0.00    -0.504 OA
ATOM     28  H22 UNL     1     150.866 161.942 163.743  0.00  0.00    +0.292 HD
ENDBRANCH  11  27
TORSDOF 4
ENDMDL
