MODEL 1
REMARK VINA RESULT:    -9.195      0.000      0.000
REMARK INTER + INTRA:         -10.193
REMARK INTER:                  -9.733
REMARK INTRA:                  -0.460
REMARK UNBOUND:                -0.460
REMARK  Name = /home/vital/Documents/PhD_2021/Malaria_codes/data/pdb_ligands_mmv/ligand_249.pdb
REMARK  1 active torsions:
REMARK  status: ('A' for Active; 'I' for Inactive)
REMARK    1  A    between atoms: C5_6  and  C7_8
REMARK                            x       y       z     vdW  Elec       q    Type
REMARK                         _______ _______ _______ _____ _____    ______ ____
ROOT
ATOM      1  C7  UNL     1     150.581 158.042 158.874  0.00  0.00    +0.098 C 
ATOM      2  S1  UNL     1     149.540 157.558 157.422  0.00  0.00    -0.114 S 
ATOM      3  C8  UNL     1     150.807 157.133 156.239  0.00  0.00    +0.034 A 
ATOM      4  C9  UNL     1     150.849 155.813 155.766  0.00  0.00    +0.017 A 
ATOM      5  C10 UNL     1     151.815 155.425 154.838  0.00  0.00    +0.001 A 
ATOM      6  C11 UNL     1     152.734 156.357 154.363  0.00  0.00    +0.002 A 
ATOM      7  C12 UNL     1     152.685 157.676 154.817  0.00  0.00    +0.029 A 
ATOM      8  C13 UNL     1     151.733 158.080 155.759  0.00  0.00    +0.078 A 
ATOM      9  N1  UNL     1     151.732 159.438 156.132  0.00  0.00    -0.250 NA
ATOM     10  C14 UNL     1     151.790 159.749 157.386  0.00  0.00    +0.062 C 
ATOM     11  C15 UNL     1     151.876 158.817 158.584  0.00  0.00    +0.127 C 
ATOM     12  C16 UNL     1     152.126 159.790 159.731  0.00  0.00    +0.174 C 
ATOM     13  O1  UNL     1     152.318 159.520 160.902  0.00  0.00    -0.291 OA
ATOM     14  C17 UNL     1     152.068 161.157 159.217  0.00  0.00    +0.027 A 
ATOM     15  C18 UNL     1     152.192 162.344 159.914  0.00  0.00    +0.012 A 
ATOM     16  C19 UNL     1     152.094 163.534 159.186  0.00  0.00    +0.001 A 
ATOM     17  C20 UNL     1     151.880 163.510 157.794  0.00  0.00    +0.001 A 
ATOM     18  C21 UNL     1     151.759 162.298 157.108  0.00  0.00    +0.010 A 
ATOM     19  C22 UNL     1     151.854 161.133 157.848  0.00  0.00    +0.007 A 
ENDROOT
BRANCH   1  25
ATOM     20  F1  UNL     1     152.333 153.512 159.686  0.00  0.00    -0.205 F 
ATOM     21  C1  UNL     1     151.674 154.586 160.141  0.00  0.00    +0.124 A 
ATOM     22  C2  UNL     1     151.178 154.583 161.438  0.00  0.00    +0.038 A 
ATOM     23  C3  UNL     1     150.489 155.698 161.907  0.00  0.00    +0.003 A 
ATOM     24  C4  UNL     1     150.305 156.807 161.075  0.00  0.00    +0.005 A 
ATOM     25  C5  UNL     1     150.808 156.820 159.761  0.00  0.00    -0.030 A 
ATOM     26  C6  UNL     1     151.498 155.684 159.304  0.00  0.00    +0.043 A 
ENDBRANCH   1  25
TORSDOF 1
ENDMDL
MODEL 2
REMARK VINA RESULT:    -8.716      2.094      6.120
REMARK INTER + INTRA:          -9.685
REMARK INTER:                  -9.212
REMARK INTRA:                  -0.474
REMARK UNBOUND:                -0.460
REMARK  Name = /home/vital/Documents/PhD_2021/Malaria_codes/data/pdb_ligands_mmv/ligand_249.pdb
REMARK  1 active torsions:
REMARK  status: ('A' for Active; 'I' for Inactive)
REMARK    1  A    between atoms: C5_6  and  C7_8
REMARK                            x       y       z     vdW  Elec       q    Type
REMARK                         _______ _______ _______ _____ _____    ______ ____
ROOT
ATOM      1  C7  UNL     1     150.625 156.998 157.855  0.00  0.00    +0.098 C 
ATOM      2  S1  UNL     1     149.507 158.472 157.869  0.00  0.00    -0.114 S 
ATOM      3  C8  UNL     1     150.624 159.724 158.479  0.00  0.00    +0.034 A 
ATOM      4  C9  UNL     1     150.908 160.815 157.645  0.00  0.00    +0.017 A 
ATOM      5  C10 UNL     1     151.771 161.825 158.071  0.00  0.00    +0.001 A 
ATOM      6  C11 UNL     1     152.342 161.759 159.339  0.00  0.00    +0.002 A 
ATOM      7  C12 UNL     1     152.049 160.685 160.180  0.00  0.00    +0.029 A 
ATOM      8  C13 UNL     1     151.198 159.655 159.764  0.00  0.00    +0.078 A 
ATOM      9  N1  UNL     1     150.928 158.629 160.690  0.00  0.00    -0.250 NA
ATOM     10  C14 UNL     1     151.116 157.398 160.344  0.00  0.00    +0.062 C 
ATOM     11  C15 UNL     1     151.625 156.862 159.015  0.00  0.00    +0.127 C 
ATOM     12  C16 UNL     1     151.818 155.380 159.319  0.00  0.00    +0.174 C 
ATOM     13  O1  UNL     1     152.262 154.524 158.577  0.00  0.00    -0.291 OA
ATOM     14  C17 UNL     1     151.343 155.107 160.674  0.00  0.00    +0.027 A 
ATOM     15  C18 UNL     1     151.287 153.895 161.338  0.00  0.00    +0.012 A 
ATOM     16  C19 UNL     1     150.782 153.896 162.641  0.00  0.00    +0.001 A 
ATOM     17  C20 UNL     1     150.352 155.093 163.246  0.00  0.00    +0.001 A 
ATOM     18  C21 UNL     1     150.419 156.308 162.557  0.00  0.00    +0.010 A 
ATOM     19  C22 UNL     1     150.917 156.285 161.267  0.00  0.00    +0.007 A 
ENDROOT
BRANCH   1  25
ATOM     20  F1  UNL     1     151.446 154.664 153.598  0.00  0.00    -0.205 F 
ATOM     21  C1  UNL     1     151.684 155.715 154.396  0.00  0.00    +0.124 A 
ATOM     22  C2  UNL     1     152.558 156.707 153.973  0.00  0.00    +0.038 A 
ATOM     23  C3  UNL     1     152.808 157.795 154.806  0.00  0.00    +0.003 A 
ATOM     24  C4  UNL     1     152.179 157.880 156.052  0.00  0.00    +0.005 A 
ATOM     25  C5  UNL     1     151.288 156.881 156.485  0.00  0.00    -0.030 A 
ATOM     26  C6  UNL     1     151.051 155.789 155.632  0.00  0.00    +0.043 A 
ENDBRANCH   1  25
TORSDOF 1
ENDMDL
MODEL 3
REMARK VINA RESULT:    -8.284     11.433     15.810
REMARK INTER + INTRA:          -9.228
REMARK INTER:                  -8.577
REMARK INTRA:                  -0.651
REMARK UNBOUND:                -0.460
REMARK  Name = /home/vital/Documents/PhD_2021/Malaria_codes/data/pdb_ligands_mmv/ligand_249.pdb
REMARK  1 active torsions:
REMARK  status: ('A' for Active; 'I' for Inactive)
REMARK    1  A    between atoms: C5_6  and  C7_8
REMARK                            x       y       z     vdW  Elec       q    Type
REMARK                         _______ _______ _______ _____ _____    ______ ____
ROOT
ATOM      1  C7  UNL     1     144.579 148.031 163.596  0.00  0.00    +0.098 C 
ATOM      2  S1  UNL     1     142.835 148.647 163.542  0.00  0.00    -0.114 S 
ATOM      3  C8  UNL     1     142.404 148.562 165.272  0.00  0.00    +0.034 A 
ATOM      4  C9  UNL     1     142.072 149.757 165.926  0.00  0.00    +0.017 A 
ATOM      5  C10 UNL     1     141.723 149.750 167.277  0.00  0.00    +0.001 A 
ATOM      6  C11 UNL     1     141.689 148.548 167.978  0.00  0.00    +0.002 A 
ATOM      7  C12 UNL     1     142.002 147.354 167.327  0.00  0.00    +0.029 A 
ATOM      8  C13 UNL     1     142.368 147.343 165.976  0.00  0.00    +0.078 A 
ATOM      9  N1  UNL     1     142.630 146.090 165.391  0.00  0.00    -0.250 NA
ATOM     10  C14 UNL     1     143.748 145.904 164.768  0.00  0.00    +0.062 C 
ATOM     11  C15 UNL     1     144.892 146.887 164.574  0.00  0.00    +0.127 C 
ATOM     12  C16 UNL     1     145.973 146.005 163.959  0.00  0.00    +0.174 C 
ATOM     13  O1  UNL     1     147.110 146.325 163.663  0.00  0.00    -0.291 OA
ATOM     14  C17 UNL     1     145.425 144.670 163.731  0.00  0.00    +0.027 A 
ATOM     15  C18 UNL     1     146.040 143.575 163.152  0.00  0.00    +0.012 A 
ATOM     16  C19 UNL     1     145.294 142.398 163.043  0.00  0.00    +0.001 A 
ATOM     17  C20 UNL     1     143.966 142.341 163.510  0.00  0.00    +0.001 A 
ATOM     18  C21 UNL     1     143.364 143.460 164.095  0.00  0.00    +0.010 A 
ATOM     19  C22 UNL     1     144.118 144.616 164.189  0.00  0.00    +0.007 A 
ENDROOT
BRANCH   1  25
ATOM     20  F1  UNL     1     147.330 151.678 161.758  0.00  0.00    -0.205 F 
ATOM     21  C1  UNL     1     146.881 151.006 162.827  0.00  0.00    +0.124 A 
ATOM     22  C2  UNL     1     147.296 151.387 164.096  0.00  0.00    +0.038 A 
ATOM     23  C3  UNL     1     146.832 150.684 165.204  0.00  0.00    +0.003 A 
ATOM     24  C4  UNL     1     145.956 149.607 165.033  0.00  0.00    +0.005 A 
ATOM     25  C5  UNL     1     145.528 149.217 163.750  0.00  0.00    -0.030 A 
ATOM     26  C6  UNL     1     146.009 149.937 162.644  0.00  0.00    +0.043 A 
ENDBRANCH   1  25
TORSDOF 1
ENDMDL
MODEL 4
REMARK VINA RESULT:    -8.033      3.296      4.894
REMARK INTER + INTRA:          -8.963
REMARK INTER:                  -8.514
REMARK INTRA:                  -0.449
REMARK UNBOUND:                -0.460
REMARK  Name = /home/vital/Documents/PhD_2021/Malaria_codes/data/pdb_ligands_mmv/ligand_249.pdb
REMARK  1 active torsions:
REMARK  status: ('A' for Active; 'I' for Inactive)
REMARK    1  A    between atoms: C5_6  and  C7_8
REMARK                            x       y       z     vdW  Elec       q    Type
REMARK                         _______ _______ _______ _____ _____    ______ ____
ROOT
ATOM      1  C7  UNL     1     150.615 157.959 161.703  0.00  0.00    +0.098 C 
ATOM      2  S1  UNL     1     149.345 158.909 160.750  0.00  0.00    -0.114 S 
ATOM      3  C8  UNL     1     150.396 159.896 159.698  0.00  0.00    +0.034 A 
ATOM      4  C9  UNL     1     150.296 159.716 158.311  0.00  0.00    +0.017 A 
ATOM      5  C10 UNL     1     151.090 160.463 157.441  0.00  0.00    +0.001 A 
ATOM      6  C11 UNL     1     151.978 161.406 157.951  0.00  0.00    +0.002 A 
ATOM      7  C12 UNL     1     152.070 161.602 159.330  0.00  0.00    +0.029 A 
ATOM      8  C13 UNL     1     151.291 160.851 160.218  0.00  0.00    +0.078 A 
ATOM      9  N1  UNL     1     151.421 161.141 161.590  0.00  0.00    -0.250 NA
ATOM     10  C14 UNL     1     151.682 160.183 162.417  0.00  0.00    +0.062 C 
ATOM     11  C15 UNL     1     151.894 158.708 162.113  0.00  0.00    +0.127 C 
ATOM     12  C16 UNL     1     152.365 158.166 163.457  0.00  0.00    +0.174 C 
ATOM     13  O1  UNL     1     152.714 157.029 163.716  0.00  0.00    -0.291 OA
ATOM     14  C17 UNL     1     152.306 159.237 164.449  0.00  0.00    +0.027 A 
ATOM     15  C18 UNL     1     152.597 159.177 165.799  0.00  0.00    +0.012 A 
ATOM     16  C19 UNL     1     152.458 160.352 166.543  0.00  0.00    +0.001 A 
ATOM     17  C20 UNL     1     152.038 161.548 165.929  0.00  0.00    +0.001 A 
ATOM     18  C21 UNL     1     151.751 161.587 164.561  0.00  0.00    +0.010 A 
ATOM     19  C22 UNL     1     151.891 160.413 163.844  0.00  0.00    +0.007 A 
ENDROOT
BRANCH   1  25
ATOM     20  F1  UNL     1     152.192 155.363 157.827  0.00  0.00    -0.205 F 
ATOM     21  C1  UNL     1     151.680 155.380 159.066  0.00  0.00    +0.124 A 
ATOM     22  C2  UNL     1     151.396 154.180 159.703  0.00  0.00    +0.038 A 
ATOM     23  C3  UNL     1     150.859 154.200 160.987  0.00  0.00    +0.003 A 
ATOM     24  C4  UNL     1     150.614 155.422 161.623  0.00  0.00    +0.005 A 
ATOM     25  C5  UNL     1     150.904 156.642 160.986  0.00  0.00    -0.030 A 
ATOM     26  C6  UNL     1     151.442 156.601 159.689  0.00  0.00    +0.043 A 
ENDBRANCH   1  25
TORSDOF 1
ENDMDL
MODEL 5
REMARK VINA RESULT:    -7.863      5.024      7.641
REMARK INTER + INTRA:          -8.782
REMARK INTER:                  -8.148
REMARK INTRA:                  -0.635
REMARK UNBOUND:                -0.460
REMARK  Name = /home/vital/Documents/PhD_2021/Malaria_codes/data/pdb_ligands_mmv/ligand_249.pdb
REMARK  1 active torsions:
REMARK  status: ('A' for Active; 'I' for Inactive)
REMARK    1  A    between atoms: C5_6  and  C7_8
REMARK                            x       y       z     vdW  Elec       q    Type
REMARK                         _______ _______ _______ _____ _____    ______ ____
ROOT
ATOM      1  C7  UNL     1     152.518 159.046 164.431  0.00  0.00    +0.098 C 
ATOM      2  S1  UNL     1     153.535 160.394 165.188  0.00  0.00    -0.114 S 
ATOM      3  C8  UNL     1     152.269 161.603 165.537  0.00  0.00    +0.034 A 
ATOM      4  C9  UNL     1     152.055 161.962 166.875  0.00  0.00    +0.017 A 
ATOM      5  C10 UNL     1     151.081 162.905 167.207  0.00  0.00    +0.001 A 
ATOM      6  C11 UNL     1     150.328 163.506 166.202  0.00  0.00    +0.002 A 
ATOM      7  C12 UNL     1     150.549 163.164 164.867  0.00  0.00    +0.029 A 
ATOM      8  C13 UNL     1     151.511 162.210 164.517  0.00  0.00    +0.078 A 
ATOM      9  N1  UNL     1     151.694 161.955 163.145  0.00  0.00    -0.250 NA
ATOM     10  C14 UNL     1     151.631 160.737 162.714  0.00  0.00    +0.062 C 
ATOM     11  C15 UNL     1     151.362 159.470 163.510  0.00  0.00    +0.127 C 
ATOM     12  C16 UNL     1     151.209 158.425 162.410  0.00  0.00    +0.174 C 
ATOM     13  O1  UNL     1     150.932 157.247 162.541  0.00  0.00    -0.291 OA
ATOM     14  C17 UNL     1     151.486 159.050 161.119  0.00  0.00    +0.027 A 
ATOM     15  C18 UNL     1     151.508 158.464 159.866  0.00  0.00    +0.012 A 
ATOM     16  C19 UNL     1     151.808 159.285 158.775  0.00  0.00    +0.001 A 
ATOM     17  C20 UNL     1     152.073 160.656 158.956  0.00  0.00    +0.001 A 
ATOM     18  C21 UNL     1     152.043 161.229 160.232  0.00  0.00    +0.010 A 
ATOM     19  C22 UNL     1     151.750 160.399 161.299  0.00  0.00    +0.007 A 
ENDROOT
BRANCH   1  25
ATOM     20  F1  UNL     1     153.014 154.880 167.008  0.00  0.00    -0.205 F 
ATOM     21  C1  UNL     1     152.337 156.013 166.777  0.00  0.00    +0.124 A 
ATOM     22  C2  UNL     1     151.209 156.300 167.535  0.00  0.00    +0.038 A 
ATOM     23  C3  UNL     1     150.504 157.475 167.291  0.00  0.00    +0.003 A 
ATOM     24  C4  UNL     1     150.935 158.353 166.291  0.00  0.00    +0.005 A 
ATOM     25  C5  UNL     1     152.079 158.072 165.521  0.00  0.00    -0.030 A 
ATOM     26  C6  UNL     1     152.776 156.880 165.781  0.00  0.00    +0.043 A 
ENDBRANCH   1  25
TORSDOF 1
ENDMDL
MODEL 6
REMARK VINA RESULT:    -7.829      3.861      6.491
REMARK INTER + INTRA:          -8.747
REMARK INTER:                  -8.440
REMARK INTRA:                  -0.307
REMARK UNBOUND:                -0.460
REMARK  Name = /home/vital/Documents/PhD_2021/Malaria_codes/data/pdb_ligands_mmv/ligand_249.pdb
REMARK  1 active torsions:
REMARK  status: ('A' for Active; 'I' for Inactive)
REMARK    1  A    between atoms: C5_6  and  C7_8
REMARK                            x       y       z     vdW  Elec       q    Type
REMARK                         _______ _______ _______ _____ _____    ______ ____
ROOT
ATOM      1  C7  UNL     1     151.651 156.822 162.891  0.00  0.00    +0.098 C 
ATOM      2  S1  UNL     1     153.179 157.421 163.746  0.00  0.00    -0.114 S 
ATOM      3  C8  UNL     1     152.563 158.911 164.512  0.00  0.00    +0.034 A 
ATOM      4  C9  UNL     1     152.587 158.989 165.911  0.00  0.00    +0.017 A 
ATOM      5  C10 UNL     1     152.122 160.131 166.564  0.00  0.00    +0.001 A 
ATOM      6  C11 UNL     1     151.645 161.208 165.821  0.00  0.00    +0.002 A 
ATOM      7  C12 UNL     1     151.636 161.142 164.427  0.00  0.00    +0.029 A 
ATOM      8  C13 UNL     1     152.085 159.999 163.756  0.00  0.00    +0.078 A 
ATOM      9  N1  UNL     1     152.075 160.034 162.348  0.00  0.00    -0.250 NA
ATOM     10  C14 UNL     1     151.482 159.088 161.696  0.00  0.00    +0.062 C 
ATOM     11  C15 UNL     1     150.740 157.883 162.253  0.00  0.00    +0.127 C 
ATOM     12  C16 UNL     1     150.106 157.289 161.000  0.00  0.00    +0.174 C 
ATOM     13  O1  UNL     1     149.363 156.327 160.932  0.00  0.00    -0.291 OA
ATOM     14  C17 UNL     1     150.558 158.044 159.834  0.00  0.00    +0.027 A 
ATOM     15  C18 UNL     1     150.269 157.822 158.500  0.00  0.00    +0.012 A 
ATOM     16  C19 UNL     1     150.834 158.692 157.564  0.00  0.00    +0.001 A 
ATOM     17  C20 UNL     1     151.663 159.753 157.975  0.00  0.00    +0.001 A 
ATOM     18  C21 UNL     1     151.941 159.961 159.330  0.00  0.00    +0.010 A 
ATOM     19  C22 UNL     1     151.376 159.086 160.240  0.00  0.00    +0.007 A 
ENDROOT
BRANCH   1  25
ATOM     20  F1  UNL     1     149.527 152.496 163.903  0.00  0.00    -0.205 F 
ATOM     21  C1  UNL     1     149.849 153.736 164.296  0.00  0.00    +0.124 A 
ATOM     22  C2  UNL     1     149.478 154.168 165.562  0.00  0.00    +0.038 A 
ATOM     23  C3  UNL     1     149.810 155.459 165.966  0.00  0.00    +0.003 A 
ATOM     24  C4  UNL     1     150.511 156.304 165.100  0.00  0.00    +0.005 A 
ATOM     25  C5  UNL     1     150.895 155.872 163.817  0.00  0.00    -0.030 A 
ATOM     26  C6  UNL     1     150.549 154.567 163.426  0.00  0.00    +0.043 A 
ENDBRANCH   1  25
TORSDOF 1
ENDMDL
MODEL 7
REMARK VINA RESULT:    -7.550      3.529      6.336
REMARK INTER + INTRA:          -8.452
REMARK INTER:                  -8.412
REMARK INTRA:                  -0.040
REMARK UNBOUND:                -0.460
REMARK  Name = /home/vital/Documents/PhD_2021/Malaria_codes/data/pdb_ligands_mmv/ligand_249.pdb
REMARK  1 active torsions:
REMARK  status: ('A' for Active; 'I' for Inactive)
REMARK    1  A    between atoms: C5_6  and  C7_8
REMARK                            x       y       z     vdW  Elec       q    Type
REMARK                         _______ _______ _______ _____ _____    ______ ____
ROOT
ATOM      1  C7  UNL     1     151.477 156.427 162.566  0.00  0.00    +0.098 C 
ATOM      2  S1  UNL     1     152.743 157.534 163.337  0.00  0.00    -0.114 S 
ATOM      3  C8  UNL     1     151.748 158.974 163.688  0.00  0.00    +0.034 A 
ATOM      4  C9  UNL     1     151.602 159.363 165.027  0.00  0.00    +0.017 A 
ATOM      5  C10 UNL     1     150.840 160.482 165.360  0.00  0.00    +0.001 A 
ATOM      6  C11 UNL     1     150.231 161.230 164.355  0.00  0.00    +0.002 A 
ATOM      7  C12 UNL     1     150.387 160.858 163.019  0.00  0.00    +0.029 A 
ATOM      8  C13 UNL     1     151.137 159.729 162.668  0.00  0.00    +0.078 A 
ATOM      9  N1  UNL     1     151.272 159.449 161.295  0.00  0.00    -0.250 NA
ATOM     10  C14 UNL     1     150.965 158.272 160.856  0.00  0.00    +0.062 C 
ATOM     11  C15 UNL     1     150.438 157.082 161.642  0.00  0.00    +0.127 C 
ATOM     12  C16 UNL     1     150.082 156.097 160.534  0.00  0.00    +0.174 C 
ATOM     13  O1  UNL     1     149.570 154.999 160.656  0.00  0.00    -0.291 OA
ATOM     14  C17 UNL     1     150.489 156.659 159.249  0.00  0.00    +0.027 A 
ATOM     15  C18 UNL     1     150.400 156.087 157.993  0.00  0.00    +0.012 A 
ATOM     16  C19 UNL     1     150.867 156.835 156.908  0.00  0.00    +0.001 A 
ATOM     17  C20 UNL     1     151.406 158.123 157.100  0.00  0.00    +0.001 A 
ATOM     18  C21 UNL     1     151.485 158.683 158.379  0.00  0.00    +0.010 A 
ATOM     19  C22 UNL     1     151.021 157.924 159.439  0.00  0.00    +0.007 A 
ENDROOT
BRANCH   1  25
ATOM     20  F1  UNL     1     149.782 152.125 164.260  0.00  0.00    -0.205 F 
ATOM     21  C1  UNL     1     150.007 153.430 164.464  0.00  0.00    +0.124 A 
ATOM     22  C2  UNL     1     149.645 154.004 165.676  0.00  0.00    +0.038 A 
ATOM     23  C3  UNL     1     149.876 155.361 165.883  0.00  0.00    +0.003 A 
ATOM     24  C4  UNL     1     150.468 156.132 164.877  0.00  0.00    +0.005 A 
ATOM     25  C5  UNL     1     150.842 155.557 163.648  0.00  0.00    -0.030 A 
ATOM     26  C6  UNL     1     150.598 154.186 163.457  0.00  0.00    +0.043 A 
ENDBRANCH   1  25
TORSDOF 1
ENDMDL
MODEL 8
REMARK VINA RESULT:    -7.303      3.840      6.691
REMARK INTER + INTRA:          -8.190
REMARK INTER:                  -8.466
REMARK INTRA:                   0.276
REMARK UNBOUND:                -0.460
REMARK  Name = /home/vital/Documents/PhD_2021/Malaria_codes/data/pdb_ligands_mmv/ligand_249.pdb
REMARK  1 active torsions:
REMARK  status: ('A' for Active; 'I' for Inactive)
REMARK    1  A    between atoms: C5_6  and  C7_8
REMARK                            x       y       z     vdW  Elec       q    Type
REMARK                         _______ _______ _______ _____ _____    ______ ____
ROOT
ATOM      1  C7  UNL     1     151.524 156.347 162.822  0.00  0.00    +0.098 C 
ATOM      2  S1  UNL     1     152.780 157.560 163.435  0.00  0.00    -0.114 S 
ATOM      3  C8  UNL     1     151.754 159.000 163.675  0.00  0.00    +0.034 A 
ATOM      4  C9  UNL     1     151.639 159.517 164.974  0.00  0.00    +0.017 A 
ATOM      5  C10 UNL     1     150.854 160.643 165.220  0.00  0.00    +0.001 A 
ATOM      6  C11 UNL     1     150.192 161.270 164.168  0.00  0.00    +0.002 A 
ATOM      7  C12 UNL     1     150.316 160.770 162.871  0.00  0.00    +0.029 A 
ATOM      8  C13 UNL     1     151.088 159.632 162.607  0.00  0.00    +0.078 A 
ATOM      9  N1  UNL     1     151.188 159.220 161.265  0.00  0.00    -0.250 NA
ATOM     10  C14 UNL     1     150.903 157.997 160.956  0.00  0.00    +0.062 C 
ATOM     11  C15 UNL     1     150.437 156.878 161.874  0.00  0.00    +0.127 C 
ATOM     12  C16 UNL     1     150.076 155.778 160.882  0.00  0.00    +0.174 C 
ATOM     13  O1  UNL     1     149.602 154.684 161.130  0.00  0.00    -0.291 OA
ATOM     14  C17 UNL     1     150.425 156.219 159.534  0.00  0.00    +0.027 A 
ATOM     15  C18 UNL     1     150.313 155.523 158.345  0.00  0.00    +0.012 A 
ATOM     16  C19 UNL     1     150.723 156.170 157.176  0.00  0.00    +0.001 A 
ATOM     17  C20 UNL     1     151.228 157.485 157.220  0.00  0.00    +0.001 A 
ATOM     18  C21 UNL     1     151.331 158.172 158.434  0.00  0.00    +0.010 A 
ATOM     19  C22 UNL     1     150.925 157.511 159.579  0.00  0.00    +0.007 A 
ENDROOT
BRANCH   1  25
ATOM     20  F1  UNL     1     150.303 155.928 167.574  0.00  0.00    -0.205 F 
ATOM     21  C1  UNL     1     150.360 155.382 166.351  0.00  0.00    +0.124 A 
ATOM     22  C2  UNL     1     149.900 154.086 166.160  0.00  0.00    +0.038 A 
ATOM     23  C3  UNL     1     149.965 153.520 164.890  0.00  0.00    +0.003 A 
ATOM     24  C4  UNL     1     150.487 154.257 163.822  0.00  0.00    +0.005 A 
ATOM     25  C5  UNL     1     150.950 155.573 164.006  0.00  0.00    -0.030 A 
ATOM     26  C6  UNL     1     150.880 156.126 165.296  0.00  0.00    +0.043 A 
ENDBRANCH   1  25
TORSDOF 1
ENDMDL
MODEL 9
REMARK VINA RESULT:    -7.294      5.466      7.951
REMARK INTER + INTRA:          -8.181
REMARK INTER:                  -7.829
REMARK INTRA:                  -0.351
REMARK UNBOUND:                -0.460
REMARK  Name = /home/vital/Documents/PhD_2021/Malaria_codes/data/pdb_ligands_mmv/ligand_249.pdb
REMARK  1 active torsions:
REMARK  status: ('A' for Active; 'I' for Inactive)
REMARK    1  A    between atoms: C5_6  and  C7_8
REMARK                            x       y       z     vdW  Elec       q    Type
REMARK                         _______ _______ _______ _____ _____    ______ ____
ROOT
ATOM      1  C7  UNL     1     152.177 159.198 163.513  0.00  0.00    +0.098 C 
ATOM      2  S1  UNL     1     152.927 157.506 163.542  0.00  0.00    -0.114 S 
ATOM      3  C8  UNL     1     151.635 156.590 164.364  0.00  0.00    +0.034 A 
ATOM      4  C9  UNL     1     151.017 155.548 163.658  0.00  0.00    +0.017 A 
ATOM      5  C10 UNL     1     150.003 154.795 164.252  0.00  0.00    +0.001 A 
ATOM      6  C11 UNL     1     149.612 155.068 165.560  0.00  0.00    +0.002 A 
ATOM      7  C12 UNL     1     150.236 156.093 166.273  0.00  0.00    +0.029 A 
ATOM      8  C13 UNL     1     151.245 156.868 165.688  0.00  0.00    +0.078 A 
ATOM      9  N1  UNL     1     151.845 157.856 166.492  0.00  0.00    -0.250 NA
ATOM     10  C14 UNL     1     151.901 159.074 166.062  0.00  0.00    +0.062 C 
ATOM     11  C15 UNL     1     151.376 159.634 164.750  0.00  0.00    +0.127 C 
ATOM     12  C16 UNL     1     151.559 161.135 164.943  0.00  0.00    +0.174 C 
ATOM     13  O1  UNL     1     151.237 162.025 164.178  0.00  0.00    -0.291 OA
ATOM     14  C17 UNL     1     152.237 161.371 166.216  0.00  0.00    +0.027 A 
ATOM     15  C18 UNL     1     152.642 162.573 166.765  0.00  0.00    +0.012 A 
ATOM     16  C19 UNL     1     153.282 162.533 168.008  0.00  0.00    +0.001 A 
ATOM     17  C20 UNL     1     153.498 161.307 168.667  0.00  0.00    +0.001 A 
ATOM     18  C21 UNL     1     153.078 160.102 168.094  0.00  0.00    +0.010 A 
ATOM     19  C22 UNL     1     152.452 160.163 166.862  0.00  0.00    +0.007 A 
ENDROOT
BRANCH   1  25
ATOM     20  F1  UNL     1     151.242 161.574 159.302  0.00  0.00    -0.205 F 
ATOM     21  C1  UNL     1     150.954 160.570 160.142  0.00  0.00    +0.124 A 
ATOM     22  C2  UNL     1     149.926 159.691 159.827  0.00  0.00    +0.038 A 
ATOM     23  C3  UNL     1     149.625 158.652 160.704  0.00  0.00    +0.003 A 
ATOM     24  C4  UNL     1     150.357 158.501 161.886  0.00  0.00    +0.005 A 
ATOM     25  C5  UNL     1     151.404 159.384 162.210  0.00  0.00    -0.030 A 
ATOM     26  C6  UNL     1     151.690 160.428 161.314  0.00  0.00    +0.043 A 
ENDBRANCH   1  25
TORSDOF 1
ENDMDL
