MODEL 1
REMARK VINA RESULT:    -6.023      0.000      0.000
REMARK INTER + INTRA:          -6.682
REMARK INTER:                  -6.727
REMARK INTRA:                   0.044
REMARK UNBOUND:                 0.044
REMARK  Name = /home/vital/Documents/PhD_2021/Malaria_codes/data/pdb_ligands_mmv/ligand_314.pdb
REMARK  2 active torsions:
REMARK  status: ('A' for Active; 'I' for Inactive)
REMARK    1  A    between atoms: C4_5  and  N1_6
REMARK    2  A    between atoms: N4_17  and  C13_18
REMARK                            x       y       z     vdW  Elec       q    Type
REMARK                         _______ _______ _______ _____ _____    ______ ____
ROOT
ATOM      1  N1  UNL     1     150.726 155.244 159.772  0.00  0.00    -0.297 N 
ATOM      2  C5  UNL     1     151.063 156.609 159.536  0.00  0.00    +0.164 A 
ATOM      3  N2  UNL     1     151.051 157.516 160.538  0.00  0.00    -0.227 NA
ATOM      4  C6  UNL     1     151.403 158.776 160.233  0.00  0.00    +0.091 A 
ATOM      5  C7  UNL     1     151.415 159.741 161.232  0.00  0.00    +0.030 A 
ATOM      6  C8  UNL     1     151.777 161.062 160.964  0.00  0.00    +0.002 A 
ATOM      7  C9  UNL     1     152.132 161.425 159.672  0.00  0.00    +0.002 A 
ATOM      8  C10 UNL     1     152.123 160.464 158.661  0.00  0.00    +0.030 A 
ATOM      9  C11 UNL     1     151.765 159.146 158.917  0.00  0.00    +0.091 A 
ATOM     10  N3  UNL     1     151.768 158.254 157.911  0.00  0.00    -0.227 NA
ATOM     11  C12 UNL     1     151.404 156.986 158.207  0.00  0.00    +0.164 A 
ATOM     12  N4  UNL     1     151.355 155.979 157.198  0.00  0.00    -0.297 N 
ATOM     13  H3  UNL     1     151.443 154.672 159.332  0.00  0.00    +0.154 HD
ATOM     14  H8  UNL     1     150.467 155.493 157.295  0.00  0.00    +0.154 HD
ENDROOT
BRANCH   1  19
ATOM     15 BR1  UNL     1     148.273 152.860 164.838  0.00  0.00    -0.050 Br
ATOM     16  C1  UNL     1     149.049 153.587 163.276  0.00  0.00    +0.018 A 
ATOM     17  C2  UNL     1     148.327 153.603 162.087  0.00  0.00    +0.017 A 
ATOM     18  C3  UNL     1     148.905 154.144 160.933  0.00  0.00    +0.024 A 
ATOM     19  C4  UNL     1     150.215 154.649 160.945  0.00  0.00    +0.033 A 
ATOM     20  C19 UNL     1     150.906 154.654 162.163  0.00  0.00    +0.024 A 
ATOM     21  C20 UNL     1     150.335 154.114 163.322  0.00  0.00    +0.017 A 
ENDBRANCH   1  19
BRANCH  12  22
ATOM     22  C13 UNL     1     151.782 156.052 155.855  0.00  0.00    +0.033 A 
ATOM     23  C14 UNL     1     152.681 157.022 155.394  0.00  0.00    +0.024 A 
ATOM     24  C15 UNL     1     153.134 157.018 154.070  0.00  0.00    +0.017 A 
ATOM     25  C16 UNL     1     152.708 156.021 153.198  0.00  0.00    +0.018 A 
ATOM     26 BR2  UNL     1     153.320 156.010 151.410  0.00  0.00    -0.050 Br
ATOM     27  C17 UNL     1     151.845 155.025 153.640  0.00  0.00    +0.017 A 
ATOM     28  C18 UNL     1     151.396 155.037 154.966  0.00  0.00    +0.024 A 
ENDBRANCH  12  22
TORSDOF 2
ENDMDL
MODEL 2
REMARK VINA RESULT:    -6.005      0.072      7.239
REMARK INTER + INTRA:          -6.663
REMARK INTER:                  -6.724
REMARK INTRA:                   0.062
REMARK UNBOUND:                 0.044
REMARK  Name = /home/vital/Documents/PhD_2021/Malaria_codes/data/pdb_ligands_mmv/ligand_314.pdb
REMARK  2 active torsions:
REMARK  status: ('A' for Active; 'I' for Inactive)
REMARK    1  A    between atoms: C4_5  and  N1_6
REMARK    2  A    between atoms: N4_17  and  C13_18
REMARK                            x       y       z     vdW  Elec       q    Type
REMARK                         _______ _______ _______ _____ _____    ______ ____
ROOT
ATOM      1  N1  UNL     1     151.378 155.968 157.251  0.00  0.00    -0.297 N 
ATOM      2  C5  UNL     1     151.419 156.971 158.264  0.00  0.00    +0.164 A 
ATOM      3  N2  UNL     1     151.782 158.240 157.975  0.00  0.00    -0.227 NA
ATOM      4  C6  UNL     1     151.773 159.128 158.984  0.00  0.00    +0.091 A 
ATOM      5  C7  UNL     1     152.130 160.448 158.734  0.00  0.00    +0.030 A 
ATOM      6  C8  UNL     1     152.131 161.406 159.749  0.00  0.00    +0.002 A 
ATOM      7  C9  UNL     1     151.770 161.038 161.038  0.00  0.00    +0.002 A 
ATOM      8  C10 UNL     1     151.410 159.715 161.300  0.00  0.00    +0.030 A 
ATOM      9  C11 UNL     1     151.405 158.753 160.297  0.00  0.00    +0.091 A 
ATOM     10  N3  UNL     1     151.054 157.490 160.596  0.00  0.00    -0.227 NA
ATOM     11  C12 UNL     1     151.072 156.589 159.589  0.00  0.00    +0.164 A 
ATOM     12  N4  UNL     1     150.737 155.221 159.820  0.00  0.00    -0.297 N 
ATOM     13  H3  UNL     1     150.489 155.479 157.342  0.00  0.00    +0.154 HD
ATOM     14  H8  UNL     1     151.458 154.652 159.380  0.00  0.00    +0.154 HD
ENDROOT
BRANCH   1  19
ATOM     15 BR1  UNL     1     153.385 156.031 151.478  0.00  0.00    -0.050 Br
ATOM     16  C1  UNL     1     152.759 156.032 153.261  0.00  0.00    +0.018 A 
ATOM     17  C2  UNL     1     151.948 154.994 153.711  0.00  0.00    +0.017 A 
ATOM     18  C3  UNL     1     151.489 154.999 155.033  0.00  0.00    +0.024 A 
ATOM     19  C4  UNL     1     151.811 156.046 155.911  0.00  0.00    +0.033 A 
ATOM     20  C19 UNL     1     152.658 157.058 155.443  0.00  0.00    +0.024 A 
ATOM     21  C20 UNL     1     153.121 157.062 154.123  0.00  0.00    +0.017 A 
ENDBRANCH   1  19
BRANCH  12  22
ATOM     22  C13 UNL     1     150.222 154.622 160.988  0.00  0.00    +0.033 A 
ATOM     23  C14 UNL     1     150.915 154.606 162.205  0.00  0.00    +0.024 A 
ATOM     24  C15 UNL     1     150.339 154.063 163.359  0.00  0.00    +0.017 A 
ATOM     25  C16 UNL     1     149.047 153.552 163.311  0.00  0.00    +0.018 A 
ATOM     26 BR2  UNL     1     148.265 152.822 164.869  0.00  0.00    -0.050 Br
ATOM     27  C17 UNL     1     148.323 153.590 162.125  0.00  0.00    +0.017 A 
ATOM     28  C18 UNL     1     148.906 154.134 160.975  0.00  0.00    +0.024 A 
ENDBRANCH  12  22
TORSDOF 2
ENDMDL
MODEL 3
REMARK VINA RESULT:    -5.682      1.235      1.528
REMARK INTER + INTRA:          -6.302
REMARK INTER:                  -6.169
REMARK INTRA:                  -0.133
REMARK UNBOUND:                 0.044
REMARK  Name = /home/vital/Documents/PhD_2021/Malaria_codes/data/pdb_ligands_mmv/ligand_314.pdb
REMARK  2 active torsions:
REMARK  status: ('A' for Active; 'I' for Inactive)
REMARK    1  A    between atoms: C4_5  and  N1_6
REMARK    2  A    between atoms: N4_17  and  C13_18
REMARK                            x       y       z     vdW  Elec       q    Type
REMARK                         _______ _______ _______ _____ _____    ______ ____
ROOT
ATOM      1  N1  UNL     1     150.390 155.352 160.686  0.00  0.00    -0.297 N 
ATOM      2  C5  UNL     1     150.735 156.735 160.677  0.00  0.00    +0.164 A 
ATOM      3  N2  UNL     1     150.754 157.458 161.819  0.00  0.00    -0.227 NA
ATOM      4  C6  UNL     1     151.112 158.749 161.726  0.00  0.00    +0.091 A 
ATOM      5  C7  UNL     1     151.155 159.530 162.874  0.00  0.00    +0.030 A 
ATOM      6  C8  UNL     1     151.524 160.875 162.827  0.00  0.00    +0.002 A 
ATOM      7  C9  UNL     1     151.856 161.451 161.607  0.00  0.00    +0.002 A 
ATOM      8  C10 UNL     1     151.816 160.676 160.448  0.00  0.00    +0.030 A 
ATOM      9  C11 UNL     1     151.450 159.336 160.484  0.00  0.00    +0.091 A 
ATOM     10  N3  UNL     1     151.423 158.628 159.341  0.00  0.00    -0.227 NA
ATOM     11  C12 UNL     1     151.052 157.331 159.425  0.00  0.00    +0.164 A 
ATOM     12  N4  UNL     1     150.972 156.511 158.260  0.00  0.00    -0.297 N 
ATOM     13  H3  UNL     1     151.093 154.859 160.138  0.00  0.00    +0.154 HD
ATOM     14  H8  UNL     1     150.081 156.021 158.293  0.00  0.00    +0.154 HD
ENDROOT
BRANCH   1  19
ATOM     15 BR1  UNL     1     148.010 152.142 165.311  0.00  0.00    -0.050 Br
ATOM     16  C1  UNL     1     148.764 153.124 163.884  0.00  0.00    +0.018 A 
ATOM     17  C2  UNL     1     148.055 153.275 162.696  0.00  0.00    +0.017 A 
ATOM     18  C3  UNL     1     148.617 154.005 161.643  0.00  0.00    +0.024 A 
ATOM     19  C4  UNL     1     149.898 154.569 161.751  0.00  0.00    +0.033 A 
ATOM     20  C19 UNL     1     150.574 154.433 162.970  0.00  0.00    +0.024 A 
ATOM     21  C20 UNL     1     150.020 153.704 164.028  0.00  0.00    +0.017 A 
ENDBRANCH   1  19
BRANCH  12  22
ATOM     22  C13 UNL     1     151.371 156.809 156.941  0.00  0.00    +0.033 A 
ATOM     23  C14 UNL     1     150.991 157.982 156.277  0.00  0.00    +0.024 A 
ATOM     24  C15 UNL     1     151.465 158.274 154.993  0.00  0.00    +0.017 A 
ATOM     25  C16 UNL     1     152.350 157.401 154.369  0.00  0.00    +0.018 A 
ATOM     26 BR2  UNL     1     152.995 157.793 152.636  0.00  0.00    -0.050 Br
ATOM     27  C17 UNL     1     152.772 156.247 155.020  0.00  0.00    +0.017 A 
ATOM     28  C18 UNL     1     152.293 155.963 156.304  0.00  0.00    +0.024 A 
ENDBRANCH  12  22
TORSDOF 2
ENDMDL
MODEL 4
REMARK VINA RESULT:    -4.692      3.486      6.408
REMARK INTER + INTRA:          -5.197
REMARK INTER:                  -5.158
REMARK INTRA:                  -0.039
REMARK UNBOUND:                 0.044
REMARK  Name = /home/vital/Documents/PhD_2021/Malaria_codes/data/pdb_ligands_mmv/ligand_314.pdb
REMARK  2 active torsions:
REMARK  status: ('A' for Active; 'I' for Inactive)
REMARK    1  A    between atoms: C4_5  and  N1_6
REMARK    2  A    between atoms: N4_17  and  C13_18
REMARK                            x       y       z     vdW  Elec       q    Type
REMARK                         _______ _______ _______ _____ _____    ______ ____
ROOT
ATOM      1  N1  UNL     1     151.272 159.363 162.790  0.00  0.00    -0.297 N 
ATOM      2  C5  UNL     1     151.048 157.965 162.961  0.00  0.00    +0.164 A 
ATOM      3  N2  UNL     1     150.820 157.438 164.185  0.00  0.00    -0.227 NA
ATOM      4  C6  UNL     1     150.596 156.115 164.254  0.00  0.00    +0.091 A 
ATOM      5  C7  UNL     1     150.348 155.529 165.489  0.00  0.00    +0.030 A 
ATOM      6  C8  UNL     1     150.107 154.160 165.609  0.00  0.00    +0.002 A 
ATOM      7  C9  UNL     1     150.115 153.361 164.474  0.00  0.00    +0.002 A 
ATOM      8  C10 UNL     1     150.365 153.939 163.229  0.00  0.00    +0.030 A 
ATOM      9  C11 UNL     1     150.605 155.301 163.097  0.00  0.00    +0.091 A 
ATOM     10  N3  UNL     1     150.843 155.814 161.878  0.00  0.00    -0.227 NA
ATOM     11  C12 UNL     1     151.081 157.142 161.801  0.00  0.00    +0.164 A 
ATOM     12  N4  UNL     1     151.366 157.769 160.551  0.00  0.00    -0.297 N 
ATOM     13  H3  UNL     1     150.681 159.675 162.023  0.00  0.00    +0.154 HD
ATOM     14  H8  UNL     1     152.184 158.360 160.686  0.00  0.00    +0.154 HD
ENDROOT
BRANCH   1  19
ATOM     15 BR1  UNL     1     152.090 163.461 167.251  0.00  0.00    -0.050 Br
ATOM     16  C1  UNL     1     151.827 162.209 165.861  0.00  0.00    +0.018 A 
ATOM     17  C2  UNL     1     152.887 161.415 165.433  0.00  0.00    +0.017 A 
ATOM     18  C3  UNL     1     152.686 160.488 164.405  0.00  0.00    +0.024 A 
ATOM     19  C4  UNL     1     151.438 160.359 163.775  0.00  0.00    +0.033 A 
ATOM     20  C19 UNL     1     150.379 161.144 164.249  0.00  0.00    +0.024 A 
ATOM     21  C20 UNL     1     150.571 162.074 165.277  0.00  0.00    +0.017 A 
ENDBRANCH   1  19
BRANCH  12  22
ATOM     22  C13 UNL     1     151.312 157.218 159.254  0.00  0.00    +0.033 A 
ATOM     23  C14 UNL     1     151.069 157.988 158.109  0.00  0.00    +0.024 A 
ATOM     24  C15 UNL     1     151.092 157.415 156.833  0.00  0.00    +0.017 A 
ATOM     25  C16 UNL     1     151.386 156.063 156.688  0.00  0.00    +0.018 A 
ATOM     26 BR2  UNL     1     151.421 155.286 154.965  0.00  0.00    -0.050 Br
ATOM     27  C17 UNL     1     151.666 155.284 157.805  0.00  0.00    +0.017 A 
ATOM     28  C18 UNL     1     151.641 155.864 159.078  0.00  0.00    +0.024 A 
ENDBRANCH  12  22
TORSDOF 2
ENDMDL
MODEL 5
REMARK VINA RESULT:    -4.574      3.248      8.460
REMARK INTER + INTRA:          -5.065
REMARK INTER:                  -5.234
REMARK INTRA:                   0.170
REMARK UNBOUND:                 0.044
REMARK  Name = /home/vital/Documents/PhD_2021/Malaria_codes/data/pdb_ligands_mmv/ligand_314.pdb
REMARK  2 active torsions:
REMARK  status: ('A' for Active; 'I' for Inactive)
REMARK    1  A    between atoms: C4_5  and  N1_6
REMARK    2  A    between atoms: N4_17  and  C13_18
REMARK                            x       y       z     vdW  Elec       q    Type
REMARK                         _______ _______ _______ _____ _____    ______ ____
ROOT
ATOM      1  N1  UNL     1     151.361 157.994 160.014  0.00  0.00    -0.297 N 
ATOM      2  C5  UNL     1     151.112 157.323 161.247  0.00  0.00    +0.164 A 
ATOM      3  N2  UNL     1     150.951 155.982 161.293  0.00  0.00    -0.227 NA
ATOM      4  C6  UNL     1     150.743 155.427 162.499  0.00  0.00    +0.091 A 
ATOM      5  C7  UNL     1     150.581 154.050 162.597  0.00  0.00    +0.030 A 
ATOM      6  C8  UNL     1     150.366 153.429 163.828  0.00  0.00    +0.002 A 
ATOM      7  C9  UNL     1     150.311 154.198 164.982  0.00  0.00    +0.002 A 
ATOM      8  C10 UNL     1     150.472 155.581 164.895  0.00  0.00    +0.030 A 
ATOM      9  C11 UNL     1     150.687 156.210 163.675  0.00  0.00    +0.091 A 
ATOM     10  N3  UNL     1     150.834 157.546 163.638  0.00  0.00    -0.227 NA
ATOM     11  C12 UNL     1     151.032 158.113 162.427  0.00  0.00    +0.164 A 
ATOM     12  N4  UNL     1     151.174 159.526 162.291  0.00  0.00    -0.297 N 
ATOM     13  H3  UNL     1     152.144 158.627 160.164  0.00  0.00    +0.154 HD
ATOM     14  H8  UNL     1     150.567 159.822 161.529  0.00  0.00    +0.154 HD
ENDROOT
BRANCH   1  19
ATOM     15 BR1  UNL     1     151.534 155.604 154.391  0.00  0.00    -0.050 Br
ATOM     16  C1  UNL     1     151.465 156.355 156.123  0.00  0.00    +0.018 A 
ATOM     17  C2  UNL     1     151.545 155.529 157.240  0.00  0.00    +0.017 A 
ATOM     18  C3  UNL     1     151.495 156.090 158.521  0.00  0.00    +0.024 A 
ATOM     19  C4  UNL     1     151.339 157.473 158.703  0.00  0.00    +0.033 A 
ATOM     20  C19 UNL     1     151.297 158.285 157.563  0.00  0.00    +0.024 A 
ATOM     21  C20 UNL     1     151.346 157.732 156.278  0.00  0.00    +0.017 A 
ENDBRANCH   1  19
BRANCH  12  22
ATOM     22  C13 UNL     1     151.283 160.505 163.300  0.00  0.00    +0.033 A 
ATOM     23  C14 UNL     1     150.304 161.482 163.522  0.00  0.00    +0.024 A 
ATOM     24  C15 UNL     1     150.415 162.392 164.578  0.00  0.00    +0.017 A 
ATOM     25  C16 UNL     1     151.502 162.316 165.444  0.00  0.00    +0.018 A 
ATOM     26 BR2  UNL     1     151.654 163.542 166.874  0.00  0.00    -0.050 Br
ATOM     27  C17 UNL     1     152.469 161.333 165.268  0.00  0.00    +0.017 A 
ATOM     28  C18 UNL     1     152.350 160.426 164.208  0.00  0.00    +0.024 A 
ENDBRANCH  12  22
TORSDOF 2
ENDMDL
MODEL 6
REMARK VINA RESULT:    -4.547      4.059      7.024
REMARK INTER + INTRA:          -5.034
REMARK INTER:                  -4.814
REMARK INTRA:                  -0.220
REMARK UNBOUND:                 0.044
REMARK  Name = /home/vital/Documents/PhD_2021/Malaria_codes/data/pdb_ligands_mmv/ligand_314.pdb
REMARK  2 active torsions:
REMARK  status: ('A' for Active; 'I' for Inactive)
REMARK    1  A    between atoms: C4_5  and  N1_6
REMARK    2  A    between atoms: N4_17  and  C13_18
REMARK                            x       y       z     vdW  Elec       q    Type
REMARK                         _______ _______ _______ _____ _____    ______ ____
ROOT
ATOM      1  N1  UNL     1     151.713 159.267 163.786  0.00  0.00    -0.297 N 
ATOM      2  C5  UNL     1     151.295 157.909 163.903  0.00  0.00    +0.164 A 
ATOM      3  N2  UNL     1     151.052 157.354 165.111  0.00  0.00    -0.227 NA
ATOM      4  C6  UNL     1     150.640 156.075 165.130  0.00  0.00    +0.091 A 
ATOM      5  C7  UNL     1     150.368 155.465 166.348  0.00  0.00    +0.030 A 
ATOM      6  C8  UNL     1     149.935 154.140 166.417  0.00  0.00    +0.002 A 
ATOM      7  C9  UNL     1     149.772 153.411 165.247  0.00  0.00    +0.002 A 
ATOM      8  C10 UNL     1     150.043 154.015 164.018  0.00  0.00    +0.030 A 
ATOM      9  C11 UNL     1     150.474 155.333 163.937  0.00  0.00    +0.091 A 
ATOM     10  N3  UNL     1     150.725 155.873 162.732  0.00  0.00    -0.227 NA
ATOM     11  C12 UNL     1     151.151 157.155 162.705  0.00  0.00    +0.164 A 
ATOM     12  N4  UNL     1     151.464 157.801 161.472  0.00  0.00    -0.297 N 
ATOM     13  H3  UNL     1     151.137 159.703 163.068  0.00  0.00    +0.154 HD
ATOM     14  H8  UNL     1     152.365 158.260 161.588  0.00  0.00    +0.154 HD
ENDROOT
BRANCH   1  19
ATOM     15 BR1  UNL     1     153.412 162.965 168.346  0.00  0.00    -0.050 Br
ATOM     16  C1  UNL     1     152.874 161.837 166.930  0.00  0.00    +0.018 A 
ATOM     17  C2  UNL     1     153.831 161.153 166.186  0.00  0.00    +0.017 A 
ATOM     18  C3  UNL     1     153.427 160.317 165.140  0.00  0.00    +0.024 A 
ATOM     19  C4  UNL     1     152.071 160.173 164.806  0.00  0.00    +0.033 A 
ATOM     20  C19 UNL     1     151.127 160.844 165.593  0.00  0.00    +0.024 A 
ATOM     21  C20 UNL     1     151.522 161.683 166.641  0.00  0.00    +0.017 A 
ENDBRANCH   1  19
BRANCH  12  22
ATOM     22  C13 UNL     1     151.267 157.336 160.155  0.00  0.00    +0.033 A 
ATOM     23  C14 UNL     1     151.572 156.029 159.756  0.00  0.00    +0.024 A 
ATOM     24  C15 UNL     1     151.296 155.585 158.458  0.00  0.00    +0.017 A 
ATOM     25  C16 UNL     1     150.684 156.443 157.550  0.00  0.00    +0.018 A 
ATOM     26 BR2  UNL     1     150.307 155.846 155.797  0.00  0.00    -0.050 Br
ATOM     27  C17 UNL     1     150.337 157.734 157.932  0.00  0.00    +0.017 A 
ATOM     28  C18 UNL     1     150.617 158.170 159.232  0.00  0.00    +0.024 A 
ENDBRANCH  12  22
TORSDOF 2
ENDMDL
MODEL 7
REMARK VINA RESULT:    -4.485      4.272      9.120
REMARK INTER + INTRA:          -4.965
REMARK INTER:                  -4.799
REMARK INTRA:                  -0.166
REMARK UNBOUND:                 0.044
REMARK  Name = /home/vital/Documents/PhD_2021/Malaria_codes/data/pdb_ligands_mmv/ligand_314.pdb
REMARK  2 active torsions:
REMARK  status: ('A' for Active; 'I' for Inactive)
REMARK    1  A    between atoms: C4_5  and  N1_6
REMARK    2  A    between atoms: N4_17  and  C13_18
REMARK                            x       y       z     vdW  Elec       q    Type
REMARK                         _______ _______ _______ _____ _____    ______ ____
ROOT
ATOM      1  N1  UNL     1     151.514 157.884 161.780  0.00  0.00    -0.297 N 
ATOM      2  C5  UNL     1     151.261 157.244 163.029  0.00  0.00    +0.164 A 
ATOM      3  N2  UNL     1     150.875 155.950 163.085  0.00  0.00    -0.227 NA
ATOM      4  C6  UNL     1     150.680 155.418 164.304  0.00  0.00    +0.091 A 
ATOM      5  C7  UNL     1     150.292 154.088 164.413  0.00  0.00    +0.030 A 
ATOM      6  C8  UNL     1     150.081 153.491 165.656  0.00  0.00    +0.002 A 
ATOM      7  C9  UNL     1     150.261 154.238 166.813  0.00  0.00    +0.002 A 
ATOM      8  C10 UNL     1     150.650 155.574 166.715  0.00  0.00    +0.030 A 
ATOM      9  C11 UNL     1     150.863 156.178 165.482  0.00  0.00    +0.091 A 
ATOM     10  N3  UNL     1     151.235 157.469 165.435  0.00  0.00    -0.227 NA
ATOM     11  C12 UNL     1     151.422 158.015 164.213  0.00  0.00    +0.164 A 
ATOM     12  N4  UNL     1     151.794 159.385 164.068  0.00  0.00    -0.297 N 
ATOM     13  H3  UNL     1     152.404 158.371 161.861  0.00  0.00    +0.154 HD
ATOM     14  H8  UNL     1     151.183 159.794 163.365  0.00  0.00    +0.154 HD
ENDROOT
BRANCH   1  19
ATOM     15 BR1  UNL     1     150.243 155.867 156.152  0.00  0.00    -0.050 Br
ATOM     16  C1  UNL     1     150.654 156.481 157.891  0.00  0.00    +0.018 A 
ATOM     17  C2  UNL     1     150.427 157.812 158.228  0.00  0.00    +0.017 A 
ATOM     18  C3  UNL     1     150.732 158.261 159.517  0.00  0.00    +0.024 A 
ATOM     19  C4  UNL     1     151.288 157.398 160.476  0.00  0.00    +0.033 A 
ATOM     20  C19 UNL     1     151.472 156.056 160.122  0.00  0.00    +0.024 A 
ATOM     21  C20 UNL     1     151.170 155.598 158.834  0.00  0.00    +0.017 A 
ENDBRANCH   1  19
BRANCH  12  22
ATOM     22  C13 UNL     1     152.158 160.313 165.066  0.00  0.00    +0.033 A 
ATOM     23  C14 UNL     1     151.221 161.079 165.771  0.00  0.00    +0.024 A 
ATOM     24  C15 UNL     1     151.616 161.937 166.803  0.00  0.00    +0.017 A 
ATOM     25  C16 UNL     1     152.959 162.017 167.158  0.00  0.00    +0.018 A 
ATOM     26 BR2  UNL     1     153.497 163.173 168.553  0.00  0.00    -0.050 Br
ATOM     27  C17 UNL     1     153.905 161.240 166.498  0.00  0.00    +0.017 A 
ATOM     28  C18 UNL     1     153.501 160.385 165.467  0.00  0.00    +0.024 A 
ENDBRANCH  12  22
TORSDOF 2
ENDMDL
MODEL 8
REMARK VINA RESULT:    -4.331      9.246     13.573
REMARK INTER + INTRA:          -4.793
REMARK INTER:                  -4.422
REMARK INTRA:                  -0.371
REMARK UNBOUND:                 0.044
REMARK  Name = /home/vital/Documents/PhD_2021/Malaria_codes/data/pdb_ligands_mmv/ligand_314.pdb
REMARK  2 active torsions:
REMARK  status: ('A' for Active; 'I' for Inactive)
REMARK    1  A    between atoms: C4_5  and  N1_6
REMARK    2  A    between atoms: N4_17  and  C13_18
REMARK                            x       y       z     vdW  Elec       q    Type
REMARK                         _______ _______ _______ _____ _____    ______ ____
ROOT
ATOM      1  N1  UNL     1     145.517 145.685 164.420  0.00  0.00    -0.297 N 
ATOM      2  C5  UNL     1     144.541 146.645 164.820  0.00  0.00    +0.164 A 
ATOM      3  N2  UNL     1     143.423 146.270 165.481  0.00  0.00    -0.227 NA
ATOM      4  C6  UNL     1     142.567 147.241 165.841  0.00  0.00    +0.091 A 
ATOM      5  C7  UNL     1     141.407 146.905 166.530  0.00  0.00    +0.030 A 
ATOM      6  C8  UNL     1     140.490 147.879 166.928  0.00  0.00    +0.002 A 
ATOM      7  C9  UNL     1     140.736 149.213 166.631  0.00  0.00    +0.002 A 
ATOM      8  C10 UNL     1     141.896 149.560 165.939  0.00  0.00    +0.030 A 
ATOM      9  C11 UNL     1     142.817 148.599 165.538  0.00  0.00    +0.091 A 
ATOM     10  N3  UNL     1     143.920 148.980 164.871  0.00  0.00    -0.227 NA
ATOM     11  C12 UNL     1     144.781 148.008 164.495  0.00  0.00    +0.164 A 
ATOM     12  N4  UNL     1     145.966 148.318 163.762  0.00  0.00    -0.297 N 
ATOM     13  H3  UNL     1     146.429 146.042 164.699  0.00  0.00    +0.154 HD
ATOM     14  H8  UNL     1     146.018 147.670 162.979  0.00  0.00    +0.154 HD
ENDROOT
BRANCH   1  19
ATOM     15 BR1  UNL     1     145.488 139.590 164.873  0.00  0.00    -0.050 Br
ATOM     16  C1  UNL     1     145.482 141.473 164.718  0.00  0.00    +0.018 A 
ATOM     17  C2  UNL     1     145.454 142.262 165.864  0.00  0.00    +0.017 A 
ATOM     18  C3  UNL     1     145.453 143.656 165.744  0.00  0.00    +0.024 A 
ATOM     19  C4  UNL     1     145.452 144.278 164.485  0.00  0.00    +0.033 A 
ATOM     20  C19 UNL     1     145.517 143.460 163.349  0.00  0.00    +0.024 A 
ATOM     21  C20 UNL     1     145.519 142.065 163.460  0.00  0.00    +0.017 A 
ENDBRANCH   1  19
BRANCH  12  22
ATOM     22  C13 UNL     1     146.506 149.582 163.449  0.00  0.00    +0.033 A 
ATOM     23  C14 UNL     1     146.288 150.220 162.221  0.00  0.00    +0.024 A 
ATOM     24  C15 UNL     1     146.783 151.505 161.974  0.00  0.00    +0.017 A 
ATOM     25  C16 UNL     1     147.483 152.178 162.970  0.00  0.00    +0.018 A 
ATOM     26 BR2  UNL     1     148.150 153.916 162.642  0.00  0.00    -0.050 Br
ATOM     27  C17 UNL     1     147.681 151.583 164.211  0.00  0.00    +0.017 A 
ATOM     28  C18 UNL     1     147.183 150.297 164.449  0.00  0.00    +0.024 A 
ENDBRANCH  12  22
TORSDOF 2
ENDMDL
MODEL 9
REMARK VINA RESULT:    -4.279      9.252     14.392
REMARK INTER + INTRA:          -4.735
REMARK INTER:                  -4.360
REMARK INTRA:                  -0.375
REMARK UNBOUND:                 0.044
REMARK  Name = /home/vital/Documents/PhD_2021/Malaria_codes/data/pdb_ligands_mmv/ligand_314.pdb
REMARK  2 active torsions:
REMARK  status: ('A' for Active; 'I' for Inactive)
REMARK    1  A    between atoms: C4_5  and  N1_6
REMARK    2  A    between atoms: N4_17  and  C13_18
REMARK                            x       y       z     vdW  Elec       q    Type
REMARK                         _______ _______ _______ _____ _____    ______ ____
ROOT
ATOM      1  N1  UNL     1     145.972 148.275 163.721  0.00  0.00    -0.297 N 
ATOM      2  C5  UNL     1     144.784 147.990 164.459  0.00  0.00    +0.164 A 
ATOM      3  N2  UNL     1     143.930 148.976 164.815  0.00  0.00    -0.227 NA
ATOM      4  C6  UNL     1     142.824 148.618 165.489  0.00  0.00    +0.091 A 
ATOM      5  C7  UNL     1     141.912 149.595 165.868  0.00  0.00    +0.030 A 
ATOM      6  C8  UNL     1     140.747 149.271 166.566  0.00  0.00    +0.002 A 
ATOM      7  C9  UNL     1     140.490 147.946 166.891  0.00  0.00    +0.002 A 
ATOM      8  C10 UNL     1     141.400 146.957 166.515  0.00  0.00    +0.030 A 
ATOM      9  C11 UNL     1     142.562 147.268 165.820  0.00  0.00    +0.091 A 
ATOM     10  N3  UNL     1     143.412 146.283 165.480  0.00  0.00    -0.227 NA
ATOM     11  C12 UNL     1     144.533 146.636 164.812  0.00  0.00    +0.164 A 
ATOM     12  N4  UNL     1     145.501 145.659 164.433  0.00  0.00    -0.297 N 
ATOM     13  H3  UNL     1     146.019 147.611 162.951  0.00  0.00    +0.154 HD
ATOM     14  H8  UNL     1     146.415 146.015 164.704  0.00  0.00    +0.154 HD
ENDROOT
BRANCH   1  19
ATOM     15 BR1  UNL     1     148.197 153.829 162.475  0.00  0.00    -0.050 Br
ATOM     16  C1  UNL     1     147.517 152.105 162.842  0.00  0.00    +0.018 A 
ATOM     17  C2  UNL     1     147.675 151.553 164.110  0.00  0.00    +0.017 A 
ATOM     18  C3  UNL     1     147.168 150.277 164.378  0.00  0.00    +0.024 A 
ATOM     19  C4  UNL     1     146.523 149.527 163.381  0.00  0.00    +0.033 A 
ATOM     20  C19 UNL     1     146.345 150.121 162.125  0.00  0.00    +0.024 A 
ATOM     21  C20 UNL     1     146.850 151.397 161.849  0.00  0.00    +0.017 A 
ENDBRANCH   1  19
BRANCH  12  22
ATOM     22  C13 UNL     1     145.424 144.254 164.527  0.00  0.00    +0.033 A 
ATOM     23  C14 UNL     1     145.454 143.413 163.408  0.00  0.00    +0.024 A 
ATOM     24  C15 UNL     1     145.445 142.021 163.548  0.00  0.00    +0.017 A 
ATOM     25  C16 UNL     1     145.433 141.455 164.818  0.00  0.00    +0.018 A 
ATOM     26 BR2  UNL     1     145.424 139.575 165.011  0.00  0.00    -0.050 Br
ATOM     27  C17 UNL     1     145.440 142.267 165.946  0.00  0.00    +0.017 A 
ATOM     28  C18 UNL     1     145.448 143.659 165.798  0.00  0.00    +0.024 A 
ENDBRANCH  12  22
TORSDOF 2
ENDMDL
