MODEL 1
REMARK VINA RESULT:    -4.570      0.000      0.000
REMARK INTER + INTRA:          -7.809
REMARK INTER:                  -6.440
REMARK INTRA:                  -1.369
REMARK UNBOUND:                -1.369
REMARK  Name = /home/vital/Documents/PhD_2021/Malaria_codes/data/pdb_ligands_mmv/ligand_347.pdb
REMARK  9 active torsions:
REMARK  status: ('A' for Active; 'I' for Inactive)
REMARK    1  A    between atoms: C1_1  and  C2_2
REMARK    2  A    between atoms: C2_2  and  O1_3
REMARK    3  A    between atoms: O1_3  and  C3_4
REMARK    4  A    between atoms: C3_4  and  C4_6
REMARK    5  A    between atoms: C9_12  and  O3_13
REMARK    6  A    between atoms: O3_13  and  C10_14
REMARK    7  A    between atoms: C13_17  and  N2_18
REMARK    8  A    between atoms: N2_18  and  C14_19
REMARK    9  A    between atoms: C14_19  and  C15_20
REMARK                            x       y       z     vdW  Elec       q    Type
REMARK                         _______ _______ _______ _____ _____    ______ ____
ROOT
ATOM      1  C4  UNL     1     151.273 157.961 159.009  0.00  0.00    +0.098 A 
ATOM      2  C5  UNL     1     151.926 159.002 158.367  0.00  0.00    +0.128 A 
ATOM      3  N1  UNL     1     152.315 158.984 157.071  0.00  0.00    -0.254 NA
ATOM      4  C6  UNL     1     152.073 157.875 156.356  0.00  0.00    +0.073 A 
ATOM      5  C7  UNL     1     152.479 157.846 155.029  0.00  0.00    +0.032 A 
ATOM      6  C8  UNL     1     152.276 156.728 154.212  0.00  0.00    +0.048 A 
ATOM      7  C9  UNL     1     151.657 155.600 154.731  0.00  0.00    +0.121 A 
ATOM      8  C11 UNL     1     151.242 155.614 156.064  0.00  0.00    +0.057 A 
ATOM      9  C12 UNL     1     151.425 156.745 156.896  0.00  0.00    +0.025 A 
ATOM     10  C13 UNL     1     151.010 156.796 158.259  0.00  0.00    +0.052 A 
ENDROOT
BRANCH   1  11
ATOM     11  C3  UNL     1     150.880 158.083 160.437  0.00  0.00    +0.342 C 
ATOM     12  O2  UNL     1     149.762 157.827 160.857  0.00  0.00    -0.245 OA
BRANCH  11  13
ATOM     13  O1  UNL     1     151.921 158.518 161.191  0.00  0.00    -0.461 OA
BRANCH  13  15
ATOM     14  C1  UNL     1     153.079 157.228 162.883  0.00  0.00    +0.048 C 
ATOM     15  C2  UNL     1     151.901 158.133 162.574  0.00  0.00    +0.229 C 
ENDBRANCH  13  15
ENDBRANCH  11  13
ENDBRANCH   1  11
BRANCH   7  16
ATOM     16  O3  UNL     1     151.400 154.439 154.059  0.00  0.00    -0.495 OA
ATOM     17  C10 UNL     1     151.326 154.518 152.641  0.00  0.00    +0.277 C 
ENDBRANCH   7  16
BRANCH  10  18
ATOM     18  N2  UNL     1     150.264 155.703 158.804  0.00  0.00    -0.339 N 
ATOM     19  H13 UNL     1     149.876 155.144 158.033  0.00  0.00    +0.146 HD
BRANCH  18  20
ATOM     20  C14 UNL     1     151.110 154.812 159.608  0.00  0.00    +0.137 C 
BRANCH  20  21
ATOM     21  C15 UNL     1     150.341 154.379 160.833  0.00  0.00    -0.030 A 
ATOM     22  C16 UNL     1     150.954 154.379 162.094  0.00  0.00    +0.005 A 
ATOM     23  C17 UNL     1     150.239 153.992 163.228  0.00  0.00    +0.000 A 
ATOM     24  C18 UNL     1     148.902 153.614 163.115  0.00  0.00    +0.000 A 
ATOM     25  C19 UNL     1     148.277 153.628 161.869  0.00  0.00    +0.000 A 
ATOM     26  C20 UNL     1     148.991 154.013 160.734  0.00  0.00    +0.005 A 
ENDBRANCH  20  21
ENDBRANCH  18  20
ENDBRANCH  10  18
TORSDOF 7
ENDMDL
MODEL 2
REMARK VINA RESULT:    -4.206     11.987     15.400
REMARK INTER + INTRA:          -7.296
REMARK INTER:                  -5.329
REMARK INTRA:                  -1.967
REMARK UNBOUND:                -1.369
REMARK  Name = /home/vital/Documents/PhD_2021/Malaria_codes/data/pdb_ligands_mmv/ligand_347.pdb
REMARK  9 active torsions:
REMARK  status: ('A' for Active; 'I' for Inactive)
REMARK    1  A    between atoms: C1_1  and  C2_2
REMARK    2  A    between atoms: C2_2  and  O1_3
REMARK    3  A    between atoms: O1_3  and  C3_4
REMARK    4  A    between atoms: C3_4  and  C4_6
REMARK    5  A    between atoms: C9_12  and  O3_13
REMARK    6  A    between atoms: O3_13  and  C10_14
REMARK    7  A    between atoms: C13_17  and  N2_18
REMARK    8  A    between atoms: N2_18  and  C14_19
REMARK    9  A    between atoms: C14_19  and  C15_20
REMARK                            x       y       z     vdW  Elec       q    Type
REMARK                         _______ _______ _______ _____ _____    ______ ____
ROOT
ATOM      1  C4  UNL     1     145.580 145.350 164.014  0.00  0.00    +0.098 A 
ATOM      2  C5  UNL     1     146.172 144.549 163.048  0.00  0.00    +0.128 A 
ATOM      3  N1  UNL     1     146.164 143.196 163.062  0.00  0.00    -0.254 NA
ATOM      4  C6  UNL     1     145.561 142.579 164.089  0.00  0.00    +0.073 A 
ATOM      5  C7  UNL     1     145.560 141.191 164.114  0.00  0.00    +0.032 A 
ATOM      6  C8  UNL     1     144.963 140.466 165.151  0.00  0.00    +0.048 A 
ATOM      7  C9  UNL     1     144.356 141.139 166.201  0.00  0.00    +0.121 A 
ATOM      8  C11 UNL     1     144.349 142.535 166.190  0.00  0.00    +0.057 A 
ATOM      9  C12 UNL     1     144.932 143.281 165.138  0.00  0.00    +0.025 A 
ATOM     10  C13 UNL     1     144.939 144.706 165.091  0.00  0.00    +0.052 A 
ENDROOT
BRANCH   1  11
ATOM     11  C3  UNL     1     145.638 146.831 163.904  0.00  0.00    +0.342 C 
ATOM     12  O2  UNL     1     145.508 147.439 162.852  0.00  0.00    -0.245 OA
BRANCH  11  13
ATOM     13  O1  UNL     1     145.860 147.400 165.116  0.00  0.00    -0.461 OA
BRANCH  13  15
ATOM     14  C1  UNL     1     145.674 149.370 166.513  0.00  0.00    +0.048 C 
ATOM     15  C2  UNL     1     145.981 148.830 165.128  0.00  0.00    +0.229 C 
ENDBRANCH  13  15
ENDBRANCH  11  13
ENDBRANCH   1  11
BRANCH   7  16
ATOM     16  O3  UNL     1     143.743 140.567 167.280  0.00  0.00    -0.495 OA
ATOM     17  C10 UNL     1     142.444 140.026 167.072  0.00  0.00    +0.277 C 
ENDBRANCH   7  16
BRANCH  10  18
ATOM     18  N2  UNL     1     144.225 145.441 166.090  0.00  0.00    -0.339 N 
ATOM     19  H13 UNL     1     144.648 146.373 166.190  0.00  0.00    +0.146 HD
BRANCH  18  20
ATOM     20  C14 UNL     1     142.818 145.637 165.722  0.00  0.00    +0.137 C 
BRANCH  20  21
ATOM     21  C15 UNL     1     142.404 147.040 166.094  0.00  0.00    -0.030 A 
ATOM     22  C16 UNL     1     142.412 147.453 167.434  0.00  0.00    +0.005 A 
ATOM     23  C17 UNL     1     142.043 148.755 167.776  0.00  0.00    +0.000 A 
ATOM     24  C18 UNL     1     141.674 149.660 166.782  0.00  0.00    +0.000 A 
ATOM     25  C19 UNL     1     141.680 149.266 165.444  0.00  0.00    +0.000 A 
ATOM     26  C20 UNL     1     142.047 147.964 165.101  0.00  0.00    +0.005 A 
ENDBRANCH  20  21
ENDBRANCH  18  20
ENDBRANCH  10  18
TORSDOF 7
ENDMDL
MODEL 3
REMARK VINA RESULT:    -4.124      2.257      5.891
REMARK INTER + INTRA:          -7.180
REMARK INTER:                  -6.075
REMARK INTRA:                  -1.105
REMARK UNBOUND:                -1.369
REMARK  Name = /home/vital/Documents/PhD_2021/Malaria_codes/data/pdb_ligands_mmv/ligand_347.pdb
REMARK  9 active torsions:
REMARK  status: ('A' for Active; 'I' for Inactive)
REMARK    1  A    between atoms: C1_1  and  C2_2
REMARK    2  A    between atoms: C2_2  and  O1_3
REMARK    3  A    between atoms: O1_3  and  C3_4
REMARK    4  A    between atoms: C3_4  and  C4_6
REMARK    5  A    between atoms: C9_12  and  O3_13
REMARK    6  A    between atoms: O3_13  and  C10_14
REMARK    7  A    between atoms: C13_17  and  N2_18
REMARK    8  A    between atoms: N2_18  and  C14_19
REMARK    9  A    between atoms: C14_19  and  C15_20
REMARK                            x       y       z     vdW  Elec       q    Type
REMARK                         _______ _______ _______ _____ _____    ______ ____
ROOT
ATOM      1  C4  UNL     1     151.096 159.236 157.810  0.00  0.00    +0.098 A 
ATOM      2  C5  UNL     1     151.768 160.443 157.686  0.00  0.00    +0.128 A 
ATOM      3  N1  UNL     1     152.074 161.262 158.719  0.00  0.00    -0.254 NA
ATOM      4  C6  UNL     1     151.686 160.897 159.950  0.00  0.00    +0.073 A 
ATOM      5  C7  UNL     1     151.988 161.738 161.012  0.00  0.00    +0.032 A 
ATOM      6  C8  UNL     1     151.614 161.441 162.327  0.00  0.00    +0.048 A 
ATOM      7  C9  UNL     1     150.911 160.276 162.596  0.00  0.00    +0.121 A 
ATOM      8  C11 UNL     1     150.600 159.419 161.539  0.00  0.00    +0.057 A 
ATOM      9  C12 UNL     1     150.989 159.698 160.207  0.00  0.00    +0.025 A 
ATOM     10  C13 UNL     1     150.693 158.844 159.103  0.00  0.00    +0.052 A 
ENDROOT
BRANCH   1  11
ATOM     11  C3  UNL     1     150.814 158.403 156.612  0.00  0.00    +0.342 C 
ATOM     12  O2  UNL     1     149.958 157.532 156.578  0.00  0.00    -0.245 OA
BRANCH  11  13
ATOM     13  O1  UNL     1     151.633 158.740 155.584  0.00  0.00    -0.461 OA
BRANCH  13  15
ATOM     14  C1  UNL     1     152.672 157.839 153.590  0.00  0.00    +0.048 C 
ATOM     15  C2  UNL     1     152.483 157.694 155.088  0.00  0.00    +0.229 C 
ENDBRANCH  13  15
ENDBRANCH  11  13
ENDBRANCH   1  11
BRANCH   7  16
ATOM     16  O3  UNL     1     150.476 159.860 163.823  0.00  0.00    -0.495 OA
ATOM     17  C10 UNL     1     151.463 159.392 164.733  0.00  0.00    +0.277 C 
ENDBRANCH   7  16
BRANCH  10  18
ATOM     18  N2  UNL     1     150.074 157.578 159.347  0.00  0.00    -0.339 N 
ATOM     19  H13 UNL     1     149.657 157.233 158.473  0.00  0.00    +0.146 HD
BRANCH  18  20
ATOM     20  C14 UNL     1     151.045 156.572 159.795  0.00  0.00    +0.137 C 
BRANCH  20  21
ATOM     21  C15 UNL     1     150.369 155.637 160.769  0.00  0.00    -0.030 A 
ATOM     22  C16 UNL     1     149.410 154.717 160.323  0.00  0.00    +0.005 A 
ATOM     23  C17 UNL     1     148.796 153.843 161.222  0.00  0.00    +0.000 A 
ATOM     24  C18 UNL     1     149.144 153.872 162.572  0.00  0.00    +0.000 A 
ATOM     25  C19 UNL     1     150.109 154.771 163.024  0.00  0.00    +0.000 A 
ATOM     26  C20 UNL     1     150.723 155.646 162.127  0.00  0.00    +0.005 A 
ENDBRANCH  20  21
ENDBRANCH  18  20
ENDBRANCH  10  18
TORSDOF 7
ENDMDL
MODEL 4
REMARK VINA RESULT:    -4.000      3.477      6.077
REMARK INTER + INTRA:          -7.006
REMARK INTER:                  -5.128
REMARK INTRA:                  -1.879
REMARK UNBOUND:                -1.369
REMARK  Name = /home/vital/Documents/PhD_2021/Malaria_codes/data/pdb_ligands_mmv/ligand_347.pdb
REMARK  9 active torsions:
REMARK  status: ('A' for Active; 'I' for Inactive)
REMARK    1  A    between atoms: C1_1  and  C2_2
REMARK    2  A    between atoms: C2_2  and  O1_3
REMARK    3  A    between atoms: O1_3  and  C3_4
REMARK    4  A    between atoms: C3_4  and  C4_6
REMARK    5  A    between atoms: C9_12  and  O3_13
REMARK    6  A    between atoms: O3_13  and  C10_14
REMARK    7  A    between atoms: C13_17  and  N2_18
REMARK    8  A    between atoms: N2_18  and  C14_19
REMARK    9  A    between atoms: C14_19  and  C15_20
REMARK                            x       y       z     vdW  Elec       q    Type
REMARK                         _______ _______ _______ _____ _____    ______ ____
ROOT
ATOM      1  C4  UNL     1     151.448 157.727 162.937  0.00  0.00    +0.098 A 
ATOM      2  C5  UNL     1     151.347 156.368 162.681  0.00  0.00    +0.128 A 
ATOM      3  N1  UNL     1     151.294 155.820 161.444  0.00  0.00    -0.254 NA
ATOM      4  C6  UNL     1     151.322 156.645 160.387  0.00  0.00    +0.073 A 
ATOM      5  C7  UNL     1     151.258 156.090 159.117  0.00  0.00    +0.032 A 
ATOM      6  C8  UNL     1     151.271 156.876 157.959  0.00  0.00    +0.048 A 
ATOM      7  C9  UNL     1     151.342 158.257 158.066  0.00  0.00    +0.121 A 
ATOM      8  C11 UNL     1     151.408 158.831 159.337  0.00  0.00    +0.057 A 
ATOM      9  C12 UNL     1     151.414 158.047 160.515  0.00  0.00    +0.025 A 
ATOM     10  C13 UNL     1     151.485 158.598 161.829  0.00  0.00    +0.052 A 
ENDROOT
BRANCH   1  11
ATOM     11  C3  UNL     1     151.507 158.229 164.334  0.00  0.00    +0.342 C 
ATOM     12  O2  UNL     1     150.695 157.930 165.197  0.00  0.00    -0.245 OA
BRANCH  11  13
ATOM     13  O1  UNL     1     152.568 159.057 164.509  0.00  0.00    -0.461 OA
BRANCH  13  15
ATOM     14  C1  UNL     1     153.682 160.849 165.698  0.00  0.00    +0.048 C 
ATOM     15  C2  UNL     1     152.604 159.782 165.747  0.00  0.00    +0.229 C 
ENDBRANCH  13  15
ENDBRANCH  11  13
ENDBRANCH   1  11
BRANCH   7  16
ATOM     16  O3  UNL     1     151.356 159.147 157.029  0.00  0.00    -0.495 OA
ATOM     17  C10 UNL     1     151.737 160.484 157.332  0.00  0.00    +0.277 C 
ENDBRANCH   7  16
BRANCH  10  18
ATOM     18  N2  UNL     1     151.677 160.007 161.985  0.00  0.00    -0.339 N 
ATOM     19  H13 UNL     1     152.226 160.362 161.191  0.00  0.00    +0.146 HD
BRANCH  18  20
ATOM     20  C14 UNL     1     150.402 160.735 161.994  0.00  0.00    +0.137 C 
BRANCH  20  21
ATOM     21  C15 UNL     1     150.375 161.663 163.184  0.00  0.00    -0.030 A 
ATOM     22  C16 UNL     1     151.358 162.652 163.337  0.00  0.00    +0.005 A 
ATOM     23  C17 UNL     1     151.324 163.520 164.430  0.00  0.00    +0.000 A 
ATOM     24  C18 UNL     1     150.303 163.415 165.373  0.00  0.00    +0.000 A 
ATOM     25  C19 UNL     1     149.311 162.448 165.222  0.00  0.00    +0.000 A 
ATOM     26  C20 UNL     1     149.343 161.579 164.130  0.00  0.00    +0.005 A 
ENDBRANCH  20  21
ENDBRANCH  18  20
ENDBRANCH  10  18
TORSDOF 7
ENDMDL
MODEL 5
REMARK VINA RESULT:    -3.969      2.495      3.672
REMARK INTER + INTRA:          -6.962
REMARK INTER:                  -5.593
REMARK INTRA:                  -1.369
REMARK UNBOUND:                -1.369
REMARK  Name = /home/vital/Documents/PhD_2021/Malaria_codes/data/pdb_ligands_mmv/ligand_347.pdb
REMARK  9 active torsions:
REMARK  status: ('A' for Active; 'I' for Inactive)
REMARK    1  A    between atoms: C1_1  and  C2_2
REMARK    2  A    between atoms: C2_2  and  O1_3
REMARK    3  A    between atoms: O1_3  and  C3_4
REMARK    4  A    between atoms: C3_4  and  C4_6
REMARK    5  A    between atoms: C9_12  and  O3_13
REMARK    6  A    between atoms: O3_13  and  C10_14
REMARK    7  A    between atoms: C13_17  and  N2_18
REMARK    8  A    between atoms: N2_18  and  C14_19
REMARK    9  A    between atoms: C14_19  and  C15_20
REMARK                            x       y       z     vdW  Elec       q    Type
REMARK                         _______ _______ _______ _____ _____    ______ ____
ROOT
ATOM      1  C4  UNL     1     151.148 160.082 161.328  0.00  0.00    +0.098 A 
ATOM      2  C5  UNL     1     151.472 161.139 160.489  0.00  0.00    +0.128 A 
ATOM      3  N1  UNL     1     151.455 161.080 159.137  0.00  0.00    -0.254 NA
ATOM      4  C6  UNL     1     151.123 159.915 158.560  0.00  0.00    +0.073 A 
ATOM      5  C7  UNL     1     151.114 159.846 157.174  0.00  0.00    +0.032 A 
ATOM      6  C8  UNL     1     150.789 158.669 156.490  0.00  0.00    +0.048 A 
ATOM      7  C9  UNL     1     150.470 157.523 157.204  0.00  0.00    +0.121 A 
ATOM      8  C11 UNL     1     150.474 157.577 158.599  0.00  0.00    +0.057 A 
ATOM      9  C12 UNL     1     150.782 158.766 159.303  0.00  0.00    +0.025 A 
ATOM     10  C13 UNL     1     150.791 158.859 160.726  0.00  0.00    +0.052 A 
ENDROOT
BRANCH   1  11
ATOM     11  C3  UNL     1     151.191 160.251 162.804  0.00  0.00    +0.342 C 
ATOM     12  O2  UNL     1     150.270 159.950 163.548  0.00  0.00    -0.245 OA
BRANCH  11  13
ATOM     13  O1  UNL     1     152.375 160.786 163.197  0.00  0.00    -0.461 OA
BRANCH  13  15
ATOM     14  C1  UNL     1     153.629 160.766 165.269  0.00  0.00    +0.048 C 
ATOM     15  C2  UNL     1     152.417 161.307 164.535  0.00  0.00    +0.229 C 
ENDBRANCH  13  15
ENDBRANCH  11  13
ENDBRANCH   1  11
BRANCH   7  16
ATOM     16  O3  UNL     1     150.141 156.308 156.674  0.00  0.00    -0.495 OA
ATOM     17  C10 UNL     1     151.072 155.724 155.770  0.00  0.00    +0.277 C 
ENDBRANCH   7  16
BRANCH  10  18
ATOM     18  N2  UNL     1     150.357 157.738 161.502  0.00  0.00    -0.339 N 
ATOM     19  H13 UNL     1     149.660 157.206 160.963  0.00  0.00    +0.146 HD
BRANCH  18  20
ATOM     20  C14 UNL     1     151.463 156.823 161.809  0.00  0.00    +0.137 C 
BRANCH  20  21
ATOM     21  C15 UNL     1     151.535 156.623 163.303  0.00  0.00    -0.030 A 
ATOM     22  C16 UNL     1     150.541 155.894 163.972  0.00  0.00    +0.005 A 
ATOM     23  C17 UNL     1     150.615 155.697 165.352  0.00  0.00    +0.000 A 
ATOM     24  C18 UNL     1     151.688 156.216 166.074  0.00  0.00    +0.000 A 
ATOM     25  C19 UNL     1     152.691 156.928 165.418  0.00  0.00    +0.000 A 
ATOM     26  C20 UNL     1     152.619 157.126 164.038  0.00  0.00    +0.005 A 
ENDBRANCH  20  21
ENDBRANCH  18  20
ENDBRANCH  10  18
TORSDOF 7
ENDMDL
MODEL 6
REMARK VINA RESULT:    -3.964      1.922      2.547
REMARK INTER + INTRA:          -6.955
REMARK INTER:                  -5.969
REMARK INTRA:                  -0.987
REMARK UNBOUND:                -1.369
REMARK  Name = /home/vital/Documents/PhD_2021/Malaria_codes/data/pdb_ligands_mmv/ligand_347.pdb
REMARK  9 active torsions:
REMARK  status: ('A' for Active; 'I' for Inactive)
REMARK    1  A    between atoms: C1_1  and  C2_2
REMARK    2  A    between atoms: C2_2  and  O1_3
REMARK    3  A    between atoms: O1_3  and  C3_4
REMARK    4  A    between atoms: C3_4  and  C4_6
REMARK    5  A    between atoms: C9_12  and  O3_13
REMARK    6  A    between atoms: O3_13  and  C10_14
REMARK    7  A    between atoms: C13_17  and  N2_18
REMARK    8  A    between atoms: N2_18  and  C14_19
REMARK    9  A    between atoms: C14_19  and  C15_20
REMARK                            x       y       z     vdW  Elec       q    Type
REMARK                         _______ _______ _______ _____ _____    ______ ____
ROOT
ATOM      1  C4  UNL     1     151.467 159.594 160.902  0.00  0.00    +0.098 A 
ATOM      2  C5  UNL     1     152.107 160.566 160.148  0.00  0.00    +0.128 A 
ATOM      3  N1  UNL     1     152.240 160.532 158.802  0.00  0.00    -0.254 NA
ATOM      4  C6  UNL     1     151.736 159.476 158.145  0.00  0.00    +0.073 A 
ATOM      5  C7  UNL     1     151.878 159.430 156.766  0.00  0.00    +0.032 A 
ATOM      6  C8  UNL     1     151.392 158.362 156.002  0.00  0.00    +0.048 A 
ATOM      7  C9  UNL     1     150.751 157.304 156.629  0.00  0.00    +0.121 A 
ATOM      8  C11 UNL     1     150.600 157.336 158.017  0.00  0.00    +0.057 A 
ATOM      9  C12 UNL     1     151.070 158.418 158.799  0.00  0.00    +0.025 A 
ATOM     10  C13 UNL     1     150.929 158.487 160.216  0.00  0.00    +0.052 A 
ENDROOT
BRANCH   1  11
ATOM     11  C3  UNL     1     151.368 159.729 162.379  0.00  0.00    +0.342 C 
ATOM     12  O2  UNL     1     150.498 159.198 163.052  0.00  0.00    -0.245 OA
BRANCH  11  13
ATOM     13  O1  UNL     1     152.361 160.518 162.862  0.00  0.00    -0.461 OA
BRANCH  13  15
ATOM     14  C1  UNL     1     151.286 162.508 163.730  0.00  0.00    +0.048 C 
ATOM     15  C2  UNL     1     152.060 161.246 164.063  0.00  0.00    +0.229 C 
ENDBRANCH  13  15
ENDBRANCH  11  13
ENDBRANCH   1  11
BRANCH   7  16
ATOM     16  O3  UNL     1     150.235 156.197 156.018  0.00  0.00    -0.495 OA
ATOM     17  C10 UNL     1     151.139 155.390 155.272  0.00  0.00    +0.277 C 
ENDBRANCH   7  16
BRANCH  10  18
ATOM     18  N2  UNL     1     150.175 157.476 160.892  0.00  0.00    -0.339 N 
ATOM     19  H13 UNL     1     149.412 157.159 160.279  0.00  0.00    +0.146 HD
BRANCH  18  20
ATOM     20  C14 UNL     1     150.996 156.302 161.211  0.00  0.00    +0.137 C 
BRANCH  20  21
ATOM     21  C15 UNL     1     150.117 155.241 161.827  0.00  0.00    -0.030 A 
ATOM     22  C16 UNL     1     150.212 154.943 163.194  0.00  0.00    +0.005 A 
ATOM     23  C17 UNL     1     149.389 153.972 163.766  0.00  0.00    +0.000 A 
ATOM     24  C18 UNL     1     148.456 153.297 162.981  0.00  0.00    +0.000 A 
ATOM     25  C19 UNL     1     148.340 153.597 161.624  0.00  0.00    +0.000 A 
ATOM     26  C20 UNL     1     149.162 154.567 161.050  0.00  0.00    +0.005 A 
ENDBRANCH  20  21
ENDBRANCH  18  20
ENDBRANCH  10  18
TORSDOF 7
ENDMDL
MODEL 7
REMARK VINA RESULT:    -3.939      3.627      6.640
REMARK INTER + INTRA:          -6.919
REMARK INTER:                  -5.363
REMARK INTRA:                  -1.557
REMARK UNBOUND:                -1.369
REMARK  Name = /home/vital/Documents/PhD_2021/Malaria_codes/data/pdb_ligands_mmv/ligand_347.pdb
REMARK  9 active torsions:
REMARK  status: ('A' for Active; 'I' for Inactive)
REMARK    1  A    between atoms: C1_1  and  C2_2
REMARK    2  A    between atoms: C2_2  and  O1_3
REMARK    3  A    between atoms: O1_3  and  C3_4
REMARK    4  A    between atoms: C3_4  and  C4_6
REMARK    5  A    between atoms: C9_12  and  O3_13
REMARK    6  A    between atoms: O3_13  and  C10_14
REMARK    7  A    between atoms: C13_17  and  N2_18
REMARK    8  A    between atoms: N2_18  and  C14_19
REMARK    9  A    between atoms: C14_19  and  C15_20
REMARK                            x       y       z     vdW  Elec       q    Type
REMARK                         _______ _______ _______ _____ _____    ______ ____
ROOT
ATOM      1  C4  UNL     1     150.906 156.349 164.532  0.00  0.00    +0.098 A 
ATOM      2  C5  UNL     1     150.120 155.208 164.467  0.00  0.00    +0.128 A 
ATOM      3  N1  UNL     1     149.799 154.559 163.323  0.00  0.00    -0.254 NA
ATOM      4  C6  UNL     1     150.254 155.060 162.165  0.00  0.00    +0.073 A 
ATOM      5  C7  UNL     1     149.920 154.405 160.989  0.00  0.00    +0.032 A 
ATOM      6  C8  UNL     1     150.343 154.863 159.736  0.00  0.00    +0.048 A 
ATOM      7  C9  UNL     1     151.116 156.011 159.647  0.00  0.00    +0.121 A 
ATOM      8  C11 UNL     1     151.461 156.682 160.823  0.00  0.00    +0.057 A 
ATOM      9  C12 UNL     1     151.055 156.219 162.098  0.00  0.00    +0.025 A 
ATOM     10  C13 UNL     1     151.392 156.875 163.318  0.00  0.00    +0.052 A 
ENDROOT
BRANCH   1  11
ATOM     11  C3  UNL     1     151.207 156.984 165.842  0.00  0.00    +0.342 C 
ATOM     12  O2  UNL     1     152.214 156.752 166.493  0.00  0.00    -0.245 OA
BRANCH  11  13
ATOM     13  O1  UNL     1     150.216 157.837 166.206  0.00  0.00    -0.461 OA
BRANCH  13  15
ATOM     14  C1  UNL     1     149.229 159.430 167.741  0.00  0.00    +0.048 C 
ATOM     15  C2  UNL     1     150.325 158.403 167.521  0.00  0.00    +0.229 C 
ENDBRANCH  13  15
ENDBRANCH  11  13
ENDBRANCH   1  11
BRANCH   7  16
ATOM     16  O3  UNL     1     151.593 156.577 158.499  0.00  0.00    -0.495 OA
ATOM     17  C10 UNL     1     151.777 155.715 157.383  0.00  0.00    +0.277 C 
ENDBRANCH   7  16
BRANCH  10  18
ATOM     18  N2  UNL     1     152.283 157.994 163.286  0.00  0.00    -0.339 N 
ATOM     19  H13 UNL     1     152.950 157.872 162.513  0.00  0.00    +0.146 HD
BRANCH  18  20
ATOM     20  C14 UNL     1     151.567 159.255 163.051  0.00  0.00    +0.137 C 
BRANCH  20  21
ATOM     21  C15 UNL     1     151.886 160.216 164.170  0.00  0.00    -0.030 A 
ATOM     22  C16 UNL     1     150.936 161.158 164.591  0.00  0.00    +0.005 A 
ATOM     23  C17 UNL     1     151.226 162.037 165.636  0.00  0.00    +0.000 A 
ATOM     24  C18 UNL     1     152.463 161.977 166.276  0.00  0.00    +0.000 A 
ATOM     25  C19 UNL     1     153.409 161.033 165.878  0.00  0.00    +0.000 A 
ATOM     26  C20 UNL     1     153.121 160.154 164.833  0.00  0.00    +0.005 A 
ENDBRANCH  20  21
ENDBRANCH  18  20
ENDBRANCH  10  18
TORSDOF 7
ENDMDL
MODEL 8
REMARK VINA RESULT:    -3.931      5.028      7.470
REMARK INTER + INTRA:          -6.908
REMARK INTER:                  -5.264
REMARK INTRA:                  -1.644
REMARK UNBOUND:                -1.369
REMARK  Name = /home/vital/Documents/PhD_2021/Malaria_codes/data/pdb_ligands_mmv/ligand_347.pdb
REMARK  9 active torsions:
REMARK  status: ('A' for Active; 'I' for Inactive)
REMARK    1  A    between atoms: C1_1  and  C2_2
REMARK    2  A    between atoms: C2_2  and  O1_3
REMARK    3  A    between atoms: O1_3  and  C3_4
REMARK    4  A    between atoms: C3_4  and  C4_6
REMARK    5  A    between atoms: C9_12  and  O3_13
REMARK    6  A    between atoms: O3_13  and  C10_14
REMARK    7  A    between atoms: C13_17  and  N2_18
REMARK    8  A    between atoms: N2_18  and  C14_19
REMARK    9  A    between atoms: C14_19  and  C15_20
REMARK                            x       y       z     vdW  Elec       q    Type
REMARK                         _______ _______ _______ _____ _____    ______ ____
ROOT
ATOM      1  C4  UNL     1     152.398 161.086 165.388  0.00  0.00    +0.098 A 
ATOM      2  C5  UNL     1     151.795 161.893 164.435  0.00  0.00    +0.128 A 
ATOM      3  N1  UNL     1     151.194 161.437 163.311  0.00  0.00    -0.254 NA
ATOM      4  C6  UNL     1     151.196 160.115 163.086  0.00  0.00    +0.073 A 
ATOM      5  C7  UNL     1     150.592 159.644 161.929  0.00  0.00    +0.032 A 
ATOM      6  C8  UNL     1     150.556 158.281 161.610  0.00  0.00    +0.048 A 
ATOM      7  C9  UNL     1     151.146 157.359 162.462  0.00  0.00    +0.121 A 
ATOM      8  C11 UNL     1     151.758 157.818 163.630  0.00  0.00    +0.057 A 
ATOM      9  C12 UNL     1     151.784 159.191 163.974  0.00  0.00    +0.025 A 
ATOM     10  C13 UNL     1     152.396 159.695 165.160  0.00  0.00    +0.052 A 
ENDROOT
BRANCH   1  11
ATOM     11  C3  UNL     1     153.025 161.684 166.596  0.00  0.00    +0.342 C 
ATOM     12  O2  UNL     1     152.516 162.581 167.250  0.00  0.00    -0.245 OA
BRANCH  11  13
ATOM     13  O1  UNL     1     154.225 161.106 166.856  0.00  0.00    -0.461 OA
BRANCH  13  15
ATOM     14  C1  UNL     1     154.716 160.555 169.163  0.00  0.00    +0.048 C 
ATOM     15  C2  UNL     1     154.898 161.559 168.040  0.00  0.00    +0.229 C 
ENDBRANCH  13  15
ENDBRANCH  11  13
ENDBRANCH   1  11
BRANCH   7  16
ATOM     16  O3  UNL     1     151.195 156.006 162.278  0.00  0.00    -0.495 OA
ATOM     17  C10 UNL     1     150.811 155.191 163.379  0.00  0.00    +0.277 C 
ENDBRANCH   7  16
BRANCH  10  18
ATOM     18  N2  UNL     1     152.914 158.773 166.124  0.00  0.00    -0.339 N 
ATOM     19  H13 UNL     1     153.698 159.213 166.624  0.00  0.00    +0.146 HD
BRANCH  18  20
ATOM     20  C14 UNL     1     151.906 158.408 167.127  0.00  0.00    +0.137 C 
BRANCH  20  21
ATOM     21  C15 UNL     1     151.958 156.917 167.357  0.00  0.00    -0.030 A 
ATOM     22  C16 UNL     1     153.177 156.283 167.640  0.00  0.00    +0.005 A 
ATOM     23  C17 UNL     1     153.222 154.907 167.866  0.00  0.00    +0.000 A 
ATOM     24  C18 UNL     1     152.051 154.153 167.823  0.00  0.00    +0.000 A 
ATOM     25  C19 UNL     1     150.831 154.775 167.559  0.00  0.00    +0.000 A 
ATOM     26  C20 UNL     1     150.783 156.151 167.332  0.00  0.00    +0.005 A 
ENDBRANCH  20  21
ENDBRANCH  18  20
ENDBRANCH  10  18
TORSDOF 7
ENDMDL
MODEL 9
REMARK VINA RESULT:    -3.875      2.693      5.307
REMARK INTER + INTRA:          -6.830
REMARK INTER:                  -5.609
REMARK INTRA:                  -1.221
REMARK UNBOUND:                -1.369
REMARK  Name = /home/vital/Documents/PhD_2021/Malaria_codes/data/pdb_ligands_mmv/ligand_347.pdb
REMARK  9 active torsions:
REMARK  status: ('A' for Active; 'I' for Inactive)
REMARK    1  A    between atoms: C1_1  and  C2_2
REMARK    2  A    between atoms: C2_2  and  O1_3
REMARK    3  A    between atoms: O1_3  and  C3_4
REMARK    4  A    between atoms: C3_4  and  C4_6
REMARK    5  A    between atoms: C9_12  and  O3_13
REMARK    6  A    between atoms: O3_13  and  C10_14
REMARK    7  A    between atoms: C13_17  and  N2_18
REMARK    8  A    between atoms: N2_18  and  C14_19
REMARK    9  A    between atoms: C14_19  and  C15_20
REMARK                            x       y       z     vdW  Elec       q    Type
REMARK                         _______ _______ _______ _____ _____    ______ ____
ROOT
ATOM      1  C4  UNL     1     150.419 155.806 161.625  0.00  0.00    +0.098 A 
ATOM      2  C5  UNL     1     150.565 154.708 160.790  0.00  0.00    +0.128 A 
ATOM      3  N1  UNL     1     150.684 154.776 159.443  0.00  0.00    -0.254 NA
ATOM      4  C6  UNL     1     150.640 155.986 158.867  0.00  0.00    +0.073 A 
ATOM      5  C7  UNL     1     150.752 156.062 157.486  0.00  0.00    +0.032 A 
ATOM      6  C8  UNL     1     150.706 157.281 156.800  0.00  0.00    +0.048 A 
ATOM      7  C9  UNL     1     150.537 158.462 157.508  0.00  0.00    +0.121 A 
ATOM      8  C11 UNL     1     150.423 158.403 158.898  0.00  0.00    +0.057 A 
ATOM      9  C12 UNL     1     150.487 157.178 159.605  0.00  0.00    +0.025 A 
ATOM     10  C13 UNL     1     150.379 157.080 161.024  0.00  0.00    +0.052 A 
ENDROOT
BRANCH   1  11
ATOM     11  C3  UNL     1     150.303 155.625 163.095  0.00  0.00    +0.342 C 
ATOM     12  O2  UNL     1     149.416 154.977 163.631  0.00  0.00    -0.245 OA
BRANCH  11  13
ATOM     13  O1  UNL     1     151.300 156.276 163.745  0.00  0.00    -0.461 OA
BRANCH  13  15
ATOM     14  C1  UNL     1     152.364 156.784 165.861  0.00  0.00    +0.048 C 
ATOM     15  C2  UNL     1     151.052 156.594 165.123  0.00  0.00    +0.229 C 
ENDBRANCH  13  15
ENDBRANCH  11  13
ENDBRANCH   1  11
BRANCH   7  16
ATOM     16  O3  UNL     1     150.467 159.719 156.977  0.00  0.00    -0.495 OA
ATOM     17  C10 UNL     1     151.362 160.692 157.501  0.00  0.00    +0.277 C 
ENDBRANCH   7  16
BRANCH  10  18
ATOM     18  N2  UNL     1     150.321 158.278 161.804  0.00  0.00    -0.339 N 
ATOM     19  H13 UNL     1     149.986 158.049 162.749  0.00  0.00    +0.146 HD
BRANCH  18  20
ATOM     20  C14 UNL     1     151.642 158.902 161.948  0.00  0.00    +0.137 C 
BRANCH  20  21
ATOM     21  C15 UNL     1     151.529 160.080 162.884  0.00  0.00    -0.030 A 
ATOM     22  C16 UNL     1     152.430 160.232 163.949  0.00  0.00    +0.005 A 
ATOM     23  C17 UNL     1     152.334 161.330 164.806  0.00  0.00    +0.000 A 
ATOM     24  C18 UNL     1     151.346 162.291 164.601  0.00  0.00    +0.000 A 
ATOM     25  C19 UNL     1     150.456 162.160 163.536  0.00  0.00    +0.000 A 
ATOM     26  C20 UNL     1     150.549 161.063 162.678  0.00  0.00    +0.005 A 
ENDBRANCH  20  21
ENDBRANCH  18  20
ENDBRANCH  10  18
TORSDOF 7
ENDMDL
