MODEL 1
REMARK VINA RESULT:    -9.947      0.000      0.000
REMARK INTER + INTRA:         -12.143
REMARK INTER:                 -11.691
REMARK INTRA:                  -0.452
REMARK UNBOUND:                -0.452
REMARK  Name = /home/vital/Documents/PhD_2021/Malaria_codes/data/pdb_ligands_mmv/ligand_298.pdb
REMARK  3 active torsions:
REMARK  status: ('A' for Active; 'I' for Inactive)
REMARK    1  A    between atoms: C5_6  and  C7_8
REMARK    2  A    between atoms: N1_10  and  C8_11
REMARK    3  A    between atoms: C11_14  and  C14_17
REMARK                            x       y       z     vdW  Elec       q    Type
REMARK                         _______ _______ _______ _____ _____    ______ ____
ROOT
ATOM      1  C8  UNL     1     151.658 158.988 157.315  0.00  0.00    +0.034 A 
ATOM      2  C9  UNL     1     150.649 158.489 158.136  0.00  0.00    +0.024 A 
ATOM      3  C10 UNL     1     150.455 159.001 159.428  0.00  0.00    +0.013 A 
ATOM      4  C11 UNL     1     151.268 160.025 159.927  0.00  0.00    +0.017 A 
ATOM      5  C12 UNL     1     152.280 160.521 159.096  0.00  0.00    +0.013 A 
ATOM      6  C13 UNL     1     152.474 160.012 157.807  0.00  0.00    +0.024 A 
ENDROOT
BRANCH   4   7
ATOM      7  C14 UNL     1     151.104 160.592 161.271  0.00  0.00    +0.139 A 
ATOM      8  N2  UNL     1     152.056 160.706 162.183  0.00  0.00    -0.228 NA
ATOM      9  C15 UNL     1     151.474 161.285 163.282  0.00  0.00    +0.090 A 
ATOM     10  C16 UNL     1     152.033 161.627 164.520  0.00  0.00    +0.038 A 
ATOM     11  C17 UNL     1     151.221 162.219 165.505  0.00  0.00    -0.016 A 
ATOM     12  C18 UNL     1     151.753 162.572 166.754  0.00  0.00    +0.008 A 
ATOM     13  C19 UNL     1     150.952 163.160 167.735  0.00  0.00    +0.001 A 
ATOM     14  C20 UNL     1     149.607 163.404 167.476  0.00  0.00    +0.001 A 
ATOM     15  C21 UNL     1     149.060 163.060 166.239  0.00  0.00    +0.008 A 
ATOM     16  C22 UNL     1     149.850 162.467 165.241  0.00  0.00    -0.016 A 
ATOM     17  C23 UNL     1     149.287 162.125 163.997  0.00  0.00    +0.036 A 
ATOM     18  C24 UNL     1     150.132 161.538 163.052  0.00  0.00    +0.067 A 
ATOM     19  N3  UNL     1     149.921 161.092 161.773  0.00  0.00    -0.338 N 
ATOM     20  H16 UNL     1     149.041 161.125 161.282  0.00  0.00    +0.167 HD
ENDBRANCH   4   7
BRANCH   1  23
ATOM     21  C7  UNL     1     152.373 157.276 155.625  0.00  0.00    +0.248 C 
ATOM     22  O1  UNL     1     152.618 156.352 156.397  0.00  0.00    -0.270 OA
ATOM     23  N1  UNL     1     151.922 158.530 156.003  0.00  0.00    -0.282 N 
ATOM     24  H5  UNL     1     151.752 159.215 155.286  0.00  0.00    +0.155 HD
BRANCH  21  30
ATOM     25 BR1  UNL     1     155.185 155.120 151.524  0.00  0.00    -0.050 Br
ATOM     26  C1  UNL     1     153.745 156.121 152.234  0.00  0.00    +0.019 A 
ATOM     27  C2  UNL     1     152.806 156.678 151.368  0.00  0.00    +0.015 A 
ATOM     28  C3  UNL     1     151.747 157.414 151.889  0.00  0.00    +0.002 A 
ATOM     29  C4  UNL     1     151.635 157.590 153.271  0.00  0.00    +0.013 A 
ATOM     30  C5  UNL     1     152.578 157.032 154.154  0.00  0.00    +0.038 A 
ATOM     31  C6  UNL     1     153.640 156.291 153.619  0.00  0.00    +0.028 A 
ENDBRANCH  21  30
ENDBRANCH   1  23
TORSDOF 3
ENDMDL
MODEL 2
REMARK VINA RESULT:    -9.654      4.511     11.654
REMARK INTER + INTRA:         -11.800
REMARK INTER:                 -11.263
REMARK INTRA:                  -0.536
REMARK UNBOUND:                -0.452
REMARK  Name = /home/vital/Documents/PhD_2021/Malaria_codes/data/pdb_ligands_mmv/ligand_298.pdb
REMARK  3 active torsions:
REMARK  status: ('A' for Active; 'I' for Inactive)
REMARK    1  A    between atoms: C5_6  and  C7_8
REMARK    2  A    between atoms: N1_10  and  C8_11
REMARK    3  A    between atoms: C11_14  and  C14_17
REMARK                            x       y       z     vdW  Elec       q    Type
REMARK                         _______ _______ _______ _____ _____    ______ ____
ROOT
ATOM      1  C8  UNL     1     151.363 158.561 162.733  0.00  0.00    +0.034 A 
ATOM      2  C9  UNL     1     151.487 157.236 162.319  0.00  0.00    +0.024 A 
ATOM      3  C10 UNL     1     151.579 156.915 160.956  0.00  0.00    +0.013 A 
ATOM      4  C11 UNL     1     151.547 157.913 159.976  0.00  0.00    +0.017 A 
ATOM      5  C12 UNL     1     151.422 159.242 160.400  0.00  0.00    +0.013 A 
ATOM      6  C13 UNL     1     151.331 159.564 161.759  0.00  0.00    +0.024 A 
ENDROOT
BRANCH   4   7
ATOM      7  C14 UNL     1     151.639 157.627 158.539  0.00  0.00    +0.139 A 
ATOM      8  N2  UNL     1     151.841 158.520 157.585  0.00  0.00    -0.228 NA
ATOM      9  C15 UNL     1     151.858 157.827 156.401  0.00  0.00    +0.090 A 
ATOM     10  C16 UNL     1     152.036 158.290 155.091  0.00  0.00    +0.038 A 
ATOM     11  C17 UNL     1     152.012 157.372 154.025  0.00  0.00    -0.016 A 
ATOM     12  C18 UNL     1     152.188 157.806 152.702  0.00  0.00    +0.008 A 
ATOM     13  C19 UNL     1     152.165 156.899 151.641  0.00  0.00    +0.001 A 
ATOM     14  C20 UNL     1     151.967 155.545 151.891  0.00  0.00    +0.001 A 
ATOM     15  C21 UNL     1     151.791 155.095 153.200  0.00  0.00    +0.008 A 
ATOM     16  C22 UNL     1     151.810 155.992 154.280  0.00  0.00    -0.016 A 
ATOM     17  C23 UNL     1     151.632 155.526 155.596  0.00  0.00    +0.036 A 
ATOM     18  C24 UNL     1     151.662 156.474 156.621  0.00  0.00    +0.067 A 
ATOM     19  N3  UNL     1     151.527 156.372 157.981  0.00  0.00    -0.338 N 
ATOM     20  H16 UNL     1     151.369 155.515 158.488  0.00  0.00    +0.167 HD
ENDBRANCH   4   7
BRANCH   1  23
ATOM     21  C7  UNL     1     152.302 159.321 164.933  0.00  0.00    +0.248 C 
ATOM     22  O1  UNL     1     153.492 159.325 164.629  0.00  0.00    -0.270 OA
ATOM     23  N1  UNL     1     151.265 158.971 164.083  0.00  0.00    -0.282 N 
ATOM     24  H5  UNL     1     150.323 159.004 164.436  0.00  0.00    +0.155 HD
BRANCH  21  30
ATOM     25 BR1  UNL     1     153.695 160.671 169.993  0.00  0.00    -0.050 Br
ATOM     26  C1  UNL     1     152.426 160.343 168.628  0.00  0.00    +0.019 A 
ATOM     27  C2  UNL     1     151.068 160.475 168.909  0.00  0.00    +0.015 A 
ATOM     28  C3  UNL     1     150.135 160.235 167.906  0.00  0.00    +0.002 A 
ATOM     29  C4  UNL     1     150.566 159.863 166.630  0.00  0.00    +0.013 A 
ATOM     30  C5  UNL     1     151.936 159.726 166.335  0.00  0.00    +0.038 A 
ATOM     31  C6  UNL     1     152.867 159.972 167.353  0.00  0.00    +0.028 A 
ENDBRANCH  21  30
ENDBRANCH   1  23
TORSDOF 3
ENDMDL
MODEL 3
REMARK VINA RESULT:    -9.653      4.164     11.607
REMARK INTER + INTRA:         -11.797
REMARK INTER:                 -11.270
REMARK INTRA:                  -0.527
REMARK UNBOUND:                -0.452
REMARK  Name = /home/vital/Documents/PhD_2021/Malaria_codes/data/pdb_ligands_mmv/ligand_298.pdb
REMARK  3 active torsions:
REMARK  status: ('A' for Active; 'I' for Inactive)
REMARK    1  A    between atoms: C5_6  and  C7_8
REMARK    2  A    between atoms: N1_10  and  C8_11
REMARK    3  A    between atoms: C11_14  and  C14_17
REMARK                            x       y       z     vdW  Elec       q    Type
REMARK                         _______ _______ _______ _____ _____    ______ ____
ROOT
ATOM      1  C8  UNL     1     151.013 160.837 161.817  0.00  0.00    +0.034 A 
ATOM      2  C9  UNL     1     151.615 161.507 160.752  0.00  0.00    +0.024 A 
ATOM      3  C10 UNL     1     151.763 160.885 159.503  0.00  0.00    +0.013 A 
ATOM      4  C11 UNL     1     151.310 159.577 159.291  0.00  0.00    +0.017 A 
ATOM      5  C12 UNL     1     150.707 158.911 160.365  0.00  0.00    +0.013 A 
ATOM      6  C13 UNL     1     150.558 159.531 161.612  0.00  0.00    +0.024 A 
ENDROOT
BRANCH   4   7
ATOM      7  C14 UNL     1     151.443 158.885 158.004  0.00  0.00    +0.139 A 
ATOM      8  N2  UNL     1     151.838 159.435 156.868  0.00  0.00    -0.228 NA
ATOM      9  C15 UNL     1     151.817 158.438 155.925  0.00  0.00    +0.090 A 
ATOM     10  C16 UNL     1     152.143 158.482 154.563  0.00  0.00    +0.038 A 
ATOM     11  C17 UNL     1     152.041 157.310 153.791  0.00  0.00    -0.016 A 
ATOM     12  C18 UNL     1     152.361 157.324 152.425  0.00  0.00    +0.008 A 
ATOM     13  C19 UNL     1     152.262 156.164 151.654  0.00  0.00    +0.001 A 
ATOM     14  C20 UNL     1     151.841 154.975 152.242  0.00  0.00    +0.001 A 
ATOM     15  C21 UNL     1     151.520 154.943 153.599  0.00  0.00    +0.008 A 
ATOM     16  C22 UNL     1     151.613 156.099 154.390  0.00  0.00    -0.016 A 
ATOM     17  C23 UNL     1     151.286 156.054 155.758  0.00  0.00    +0.036 A 
ATOM     18  C24 UNL     1     151.401 157.242 156.484  0.00  0.00    +0.067 A 
ATOM     19  N3  UNL     1     151.171 157.549 157.800  0.00  0.00    -0.338 N 
ATOM     20  H16 UNL     1     150.852 156.900 158.503  0.00  0.00    +0.167 HD
ENDBRANCH   4   7
BRANCH   1  23
ATOM     21  C7  UNL     1     151.774 161.534 164.104  0.00  0.00    +0.248 C 
ATOM     22  O1  UNL     1     152.951 161.194 164.014  0.00  0.00    -0.270 OA
ATOM     23  N1  UNL     1     150.825 161.389 163.105  0.00  0.00    -0.282 N 
ATOM     24  H5  UNL     1     149.886 161.703 163.286  0.00  0.00    +0.155 HD
BRANCH  21  30
ATOM     25 BR1  UNL     1     152.516 162.597 169.366  0.00  0.00    -0.050 Br
ATOM     26  C1  UNL     1     151.536 162.698 167.751  0.00  0.00    +0.019 A 
ATOM     27  C2  UNL     1     150.321 163.381 167.729  0.00  0.00    +0.015 A 
ATOM     28  C3  UNL     1     149.600 163.457 166.543  0.00  0.00    +0.002 A 
ATOM     29  C4  UNL     1     150.097 162.848 165.387  0.00  0.00    +0.013 A 
ATOM     30  C5  UNL     1     151.322 162.155 165.398  0.00  0.00    +0.038 A 
ATOM     31  C6  UNL     1     152.041 162.087 166.599  0.00  0.00    +0.028 A 
ENDBRANCH  21  30
ENDBRANCH   1  23
TORSDOF 3
ENDMDL
MODEL 4
REMARK VINA RESULT:    -9.604      3.214      5.815
REMARK INTER + INTRA:         -11.741
REMARK INTER:                 -11.274
REMARK INTRA:                  -0.467
REMARK UNBOUND:                -0.452
REMARK  Name = /home/vital/Documents/PhD_2021/Malaria_codes/data/pdb_ligands_mmv/ligand_298.pdb
REMARK  3 active torsions:
REMARK  status: ('A' for Active; 'I' for Inactive)
REMARK    1  A    between atoms: C5_6  and  C7_8
REMARK    2  A    between atoms: N1_10  and  C8_11
REMARK    3  A    between atoms: C11_14  and  C14_17
REMARK                            x       y       z     vdW  Elec       q    Type
REMARK                         _______ _______ _______ _____ _____    ______ ____
ROOT
ATOM      1  C8  UNL     1     152.974 155.846 152.677  0.00  0.00    +0.034 A 
ATOM      2  C9  UNL     1     152.221 155.160 153.629  0.00  0.00    +0.024 A 
ATOM      3  C10 UNL     1     151.918 155.749 154.866  0.00  0.00    +0.013 A 
ATOM      4  C11 UNL     1     152.363 157.039 155.179  0.00  0.00    +0.017 A 
ATOM      5  C12 UNL     1     153.119 157.722 154.218  0.00  0.00    +0.013 A 
ATOM      6  C13 UNL     1     153.421 157.135 152.983  0.00  0.00    +0.024 A 
ENDROOT
BRANCH   4   7
ATOM      7  C14 UNL     1     152.072 157.696 156.459  0.00  0.00    +0.139 A 
ATOM      8  N2  UNL     1     151.391 157.167 157.462  0.00  0.00    -0.228 NA
ATOM      9  C15 UNL     1     151.357 158.116 158.453  0.00  0.00    +0.090 A 
ATOM     10  C16 UNL     1     150.767 158.070 159.722  0.00  0.00    +0.038 A 
ATOM     11  C17 UNL     1     150.869 159.186 160.572  0.00  0.00    -0.016 A 
ATOM     12  C18 UNL     1     150.287 159.169 161.849  0.00  0.00    +0.008 A 
ATOM     13  C19 UNL     1     150.386 160.274 162.696  0.00  0.00    +0.001 A 
ATOM     14  C20 UNL     1     151.069 161.411 162.276  0.00  0.00    +0.001 A 
ATOM     15  C21 UNL     1     151.654 161.446 161.010  0.00  0.00    +0.008 A 
ATOM     16  C22 UNL     1     151.565 160.345 160.143  0.00  0.00    -0.016 A 
ATOM     17  C23 UNL     1     152.160 160.392 158.869  0.00  0.00    +0.036 A 
ATOM     18  C24 UNL     1     152.031 159.260 158.060  0.00  0.00    +0.067 A 
ATOM     19  N3  UNL     1     152.475 158.971 156.795  0.00  0.00    -0.338 N 
ATOM     20  H16 UNL     1     153.009 159.593 156.209  0.00  0.00    +0.167 HD
ENDBRANCH   4   7
BRANCH   1  23
ATOM     21  C7  UNL     1     154.578 154.922 150.983  0.00  0.00    +0.248 C 
ATOM     22  O1  UNL     1     155.600 154.956 151.664  0.00  0.00    -0.270 OA
ATOM     23  N1  UNL     1     153.323 155.328 151.409  0.00  0.00    -0.282 N 
ATOM     24  H5  UNL     1     152.552 155.257 150.766  0.00  0.00    +0.155 HD
BRANCH  21  30
ATOM     25 BR1  UNL     1     157.146 152.018 147.196  0.00  0.00    -0.050 Br
ATOM     26  C1  UNL     1     155.744 153.140 147.793  0.00  0.00    +0.019 A 
ATOM     27  C2  UNL     1     154.747 153.524 146.898  0.00  0.00    +0.015 A 
ATOM     28  C3  UNL     1     153.716 154.349 147.336  0.00  0.00    +0.002 A 
ATOM     29  C4  UNL     1     153.690 154.784 148.664  0.00  0.00    +0.013 A 
ATOM     30  C5  UNL     1     154.692 154.403 149.575  0.00  0.00    +0.038 A 
ATOM     31  C6  UNL     1     155.725 153.571 149.124  0.00  0.00    +0.028 A 
ENDBRANCH  21  30
ENDBRANCH   1  23
TORSDOF 3
ENDMDL
MODEL 5
REMARK VINA RESULT:    -9.548      4.201     11.603
REMARK INTER + INTRA:         -11.674
REMARK INTER:                 -11.138
REMARK INTRA:                  -0.536
REMARK UNBOUND:                -0.452
REMARK  Name = /home/vital/Documents/PhD_2021/Malaria_codes/data/pdb_ligands_mmv/ligand_298.pdb
REMARK  3 active torsions:
REMARK  status: ('A' for Active; 'I' for Inactive)
REMARK    1  A    between atoms: C5_6  and  C7_8
REMARK    2  A    between atoms: N1_10  and  C8_11
REMARK    3  A    between atoms: C11_14  and  C14_17
REMARK                            x       y       z     vdW  Elec       q    Type
REMARK                         _______ _______ _______ _____ _____    ______ ____
ROOT
ATOM      1  C8  UNL     1     151.042 160.871 161.965  0.00  0.00    +0.034 A 
ATOM      2  C9  UNL     1     151.465 161.576 160.838  0.00  0.00    +0.024 A 
ATOM      3  C10 UNL     1     151.584 160.938 159.594  0.00  0.00    +0.013 A 
ATOM      4  C11 UNL     1     151.282 159.579 159.449  0.00  0.00    +0.017 A 
ATOM      5  C12 UNL     1     150.858 158.878 160.585  0.00  0.00    +0.013 A 
ATOM      6  C13 UNL     1     150.738 159.513 161.826  0.00  0.00    +0.024 A 
ENDROOT
BRANCH   4   7
ATOM      7  C14 UNL     1     151.392 158.868 158.169  0.00  0.00    +0.139 A 
ATOM      8  N2  UNL     1     151.225 157.568 157.991  0.00  0.00    -0.228 NA
ATOM      9  C15 UNL     1     151.416 157.332 156.653  0.00  0.00    +0.090 A 
ATOM     10  C16 UNL     1     151.356 156.130 155.935  0.00  0.00    +0.038 A 
ATOM     11  C17 UNL     1     151.593 156.142 154.549  0.00  0.00    -0.016 A 
ATOM     12  C18 UNL     1     151.539 154.955 153.803  0.00  0.00    +0.008 A 
ATOM     13  C19 UNL     1     151.773 154.961 152.427  0.00  0.00    +0.001 A 
ATOM     14  C20 UNL     1     152.063 156.157 151.779  0.00  0.00    +0.001 A 
ATOM     15  C21 UNL     1     152.120 157.348 152.504  0.00  0.00    +0.008 A 
ATOM     16  C22 UNL     1     151.888 157.362 153.888  0.00  0.00    -0.016 A 
ATOM     17  C23 UNL     1     151.948 158.569 154.608  0.00  0.00    +0.036 A 
ATOM     18  C24 UNL     1     151.707 158.508 155.983  0.00  0.00    +0.067 A 
ATOM     19  N3  UNL     1     151.685 159.467 156.963  0.00  0.00    -0.338 N 
ATOM     20  H16 UNL     1     151.858 160.449 156.820  0.00  0.00    +0.167 HD
ENDBRANCH   4   7
BRANCH   1  23
ATOM     21  C7  UNL     1     151.874 161.584 164.222  0.00  0.00    +0.248 C 
ATOM     22  O1  UNL     1     153.046 161.237 164.101  0.00  0.00    -0.270 OA
ATOM     23  N1  UNL     1     150.895 161.435 163.253  0.00  0.00    -0.282 N 
ATOM     24  H5  UNL     1     149.963 161.756 163.458  0.00  0.00    +0.155 HD
BRANCH  21  30
ATOM     25 BR1  UNL     1     152.892 162.922 169.374  0.00  0.00    -0.050 Br
ATOM     26  C1  UNL     1     151.795 162.876 167.833  0.00  0.00    +0.019 A 
ATOM     27  C2  UNL     1     150.529 163.456 167.877  0.00  0.00    +0.015 A 
ATOM     28  C3  UNL     1     149.722 163.423 166.744  0.00  0.00    +0.002 A 
ATOM     29  C4  UNL     1     150.186 162.810 165.577  0.00  0.00    +0.013 A 
ATOM     30  C5  UNL     1     151.463 162.220 165.523  0.00  0.00    +0.038 A 
ATOM     31  C6  UNL     1     152.268 162.260 166.669  0.00  0.00    +0.028 A 
ENDBRANCH  21  30
ENDBRANCH   1  23
TORSDOF 3
ENDMDL
MODEL 6
REMARK VINA RESULT:    -9.090      4.082     11.645
REMARK INTER + INTRA:         -11.136
REMARK INTER:                 -10.693
REMARK INTRA:                  -0.443
REMARK UNBOUND:                -0.452
REMARK  Name = /home/vital/Documents/PhD_2021/Malaria_codes/data/pdb_ligands_mmv/ligand_298.pdb
REMARK  3 active torsions:
REMARK  status: ('A' for Active; 'I' for Inactive)
REMARK    1  A    between atoms: C5_6  and  C7_8
REMARK    2  A    between atoms: N1_10  and  C8_11
REMARK    3  A    between atoms: C11_14  and  C14_17
REMARK                            x       y       z     vdW  Elec       q    Type
REMARK                         _______ _______ _______ _____ _____    ______ ____
ROOT
ATOM      1  C8  UNL     1     150.960 159.979 161.695  0.00  0.00    +0.034 A 
ATOM      2  C9  UNL     1     150.685 158.618 161.565  0.00  0.00    +0.024 A 
ATOM      3  C10 UNL     1     150.811 157.975 160.324  0.00  0.00    +0.013 A 
ATOM      4  C11 UNL     1     151.216 158.680 159.185  0.00  0.00    +0.017 A 
ATOM      5  C12 UNL     1     151.491 160.046 159.323  0.00  0.00    +0.013 A 
ATOM      6  C13 UNL     1     151.366 160.689 160.561  0.00  0.00    +0.024 A 
ENDROOT
BRANCH   4   7
ATOM      7  C14 UNL     1     151.362 158.051 157.866  0.00  0.00    +0.139 A 
ATOM      8  N2  UNL     1     150.867 156.878 157.511  0.00  0.00    -0.228 NA
ATOM      9  C15 UNL     1     151.237 156.679 156.204  0.00  0.00    +0.090 A 
ATOM     10  C16 UNL     1     150.974 155.601 155.350  0.00  0.00    +0.038 A 
ATOM     11  C17 UNL     1     151.468 155.628 154.033  0.00  0.00    -0.016 A 
ATOM     12  C18 UNL     1     151.221 154.562 153.154  0.00  0.00    +0.008 A 
ATOM     13  C19 UNL     1     151.709 154.583 151.846  0.00  0.00    +0.001 A 
ATOM     14  C20 UNL     1     152.451 155.673 151.401  0.00  0.00    +0.001 A 
ATOM     15  C21 UNL     1     152.706 156.742 152.261  0.00  0.00    +0.008 A 
ATOM     16  C22 UNL     1     152.224 156.738 153.579  0.00  0.00    -0.016 A 
ATOM     17  C23 UNL     1     152.489 157.822 154.437  0.00  0.00    +0.036 A 
ATOM     18  C24 UNL     1     151.979 157.751 155.736  0.00  0.00    +0.067 A 
ATOM     19  N3  UNL     1     152.044 158.606 156.804  0.00  0.00    -0.338 N 
ATOM     20  H16 UNL     1     152.517 159.497 156.810  0.00  0.00    +0.167 HD
ENDBRANCH   4   7
BRANCH   1  23
ATOM     21  C7  UNL     1     151.589 160.507 164.066  0.00  0.00    +0.248 C 
ATOM     22  O1  UNL     1     152.457 159.651 164.218  0.00  0.00    -0.270 OA
ATOM     23  N1  UNL     1     150.858 160.703 162.905  0.00  0.00    -0.282 N 
ATOM     24  H5  UNL     1     150.170 161.436 162.889  0.00  0.00    +0.155 HD
BRANCH  21  30
ATOM     25 BR1  UNL     1     148.119 163.427 167.034  0.00  0.00    -0.050 Br
ATOM     26  C1  UNL     1     149.844 162.759 166.636  0.00  0.00    +0.019 A 
ATOM     27  C2  UNL     1     150.920 163.113 167.447  0.00  0.00    +0.015 A 
ATOM     28  C3  UNL     1     152.188 162.622 167.155  0.00  0.00    +0.002 A 
ATOM     29  C4  UNL     1     152.372 161.781 166.054  0.00  0.00    +0.013 A 
ATOM     30  C5  UNL     1     151.292 161.417 165.228  0.00  0.00    +0.038 A 
ATOM     31  C6  UNL     1     150.019 161.917 165.532  0.00  0.00    +0.028 A 
ENDBRANCH  21  30
ENDBRANCH   1  23
TORSDOF 3
ENDMDL
MODEL 7
REMARK VINA RESULT:    -8.886      2.370      3.497
REMARK INTER + INTRA:         -10.897
REMARK INTER:                 -10.609
REMARK INTRA:                  -0.288
REMARK UNBOUND:                -0.452
REMARK  Name = /home/vital/Documents/PhD_2021/Malaria_codes/data/pdb_ligands_mmv/ligand_298.pdb
REMARK  3 active torsions:
REMARK  status: ('A' for Active; 'I' for Inactive)
REMARK    1  A    between atoms: C5_6  and  C7_8
REMARK    2  A    between atoms: N1_10  and  C8_11
REMARK    3  A    between atoms: C11_14  and  C14_17
REMARK                            x       y       z     vdW  Elec       q    Type
REMARK                         _______ _______ _______ _____ _____    ______ ____
ROOT
ATOM      1  C8  UNL     1     151.411 158.197 160.220  0.00  0.00    +0.034 A 
ATOM      2  C9  UNL     1     150.552 159.244 160.553  0.00  0.00    +0.024 A 
ATOM      3  C10 UNL     1     150.519 159.758 161.858  0.00  0.00    +0.013 A 
ATOM      4  C11 UNL     1     151.344 159.235 162.861  0.00  0.00    +0.017 A 
ATOM      5  C12 UNL     1     152.203 158.183 162.519  0.00  0.00    +0.013 A 
ATOM      6  C13 UNL     1     152.238 157.670 161.216  0.00  0.00    +0.024 A 
ENDROOT
BRANCH   4   7
ATOM      7  C14 UNL     1     151.344 159.738 164.240  0.00  0.00    +0.139 A 
ATOM      8  N2  UNL     1     150.722 160.825 164.665  0.00  0.00    -0.228 NA
ATOM      9  C15 UNL     1     150.984 160.922 166.008  0.00  0.00    +0.090 A 
ATOM     10  C16 UNL     1     150.568 161.884 166.938  0.00  0.00    +0.038 A 
ATOM     11  C17 UNL     1     150.973 161.767 168.280  0.00  0.00    -0.016 A 
ATOM     12  C18 UNL     1     150.572 162.715 169.234  0.00  0.00    +0.008 A 
ATOM     13  C19 UNL     1     150.971 162.604 170.567  0.00  0.00    +0.001 A 
ATOM     14  C20 UNL     1     151.777 161.542 170.963  0.00  0.00    +0.001 A 
ATOM     15  C21 UNL     1     152.185 160.589 170.029  0.00  0.00    +0.008 A 
ATOM     16  C22 UNL     1     151.794 160.684 168.683  0.00  0.00    -0.016 A 
ATOM     17  C23 UNL     1     152.212 159.717 167.750  0.00  0.00    +0.036 A 
ATOM     18  C24 UNL     1     151.786 159.875 166.429  0.00  0.00    +0.067 A 
ATOM     19  N3  UNL     1     152.000 159.139 165.293  0.00  0.00    -0.338 N 
ATOM     20  H16 UNL     1     152.550 158.296 165.240  0.00  0.00    +0.167 HD
ENDBRANCH   4   7
BRANCH   1  23
ATOM     21  C7  UNL     1     151.520 158.282 157.714  0.00  0.00    +0.248 C 
ATOM     22  O1  UNL     1     151.446 159.500 157.572  0.00  0.00    -0.270 OA
ATOM     23  N1  UNL     1     151.508 157.621 158.932  0.00  0.00    -0.282 N 
ATOM     24  H5  UNL     1     151.575 156.617 158.934  0.00  0.00    +0.155 HD
BRANCH  21  30
ATOM     25 BR1  UNL     1     153.532 157.374 152.765  0.00  0.00    -0.050 Br
ATOM     26  C1  UNL     1     152.462 156.915 154.256  0.00  0.00    +0.019 A 
ATOM     27  C2  UNL     1     151.724 155.734 154.231  0.00  0.00    +0.015 A 
ATOM     28  C3  UNL     1     150.937 155.396 155.327  0.00  0.00    +0.002 A 
ATOM     29  C4  UNL     1     150.892 156.241 156.439  0.00  0.00    +0.013 A 
ATOM     30  C5  UNL     1     151.633 157.438 156.474  0.00  0.00    +0.038 A 
ATOM     31  C6  UNL     1     152.423 157.768 155.365  0.00  0.00    +0.028 A 
ENDBRANCH  21  30
ENDBRANCH   1  23
TORSDOF 3
ENDMDL
MODEL 8
REMARK VINA RESULT:    -8.745     12.607     15.481
REMARK INTER + INTRA:         -10.731
REMARK INTER:                 -10.228
REMARK INTRA:                  -0.502
REMARK UNBOUND:                -0.452
REMARK  Name = /home/vital/Documents/PhD_2021/Malaria_codes/data/pdb_ligands_mmv/ligand_298.pdb
REMARK  3 active torsions:
REMARK  status: ('A' for Active; 'I' for Inactive)
REMARK    1  A    between atoms: C5_6  and  C7_8
REMARK    2  A    between atoms: N1_10  and  C8_11
REMARK    3  A    between atoms: C11_14  and  C14_17
REMARK                            x       y       z     vdW  Elec       q    Type
REMARK                         _______ _______ _______ _____ _____    ______ ____
ROOT
ATOM      1  C8  UNL     1     148.246 152.243 165.686  0.00  0.00    +0.034 A 
ATOM      2  C9  UNL     1     148.105 151.849 164.356  0.00  0.00    +0.024 A 
ATOM      3  C10 UNL     1     147.212 150.827 164.000  0.00  0.00    +0.013 A 
ATOM      4  C11 UNL     1     146.440 150.174 164.968  0.00  0.00    +0.017 A 
ATOM      5  C12 UNL     1     146.588 150.575 166.302  0.00  0.00    +0.013 A 
ATOM      6  C13 UNL     1     147.477 151.596 166.658  0.00  0.00    +0.024 A 
ENDROOT
BRANCH   4   7
ATOM      7  C14 UNL     1     145.494 149.099 164.645  0.00  0.00    +0.139 A 
ATOM      8  N2  UNL     1     144.213 149.259 164.357  0.00  0.00    -0.228 NA
ATOM      9  C15 UNL     1     143.709 148.004 164.121  0.00  0.00    +0.090 A 
ATOM     10  C16 UNL     1     142.410 147.608 163.777  0.00  0.00    +0.038 A 
ATOM     11  C17 UNL     1     142.134 146.241 163.586  0.00  0.00    -0.016 A 
ATOM     12  C18 UNL     1     140.843 145.814 163.240  0.00  0.00    +0.008 A 
ATOM     13  C19 UNL     1     140.563 144.460 163.049  0.00  0.00    +0.001 A 
ATOM     14  C20 UNL     1     141.573 143.515 163.200  0.00  0.00    +0.001 A 
ATOM     15  C21 UNL     1     142.863 143.922 163.543  0.00  0.00    +0.008 A 
ATOM     16  C22 UNL     1     143.164 145.279 163.740  0.00  0.00    -0.016 A 
ATOM     17  C23 UNL     1     144.469 145.676 164.085  0.00  0.00    +0.036 A 
ATOM     18  C24 UNL     1     144.696 147.043 164.266  0.00  0.00    +0.067 A 
ATOM     19  N3  UNL     1     145.816 147.760 164.597  0.00  0.00    -0.338 N 
ATOM     20  H16 UNL     1     146.727 147.367 164.776  0.00  0.00    +0.167 HD
ENDBRANCH   4   7
BRANCH   1  23
ATOM     21  C7  UNL     1     150.416 153.114 166.596  0.00  0.00    +0.248 C 
ATOM     22  O1  UNL     1     151.013 152.045 166.694  0.00  0.00    -0.270 OA
ATOM     23  N1  UNL     1     149.119 153.262 166.130  0.00  0.00    -0.282 N 
ATOM     24  H5  UNL     1     148.727 154.188 166.090  0.00  0.00    +0.155 HD
BRANCH  21  30
ATOM     25 BR1  UNL     1     150.646 158.498 167.173  0.00  0.00    -0.050 Br
ATOM     26  C1  UNL     1     151.373 156.757 167.322  0.00  0.00    +0.019 A 
ATOM     27  C2  UNL     1     152.655 156.593 167.843  0.00  0.00    +0.015 A 
ATOM     28  C3  UNL     1     153.190 155.314 167.952  0.00  0.00    +0.002 A 
ATOM     29  C4  UNL     1     152.440 154.209 167.540  0.00  0.00    +0.013 A 
ATOM     30  C5  UNL     1     151.145 154.363 167.012  0.00  0.00    +0.038 A 
ATOM     31  C6  UNL     1     150.615 155.656 166.907  0.00  0.00    +0.028 A 
ENDBRANCH  21  30
ENDBRANCH   1  23
TORSDOF 3
ENDMDL
MODEL 9
REMARK VINA RESULT:    -8.534      9.113     10.610
REMARK INTER + INTRA:         -10.482
REMARK INTER:                 -10.304
REMARK INTRA:                  -0.178
REMARK UNBOUND:                -0.452
REMARK  Name = /home/vital/Documents/PhD_2021/Malaria_codes/data/pdb_ligands_mmv/ligand_298.pdb
REMARK  3 active torsions:
REMARK  status: ('A' for Active; 'I' for Inactive)
REMARK    1  A    between atoms: C5_6  and  C7_8
REMARK    2  A    between atoms: N1_10  and  C8_11
REMARK    3  A    between atoms: C11_14  and  C14_17
REMARK                            x       y       z     vdW  Elec       q    Type
REMARK                         _______ _______ _______ _____ _____    ______ ____
ROOT
ATOM      1  C8  UNL     1     148.228 151.982 164.875  0.00  0.00    +0.034 A 
ATOM      2  C9  UNL     1     148.586 152.818 163.817  0.00  0.00    +0.024 A 
ATOM      3  C10 UNL     1     149.292 154.008 164.049  0.00  0.00    +0.013 A 
ATOM      4  C11 UNL     1     149.656 154.389 165.346  0.00  0.00    +0.017 A 
ATOM      5  C12 UNL     1     149.293 153.545 166.403  0.00  0.00    +0.013 A 
ATOM      6  C13 UNL     1     148.589 152.357 166.173  0.00  0.00    +0.024 A 
ENDROOT
BRANCH   4   7
ATOM      7  C14 UNL     1     150.394 155.624 165.639  0.00  0.00    +0.139 A 
ATOM      8  N2  UNL     1     150.830 156.494 164.743  0.00  0.00    -0.228 NA
ATOM      9  C15 UNL     1     151.461 157.491 165.444  0.00  0.00    +0.090 A 
ATOM     10  C16 UNL     1     152.097 158.650 164.982  0.00  0.00    +0.038 A 
ATOM     11  C17 UNL     1     152.680 159.534 165.909  0.00  0.00    -0.016 A 
ATOM     12  C18 UNL     1     153.324 160.703 165.476  0.00  0.00    +0.008 A 
ATOM     13  C19 UNL     1     153.903 161.583 166.392  0.00  0.00    +0.001 A 
ATOM     14  C20 UNL     1     153.845 161.304 167.753  0.00  0.00    +0.001 A 
ATOM     15  C21 UNL     1     153.207 160.147 168.202  0.00  0.00    +0.008 A 
ATOM     16  C22 UNL     1     152.619 159.250 167.297  0.00  0.00    -0.016 A 
ATOM     17  C23 UNL     1     151.979 158.086 167.762  0.00  0.00    +0.036 A 
ATOM     18  C24 UNL     1     151.417 157.238 166.804  0.00  0.00    +0.067 A 
ATOM     19  N3  UNL     1     150.737 156.052 166.904  0.00  0.00    -0.338 N 
ATOM     20  H16 UNL     1     150.524 155.572 167.764  0.00  0.00    +0.167 HD
ENDBRANCH   4   7
BRANCH   1  23
ATOM     21  C7  UNL     1     146.580 150.453 163.759  0.00  0.00    +0.248 C 
ATOM     22  O1  UNL     1     146.218 151.204 162.857  0.00  0.00    -0.270 OA
ATOM     23  N1  UNL     1     147.518 150.768 164.730  0.00  0.00    -0.282 N 
ATOM     24  H5  UNL     1     147.741 150.075 165.424  0.00  0.00    +0.155 HD
BRANCH  21  30
ATOM     25 BR1  UNL     1     142.246 147.225 164.164  0.00  0.00    -0.050 Br
ATOM     26  C1  UNL     1     144.106 147.532 163.994  0.00  0.00    +0.019 A 
ATOM     27  C2  UNL     1     144.974 146.445 163.919  0.00  0.00    +0.015 A 
ATOM     28  C3  UNL     1     146.341 146.670 163.794  0.00  0.00    +0.002 A 
ATOM     29  C4  UNL     1     146.830 147.979 163.745  0.00  0.00    +0.013 A 
ATOM     30  C5  UNL     1     145.961 149.083 163.820  0.00  0.00    +0.038 A 
ATOM     31  C6  UNL     1     144.585 148.845 163.945  0.00  0.00    +0.028 A 
ENDBRANCH  21  30
ENDBRANCH   1  23
TORSDOF 3
ENDMDL
