MODEL 1
REMARK VINA RESULT:    -4.950      0.000      0.000
REMARK INTER + INTRA:          -8.589
REMARK INTER:                  -7.265
REMARK INTRA:                  -1.324
REMARK UNBOUND:                -1.324
REMARK  Name = /home/vital/Documents/PhD_2021/Malaria_codes/data/pdb_ligands_mmv/ligand_93.pdb
REMARK  9 active torsions:
REMARK  status: ('A' for Active; 'I' for Inactive)
REMARK    1  A    between atoms: C1_1  and  O1_2
REMARK    2  A    between atoms: O1_2  and  C2_3
REMARK    3  A    between atoms: C2_3  and  C3_4
REMARK    4  A    between atoms: C3_4  and  N1_5
REMARK    5  A    between atoms: C4_6  and  C5_8
REMARK    6  A    between atoms: C8_11  and  O3_12
REMARK    7  A    between atoms: O3_12  and  C9_13
REMARK    8  A    between atoms: N2_16  and  C12_17
REMARK    9  A    between atoms: C12_17  and  C13_18
REMARK                            x       y       z     vdW  Elec       q    Type
REMARK                         _______ _______ _______ _____ _____    ______ ____
ROOT
ATOM      1  O3  UNL     1     150.037 157.925 159.663  0.00  0.00    -0.487 OA
ENDROOT
BRANCH   1   5
ATOM      2  C5  UNL     1     151.486 156.105 156.195  0.00  0.00    +0.038 A 
ATOM      3  C6  UNL     1     151.117 157.456 156.169  0.00  0.00    +0.017 A 
ATOM      4  C7  UNL     1     150.644 158.084 157.325  0.00  0.00    +0.048 A 
ATOM      5  C8  UNL     1     150.543 157.368 158.519  0.00  0.00    +0.139 A 
ATOM      6  C21 UNL     1     150.879 156.010 158.536  0.00  0.00    +0.083 A 
ATOM      7 CL1  UNL     1     150.736 155.069 159.979  0.00  0.00    -0.080 Cl
ATOM      8  C22 UNL     1     151.353 155.377 157.382  0.00  0.00    +0.036 A 
BRANCH   2  10
ATOM      9  N1  UNL     1     153.064 156.068 154.333  0.00  0.00    -0.309 N 
ATOM     10  C4  UNL     1     151.974 155.477 154.934  0.00  0.00    +0.244 C 
ATOM     11  O2  UNL     1     151.394 154.502 154.467  0.00  0.00    -0.270 OA
ATOM     12  H8  UNL     1     153.265 157.038 154.545  0.00  0.00    +0.149 HD
BRANCH   9  13
ATOM     13  C3  UNL     1     153.516 155.633 153.022  0.00  0.00    +0.132 C 
BRANCH  13  14
ATOM     14  C2  UNL     1     153.359 156.747 151.990  0.00  0.00    +0.178 C 
BRANCH  14  16
ATOM     15  C1  UNL     1     151.703 155.509 150.850  0.00  0.00    +0.194 C 
ATOM     16  O1  UNL     1     152.010 156.735 151.503  0.00  0.00    -0.381 OA
ENDBRANCH  14  16
ENDBRANCH  13  14
ENDBRANCH   9  13
ENDBRANCH   2  10
ENDBRANCH   1   5
BRANCH   1  17
ATOM     17  C9  UNL     1     150.768 159.040 160.201  0.00  0.00    +0.176 C 
ATOM     18  C10 UNL     1     149.769 160.005 160.851  0.00  0.00    +0.060 C 
ATOM     19  C11 UNL     1     150.342 160.628 162.120  0.00  0.00    +0.088 C 
ATOM     20  N2  UNL     1     150.619 159.611 163.146  0.00  0.00    -0.298 NA
ATOM     21  C19 UNL     1     151.123 158.343 162.595  0.00  0.00    +0.088 C 
ATOM     22  C20 UNL     1     151.770 158.487 161.221  0.00  0.00    +0.060 C 
BRANCH  20  23
ATOM     23  C12 UNL     1     151.481 160.125 164.221  0.00  0.00    +0.119 C 
BRANCH  23  24
ATOM     24  C13 UNL     1     150.923 159.870 165.607  0.00  0.00    -0.030 A 
ATOM     25  C14 UNL     1     151.478 158.869 166.425  0.00  0.00    +0.008 A 
ATOM     26  C15 UNL     1     150.975 158.636 167.708  0.00  0.00    +0.041 A 
ATOM     27  C16 UNL     1     149.921 159.409 168.179  0.00  0.00    +0.158 A 
ATOM     28  F1  UNL     1     149.443 159.186 169.413  0.00  0.00    -0.202 F 
ATOM     29  C17 UNL     1     149.366 160.400 167.381  0.00  0.00    +0.159 A 
ATOM     30  F2  UNL     1     148.347 161.144 167.838  0.00  0.00    -0.202 F 
ATOM     31  C18 UNL     1     149.858 160.639 166.101  0.00  0.00    +0.046 A 
ENDBRANCH  23  24
ENDBRANCH  20  23
ENDBRANCH   1  17
TORSDOF 8
ENDMDL
MODEL 2
REMARK VINA RESULT:    -4.761      5.712     11.907
REMARK INTER + INTRA:          -8.311
REMARK INTER:                  -7.230
REMARK INTRA:                  -1.082
REMARK UNBOUND:                -1.324
REMARK  Name = /home/vital/Documents/PhD_2021/Malaria_codes/data/pdb_ligands_mmv/ligand_93.pdb
REMARK  9 active torsions:
REMARK  status: ('A' for Active; 'I' for Inactive)
REMARK    1  A    between atoms: C1_1  and  O1_2
REMARK    2  A    between atoms: O1_2  and  C2_3
REMARK    3  A    between atoms: C2_3  and  C3_4
REMARK    4  A    between atoms: C3_4  and  N1_5
REMARK    5  A    between atoms: C4_6  and  C5_8
REMARK    6  A    between atoms: C8_11  and  O3_12
REMARK    7  A    between atoms: O3_12  and  C9_13
REMARK    8  A    between atoms: N2_16  and  C12_17
REMARK    9  A    between atoms: C12_17  and  C13_18
REMARK                            x       y       z     vdW  Elec       q    Type
REMARK                         _______ _______ _______ _____ _____    ______ ____
ROOT
ATOM      1  O3  UNL     1     152.068 160.194 162.451  0.00  0.00    -0.487 OA
ENDROOT
BRANCH   1   5
ATOM      2  C5  UNL     1     152.003 162.151 166.140  0.00  0.00    +0.038 A 
ATOM      3  C6  UNL     1     151.611 162.836 164.982  0.00  0.00    +0.017 A 
ATOM      4  C7  UNL     1     151.613 162.191 163.742  0.00  0.00    +0.048 A 
ATOM      5  C8  UNL     1     151.999 160.853 163.649  0.00  0.00    +0.139 A 
ATOM      6  C21 UNL     1     152.424 160.180 164.800  0.00  0.00    +0.083 A 
ATOM      7 CL1  UNL     1     152.950 158.534 164.733  0.00  0.00    -0.080 Cl
ATOM      8  C22 UNL     1     152.425 160.820 166.043  0.00  0.00    +0.036 A 
BRANCH   2  10
ATOM      9  N1  UNL     1     153.126 162.770 168.216  0.00  0.00    -0.309 N 
ATOM     10  C4  UNL     1     151.996 162.886 167.436  0.00  0.00    +0.244 C 
ATOM     11  O2  UNL     1     151.008 163.529 167.774  0.00  0.00    -0.270 OA
ATOM     12  H8  UNL     1     153.732 161.971 168.072  0.00  0.00    +0.149 HD
BRANCH   9  13
ATOM     13  C3  UNL     1     153.157 163.312 169.565  0.00  0.00    +0.132 C 
BRANCH  13  14
ATOM     14  C2  UNL     1     153.603 162.254 170.571  0.00  0.00    +0.178 C 
BRANCH  14  16
ATOM     15  C1  UNL     1     151.534 161.229 171.068  0.00  0.00    +0.194 C 
ATOM     16  O1  UNL     1     152.566 162.084 171.547  0.00  0.00    -0.381 OA
ENDBRANCH  14  16
ENDBRANCH  13  14
ENDBRANCH   9  13
ENDBRANCH   2  10
ENDBRANCH   1   5
BRANCH   1  17
ATOM     17  C9  UNL     1     151.320 160.773 161.368  0.00  0.00    +0.176 C 
ATOM     18  C10 UNL     1     152.300 161.153 160.252  0.00  0.00    +0.060 C 
ATOM     19  C11 UNL     1     151.700 160.900 158.872  0.00  0.00    +0.088 C 
ATOM     20  N2  UNL     1     151.410 159.473 158.661  0.00  0.00    -0.298 NA
ATOM     21  C19 UNL     1     150.924 158.787 159.869  0.00  0.00    +0.088 C 
ATOM     22  C20 UNL     1     150.302 159.726 160.898  0.00  0.00    +0.060 C 
BRANCH  20  23
ATOM     23  C12 UNL     1     150.525 159.249 157.508  0.00  0.00    +0.119 C 
BRANCH  23  24
ATOM     24  C13 UNL     1     150.961 158.088 156.637  0.00  0.00    -0.030 A 
ATOM     25  C14 UNL     1     150.260 156.868 156.672  0.00  0.00    +0.008 A 
ATOM     26  C15 UNL     1     150.651 155.798 155.863  0.00  0.00    +0.041 A 
ATOM     27  C16 UNL     1     151.739 155.945 155.012  0.00  0.00    +0.158 A 
ATOM     28  F1  UNL     1     152.109 154.917 154.234  0.00  0.00    -0.202 F 
ATOM     29  C17 UNL     1     152.438 157.145 154.968  0.00  0.00    +0.159 A 
ATOM     30  F2  UNL     1     153.489 157.284 154.147  0.00  0.00    -0.202 F 
ATOM     31  C18 UNL     1     152.058 158.217 155.772  0.00  0.00    +0.046 A 
ENDBRANCH  23  24
ENDBRANCH  20  23
ENDBRANCH   1  17
TORSDOF 8
ENDMDL
MODEL 3
REMARK VINA RESULT:    -4.713      1.351      2.046
REMARK INTER + INTRA:          -8.241
REMARK INTER:                  -7.112
REMARK INTRA:                  -1.129
REMARK UNBOUND:                -1.324
REMARK  Name = /home/vital/Documents/PhD_2021/Malaria_codes/data/pdb_ligands_mmv/ligand_93.pdb
REMARK  9 active torsions:
REMARK  status: ('A' for Active; 'I' for Inactive)
REMARK    1  A    between atoms: C1_1  and  O1_2
REMARK    2  A    between atoms: O1_2  and  C2_3
REMARK    3  A    between atoms: C2_3  and  C3_4
REMARK    4  A    between atoms: C3_4  and  N1_5
REMARK    5  A    between atoms: C4_6  and  C5_8
REMARK    6  A    between atoms: C8_11  and  O3_12
REMARK    7  A    between atoms: O3_12  and  C9_13
REMARK    8  A    between atoms: N2_16  and  C12_17
REMARK    9  A    between atoms: C12_17  and  C13_18
REMARK                            x       y       z     vdW  Elec       q    Type
REMARK                         _______ _______ _______ _____ _____    ______ ____
ROOT
ATOM      1  O3  UNL     1     150.558 158.741 159.518  0.00  0.00    -0.487 OA
ENDROOT
BRANCH   1   5
ATOM      2  C5  UNL     1     151.670 156.419 156.230  0.00  0.00    +0.038 A 
ATOM      3  C6  UNL     1     151.569 157.810 156.097  0.00  0.00    +0.017 A 
ATOM      4  C7  UNL     1     151.212 158.603 157.191  0.00  0.00    +0.048 A 
ATOM      5  C8  UNL     1     150.961 158.013 158.431  0.00  0.00    +0.139 A 
ATOM      6  C21 UNL     1     151.029 156.620 158.555  0.00  0.00    +0.083 A 
ATOM      7 CL1  UNL     1     150.689 155.837 160.058  0.00  0.00    -0.080 Cl
ATOM      8  C22 UNL     1     151.385 155.823 157.463  0.00  0.00    +0.036 A 
BRANCH   2  10
ATOM      9  N1  UNL     1     153.159 156.027 154.337  0.00  0.00    -0.309 N 
ATOM     10  C4  UNL     1     152.042 155.616 155.031  0.00  0.00    +0.244 C 
ATOM     11  O2  UNL     1     151.352 154.661 154.692  0.00  0.00    -0.270 OA
ATOM     12  H8  UNL     1     153.462 156.989 154.434  0.00  0.00    +0.149 HD
BRANCH   9  13
ATOM     13  C3  UNL     1     153.513 155.413 153.067  0.00  0.00    +0.132 C 
BRANCH  13  14
ATOM     14  C2  UNL     1     153.524 156.445 151.942  0.00  0.00    +0.178 C 
BRANCH  14  16
ATOM     15  C1  UNL     1     151.686 155.293 151.010  0.00  0.00    +0.194 C 
ATOM     16  O1  UNL     1     152.197 156.559 151.411  0.00  0.00    -0.381 OA
ENDBRANCH  14  16
ENDBRANCH  13  14
ENDBRANCH   9  13
ENDBRANCH   2  10
ENDBRANCH   1   5
BRANCH   1  17
ATOM     17  C9  UNL     1     151.602 159.374 160.278  0.00  0.00    +0.176 C 
ATOM     18  C10 UNL     1     151.434 160.893 160.158  0.00  0.00    +0.060 C 
ATOM     19  C11 UNL     1     151.776 161.596 161.469  0.00  0.00    +0.088 C 
ATOM     20  N2  UNL     1     150.868 161.193 162.553  0.00  0.00    -0.298 NA
ATOM     21  C19 UNL     1     150.482 159.773 162.499  0.00  0.00    +0.088 C 
ATOM     22  C20 UNL     1     151.469 158.899 161.730  0.00  0.00    +0.060 C 
BRANCH  20  23
ATOM     23  C12 UNL     1     151.379 161.572 163.879  0.00  0.00    +0.119 C 
BRANCH  23  24
ATOM     24  C13 UNL     1     150.283 161.947 164.856  0.00  0.00    -0.030 A 
ATOM     25  C14 UNL     1     149.629 163.189 164.750  0.00  0.00    +0.008 A 
ATOM     26  C15 UNL     1     148.610 163.536 165.641  0.00  0.00    +0.041 A 
ATOM     27  C16 UNL     1     148.238 162.641 166.636  0.00  0.00    +0.158 A 
ATOM     28  F1  UNL     1     147.257 162.976 167.488  0.00  0.00    -0.202 F 
ATOM     29  C17 UNL     1     148.875 161.413 166.751  0.00  0.00    +0.159 A 
ATOM     30  F2  UNL     1     148.515 160.551 167.713  0.00  0.00    -0.202 F 
ATOM     31  C18 UNL     1     149.893 161.058 165.869  0.00  0.00    +0.046 A 
ENDBRANCH  23  24
ENDBRANCH  20  23
ENDBRANCH   1  17
TORSDOF 8
ENDMDL
MODEL 4
REMARK VINA RESULT:    -4.701      5.439     11.528
REMARK INTER + INTRA:          -8.224
REMARK INTER:                  -7.066
REMARK INTRA:                  -1.157
REMARK UNBOUND:                -1.324
REMARK  Name = /home/vital/Documents/PhD_2021/Malaria_codes/data/pdb_ligands_mmv/ligand_93.pdb
REMARK  9 active torsions:
REMARK  status: ('A' for Active; 'I' for Inactive)
REMARK    1  A    between atoms: C1_1  and  O1_2
REMARK    2  A    between atoms: O1_2  and  C2_3
REMARK    3  A    between atoms: C2_3  and  C3_4
REMARK    4  A    between atoms: C3_4  and  N1_5
REMARK    5  A    between atoms: C4_6  and  C5_8
REMARK    6  A    between atoms: C8_11  and  O3_12
REMARK    7  A    between atoms: O3_12  and  C9_13
REMARK    8  A    between atoms: N2_16  and  C12_17
REMARK    9  A    between atoms: C12_17  and  C13_18
REMARK                            x       y       z     vdW  Elec       q    Type
REMARK                         _______ _______ _______ _____ _____    ______ ____
ROOT
ATOM      1  O3  UNL     1     152.437 160.721 162.229  0.00  0.00    -0.487 OA
ENDROOT
BRANCH   1   5
ATOM      2  C5  UNL     1     151.308 161.192 166.222  0.00  0.00    +0.038 A 
ATOM      3  C6  UNL     1     151.177 162.265 165.331  0.00  0.00    +0.017 A 
ATOM      4  C7  UNL     1     151.537 162.120 163.988  0.00  0.00    +0.048 A 
ATOM      5  C8  UNL     1     152.023 160.897 163.522  0.00  0.00    +0.139 A 
ATOM      6  C21 UNL     1     152.187 159.836 164.420  0.00  0.00    +0.083 A 
ATOM      7 CL1  UNL     1     152.822 158.314 163.902  0.00  0.00    -0.080 Cl
ATOM      8  C22 UNL     1     151.829 159.977 165.765  0.00  0.00    +0.036 A 
BRANCH   2  10
ATOM      9  N1  UNL     1     151.923 161.813 168.501  0.00  0.00    -0.309 N 
ATOM     10  C4  UNL     1     150.923 161.401 167.647  0.00  0.00    +0.244 C 
ATOM     11  O2  UNL     1     149.773 161.181 168.012  0.00  0.00    -0.270 OA
ATOM     12  H8  UNL     1     152.885 161.630 168.242  0.00  0.00    +0.149 HD
BRANCH   9  13
ATOM     13  C3  UNL     1     151.691 161.889 169.934  0.00  0.00    +0.132 C 
BRANCH  13  14
ATOM     14  C2  UNL     1     152.742 161.092 170.703  0.00  0.00    +0.178 C 
BRANCH  14  16
ATOM     15  C1  UNL     1     154.713 160.446 169.573  0.00  0.00    +0.194 C 
ATOM     16  O1  UNL     1     153.342 160.144 169.810  0.00  0.00    -0.381 OA
ENDBRANCH  14  16
ENDBRANCH  13  14
ENDBRANCH   9  13
ENDBRANCH   2  10
ENDBRANCH   1   5
BRANCH   1  17
ATOM     17  C9  UNL     1     151.522 161.155 161.208  0.00  0.00    +0.176 C 
ATOM     18  C10 UNL     1     152.334 161.573 159.977  0.00  0.00    +0.060 C 
ATOM     19  C11 UNL     1     151.627 161.179 158.683  0.00  0.00    +0.088 C 
ATOM     20  N2  UNL     1     151.479 159.720 158.569  0.00  0.00    -0.298 NA
ATOM     21  C19 UNL     1     151.199 159.056 159.852  0.00  0.00    +0.088 C 
ATOM     22  C20 UNL     1     150.585 159.980 160.899  0.00  0.00    +0.060 C 
BRANCH  20  23
ATOM     23  C12 UNL     1     150.510 159.338 157.530  0.00  0.00    +0.119 C 
BRANCH  23  24
ATOM     24  C13 UNL     1     150.924 158.103 156.753  0.00  0.00    -0.030 A 
ATOM     25  C14 UNL     1     150.137 156.938 156.797  0.00  0.00    +0.008 A 
ATOM     26  C15 UNL     1     150.507 155.801 156.075  0.00  0.00    +0.041 A 
ATOM     27  C16 UNL     1     151.660 155.827 155.302  0.00  0.00    +0.158 A 
ATOM     28  F1  UNL     1     152.011 154.734 154.606  0.00  0.00    -0.202 F 
ATOM     29  C17 UNL     1     152.445 156.972 155.250  0.00  0.00    +0.159 A 
ATOM     30  F2  UNL     1     153.559 156.994 154.504  0.00  0.00    -0.202 F 
ATOM     31  C18 UNL     1     152.086 158.110 155.968  0.00  0.00    +0.046 A 
ENDBRANCH  23  24
ENDBRANCH  20  23
ENDBRANCH   1  17
TORSDOF 8
ENDMDL
MODEL 5
REMARK VINA RESULT:    -4.494      2.799      3.364
REMARK INTER + INTRA:          -7.919
REMARK INTER:                  -7.242
REMARK INTRA:                  -0.677
REMARK UNBOUND:                -1.324
REMARK  Name = /home/vital/Documents/PhD_2021/Malaria_codes/data/pdb_ligands_mmv/ligand_93.pdb
REMARK  9 active torsions:
REMARK  status: ('A' for Active; 'I' for Inactive)
REMARK    1  A    between atoms: C1_1  and  O1_2
REMARK    2  A    between atoms: O1_2  and  C2_3
REMARK    3  A    between atoms: C2_3  and  C3_4
REMARK    4  A    between atoms: C3_4  and  N1_5
REMARK    5  A    between atoms: C4_6  and  C5_8
REMARK    6  A    between atoms: C8_11  and  O3_12
REMARK    7  A    between atoms: O3_12  and  C9_13
REMARK    8  A    between atoms: N2_16  and  C12_17
REMARK    9  A    between atoms: C12_17  and  C13_18
REMARK                            x       y       z     vdW  Elec       q    Type
REMARK                         _______ _______ _______ _____ _____    ______ ____
ROOT
ATOM      1  O3  UNL     1     151.736 159.541 160.686  0.00  0.00    -0.487 OA
ENDROOT
BRANCH   1   5
ATOM      2  C5  UNL     1     151.114 156.976 157.448  0.00  0.00    +0.038 A 
ATOM      3  C6  UNL     1     151.032 156.479 158.755  0.00  0.00    +0.017 A 
ATOM      4  C7  UNL     1     151.224 157.327 159.850  0.00  0.00    +0.048 A 
ATOM      5  C8  UNL     1     151.490 158.682 159.648  0.00  0.00    +0.139 A 
ATOM      6  C21 UNL     1     151.606 159.171 158.341  0.00  0.00    +0.083 A 
ATOM      7 CL1  UNL     1     151.974 160.833 158.037  0.00  0.00    -0.080 Cl
ATOM      8  C22 UNL     1     151.416 158.327 157.243  0.00  0.00    +0.036 A 
BRANCH   2  10
ATOM      9  N1  UNL     1     152.024 155.742 155.550  0.00  0.00    -0.309 N 
ATOM     10  C4  UNL     1     150.914 156.030 156.314  0.00  0.00    +0.244 C 
ATOM     11  O2  UNL     1     149.801 155.571 156.084  0.00  0.00    -0.270 OA
ATOM     12  H8  UNL     1     152.795 156.399 155.552  0.00  0.00    +0.149 HD
BRANCH   9  13
ATOM     13  C3  UNL     1     151.904 154.961 154.329  0.00  0.00    +0.132 C 
BRANCH  13  14
ATOM     14  C2  UNL     1     152.952 155.384 153.303  0.00  0.00    +0.178 C 
BRANCH  14  16
ATOM     15  C1  UNL     1     151.429 155.066 151.526  0.00  0.00    +0.194 C 
ATOM     16  O1  UNL     1     152.284 155.991 152.189  0.00  0.00    -0.381 OA
ENDBRANCH  14  16
ENDBRANCH  13  14
ENDBRANCH   9  13
ENDBRANCH   2  10
ENDBRANCH   1   5
BRANCH   1  17
ATOM     17  C9  UNL     1     151.009 159.289 161.900  0.00  0.00    +0.176 C 
ATOM     18  C10 UNL     1     151.913 158.493 162.849  0.00  0.00    +0.060 C 
ATOM     19  C11 UNL     1     151.715 158.924 164.299  0.00  0.00    +0.088 C 
ATOM     20  N2  UNL     1     152.090 160.333 164.502  0.00  0.00    -0.298 NA
ATOM     21  C19 UNL     1     151.739 161.203 163.367  0.00  0.00    +0.088 C 
ATOM     22  C20 UNL     1     150.618 160.648 162.494  0.00  0.00    +0.060 C 
BRANCH  20  23
ATOM     23  C12 UNL     1     151.587 160.865 165.777  0.00  0.00    +0.119 C 
BRANCH  23  24
ATOM     24  C13 UNL     1     152.604 160.786 166.899  0.00  0.00    -0.030 A 
ATOM     25  C14 UNL     1     152.361 159.977 168.024  0.00  0.00    +0.008 A 
ATOM     26  C15 UNL     1     153.299 159.891 169.056  0.00  0.00    +0.041 A 
ATOM     27  C16 UNL     1     154.485 160.608 168.963  0.00  0.00    +0.158 A 
ATOM     28  F1  UNL     1     155.386 160.521 169.954  0.00  0.00    -0.202 F 
ATOM     29  C17 UNL     1     154.736 161.410 167.857  0.00  0.00    +0.159 A 
ATOM     30  F2  UNL     1     155.882 162.102 167.770  0.00  0.00    -0.202 F 
ATOM     31  C18 UNL     1     153.807 161.504 166.824  0.00  0.00    +0.046 A 
ENDBRANCH  23  24
ENDBRANCH  20  23
ENDBRANCH   1  17
TORSDOF 8
ENDMDL
MODEL 6
REMARK VINA RESULT:    -4.486      2.868      3.914
REMARK INTER + INTRA:          -7.908
REMARK INTER:                  -6.878
REMARK INTRA:                  -1.030
REMARK UNBOUND:                -1.324
REMARK  Name = /home/vital/Documents/PhD_2021/Malaria_codes/data/pdb_ligands_mmv/ligand_93.pdb
REMARK  9 active torsions:
REMARK  status: ('A' for Active; 'I' for Inactive)
REMARK    1  A    between atoms: C1_1  and  O1_2
REMARK    2  A    between atoms: O1_2  and  C2_3
REMARK    3  A    between atoms: C2_3  and  C3_4
REMARK    4  A    between atoms: C3_4  and  N1_5
REMARK    5  A    between atoms: C4_6  and  C5_8
REMARK    6  A    between atoms: C8_11  and  O3_12
REMARK    7  A    between atoms: O3_12  and  C9_13
REMARK    8  A    between atoms: N2_16  and  C12_17
REMARK    9  A    between atoms: C12_17  and  C13_18
REMARK                            x       y       z     vdW  Elec       q    Type
REMARK                         _______ _______ _______ _____ _____    ______ ____
ROOT
ATOM      1  O3  UNL     1     150.596 157.950 163.147  0.00  0.00    -0.487 OA
ENDROOT
BRANCH   1   5
ATOM      2  C5  UNL     1     150.967 156.826 159.142  0.00  0.00    +0.038 A 
ATOM      3  C6  UNL     1     151.291 155.913 160.153  0.00  0.00    +0.017 A 
ATOM      4  C7  UNL     1     151.159 156.268 161.499  0.00  0.00    +0.048 A 
ATOM      5  C8  UNL     1     150.693 157.538 161.845  0.00  0.00    +0.139 A 
ATOM      6  C21 UNL     1     150.402 158.462 160.834  0.00  0.00    +0.083 A 
ATOM      7 CL1  UNL     1     149.860 160.060 161.211  0.00  0.00    -0.080 Cl
ATOM      8  C22 UNL     1     150.534 158.111 159.487  0.00  0.00    +0.036 A 
BRANCH   2  10
ATOM      9  N1  UNL     1     152.370 156.640 157.154  0.00  0.00    -0.309 N 
ATOM     10  C4  UNL     1     151.137 156.405 157.722  0.00  0.00    +0.244 C 
ATOM     11  O2  UNL     1     150.199 155.902 157.113  0.00  0.00    -0.270 OA
ATOM     12  H8  UNL     1     152.960 157.356 157.559  0.00  0.00    +0.149 HD
BRANCH   9  13
ATOM     13  C3  UNL     1     152.588 156.415 155.734  0.00  0.00    +0.132 C 
BRANCH  13  14
ATOM     14  C2  UNL     1     152.492 157.721 154.951  0.00  0.00    +0.178 C 
BRANCH  14  16
ATOM     15  C1  UNL     1     153.224 156.208 153.293  0.00  0.00    +0.194 C 
ATOM     16  O1  UNL     1     153.198 157.567 153.712  0.00  0.00    -0.381 OA
ENDBRANCH  14  16
ENDBRANCH  13  14
ENDBRANCH   9  13
ENDBRANCH   2  10
ENDBRANCH   1   5
BRANCH   1  17
ATOM     17  C9  UNL     1     151.834 158.061 163.869  0.00  0.00    +0.176 C 
ATOM     18  C10 UNL     1     151.956 159.493 164.403  0.00  0.00    +0.060 C 
ATOM     19  C11 UNL     1     152.598 159.519 165.787  0.00  0.00    +0.088 C 
ATOM     20  N2  UNL     1     151.777 158.807 166.778  0.00  0.00    -0.298 NA
ATOM     21  C19 UNL     1     151.114 157.607 166.240  0.00  0.00    +0.088 C 
ATOM     22  C20 UNL     1     151.801 157.031 165.005  0.00  0.00    +0.060 C 
BRANCH  20  23
ATOM     23  C12 UNL     1     152.522 158.515 168.013  0.00  0.00    +0.119 C 
BRANCH  23  24
ATOM     24  C13 UNL     1     152.764 159.744 168.868  0.00  0.00    -0.030 A 
ATOM     25  C14 UNL     1     154.075 160.179 169.134  0.00  0.00    +0.008 A 
ATOM     26  C15 UNL     1     154.304 161.317 169.912  0.00  0.00    +0.041 A 
ATOM     27  C16 UNL     1     153.224 162.026 170.421  0.00  0.00    +0.158 A 
ATOM     28  F1  UNL     1     153.447 163.120 171.164  0.00  0.00    -0.202 F 
ATOM     29  C17 UNL     1     151.925 161.606 170.165  0.00  0.00    +0.159 A 
ATOM     30  F2  UNL     1     150.883 162.292 170.658  0.00  0.00    -0.202 F 
ATOM     31  C18 UNL     1     151.685 160.473 169.392  0.00  0.00    +0.046 A 
ENDBRANCH  23  24
ENDBRANCH  20  23
ENDBRANCH   1  17
TORSDOF 8
ENDMDL
MODEL 7
REMARK VINA RESULT:    -4.421      2.651      3.480
REMARK INTER + INTRA:          -7.812
REMARK INTER:                  -6.790
REMARK INTRA:                  -1.022
REMARK UNBOUND:                -1.324
REMARK  Name = /home/vital/Documents/PhD_2021/Malaria_codes/data/pdb_ligands_mmv/ligand_93.pdb
REMARK  9 active torsions:
REMARK  status: ('A' for Active; 'I' for Inactive)
REMARK    1  A    between atoms: C1_1  and  O1_2
REMARK    2  A    between atoms: O1_2  and  C2_3
REMARK    3  A    between atoms: C2_3  and  C3_4
REMARK    4  A    between atoms: C3_4  and  N1_5
REMARK    5  A    between atoms: C4_6  and  C5_8
REMARK    6  A    between atoms: C8_11  and  O3_12
REMARK    7  A    between atoms: O3_12  and  C9_13
REMARK    8  A    between atoms: N2_16  and  C12_17
REMARK    9  A    between atoms: C12_17  and  C13_18
REMARK                            x       y       z     vdW  Elec       q    Type
REMARK                         _______ _______ _______ _____ _____    ______ ____
ROOT
ATOM      1  O3  UNL     1     150.273 159.392 162.809  0.00  0.00    -0.487 OA
ENDROOT
BRANCH   1   5
ATOM      2  C5  UNL     1     150.898 157.373 159.207  0.00  0.00    +0.038 A 
ATOM      3  C6  UNL     1     150.288 158.634 159.200  0.00  0.00    +0.017 A 
ATOM      4  C7  UNL     1     150.084 159.329 160.396  0.00  0.00    +0.048 A 
ATOM      5  C8  UNL     1     150.497 158.773 161.608  0.00  0.00    +0.139 A 
ATOM      6  C21 UNL     1     151.075 157.498 161.617  0.00  0.00    +0.083 A 
ATOM      7 CL1  UNL     1     151.567 156.749 163.095  0.00  0.00    -0.080 Cl
ATOM      8  C22 UNL     1     151.280 156.799 160.424  0.00  0.00    +0.036 A 
BRANCH   2  10
ATOM      9  N1  UNL     1     152.262 156.904 157.239  0.00  0.00    -0.309 N 
ATOM     10  C4  UNL     1     151.081 156.666 157.907  0.00  0.00    +0.244 C 
ATOM     11  O2  UNL     1     150.196 155.938 157.473  0.00  0.00    -0.270 OA
ATOM     12  H8  UNL     1     152.772 157.755 157.446  0.00  0.00    +0.149 HD
BRANCH   9  13
ATOM     13  C3  UNL     1     152.470 156.393 155.893  0.00  0.00    +0.132 C 
BRANCH  13  14
ATOM     14  C2  UNL     1     152.430 157.521 154.866  0.00  0.00    +0.178 C 
BRANCH  14  16
ATOM     15  C1  UNL     1     153.461 156.242 153.169  0.00  0.00    +0.194 C 
ATOM     16  O1  UNL     1     153.566 157.393 153.999  0.00  0.00    -0.381 OA
ENDBRANCH  14  16
ENDBRANCH  13  14
ENDBRANCH   9  13
ENDBRANCH   2  10
ENDBRANCH   1   5
BRANCH   1  17
ATOM     17  C9  UNL     1     150.965 160.635 163.019  0.00  0.00    +0.176 C 
ATOM     18  C10 UNL     1     149.990 161.629 163.660  0.00  0.00    +0.060 C 
ATOM     19  C11 UNL     1     150.691 162.511 164.689  0.00  0.00    +0.088 C 
ATOM     20  N2  UNL     1     151.224 161.719 165.808  0.00  0.00    -0.298 NA
ATOM     21  C19 UNL     1     151.759 160.410 165.399  0.00  0.00    +0.088 C 
ATOM     22  C20 UNL     1     152.165 160.346 163.930  0.00  0.00    +0.060 C 
BRANCH  20  23
ATOM     23  C12 UNL     1     152.189 162.478 166.618  0.00  0.00    +0.119 C 
BRANCH  23  24
ATOM     24  C13 UNL     1     152.341 161.938 168.026  0.00  0.00    -0.030 A 
ATOM     25  C14 UNL     1     153.480 161.193 168.384  0.00  0.00    +0.008 A 
ATOM     26  C15 UNL     1     153.632 160.702 169.683  0.00  0.00    +0.041 A 
ATOM     27  C16 UNL     1     152.649 160.960 170.630  0.00  0.00    +0.158 A 
ATOM     28  F1  UNL     1     152.799 160.490 171.878  0.00  0.00    -0.202 F 
ATOM     29  C17 UNL     1     151.521 161.694 170.290  0.00  0.00    +0.159 A 
ATOM     30  F2  UNL     1     150.573 161.941 171.206  0.00  0.00    -0.202 F 
ATOM     31  C18 UNL     1     151.359 162.187 168.997  0.00  0.00    +0.046 A 
ENDBRANCH  23  24
ENDBRANCH  20  23
ENDBRANCH   1  17
TORSDOF 8
ENDMDL
MODEL 8
REMARK VINA RESULT:    -4.416      5.486     11.668
REMARK INTER + INTRA:          -7.806
REMARK INTER:                  -6.882
REMARK INTRA:                  -0.924
REMARK UNBOUND:                -1.324
REMARK  Name = /home/vital/Documents/PhD_2021/Malaria_codes/data/pdb_ligands_mmv/ligand_93.pdb
REMARK  9 active torsions:
REMARK  status: ('A' for Active; 'I' for Inactive)
REMARK    1  A    between atoms: C1_1  and  O1_2
REMARK    2  A    between atoms: O1_2  and  C2_3
REMARK    3  A    between atoms: C2_3  and  C3_4
REMARK    4  A    between atoms: C3_4  and  N1_5
REMARK    5  A    between atoms: C4_6  and  C5_8
REMARK    6  A    between atoms: C8_11  and  O3_12
REMARK    7  A    between atoms: O3_12  and  C9_13
REMARK    8  A    between atoms: N2_16  and  C12_17
REMARK    9  A    between atoms: C12_17  and  C13_18
REMARK                            x       y       z     vdW  Elec       q    Type
REMARK                         _______ _______ _______ _____ _____    ______ ____
ROOT
ATOM      1  O3  UNL     1     152.281 158.703 162.258  0.00  0.00    -0.487 OA
ENDROOT
BRANCH   1   5
ATOM      2  C5  UNL     1     151.420 159.085 166.327  0.00  0.00    +0.038 A 
ATOM      3  C6  UNL     1     151.437 157.815 165.736  0.00  0.00    +0.017 A 
ATOM      4  C7  UNL     1     151.737 157.669 164.378  0.00  0.00    +0.048 A 
ATOM      5  C8  UNL     1     152.032 158.790 163.601  0.00  0.00    +0.139 A 
ATOM      6  C21 UNL     1     151.981 160.062 164.185  0.00  0.00    +0.083 A 
ATOM      7 CL1  UNL     1     152.299 161.486 163.257  0.00  0.00    -0.080 Cl
ATOM      8  C22 UNL     1     151.681 160.214 165.542  0.00  0.00    +0.036 A 
BRANCH   2  10
ATOM      9  N1  UNL     1     151.347 160.399 168.382  0.00  0.00    -0.309 N 
ATOM     10  C4  UNL     1     151.082 159.191 167.775  0.00  0.00    +0.244 C 
ATOM     11  O2  UNL     1     150.618 158.224 168.370  0.00  0.00    -0.270 OA
ATOM     12  H8  UNL     1     152.037 161.010 167.961  0.00  0.00    +0.149 HD
BRANCH   9  13
ATOM     13  C3  UNL     1     151.205 160.554 169.821  0.00  0.00    +0.132 C 
BRANCH  13  14
ATOM     14  C2  UNL     1     152.525 160.981 170.459  0.00  0.00    +0.178 C 
BRANCH  14  16
ATOM     15  C1  UNL     1     154.673 160.662 169.532  0.00  0.00    +0.194 C 
ATOM     16  O1  UNL     1     153.535 160.027 170.105  0.00  0.00    -0.381 OA
ENDBRANCH  14  16
ENDBRANCH  13  14
ENDBRANCH   9  13
ENDBRANCH   2  10
ENDBRANCH   1   5
BRANCH   1  17
ATOM     17  C9  UNL     1     151.165 158.969 161.390  0.00  0.00    +0.176 C 
ATOM     18  C10 UNL     1     151.649 159.862 160.242  0.00  0.00    +0.060 C 
ATOM     19  C11 UNL     1     150.973 159.491 158.925  0.00  0.00    +0.088 C 
ATOM     20  N2  UNL     1     151.308 158.119 158.512  0.00  0.00    -0.298 NA
ATOM     21  C19 UNL     1     151.411 157.175 159.638  0.00  0.00    +0.088 C 
ATOM     22  C20 UNL     1     150.645 157.619 160.881  0.00  0.00    +0.060 C 
BRANCH  20  23
ATOM     23  C12 UNL     1     150.412 157.619 157.458  0.00  0.00    +0.119 C 
BRANCH  23  24
ATOM     24  C13 UNL     1     151.153 157.099 156.243  0.00  0.00    -0.030 A 
ATOM     25  C14 UNL     1     151.219 155.716 155.987  0.00  0.00    +0.008 A 
ATOM     26  C15 UNL     1     151.891 155.231 154.862  0.00  0.00    +0.041 A 
ATOM     27  C16 UNL     1     152.493 156.125 153.987  0.00  0.00    +0.158 A 
ATOM     28  F1  UNL     1     153.135 155.656 152.906  0.00  0.00    -0.202 F 
ATOM     29  C17 UNL     1     152.435 157.492 154.228  0.00  0.00    +0.159 A 
ATOM     30  F2  UNL     1     153.018 158.353 153.382  0.00  0.00    -0.202 F 
ATOM     31  C18 UNL     1     151.769 157.986 155.347  0.00  0.00    +0.046 A 
ENDBRANCH  23  24
ENDBRANCH  20  23
ENDBRANCH   1  17
TORSDOF 8
ENDMDL
MODEL 9
REMARK VINA RESULT:    -4.366      1.172      1.728
REMARK INTER + INTRA:          -7.732
REMARK INTER:                  -6.558
REMARK INTRA:                  -1.174
REMARK UNBOUND:                -1.324
REMARK  Name = /home/vital/Documents/PhD_2021/Malaria_codes/data/pdb_ligands_mmv/ligand_93.pdb
REMARK  9 active torsions:
REMARK  status: ('A' for Active; 'I' for Inactive)
REMARK    1  A    between atoms: C1_1  and  O1_2
REMARK    2  A    between atoms: O1_2  and  C2_3
REMARK    3  A    between atoms: C2_3  and  C3_4
REMARK    4  A    between atoms: C3_4  and  N1_5
REMARK    5  A    between atoms: C4_6  and  C5_8
REMARK    6  A    between atoms: C8_11  and  O3_12
REMARK    7  A    between atoms: O3_12  and  C9_13
REMARK    8  A    between atoms: N2_16  and  C12_17
REMARK    9  A    between atoms: C12_17  and  C13_18
REMARK                            x       y       z     vdW  Elec       q    Type
REMARK                         _______ _______ _______ _____ _____    ______ ____
ROOT
ATOM      1  O3  UNL     1     150.270 158.297 159.273  0.00  0.00    -0.487 OA
ENDROOT
BRANCH   1   5
ATOM      2  C5  UNL     1     151.625 156.347 155.837  0.00  0.00    +0.038 A 
ATOM      3  C6  UNL     1     151.496 157.742 155.840  0.00  0.00    +0.017 A 
ATOM      4  C7  UNL     1     151.058 158.411 156.987  0.00  0.00    +0.048 A 
ATOM      5  C8  UNL     1     150.753 157.692 158.144  0.00  0.00    +0.139 A 
ATOM      6  C21 UNL     1     150.849 156.295 158.129  0.00  0.00    +0.083 A 
ATOM      7 CL1  UNL     1     150.445 155.355 159.523  0.00  0.00    -0.080 Cl
ATOM      8  C22 UNL     1     151.286 155.622 156.985  0.00  0.00    +0.036 A 
BRANCH   2  10
ATOM      9  N1  UNL     1     152.414 156.503 153.534  0.00  0.00    -0.309 N 
ATOM     10  C4  UNL     1     152.085 155.679 154.587  0.00  0.00    +0.244 C 
ATOM     11  O2  UNL     1     152.130 154.455 154.524  0.00  0.00    -0.270 OA
ATOM     12  H8  UNL     1     152.025 157.439 153.512  0.00  0.00    +0.149 HD
BRANCH   9  13
ATOM     13  C3  UNL     1     152.718 155.950 152.224  0.00  0.00    +0.132 C 
BRANCH  13  14
ATOM     14  C2  UNL     1     154.204 156.083 151.904  0.00  0.00    +0.178 C 
BRANCH  14  16
ATOM     15  C1  UNL     1     156.094 154.688 151.659  0.00  0.00    +0.194 C 
ATOM     16  O1  UNL     1     154.881 154.908 152.369  0.00  0.00    -0.381 OA
ENDBRANCH  14  16
ENDBRANCH  13  14
ENDBRANCH   9  13
ENDBRANCH   2  10
ENDBRANCH   1   5
BRANCH   1  17
ATOM     17  C9  UNL     1     151.162 159.213 159.930  0.00  0.00    +0.176 C 
ATOM     18  C10 UNL     1     150.323 160.300 160.612  0.00  0.00    +0.060 C 
ATOM     19  C11 UNL     1     150.929 160.712 161.951  0.00  0.00    +0.088 C 
ATOM     20  N2  UNL     1     150.954 159.591 162.903  0.00  0.00    -0.298 NA
ATOM     21  C19 UNL     1     151.247 158.292 162.273  0.00  0.00    +0.088 C 
ATOM     22  C20 UNL     1     151.986 158.410 160.943  0.00  0.00    +0.060 C 
BRANCH  20  23
ATOM     23  C12 UNL     1     151.835 159.854 164.051  0.00  0.00    +0.119 C 
BRANCH  23  24
ATOM     24  C13 UNL     1     151.165 159.599 165.387  0.00  0.00    -0.030 A 
ATOM     25  C14 UNL     1     150.327 160.572 165.961  0.00  0.00    +0.008 A 
ATOM     26  C15 UNL     1     149.698 160.338 167.187  0.00  0.00    +0.041 A 
ATOM     27  C16 UNL     1     149.900 159.128 167.839  0.00  0.00    +0.158 A 
ATOM     28  F1  UNL     1     149.292 158.905 169.014  0.00  0.00    -0.202 F 
ATOM     29  C17 UNL     1     150.725 158.159 167.282  0.00  0.00    +0.159 A 
ATOM     30  F2  UNL     1     150.920 156.993 167.914  0.00  0.00    -0.202 F 
ATOM     31  C18 UNL     1     151.358 158.383 166.062  0.00  0.00    +0.046 A 
ENDBRANCH  23  24
ENDBRANCH  20  23
ENDBRANCH   1  17
TORSDOF 8
ENDMDL
