MODEL 1
REMARK VINA RESULT:    -6.144      0.000      0.000
REMARK INTER + INTRA:         -10.344
REMARK INTER:                  -9.916
REMARK INTRA:                  -0.428
REMARK UNBOUND:                -0.428
REMARK  Name = /home/vital/Documents/PhD_2021/Malaria_codes/data/pdb_ligands_mmv/ligand_262.pdb
REMARK  13 active torsions:
REMARK  status: ('A' for Active; 'I' for Inactive)
REMARK    1  A    between atoms: C1_1  and  C2_2
REMARK    2  A    between atoms: C5_5  and  O1_6
REMARK    3  A    between atoms: O1_6  and  C6_7
REMARK    4  A    between atoms: C6_7  and  C7_8
REMARK    5  A    between atoms: C7_8  and  C8_9
REMARK    6  A    between atoms: C8_9  and  C9_10
REMARK    7  A    between atoms: C9_10  and  C10_11
REMARK    8  A    between atoms: C10_11  and  C11_12
REMARK    9  A    between atoms: C11_12  and  N1_13
REMARK   10  A    between atoms: N1_13  and  C12_14
REMARK   11  A    between atoms: C12_14  and  C13_15
REMARK   12  A    between atoms: C13_15  and  O2_16
REMARK   13  A    between atoms: C14_17  and  C15_18
REMARK                            x       y       z     vdW  Elec       q    Type
REMARK                         _______ _______ _______ _____ _____    ______ ____
ROOT
ATOM      1  C7  UNL     1     153.070 157.032 152.620  0.00  0.00    +0.041 C 
ENDROOT
BRANCH   1   2
ATOM      2  C6  UNL     1     154.325 156.591 151.869  0.00  0.00    +0.229 C 
BRANCH   2   3
ATOM      3  O1  UNL     1     154.243 155.206 151.530  0.00  0.00    -0.492 OA
BRANCH   3   8
ATOM      4  C1  UNL     1     158.674 152.545 149.159  0.00  0.00    +0.044 C 
ATOM      5  C2  UNL     1     157.531 153.273 149.800  0.00  0.00    -0.050 A 
ATOM      6  C3  UNL     1     157.617 153.704 151.126  0.00  0.00    +0.007 A 
ATOM      7  C4  UNL     1     156.539 154.355 151.734  0.00  0.00    +0.046 A 
ATOM      8  C5  UNL     1     155.352 154.575 151.031  0.00  0.00    +0.123 A 
ATOM      9  C14 UNL     1     155.252 154.139 149.697  0.00  0.00    -0.009 A 
ATOM     10  C15 UNL     1     153.990 154.361 148.910  0.00  0.00    +0.047 C 
ATOM     11  C16 UNL     1     156.340 153.485 149.097  0.00  0.00    +0.010 A 
ENDBRANCH   3   8
ENDBRANCH   2   3
ENDBRANCH   1   2
BRANCH   1  12
ATOM     12  C8  UNL     1     152.604 156.025 153.675  0.00  0.00    +0.003 C 
BRANCH  12  13
ATOM     13  C9  UNL     1     151.846 156.678 154.832  0.00  0.00    +0.001 C 
BRANCH  13  14
ATOM     14  C10 UNL     1     151.320 155.696 155.888  0.00  0.00    +0.015 C 
BRANCH  14  15
ATOM     15  C11 UNL     1     150.920 156.320 157.231  0.00  0.00    +0.081 C 
BRANCH  15  16
ATOM     16  N1  UNL     1     151.895 157.316 157.677  0.00  0.00    -0.314 NA
ATOM     17  H18 UNL     1     152.589 157.447 156.942  0.00  0.00    +0.122 HD
BRANCH  16  18
ATOM     18  C12 UNL     1     151.276 158.622 157.965  0.00  0.00    +0.108 C 
BRANCH  18  19
ATOM     19  C13 UNL     1     152.196 159.634 158.663  0.00  0.00    +0.171 C 
BRANCH  19  20
ATOM     20  O2  UNL     1     153.407 159.811 157.933  0.00  0.00    -0.394 OA
ATOM     21  H23 UNL     1     154.004 159.094 158.207  0.00  0.00    +0.209 HD
ENDBRANCH  19  20
ENDBRANCH  18  19
ENDBRANCH  16  18
ENDBRANCH  15  16
ENDBRANCH  14  15
ENDBRANCH  13  14
ENDBRANCH  12  13
ENDBRANCH   1  12
TORSDOF 11
ENDMDL
MODEL 2
REMARK VINA RESULT:    -6.007      1.128      2.022
REMARK INTER + INTRA:         -10.122
REMARK INTER:                  -9.509
REMARK INTRA:                  -0.613
REMARK UNBOUND:                -0.428
REMARK  Name = /home/vital/Documents/PhD_2021/Malaria_codes/data/pdb_ligands_mmv/ligand_262.pdb
REMARK  13 active torsions:
REMARK  status: ('A' for Active; 'I' for Inactive)
REMARK    1  A    between atoms: C1_1  and  C2_2
REMARK    2  A    between atoms: C5_5  and  O1_6
REMARK    3  A    between atoms: O1_6  and  C6_7
REMARK    4  A    between atoms: C6_7  and  C7_8
REMARK    5  A    between atoms: C7_8  and  C8_9
REMARK    6  A    between atoms: C8_9  and  C9_10
REMARK    7  A    between atoms: C9_10  and  C10_11
REMARK    8  A    between atoms: C10_11  and  C11_12
REMARK    9  A    between atoms: C11_12  and  N1_13
REMARK   10  A    between atoms: N1_13  and  C12_14
REMARK   11  A    between atoms: C12_14  and  C13_15
REMARK   12  A    between atoms: C13_15  and  O2_16
REMARK   13  A    between atoms: C14_17  and  C15_18
REMARK                            x       y       z     vdW  Elec       q    Type
REMARK                         _______ _______ _______ _____ _____    ______ ____
ROOT
ATOM      1  C7  UNL     1     152.797 156.636 151.761  0.00  0.00    +0.041 C 
ENDROOT
BRANCH   1   2
ATOM      2  C6  UNL     1     153.224 155.357 151.042  0.00  0.00    +0.229 C 
BRANCH   2   3
ATOM      3  O1  UNL     1     154.644 155.206 151.094  0.00  0.00    -0.492 OA
BRANCH   3   8
ATOM      4  C1  UNL     1     157.400 151.553 147.720  0.00  0.00    +0.044 C 
ATOM      5  C2  UNL     1     156.639 152.502 148.595  0.00  0.00    -0.050 A 
ATOM      6  C3  UNL     1     155.572 153.243 148.080  0.00  0.00    +0.007 A 
ATOM      7  C4  UNL     1     154.883 154.153 148.887  0.00  0.00    +0.046 A 
ATOM      8  C5  UNL     1     155.255 154.347 150.219  0.00  0.00    +0.123 A 
ATOM      9  C14 UNL     1     156.331 153.610 150.747  0.00  0.00    -0.009 A 
ATOM     10  C15 UNL     1     156.758 153.793 152.177  0.00  0.00    +0.047 C 
ATOM     11  C16 UNL     1     157.019 152.701 149.927  0.00  0.00    +0.010 A 
ENDBRANCH   3   8
ENDBRANCH   2   3
ENDBRANCH   1   2
BRANCH   1  12
ATOM     12  C8  UNL     1     153.627 156.942 153.010  0.00  0.00    +0.003 C 
BRANCH  12  13
ATOM     13  C9  UNL     1     152.788 156.990 154.288  0.00  0.00    +0.001 C 
BRANCH  13  14
ATOM     14  C10 UNL     1     152.026 155.695 154.602  0.00  0.00    +0.015 C 
BRANCH  14  15
ATOM     15  C11 UNL     1     151.405 155.617 156.003  0.00  0.00    +0.081 C 
BRANCH  15  16
ATOM     16  N1  UNL     1     152.282 156.202 157.018  0.00  0.00    -0.314 NA
ATOM     17  H18 UNL     1     152.920 156.854 156.563  0.00  0.00    +0.122 HD
BRANCH  16  18
ATOM     18  C12 UNL     1     151.534 156.934 158.055  0.00  0.00    +0.108 C 
BRANCH  18  19
ATOM     19  C13 UNL     1     151.444 158.452 157.838  0.00  0.00    +0.171 C 
BRANCH  19  20
ATOM     20  O2  UNL     1     152.648 158.957 157.265  0.00  0.00    -0.394 OA
ATOM     21  H23 UNL     1     152.727 158.553 156.384  0.00  0.00    +0.209 HD
ENDBRANCH  19  20
ENDBRANCH  18  19
ENDBRANCH  16  18
ENDBRANCH  15  16
ENDBRANCH  14  15
ENDBRANCH  13  14
ENDBRANCH  12  13
ENDBRANCH   1  12
TORSDOF 11
ENDMDL
MODEL 3
REMARK VINA RESULT:    -5.950      4.231      6.915
REMARK INTER + INTRA:         -10.031
REMARK INTER:                  -9.183
REMARK INTRA:                  -0.848
REMARK UNBOUND:                -0.428
REMARK  Name = /home/vital/Documents/PhD_2021/Malaria_codes/data/pdb_ligands_mmv/ligand_262.pdb
REMARK  13 active torsions:
REMARK  status: ('A' for Active; 'I' for Inactive)
REMARK    1  A    between atoms: C1_1  and  C2_2
REMARK    2  A    between atoms: C5_5  and  O1_6
REMARK    3  A    between atoms: O1_6  and  C6_7
REMARK    4  A    between atoms: C6_7  and  C7_8
REMARK    5  A    between atoms: C7_8  and  C8_9
REMARK    6  A    between atoms: C8_9  and  C9_10
REMARK    7  A    between atoms: C9_10  and  C10_11
REMARK    8  A    between atoms: C10_11  and  C11_12
REMARK    9  A    between atoms: C11_12  and  N1_13
REMARK   10  A    between atoms: N1_13  and  C12_14
REMARK   11  A    between atoms: C12_14  and  C13_15
REMARK   12  A    between atoms: C13_15  and  O2_16
REMARK   13  A    between atoms: C14_17  and  C15_18
REMARK                            x       y       z     vdW  Elec       q    Type
REMARK                         _______ _______ _______ _____ _____    ______ ____
ROOT
ATOM      1  C7  UNL     1     151.500 157.145 159.865  0.00  0.00    +0.041 C 
ENDROOT
BRANCH   1   2
ATOM      2  C6  UNL     1     150.886 156.129 158.904  0.00  0.00    +0.229 C 
BRANCH   2   3
ATOM      3  O1  UNL     1     150.424 156.779 157.718  0.00  0.00    -0.492 OA
BRANCH   3   8
ATOM      4  C1  UNL     1     153.568 156.787 152.981  0.00  0.00    +0.044 C 
ATOM      5  C2  UNL     1     152.761 156.754 154.243  0.00  0.00    -0.050 A 
ATOM      6  C3  UNL     1     152.315 155.540 154.771  0.00  0.00    +0.007 A 
ATOM      7  C4  UNL     1     151.535 155.511 155.931  0.00  0.00    +0.046 A 
ATOM      8  C5  UNL     1     151.176 156.696 156.577  0.00  0.00    +0.123 A 
ATOM      9  C14 UNL     1     151.615 157.926 156.051  0.00  0.00    -0.009 A 
ATOM     10  C15 UNL     1     151.249 159.221 156.722  0.00  0.00    +0.047 C 
ATOM     11  C16 UNL     1     152.396 157.943 154.884  0.00  0.00    +0.010 A 
ENDBRANCH   3   8
ENDBRANCH   2   3
ENDBRANCH   1   2
BRANCH   1  12
ATOM     12  C8  UNL     1     150.460 157.967 160.631  0.00  0.00    +0.003 C 
BRANCH  12  13
ATOM     13  C9  UNL     1     151.008 159.304 161.134  0.00  0.00    +0.001 C 
BRANCH  13  14
ATOM     14  C10 UNL     1     151.250 160.350 160.037  0.00  0.00    +0.015 C 
BRANCH  14  15
ATOM     15  C11 UNL     1     152.480 161.245 160.236  0.00  0.00    +0.081 C 
BRANCH  15  16
ATOM     16  N1  UNL     1     152.340 162.523 159.538  0.00  0.00    -0.314 NA
ATOM     17  H18 UNL     1     153.261 162.832 159.232  0.00  0.00    +0.122 HD
BRANCH  16  18
ATOM     18  C12 UNL     1     151.469 162.426 158.353  0.00  0.00    +0.108 C 
BRANCH  18  19
ATOM     19  C13 UNL     1     151.823 163.386 157.209  0.00  0.00    +0.171 C 
BRANCH  19  20
ATOM     20  O2  UNL     1     152.438 162.687 156.129  0.00  0.00    -0.394 OA
ATOM     21  H23 UNL     1     152.105 163.093 155.310  0.00  0.00    +0.209 HD
ENDBRANCH  19  20
ENDBRANCH  18  19
ENDBRANCH  16  18
ENDBRANCH  15  16
ENDBRANCH  14  15
ENDBRANCH  13  14
ENDBRANCH  12  13
ENDBRANCH   1  12
TORSDOF 11
ENDMDL
MODEL 4
REMARK VINA RESULT:    -5.940      4.504      6.823
REMARK INTER + INTRA:         -10.014
REMARK INTER:                  -9.110
REMARK INTRA:                  -0.903
REMARK UNBOUND:                -0.428
REMARK  Name = /home/vital/Documents/PhD_2021/Malaria_codes/data/pdb_ligands_mmv/ligand_262.pdb
REMARK  13 active torsions:
REMARK  status: ('A' for Active; 'I' for Inactive)
REMARK    1  A    between atoms: C1_1  and  C2_2
REMARK    2  A    between atoms: C5_5  and  O1_6
REMARK    3  A    between atoms: O1_6  and  C6_7
REMARK    4  A    between atoms: C6_7  and  C7_8
REMARK    5  A    between atoms: C7_8  and  C8_9
REMARK    6  A    between atoms: C8_9  and  C9_10
REMARK    7  A    between atoms: C9_10  and  C10_11
REMARK    8  A    between atoms: C10_11  and  C11_12
REMARK    9  A    between atoms: C11_12  and  N1_13
REMARK   10  A    between atoms: N1_13  and  C12_14
REMARK   11  A    between atoms: C12_14  and  C13_15
REMARK   12  A    between atoms: C13_15  and  O2_16
REMARK   13  A    between atoms: C14_17  and  C15_18
REMARK                            x       y       z     vdW  Elec       q    Type
REMARK                         _______ _______ _______ _____ _____    ______ ____
ROOT
ATOM      1  C7  UNL     1     151.436 156.218 159.402  0.00  0.00    +0.041 C 
ENDROOT
BRANCH   1   2
ATOM      2  C6  UNL     1     150.580 155.446 158.399  0.00  0.00    +0.229 C 
BRANCH   2   3
ATOM      3  O1  UNL     1     150.106 156.318 157.372  0.00  0.00    -0.492 OA
BRANCH   3   8
ATOM      4  C1  UNL     1     153.282 157.514 152.809  0.00  0.00    +0.044 C 
ATOM      5  C2  UNL     1     152.471 157.172 154.023  0.00  0.00    -0.050 A 
ATOM      6  C3  UNL     1     152.250 155.838 154.377  0.00  0.00    +0.007 A 
ATOM      7  C4  UNL     1     151.468 155.517 155.490  0.00  0.00    +0.046 A 
ATOM      8  C5  UNL     1     150.882 156.523 156.262  0.00  0.00    +0.123 A 
ATOM      9  C14 UNL     1     151.093 157.870 155.911  0.00  0.00    -0.009 A 
ATOM     10  C15 UNL     1     150.479 158.978 156.721  0.00  0.00    +0.047 C 
ATOM     11  C16 UNL     1     151.879 158.181 154.790  0.00  0.00    +0.010 A 
ENDBRANCH   3   8
ENDBRANCH   2   3
ENDBRANCH   1   2
BRANCH   1  12
ATOM     12  C8  UNL     1     150.906 156.151 160.836  0.00  0.00    +0.003 C 
BRANCH  12  13
ATOM     13  C9  UNL     1     150.571 157.527 161.415  0.00  0.00    +0.001 C 
BRANCH  13  14
ATOM     14  C10 UNL     1     149.707 158.411 160.504  0.00  0.00    +0.015 C 
BRANCH  14  15
ATOM     15  C11 UNL     1     150.199 159.852 160.320  0.00  0.00    +0.081 C 
BRANCH  15  16
ATOM     16  N1  UNL     1     150.272 160.566 161.596  0.00  0.00    -0.314 NA
ATOM     17  H18 UNL     1     150.330 159.884 162.351  0.00  0.00    +0.122 HD
BRANCH  16  18
ATOM     18  C12 UNL     1     151.449 161.449 161.681  0.00  0.00    +0.108 C 
BRANCH  18  19
ATOM     19  C13 UNL     1     152.362 161.433 160.447  0.00  0.00    +0.171 C 
BRANCH  19  20
ATOM     20  O2  UNL     1     152.555 162.750 159.938  0.00  0.00    -0.394 OA
ATOM     21  H23 UNL     1     153.375 163.086 160.340  0.00  0.00    +0.209 HD
ENDBRANCH  19  20
ENDBRANCH  18  19
ENDBRANCH  16  18
ENDBRANCH  15  16
ENDBRANCH  14  15
ENDBRANCH  13  14
ENDBRANCH  12  13
ENDBRANCH   1  12
TORSDOF 11
ENDMDL
MODEL 5
REMARK VINA RESULT:    -5.931      1.309      2.203
REMARK INTER + INTRA:          -9.999
REMARK INTER:                  -9.686
REMARK INTRA:                  -0.313
REMARK UNBOUND:                -0.428
REMARK  Name = /home/vital/Documents/PhD_2021/Malaria_codes/data/pdb_ligands_mmv/ligand_262.pdb
REMARK  13 active torsions:
REMARK  status: ('A' for Active; 'I' for Inactive)
REMARK    1  A    between atoms: C1_1  and  C2_2
REMARK    2  A    between atoms: C5_5  and  O1_6
REMARK    3  A    between atoms: O1_6  and  C6_7
REMARK    4  A    between atoms: C6_7  and  C7_8
REMARK    5  A    between atoms: C7_8  and  C8_9
REMARK    6  A    between atoms: C8_9  and  C9_10
REMARK    7  A    between atoms: C9_10  and  C10_11
REMARK    8  A    between atoms: C10_11  and  C11_12
REMARK    9  A    between atoms: C11_12  and  N1_13
REMARK   10  A    between atoms: N1_13  and  C12_14
REMARK   11  A    between atoms: C12_14  and  C13_15
REMARK   12  A    between atoms: C13_15  and  O2_16
REMARK   13  A    between atoms: C14_17  and  C15_18
REMARK                            x       y       z     vdW  Elec       q    Type
REMARK                         _______ _______ _______ _____ _____    ______ ____
ROOT
ATOM      1  C7  UNL     1     153.505 156.601 153.246  0.00  0.00    +0.041 C 
ENDROOT
BRANCH   1   2
ATOM      2  C6  UNL     1     153.694 155.875 151.914  0.00  0.00    +0.229 C 
BRANCH   2   3
ATOM      3  O1  UNL     1     155.054 155.464 151.759  0.00  0.00    -0.492 OA
BRANCH   3   8
ATOM      4  C1  UNL     1     156.642 151.615 147.887  0.00  0.00    +0.044 C 
ATOM      5  C2  UNL     1     156.186 152.616 148.904  0.00  0.00    -0.050 A 
ATOM      6  C3  UNL     1     155.032 153.374 148.688  0.00  0.00    +0.007 A 
ATOM      7  C4  UNL     1     154.623 154.332 149.621  0.00  0.00    +0.046 A 
ATOM      8  C5  UNL     1     155.368 154.558 150.781  0.00  0.00    +0.123 A 
ATOM      9  C14 UNL     1     156.535 153.805 151.007  0.00  0.00    -0.009 A 
ATOM     10  C15 UNL     1     157.360 154.021 152.245  0.00  0.00    +0.047 C 
ATOM     11  C16 UNL     1     156.938 152.847 150.062  0.00  0.00    +0.010 A 
ENDBRANCH   3   8
ENDBRANCH   2   3
ENDBRANCH   1   2
BRANCH   1  12
ATOM     12  C8  UNL     1     152.108 156.425 153.844  0.00  0.00    +0.003 C 
BRANCH  12  13
ATOM     13  C9  UNL     1     152.027 156.857 155.310  0.00  0.00    +0.001 C 
BRANCH  13  14
ATOM     14  C10 UNL     1     151.569 158.306 155.526  0.00  0.00    +0.015 C 
BRANCH  14  15
ATOM     15  C11 UNL     1     151.332 158.714 156.985  0.00  0.00    +0.081 C 
BRANCH  15  16
ATOM     16  N1  UNL     1     152.270 159.751 157.417  0.00  0.00    -0.314 NA
ATOM     17  H18 UNL     1     152.675 160.191 156.592  0.00  0.00    +0.122 HD
BRANCH  16  18
ATOM     18  C12 UNL     1     151.622 160.797 158.227  0.00  0.00    +0.108 C 
BRANCH  18  19
ATOM     19  C13 UNL     1     152.077 160.858 159.692  0.00  0.00    +0.171 C 
BRANCH  19  20
ATOM     20  O2  UNL     1     153.474 160.597 159.803  0.00  0.00    -0.394 OA
ATOM     21  H23 UNL     1     153.697 159.972 159.092  0.00  0.00    +0.209 HD
ENDBRANCH  19  20
ENDBRANCH  18  19
ENDBRANCH  16  18
ENDBRANCH  15  16
ENDBRANCH  14  15
ENDBRANCH  13  14
ENDBRANCH  12  13
ENDBRANCH   1  12
TORSDOF 11
ENDMDL
MODEL 6
REMARK VINA RESULT:    -5.853      2.966      8.975
REMARK INTER + INTRA:          -9.874
REMARK INTER:                  -9.455
REMARK INTRA:                  -0.419
REMARK UNBOUND:                -0.428
REMARK  Name = /home/vital/Documents/PhD_2021/Malaria_codes/data/pdb_ligands_mmv/ligand_262.pdb
REMARK  13 active torsions:
REMARK  status: ('A' for Active; 'I' for Inactive)
REMARK    1  A    between atoms: C1_1  and  C2_2
REMARK    2  A    between atoms: C5_5  and  O1_6
REMARK    3  A    between atoms: O1_6  and  C6_7
REMARK    4  A    between atoms: C6_7  and  C7_8
REMARK    5  A    between atoms: C7_8  and  C8_9
REMARK    6  A    between atoms: C8_9  and  C9_10
REMARK    7  A    between atoms: C9_10  and  C10_11
REMARK    8  A    between atoms: C10_11  and  C11_12
REMARK    9  A    between atoms: C11_12  and  N1_13
REMARK   10  A    between atoms: N1_13  and  C12_14
REMARK   11  A    between atoms: C12_14  and  C13_15
REMARK   12  A    between atoms: C13_15  and  O2_16
REMARK   13  A    between atoms: C14_17  and  C15_18
REMARK                            x       y       z     vdW  Elec       q    Type
REMARK                         _______ _______ _______ _____ _____    ______ ____
ROOT
ATOM      1  C7  UNL     1     153.400 157.560 152.877  0.00  0.00    +0.041 C 
ENDROOT
BRANCH   1   2
ATOM      2  C6  UNL     1     152.035 157.496 153.561  0.00  0.00    +0.229 C 
BRANCH   2   3
ATOM      3  O1  UNL     1     152.096 158.103 154.853  0.00  0.00    -0.492 OA
BRANCH   3   8
ATOM      4  C1  UNL     1     150.768 155.290 159.613  0.00  0.00    +0.044 C 
ATOM      5  C2  UNL     1     151.094 156.007 158.338  0.00  0.00    -0.050 A 
ATOM      6  C3  UNL     1     151.377 155.291 157.172  0.00  0.00    +0.007 A 
ATOM      7  C4  UNL     1     151.713 155.959 155.991  0.00  0.00    +0.046 A 
ATOM      8  C5  UNL     1     151.784 157.353 155.957  0.00  0.00    +0.123 A 
ATOM      9  C14 UNL     1     151.506 158.085 157.126  0.00  0.00    -0.009 A 
ATOM     10  C15 UNL     1     151.572 159.587 157.125  0.00  0.00    +0.047 C 
ATOM     11  C16 UNL     1     151.172 157.404 158.308  0.00  0.00    +0.010 A 
ENDBRANCH   3   8
ENDBRANCH   2   3
ENDBRANCH   1   2
BRANCH   1  12
ATOM     12  C8  UNL     1     153.601 156.479 151.813  0.00  0.00    +0.003 C 
BRANCH  12  13
ATOM     13  C9  UNL     1     154.662 155.447 152.202  0.00  0.00    +0.001 C 
BRANCH  13  14
ATOM     14  C10 UNL     1     155.674 155.122 151.094  0.00  0.00    +0.015 C 
BRANCH  14  15
ATOM     15  C11 UNL     1     156.987 154.484 151.565  0.00  0.00    +0.081 C 
BRANCH  15  16
ATOM     16  N1  UNL     1     157.219 153.187 150.928  0.00  0.00    -0.314 NA
ATOM     17  H18 UNL     1     156.492 152.540 151.230  0.00  0.00    +0.122 HD
BRANCH  16  18
ATOM     18  C12 UNL     1     157.183 153.267 149.457  0.00  0.00    +0.108 C 
BRANCH  18  19
ATOM     19  C13 UNL     1     158.138 152.308 148.733  0.00  0.00    +0.171 C 
BRANCH  19  20
ATOM     20  O2  UNL     1     159.473 152.464 149.207  0.00  0.00    -0.394 OA
ATOM     21  H23 UNL     1     160.011 152.726 148.441  0.00  0.00    +0.209 HD
ENDBRANCH  19  20
ENDBRANCH  18  19
ENDBRANCH  16  18
ENDBRANCH  15  16
ENDBRANCH  14  15
ENDBRANCH  13  14
ENDBRANCH  12  13
ENDBRANCH   1  12
TORSDOF 11
ENDMDL
MODEL 7
REMARK VINA RESULT:    -5.718      2.718      9.563
REMARK INTER + INTRA:          -9.655
REMARK INTER:                  -9.131
REMARK INTRA:                  -0.524
REMARK UNBOUND:                -0.428
REMARK  Name = /home/vital/Documents/PhD_2021/Malaria_codes/data/pdb_ligands_mmv/ligand_262.pdb
REMARK  13 active torsions:
REMARK  status: ('A' for Active; 'I' for Inactive)
REMARK    1  A    between atoms: C1_1  and  C2_2
REMARK    2  A    between atoms: C5_5  and  O1_6
REMARK    3  A    between atoms: O1_6  and  C6_7
REMARK    4  A    between atoms: C6_7  and  C7_8
REMARK    5  A    between atoms: C7_8  and  C8_9
REMARK    6  A    between atoms: C8_9  and  C9_10
REMARK    7  A    between atoms: C9_10  and  C10_11
REMARK    8  A    between atoms: C10_11  and  C11_12
REMARK    9  A    between atoms: C11_12  and  N1_13
REMARK   10  A    between atoms: N1_13  and  C12_14
REMARK   11  A    between atoms: C12_14  and  C13_15
REMARK   12  A    between atoms: C13_15  and  O2_16
REMARK   13  A    between atoms: C14_17  and  C15_18
REMARK                            x       y       z     vdW  Elec       q    Type
REMARK                         _______ _______ _______ _____ _____    ______ ____
ROOT
ATOM      1  C7  UNL     1     151.734 155.560 154.800  0.00  0.00    +0.041 C 
ENDROOT
BRANCH   1   2
ATOM      2  C6  UNL     1     150.554 155.653 155.767  0.00  0.00    +0.229 C 
BRANCH   2   3
ATOM      3  O1  UNL     1     151.019 155.742 157.115  0.00  0.00    -0.492 OA
BRANCH   3   8
ATOM      4  C1  UNL     1     149.404 159.923 160.612  0.00  0.00    +0.044 C 
ATOM      5  C2  UNL     1     149.852 158.847 159.671  0.00  0.00    -0.050 A 
ATOM      6  C3  UNL     1     149.889 159.078 158.293  0.00  0.00    +0.007 A 
ATOM      7  C4  UNL     1     150.276 158.065 157.411  0.00  0.00    +0.046 A 
ATOM      8  C5  UNL     1     150.621 156.798 157.890  0.00  0.00    +0.123 A 
ATOM      9  C14 UNL     1     150.582 156.553 159.275  0.00  0.00    -0.009 A 
ATOM     10  C15 UNL     1     150.948 155.201 159.824  0.00  0.00    +0.047 C 
ATOM     11  C16 UNL     1     150.189 157.577 160.151  0.00  0.00    +0.010 A 
ENDBRANCH   3   8
ENDBRANCH   2   3
ENDBRANCH   1   2
BRANCH   1  12
ATOM     12  C8  UNL     1     152.463 156.890 154.595  0.00  0.00    +0.003 C 
BRANCH  12  13
ATOM     13  C9  UNL     1     152.579 157.287 153.122  0.00  0.00    +0.001 C 
BRANCH  13  14
ATOM     14  C10 UNL     1     152.918 156.130 152.172  0.00  0.00    +0.015 C 
BRANCH  14  15
ATOM     15  C11 UNL     1     154.414 155.853 151.976  0.00  0.00    +0.081 C 
BRANCH  15  16
ATOM     16  N1  UNL     1     154.646 154.808 150.978  0.00  0.00    -0.314 NA
ATOM     17  H18 UNL     1     154.215 155.094 150.099  0.00  0.00    +0.122 HD
BRANCH  16  18
ATOM     18  C12 UNL     1     156.079 154.570 150.733  0.00  0.00    +0.108 C 
BRANCH  18  19
ATOM     19  C13 UNL     1     156.387 153.458 149.719  0.00  0.00    +0.171 C 
BRANCH  19  20
ATOM     20  O2  UNL     1     155.560 152.319 149.944  0.00  0.00    -0.394 OA
ATOM     21  H23 UNL     1     155.583 151.793 149.127  0.00  0.00    +0.209 HD
ENDBRANCH  19  20
ENDBRANCH  18  19
ENDBRANCH  16  18
ENDBRANCH  15  16
ENDBRANCH  14  15
ENDBRANCH  13  14
ENDBRANCH  12  13
ENDBRANCH   1  12
TORSDOF 11
ENDMDL
MODEL 8
REMARK VINA RESULT:    -5.569      3.636      6.331
REMARK INTER + INTRA:          -9.415
REMARK INTER:                  -8.924
REMARK INTRA:                  -0.490
REMARK UNBOUND:                -0.428
REMARK  Name = /home/vital/Documents/PhD_2021/Malaria_codes/data/pdb_ligands_mmv/ligand_262.pdb
REMARK  13 active torsions:
REMARK  status: ('A' for Active; 'I' for Inactive)
REMARK    1  A    between atoms: C1_1  and  C2_2
REMARK    2  A    between atoms: C5_5  and  O1_6
REMARK    3  A    between atoms: O1_6  and  C6_7
REMARK    4  A    between atoms: C6_7  and  C7_8
REMARK    5  A    between atoms: C7_8  and  C8_9
REMARK    6  A    between atoms: C8_9  and  C9_10
REMARK    7  A    between atoms: C9_10  and  C10_11
REMARK    8  A    between atoms: C10_11  and  C11_12
REMARK    9  A    between atoms: C11_12  and  N1_13
REMARK   10  A    between atoms: N1_13  and  C12_14
REMARK   11  A    between atoms: C12_14  and  C13_15
REMARK   12  A    between atoms: C13_15  and  O2_16
REMARK   13  A    between atoms: C14_17  and  C15_18
REMARK                            x       y       z     vdW  Elec       q    Type
REMARK                         _______ _______ _______ _____ _____    ______ ____
ROOT
ATOM      1  C7  UNL     1     150.641 159.595 157.864  0.00  0.00    +0.041 C 
ENDROOT
BRANCH   1   2
ATOM      2  C6  UNL     1     151.682 158.947 156.952  0.00  0.00    +0.229 C 
BRANCH   2   3
ATOM      3  O1  UNL     1     151.043 158.286 155.858  0.00  0.00    -0.492 OA
BRANCH   3   8
ATOM      4  C1  UNL     1     154.179 155.765 151.841  0.00  0.00    +0.044 C 
ATOM      5  C2  UNL     1     153.337 156.453 152.872  0.00  0.00    -0.050 A 
ATOM      6  C3  UNL     1     153.212 157.845 152.875  0.00  0.00    +0.007 A 
ATOM      7  C4  UNL     1     152.452 158.489 153.856  0.00  0.00    +0.046 A 
ATOM      8  C5  UNL     1     151.814 157.755 154.858  0.00  0.00    +0.123 A 
ATOM      9  C14 UNL     1     151.937 156.353 154.868  0.00  0.00    -0.009 A 
ATOM     10  C15 UNL     1     151.263 155.532 155.932  0.00  0.00    +0.047 C 
ATOM     11  C16 UNL     1     152.705 155.716 153.880  0.00  0.00    +0.010 A 
ENDBRANCH   3   8
ENDBRANCH   2   3
ENDBRANCH   1   2
BRANCH   1  12
ATOM     12  C8  UNL     1     150.502 158.902 159.221  0.00  0.00    +0.003 C 
BRANCH  12  13
ATOM     13  C9  UNL     1     150.527 157.375 159.118  0.00  0.00    +0.001 C 
BRANCH  13  14
ATOM     14  C10 UNL     1     150.948 156.654 160.406  0.00  0.00    +0.015 C 
BRANCH  14  15
ATOM     15  C11 UNL     1     150.344 155.259 160.610  0.00  0.00    +0.081 C 
BRANCH  15  16
ATOM     16  N1  UNL     1     149.589 155.173 161.860  0.00  0.00    -0.314 NA
ATOM     17  H18 UNL     1     148.866 154.462 161.758  0.00  0.00    +0.122 HD
BRANCH  16  18
ATOM     18  C12 UNL     1     150.437 154.807 163.008  0.00  0.00    +0.108 C 
BRANCH  18  19
ATOM     19  C13 UNL     1     149.680 154.553 164.319  0.00  0.00    +0.171 C 
BRANCH  19  20
ATOM     20  O2  UNL     1     149.481 155.769 165.036  0.00  0.00    -0.394 OA
ATOM     21  H23 UNL     1     150.302 156.282 164.945  0.00  0.00    +0.209 HD
ENDBRANCH  19  20
ENDBRANCH  18  19
ENDBRANCH  16  18
ENDBRANCH  15  16
ENDBRANCH  14  15
ENDBRANCH  13  14
ENDBRANCH  12  13
ENDBRANCH   1  12
TORSDOF 11
ENDMDL
MODEL 9
REMARK VINA RESULT:    -5.539      2.748      9.135
REMARK INTER + INTRA:          -9.366
REMARK INTER:                  -8.955
REMARK INTRA:                  -0.411
REMARK UNBOUND:                -0.428
REMARK  Name = /home/vital/Documents/PhD_2021/Malaria_codes/data/pdb_ligands_mmv/ligand_262.pdb
REMARK  13 active torsions:
REMARK  status: ('A' for Active; 'I' for Inactive)
REMARK    1  A    between atoms: C1_1  and  C2_2
REMARK    2  A    between atoms: C5_5  and  O1_6
REMARK    3  A    between atoms: O1_6  and  C6_7
REMARK    4  A    between atoms: C6_7  and  C7_8
REMARK    5  A    between atoms: C7_8  and  C8_9
REMARK    6  A    between atoms: C8_9  and  C9_10
REMARK    7  A    between atoms: C9_10  and  C10_11
REMARK    8  A    between atoms: C10_11  and  C11_12
REMARK    9  A    between atoms: C11_12  and  N1_13
REMARK   10  A    between atoms: N1_13  and  C12_14
REMARK   11  A    between atoms: C12_14  and  C13_15
REMARK   12  A    between atoms: C13_15  and  O2_16
REMARK   13  A    between atoms: C14_17  and  C15_18
REMARK                            x       y       z     vdW  Elec       q    Type
REMARK                         _______ _______ _______ _____ _____    ______ ____
ROOT
ATOM      1  C7  UNL     1     152.256 157.490 153.746  0.00  0.00    +0.041 C 
ENDROOT
BRANCH   1   2
ATOM      2  C6  UNL     1     152.357 157.628 155.264  0.00  0.00    +0.229 C 
BRANCH   2   3
ATOM      3  O1  UNL     1     151.055 157.670 155.849  0.00  0.00    -0.492 OA
BRANCH   3   8
ATOM      4  C1  UNL     1     150.202 155.911 161.188  0.00  0.00    +0.044 C 
ATOM      5  C2  UNL     1     150.409 156.342 159.768  0.00  0.00    -0.050 A 
ATOM      6  C3  UNL     1     150.880 155.437 158.812  0.00  0.00    +0.007 A 
ATOM      7  C4  UNL     1     151.104 155.846 157.494  0.00  0.00    +0.046 A 
ATOM      8  C5  UNL     1     150.874 157.170 157.111  0.00  0.00    +0.123 A 
ATOM      9  C14 UNL     1     150.405 158.091 158.066  0.00  0.00    -0.009 A 
ATOM     10  C15 UNL     1     150.145 159.523 157.687  0.00  0.00    +0.047 C 
ATOM     11  C16 UNL     1     150.185 157.670 159.387  0.00  0.00    +0.010 A 
ENDBRANCH   3   8
ENDBRANCH   2   3
ENDBRANCH   1   2
BRANCH   1  12
ATOM     12  C8  UNL     1     152.587 156.086 153.236  0.00  0.00    +0.003 C 
BRANCH  12  13
ATOM     13  C9  UNL     1     153.531 156.093 152.032  0.00  0.00    +0.001 C 
BRANCH  13  14
ATOM     14  C10 UNL     1     152.892 155.631 150.715  0.00  0.00    +0.015 C 
BRANCH  14  15
ATOM     15  C11 UNL     1     153.693 154.591 149.920  0.00  0.00    +0.081 C 
BRANCH  15  16
ATOM     16  N1  UNL     1     155.043 154.421 150.458  0.00  0.00    -0.314 NA
ATOM     17  H18 UNL     1     154.974 154.160 151.441  0.00  0.00    +0.122 HD
BRANCH  16  18
ATOM     18  C12 UNL     1     155.802 153.373 149.754  0.00  0.00    +0.108 C 
BRANCH  18  19
ATOM     19  C13 UNL     1     156.586 152.418 150.666  0.00  0.00    +0.171 C 
BRANCH  19  20
ATOM     20  O2  UNL     1     156.308 152.681 152.039  0.00  0.00    -0.394 OA
ATOM     21  H23 UNL     1     155.413 152.341 152.211  0.00  0.00    +0.209 HD
ENDBRANCH  19  20
ENDBRANCH  18  19
ENDBRANCH  16  18
ENDBRANCH  15  16
ENDBRANCH  14  15
ENDBRANCH  13  14
ENDBRANCH  12  13
ENDBRANCH   1  12
TORSDOF 11
ENDMDL
