MODEL 1
REMARK VINA RESULT:    -8.770      0.000      0.000
REMARK INTER + INTRA:         -10.062
REMARK INTER:                  -9.796
REMARK INTRA:                  -0.266
REMARK UNBOUND:                -0.266
REMARK  Name = /home/vital/Documents/PhD_2021/Malaria_codes/data/pdb_ligands_mmv/ligand_237.pdb
REMARK  2 active torsions:
REMARK  status: ('A' for Active; 'I' for Inactive)
REMARK    1  A    between atoms: C4_5  and  C5_6
REMARK    2  A    between atoms: C6_7  and  C7_8
REMARK                            x       y       z     vdW  Elec       q    Type
REMARK                         _______ _______ _______ _____ _____    ______ ____
ROOT
ATOM      1  C7  UNL     1     153.985 155.552 151.818  0.00  0.00    +0.224 A 
ATOM      2  N1  UNL     1     153.340 155.391 150.713  0.00  0.00    -0.173 NA
ATOM      3  C8  UNL     1     153.932 154.725 149.674  0.00  0.00    +0.284 A 
ATOM      4  O1  UNL     1     153.370 154.540 148.601  0.00  0.00    -0.265 OA
ATOM      5  C9  UNL     1     155.297 154.209 149.854  0.00  0.00    +0.084 A 
ATOM      6  C10 UNL     1     155.972 153.518 148.844  0.00  0.00    +0.017 A 
ATOM      7  C11 UNL     1     157.268 153.053 149.076  0.00  0.00    +0.001 A 
ATOM      8  C12 UNL     1     157.881 153.279 150.312  0.00  0.00    +0.004 A 
ATOM      9  C13 UNL     1     157.202 153.969 151.317  0.00  0.00    +0.047 A 
ATOM     10  C14 UNL     1     155.910 154.430 151.075  0.00  0.00    +0.143 A 
ATOM     11  O2  UNL     1     155.262 155.114 152.100  0.00  0.00    -0.437 OA
ENDROOT
BRANCH   1  13
ATOM     12  C5  UNL     1     152.312 155.837 153.652  0.00  0.00    +0.013 C 
ATOM     13  C6  UNL     1     153.384 156.266 152.968  0.00  0.00    +0.068 C 
BRANCH  12  18
ATOM     14 BR1  UNL     1     149.751 158.895 158.371  0.00  0.00    -0.050 Br
ATOM     15  C1  UNL     1     150.528 157.941 156.937  0.00  0.00    +0.018 A 
ATOM     16  C2  UNL     1     150.448 156.553 156.903  0.00  0.00    +0.016 A 
ATOM     17  C3  UNL     1     151.023 155.845 155.840  0.00  0.00    +0.009 A 
ATOM     18  C4  UNL     1     151.684 156.518 154.801  0.00  0.00    -0.025 A 
ATOM     19  C15 UNL     1     151.752 157.921 154.858  0.00  0.00    +0.009 A 
ATOM     20  C16 UNL     1     151.177 158.630 155.918  0.00  0.00    +0.016 A 
ENDBRANCH  12  18
ENDBRANCH   1  13
TORSDOF 2
ENDMDL
MODEL 2
REMARK VINA RESULT:    -8.253      1.199      1.624
REMARK INTER + INTRA:          -9.484
REMARK INTER:                  -9.228
REMARK INTRA:                  -0.256
REMARK UNBOUND:                -0.266
REMARK  Name = /home/vital/Documents/PhD_2021/Malaria_codes/data/pdb_ligands_mmv/ligand_237.pdb
REMARK  2 active torsions:
REMARK  status: ('A' for Active; 'I' for Inactive)
REMARK    1  A    between atoms: C4_5  and  C5_6
REMARK    2  A    between atoms: C6_7  and  C7_8
REMARK                            x       y       z     vdW  Elec       q    Type
REMARK                         _______ _______ _______ _____ _____    ______ ____
ROOT
ATOM      1  C7  UNL     1     154.909 154.844 150.727  0.00  0.00    +0.224 A 
ATOM      2  N1  UNL     1     154.243 154.705 149.632  0.00  0.00    -0.173 NA
ATOM      3  C8  UNL     1     154.806 154.042 148.576  0.00  0.00    +0.284 A 
ATOM      4  O1  UNL     1     154.223 153.879 147.511  0.00  0.00    -0.265 OA
ATOM      5  C9  UNL     1     156.166 153.504 148.726  0.00  0.00    +0.084 A 
ATOM      6  C10 UNL     1     156.813 152.814 147.697  0.00  0.00    +0.017 A 
ATOM      7  C11 UNL     1     158.106 152.327 147.902  0.00  0.00    +0.001 A 
ATOM      8  C12 UNL     1     158.744 152.529 149.128  0.00  0.00    +0.004 A 
ATOM      9  C13 UNL     1     158.093 153.218 150.153  0.00  0.00    +0.047 A 
ATOM     10  C14 UNL     1     156.803 153.701 149.938  0.00  0.00    +0.143 A 
ATOM     11  O2  UNL     1     156.184 154.384 150.982  0.00  0.00    -0.437 OA
ENDROOT
BRANCH   1  13
ATOM     12  C5  UNL     1     153.031 155.595 152.196  0.00  0.00    +0.013 C 
ATOM     13  C6  UNL     1     154.339 155.554 151.896  0.00  0.00    +0.068 C 
BRANCH  12  18
ATOM     14 BR1  UNL     1     150.527 158.710 156.907  0.00  0.00    -0.050 Br
ATOM     15  C1  UNL     1     151.290 157.739 155.477  0.00  0.00    +0.018 A 
ATOM     16  C2  UNL     1     151.376 156.352 155.548  0.00  0.00    +0.016 A 
ATOM     17  C3  UNL     1     151.941 155.632 154.489  0.00  0.00    +0.009 A 
ATOM     18  C4  UNL     1     152.425 156.290 153.348  0.00  0.00    -0.025 A 
ATOM     19  C15 UNL     1     152.327 157.691 153.299  0.00  0.00    +0.009 A 
ATOM     20  C16 UNL     1     151.763 158.413 154.356  0.00  0.00    +0.016 A 
ENDBRANCH  12  18
ENDBRANCH   1  13
TORSDOF 2
ENDMDL
MODEL 3
REMARK VINA RESULT:    -8.251      1.442      2.328
REMARK INTER + INTRA:          -9.482
REMARK INTER:                  -9.228
REMARK INTRA:                  -0.254
REMARK UNBOUND:                -0.266
REMARK  Name = /home/vital/Documents/PhD_2021/Malaria_codes/data/pdb_ligands_mmv/ligand_237.pdb
REMARK  2 active torsions:
REMARK  status: ('A' for Active; 'I' for Inactive)
REMARK    1  A    between atoms: C4_5  and  C5_6
REMARK    2  A    between atoms: C6_7  and  C7_8
REMARK                            x       y       z     vdW  Elec       q    Type
REMARK                         _______ _______ _______ _____ _____    ______ ____
ROOT
ATOM      1  C7  UNL     1     152.653 156.662 152.820  0.00  0.00    +0.224 A 
ATOM      2  N1  UNL     1     151.809 156.398 151.882  0.00  0.00    -0.173 NA
ATOM      3  C8  UNL     1     152.210 155.675 150.792  0.00  0.00    +0.284 A 
ATOM      4  O1  UNL     1     151.454 155.393 149.870  0.00  0.00    -0.265 OA
ATOM      5  C9  UNL     1     153.606 155.216 150.725  0.00  0.00    +0.084 A 
ATOM      6  C10 UNL     1     154.096 154.472 149.649  0.00  0.00    +0.017 A 
ATOM      7  C11 UNL     1     155.432 154.067 149.644  0.00  0.00    +0.001 A 
ATOM      8  C12 UNL     1     156.269 154.404 150.711  0.00  0.00    +0.004 A 
ATOM      9  C13 UNL     1     155.774 155.146 151.784  0.00  0.00    +0.047 A 
ATOM     10  C14 UNL     1     154.440 155.547 151.779  0.00  0.00    +0.143 A 
ATOM     11  O2  UNL     1     153.980 156.287 152.865  0.00  0.00    -0.437 OA
ENDROOT
BRANCH   1  13
ATOM     12  C5  UNL     1     151.734 156.910 155.130  0.00  0.00    +0.013 C 
ATOM     13  C6  UNL     1     152.263 157.442 154.017  0.00  0.00    +0.068 C 
BRANCH  12  18
ATOM     14 BR1  UNL     1     149.997 159.809 160.302  0.00  0.00    -0.050 Br
ATOM     15  C1  UNL     1     150.533 158.941 158.712  0.00  0.00    +0.018 A 
ATOM     16  C2  UNL     1     151.018 159.689 157.644  0.00  0.00    +0.016 A 
ATOM     17  C3  UNL     1     151.416 159.046 156.465  0.00  0.00    +0.009 A 
ATOM     18  C4  UNL     1     151.333 157.651 156.342  0.00  0.00    -0.025 A 
ATOM     19  C15 UNL     1     150.839 156.918 157.434  0.00  0.00    +0.009 A 
ATOM     20  C16 UNL     1     150.441 157.557 158.613  0.00  0.00    +0.016 A 
ENDBRANCH  12  18
ENDBRANCH   1  13
TORSDOF 2
ENDMDL
MODEL 4
REMARK VINA RESULT:    -8.201      4.004      8.424
REMARK INTER + INTRA:          -9.426
REMARK INTER:                  -9.172
REMARK INTRA:                  -0.254
REMARK UNBOUND:                -0.266
REMARK  Name = /home/vital/Documents/PhD_2021/Malaria_codes/data/pdb_ligands_mmv/ligand_237.pdb
REMARK  2 active torsions:
REMARK  status: ('A' for Active; 'I' for Inactive)
REMARK    1  A    between atoms: C4_5  and  C5_6
REMARK    2  A    between atoms: C6_7  and  C7_8
REMARK                            x       y       z     vdW  Elec       q    Type
REMARK                         _______ _______ _______ _____ _____    ______ ____
ROOT
ATOM      1  C7  UNL     1     152.077 156.657 155.291  0.00  0.00    +0.224 A 
ATOM      2  N1  UNL     1     152.095 157.945 155.353  0.00  0.00    -0.173 NA
ATOM      3  C8  UNL     1     151.728 158.573 156.512  0.00  0.00    +0.284 A 
ATOM      4  O1  UNL     1     151.725 159.793 156.630  0.00  0.00    -0.265 OA
ATOM      5  C9  UNL     1     151.322 157.752 157.661  0.00  0.00    +0.084 A 
ATOM      6  C10 UNL     1     150.935 158.313 158.880  0.00  0.00    +0.017 A 
ATOM      7  C11 UNL     1     150.559 157.478 159.935  0.00  0.00    +0.001 A 
ATOM      8  C12 UNL     1     150.574 156.091 159.768  0.00  0.00    +0.004 A 
ATOM      9  C13 UNL     1     150.963 155.535 158.548  0.00  0.00    +0.047 A 
ATOM     10  C14 UNL     1     151.334 156.377 157.502  0.00  0.00    +0.143 A 
ATOM     11  O2  UNL     1     151.716 155.788 156.299  0.00  0.00    -0.437 OA
ENDROOT
BRANCH   1  13
ATOM     12  C5  UNL     1     153.346 156.394 153.154  0.00  0.00    +0.013 C 
ATOM     13  C6  UNL     1     152.465 155.935 154.057  0.00  0.00    +0.068 C 
BRANCH  12  18
ATOM     14 BR1  UNL     1     155.285 153.486 148.060  0.00  0.00    -0.050 Br
ATOM     15  C1  UNL     1     154.673 154.378 149.609  0.00  0.00    +0.018 A 
ATOM     16  C2  UNL     1     153.361 154.836 149.672  0.00  0.00    +0.016 A 
ATOM     17  C3  UNL     1     152.906 155.497 150.820  0.00  0.00    +0.009 A 
ATOM     18  C4  UNL     1     153.758 155.707 151.915  0.00  0.00    -0.025 A 
ATOM     19  C15 UNL     1     155.079 155.236 151.827  0.00  0.00    +0.009 A 
ATOM     20  C16 UNL     1     155.536 154.575 150.682  0.00  0.00    +0.016 A 
ENDBRANCH  12  18
ENDBRANCH   1  13
TORSDOF 2
ENDMDL
MODEL 5
REMARK VINA RESULT:    -8.193      3.850      8.223
REMARK INTER + INTRA:          -9.417
REMARK INTER:                  -9.157
REMARK INTRA:                  -0.259
REMARK UNBOUND:                -0.266
REMARK  Name = /home/vital/Documents/PhD_2021/Malaria_codes/data/pdb_ligands_mmv/ligand_237.pdb
REMARK  2 active torsions:
REMARK  status: ('A' for Active; 'I' for Inactive)
REMARK    1  A    between atoms: C4_5  and  C5_6
REMARK    2  A    between atoms: C6_7  and  C7_8
REMARK                            x       y       z     vdW  Elec       q    Type
REMARK                         _______ _______ _______ _____ _____    ______ ____
ROOT
ATOM      1  C7  UNL     1     153.040 156.100 153.854  0.00  0.00    +0.224 A 
ATOM      2  N1  UNL     1     153.066 157.386 153.765  0.00  0.00    -0.173 NA
ATOM      3  C8  UNL     1     152.389 158.143 154.683  0.00  0.00    +0.284 A 
ATOM      4  O1  UNL     1     152.377 159.368 154.649  0.00  0.00    -0.265 OA
ATOM      5  C9  UNL     1     151.647 157.458 155.751  0.00  0.00    +0.084 A 
ATOM      6  C10 UNL     1     150.931 158.156 156.727  0.00  0.00    +0.017 A 
ATOM      7  C11 UNL     1     150.246 157.447 157.717  0.00  0.00    +0.001 A 
ATOM      8  C12 UNL     1     150.280 156.050 157.727  0.00  0.00    +0.004 A 
ATOM      9  C13 UNL     1     150.997 155.358 156.750  0.00  0.00    +0.047 A 
ATOM     10  C14 UNL     1     151.677 156.074 155.767  0.00  0.00    +0.143 A 
ATOM     11  O2  UNL     1     152.382 155.352 154.808  0.00  0.00    -0.437 OA
ENDROOT
BRANCH   1  13
ATOM     12  C5  UNL     1     154.677 155.686 152.012  0.00  0.00    +0.013 C 
ATOM     13  C6  UNL     1     153.758 155.241 152.883  0.00  0.00    +0.068 C 
BRANCH  12  18
ATOM     14 BR1  UNL     1     157.947 152.263 148.042  0.00  0.00    -0.050 Br
ATOM     15  C1  UNL     1     156.930 153.308 149.243  0.00  0.00    +0.018 A 
ATOM     16  C2  UNL     1     155.597 153.587 148.962  0.00  0.00    +0.016 A 
ATOM     17  C3  UNL     1     154.842 154.362 149.852  0.00  0.00    +0.009 A 
ATOM     18  C4  UNL     1     155.413 154.865 151.031  0.00  0.00    -0.025 A 
ATOM     19  C15 UNL     1     156.762 154.570 151.293  0.00  0.00    +0.009 A 
ATOM     20  C16 UNL     1     157.518 153.796 150.406  0.00  0.00    +0.016 A 
ENDBRANCH  12  18
ENDBRANCH   1  13
TORSDOF 2
ENDMDL
MODEL 6
REMARK VINA RESULT:    -7.834      4.667      7.090
REMARK INTER + INTRA:          -9.016
REMARK INTER:                  -8.748
REMARK INTRA:                  -0.268
REMARK UNBOUND:                -0.266
REMARK  Name = /home/vital/Documents/PhD_2021/Malaria_codes/data/pdb_ligands_mmv/ligand_237.pdb
REMARK  2 active torsions:
REMARK  status: ('A' for Active; 'I' for Inactive)
REMARK    1  A    between atoms: C4_5  and  C5_6
REMARK    2  A    between atoms: C6_7  and  C7_8
REMARK                            x       y       z     vdW  Elec       q    Type
REMARK                         _______ _______ _______ _____ _____    ______ ____
ROOT
ATOM      1  C7  UNL     1     151.087 156.239 157.368  0.00  0.00    +0.224 A 
ATOM      2  N1  UNL     1     151.107 157.528 157.387  0.00  0.00    -0.173 NA
ATOM      3  C8  UNL     1     151.636 158.213 156.327  0.00  0.00    +0.284 A 
ATOM      4  O1  UNL     1     151.683 159.437 156.289  0.00  0.00    -0.265 OA
ATOM      5  C9  UNL     1     152.169 157.450 155.189  0.00  0.00    +0.084 A 
ATOM      6  C10 UNL     1     152.725 158.073 154.068  0.00  0.00    +0.017 A 
ATOM      7  C11 UNL     1     153.214 157.292 153.019  0.00  0.00    +0.001 A 
ATOM      8  C12 UNL     1     153.145 155.898 153.094  0.00  0.00    +0.004 A 
ATOM      9  C13 UNL     1     152.589 155.282 154.215  0.00  0.00    +0.047 A 
ATOM     10  C14 UNL     1     152.104 156.070 155.257  0.00  0.00    +0.143 A 
ATOM     11  O2  UNL     1     151.555 155.421 156.360  0.00  0.00    -0.437 OA
ENDROOT
BRANCH   1  13
ATOM     12  C5  UNL     1     150.609 155.814 159.784  0.00  0.00    +0.013 C 
ATOM     13  C6  UNL     1     150.525 155.455 158.493  0.00  0.00    +0.068 C 
BRANCH  12  18
ATOM     14 BR1  UNL     1     148.175 152.565 164.441  0.00  0.00    -0.050 Br
ATOM     15  C1  UNL     1     148.933 153.568 163.030  0.00  0.00    +0.018 A 
ATOM     16  C2  UNL     1     149.979 154.447 163.289  0.00  0.00    +0.016 A 
ATOM     17  C3  UNL     1     150.541 155.190 162.244  0.00  0.00    +0.009 A 
ATOM     18  C4  UNL     1     150.064 155.063 160.931  0.00  0.00    -0.025 A 
ATOM     19  C15 UNL     1     149.005 154.169 160.695  0.00  0.00    +0.009 A 
ATOM     20  C16 UNL     1     148.442 153.424 161.737  0.00  0.00    +0.016 A 
ENDBRANCH  12  18
ENDBRANCH   1  13
TORSDOF 2
ENDMDL
MODEL 7
REMARK VINA RESULT:    -7.390      5.425      9.916
REMARK INTER + INTRA:          -8.521
REMARK INTER:                  -8.231
REMARK INTRA:                  -0.290
REMARK UNBOUND:                -0.266
REMARK  Name = /home/vital/Documents/PhD_2021/Malaria_codes/data/pdb_ligands_mmv/ligand_237.pdb
REMARK  2 active torsions:
REMARK  status: ('A' for Active; 'I' for Inactive)
REMARK    1  A    between atoms: C4_5  and  C5_6
REMARK    2  A    between atoms: C6_7  and  C7_8
REMARK                            x       y       z     vdW  Elec       q    Type
REMARK                         _______ _______ _______ _____ _____    ______ ____
ROOT
ATOM      1  C7  UNL     1     151.276 157.458 158.976  0.00  0.00    +0.224 A 
ATOM      2  N1  UNL     1     150.801 156.759 159.949  0.00  0.00    -0.173 NA
ATOM      3  C8  UNL     1     150.638 157.333 161.181  0.00  0.00    +0.284 A 
ATOM      4  O1  UNL     1     150.191 156.719 162.142  0.00  0.00    -0.265 OA
ATOM      5  C9  UNL     1     151.013 158.743 161.356  0.00  0.00    +0.084 A 
ATOM      6  C10 UNL     1     150.878 159.405 162.579  0.00  0.00    +0.017 A 
ATOM      7  C11 UNL     1     151.253 160.746 162.682  0.00  0.00    +0.001 A 
ATOM      8  C12 UNL     1     151.758 161.418 161.566  0.00  0.00    +0.004 A 
ATOM      9  C13 UNL     1     151.891 160.753 160.346  0.00  0.00    +0.047 A 
ATOM     10  C14 UNL     1     151.515 159.415 160.254  0.00  0.00    +0.143 A 
ATOM     11  O2  UNL     1     151.660 158.782 159.022  0.00  0.00    -0.437 OA
ENDROOT
BRANCH   1  13
ATOM     12  C5  UNL     1     151.761 157.593 156.528  0.00  0.00    +0.013 C 
ATOM     13  C6  UNL     1     151.470 156.878 157.627  0.00  0.00    +0.068 C 
BRANCH  12  18
ATOM     14 BR1  UNL     1     152.702 155.538 150.778  0.00  0.00    -0.050 Br
ATOM     15  C1  UNL     1     152.405 156.148 152.541  0.00  0.00    +0.018 A 
ATOM     16  C2  UNL     1     151.770 155.322 153.463  0.00  0.00    +0.016 A 
ATOM     17  C3  UNL     1     151.549 155.774 154.770  0.00  0.00    +0.009 A 
ATOM     18  C4  UNL     1     151.961 157.054 155.169  0.00  0.00    -0.025 A 
ATOM     19  C15 UNL     1     152.599 157.870 154.220  0.00  0.00    +0.009 A 
ATOM     20  C16 UNL     1     152.822 157.422 152.913  0.00  0.00    +0.016 A 
ENDBRANCH  12  18
ENDBRANCH   1  13
TORSDOF 2
ENDMDL
MODEL 8
REMARK VINA RESULT:    -7.144      6.039      8.719
REMARK INTER + INTRA:          -8.246
REMARK INTER:                  -7.946
REMARK INTRA:                  -0.300
REMARK UNBOUND:                -0.266
REMARK  Name = /home/vital/Documents/PhD_2021/Malaria_codes/data/pdb_ligands_mmv/ligand_237.pdb
REMARK  2 active torsions:
REMARK  status: ('A' for Active; 'I' for Inactive)
REMARK    1  A    between atoms: C4_5  and  C5_6
REMARK    2  A    between atoms: C6_7  and  C7_8
REMARK                            x       y       z     vdW  Elec       q    Type
REMARK                         _______ _______ _______ _____ _____    ______ ____
ROOT
ATOM      1  C7  UNL     1     150.822 156.926 159.390  0.00  0.00    +0.224 A 
ATOM      2  N1  UNL     1     150.988 158.199 159.279  0.00  0.00    -0.173 NA
ATOM      3  C8  UNL     1     151.323 158.736 158.066  0.00  0.00    +0.284 A 
ATOM      4  O1  UNL     1     151.494 159.938 157.899  0.00  0.00    -0.265 OA
ATOM      5  C9  UNL     1     151.484 157.834 156.916  0.00  0.00    +0.084 A 
ATOM      6  C10 UNL     1     151.824 158.301 155.643  0.00  0.00    +0.017 A 
ATOM      7  C11 UNL     1     151.962 157.393 154.591  0.00  0.00    +0.001 A 
ATOM      8  C12 UNL     1     151.759 156.028 154.814  0.00  0.00    +0.004 A 
ATOM      9  C13 UNL     1     151.419 155.568 156.087  0.00  0.00    +0.047 A 
ATOM     10  C14 UNL     1     151.285 156.481 157.130  0.00  0.00    +0.143 A 
ATOM     11  O2  UNL     1     150.945 155.987 158.387  0.00  0.00    -0.437 OA
ENDROOT
BRANCH   1  13
ATOM     12  C5  UNL     1     149.901 155.087 160.809  0.00  0.00    +0.013 C 
ATOM     13  C6  UNL     1     150.459 156.301 160.683  0.00  0.00    +0.068 C 
BRANCH  12  18
ATOM     14 BR1  UNL     1     148.503 152.457 166.223  0.00  0.00    -0.050 Br
ATOM     15  C1  UNL     1     148.915 153.250 164.558  0.00  0.00    +0.018 A 
ATOM     16  C2  UNL     1     148.155 152.939 163.435  0.00  0.00    +0.016 A 
ATOM     17  C3  UNL     1     148.460 153.527 162.201  0.00  0.00    +0.009 A 
ATOM     18  C4  UNL     1     149.526 154.431 162.077  0.00  0.00    -0.025 A 
ATOM     19  C15 UNL     1     150.279 154.729 163.226  0.00  0.00    +0.009 A 
ATOM     20  C16 UNL     1     149.977 154.143 164.460  0.00  0.00    +0.016 A 
ENDBRANCH  12  18
ENDBRANCH   1  13
TORSDOF 2
ENDMDL
MODEL 9
REMARK VINA RESULT:    -6.824      6.287      9.126
REMARK INTER + INTRA:          -7.888
REMARK INTER:                  -7.633
REMARK INTRA:                  -0.255
REMARK UNBOUND:                -0.266
REMARK  Name = /home/vital/Documents/PhD_2021/Malaria_codes/data/pdb_ligands_mmv/ligand_237.pdb
REMARK  2 active torsions:
REMARK  status: ('A' for Active; 'I' for Inactive)
REMARK    1  A    between atoms: C4_5  and  C5_6
REMARK    2  A    between atoms: C6_7  and  C7_8
REMARK                            x       y       z     vdW  Elec       q    Type
REMARK                         _______ _______ _______ _____ _____    ______ ____
ROOT
ATOM      1  C7  UNL     1     151.463 158.373 159.589  0.00  0.00    +0.224 A 
ATOM      2  N1  UNL     1     151.470 157.131 159.936  0.00  0.00    -0.173 NA
ATOM      3  C8  UNL     1     151.482 156.158 158.973  0.00  0.00    +0.284 A 
ATOM      4  O1  UNL     1     151.488 154.963 159.242  0.00  0.00    -0.265 OA
ATOM      5  C9  UNL     1     151.487 156.565 157.561  0.00  0.00    +0.084 A 
ATOM      6  C10 UNL     1     151.500 155.636 156.517  0.00  0.00    +0.017 A 
ATOM      7  C11 UNL     1     151.504 156.085 155.195  0.00  0.00    +0.001 A 
ATOM      8  C12 UNL     1     151.497 157.456 154.922  0.00  0.00    +0.004 A 
ATOM      9  C13 UNL     1     151.485 158.380 155.968  0.00  0.00    +0.047 A 
ATOM     10  C14 UNL     1     151.480 157.921 157.284  0.00  0.00    +0.143 A 
ATOM     11  O2  UNL     1     151.467 158.870 158.303  0.00  0.00    -0.437 OA
ENDROOT
BRANCH   1  13
ATOM     12  C5  UNL     1     151.401 159.262 161.923  0.00  0.00    +0.013 C 
ATOM     13  C6  UNL     1     151.450 159.459 160.596  0.00  0.00    +0.068 C 
BRANCH  12  18
ATOM     14 BR1  UNL     1     151.490 163.542 166.378  0.00  0.00    -0.050 Br
ATOM     15  C1  UNL     1     151.449 162.245 165.005  0.00  0.00    +0.018 A 
ATOM     16  C2  UNL     1     150.660 162.453 163.879  0.00  0.00    +0.016 A 
ATOM     17  C3  UNL     1     150.629 161.492 162.860  0.00  0.00    +0.009 A 
ATOM     18  C4  UNL     1     151.386 160.315 162.958  0.00  0.00    -0.025 A 
ATOM     19  C15 UNL     1     152.175 160.128 164.105  0.00  0.00    +0.009 A 
ATOM     20  C16 UNL     1     152.208 161.086 165.124  0.00  0.00    +0.016 A 
ENDBRANCH  12  18
ENDBRANCH   1  13
TORSDOF 2
ENDMDL
