MODEL 1
REMARK VINA RESULT:    -5.405      0.000      0.000
REMARK INTER + INTRA:          -7.916
REMARK INTER:                  -6.985
REMARK INTRA:                  -0.931
REMARK UNBOUND:                -0.931
REMARK  Name = /home/vital/Documents/PhD_2021/Malaria_codes/data/pdb_ligands_mmv/ligand_215.pdb
REMARK  5 active torsions:
REMARK  status: ('A' for Active; 'I' for Inactive)
REMARK    1  A    between atoms: C5_7  and  C7_9
REMARK    2  A    between atoms: C8_11  and  C11_14
REMARK    3  A    between atoms: N1_16  and  C12_17
REMARK    4  A    between atoms: C15_20  and  C16_21
REMARK    5  A    between atoms: C16_21  and  N2_22
REMARK                            x       y       z     vdW  Elec       q    Type
REMARK                         _______ _______ _______ _____ _____    ______ ____
ROOT
ATOM      1  C11 UNL     1     152.460 157.465 162.524  0.00  0.00    +0.284 C 
ATOM      2  O2  UNL     1     153.629 157.209 162.802  0.00  0.00    -0.266 OA
ATOM      3  N1  UNL     1     151.690 158.416 163.179  0.00  0.00    -0.279 N 
ATOM      4  H6  UNL     1     150.727 158.500 162.890  0.00  0.00    +0.155 HD
ENDROOT
BRANCH   3   5
ATOM      5  C12 UNL     1     152.076 159.268 164.237  0.00  0.00    +0.034 A 
ATOM      6  C13 UNL     1     152.097 158.713 165.523  0.00  0.00    +0.023 A 
ATOM      7  C14 UNL     1     152.466 159.484 166.629  0.00  0.00    +0.007 A 
ATOM      8  C15 UNL     1     152.833 160.826 166.472  0.00  0.00    -0.033 A 
ATOM      9  C21 UNL     1     152.800 161.381 165.187  0.00  0.00    +0.007 A 
ATOM     10  C22 UNL     1     152.429 160.608 164.080  0.00  0.00    +0.023 A 
BRANCH   8  11
ATOM     11  C16 UNL     1     153.214 161.675 167.668  0.00  0.00    +0.119 C 
BRANCH  11  12
ATOM     12  N2  UNL     1     152.759 161.116 168.950  0.00  0.00    -0.294 NA
ATOM     13  C17 UNL     1     153.817 161.109 169.985  0.00  0.00    +0.113 C 
ATOM     14  C18 UNL     1     153.703 162.267 170.989  0.00  0.00    +0.175 C 
ATOM     15  O3  UNL     1     152.452 162.291 171.690  0.00  0.00    -0.377 OA
ATOM     16  C19 UNL     1     151.379 161.697 170.947  0.00  0.00    +0.175 C 
ATOM     17  C20 UNL     1     151.564 161.845 169.431  0.00  0.00    +0.113 C 
ENDBRANCH  11  12
ENDBRANCH   8  11
ENDBRANCH   3   5
BRANCH   1  20
ATOM     18  C7  UNL     1     151.187 156.452 159.332  0.00  0.00    +0.137 A 
ATOM     19  O1  UNL     1     151.916 157.237 160.178  0.00  0.00    -0.450 OA
ATOM     20  C8  UNL     1     151.754 156.768 161.456  0.00  0.00    +0.190 A 
ATOM     21  C9  UNL     1     150.897 155.680 161.421  0.00  0.00    +0.055 A 
ATOM     22  C10 UNL     1     150.532 155.484 160.065  0.00  0.00    +0.051 A 
BRANCH  18  29
ATOM     23 CL1  UNL     1     152.470 154.990 154.553  0.00  0.00    -0.084 Cl
ATOM     24  C1  UNL     1     151.855 156.169 155.644  0.00  0.00    +0.042 A 
ATOM     25  C2  UNL     1     151.468 157.415 155.165  0.00  0.00    +0.021 A 
ATOM     26  C3  UNL     1     150.968 158.367 156.054  0.00  0.00    +0.022 A 
ATOM     27  C4  UNL     1     150.860 158.075 157.420  0.00  0.00    +0.052 A 
ATOM     28 CL2  UNL     1     150.183 159.317 158.418  0.00  0.00    -0.083 Cl
ATOM     29  C5  UNL     1     151.257 156.820 157.920  0.00  0.00    +0.037 A 
ATOM     30  C6  UNL     1     151.751 155.870 157.004  0.00  0.00    +0.033 A 
ENDBRANCH  18  29
ENDBRANCH   1  20
TORSDOF 5
ENDMDL
MODEL 2
REMARK VINA RESULT:    -5.244      4.281     11.459
REMARK INTER + INTRA:          -7.707
REMARK INTER:                  -6.885
REMARK INTRA:                  -0.823
REMARK UNBOUND:                -0.931
REMARK  Name = /home/vital/Documents/PhD_2021/Malaria_codes/data/pdb_ligands_mmv/ligand_215.pdb
REMARK  5 active torsions:
REMARK  status: ('A' for Active; 'I' for Inactive)
REMARK    1  A    between atoms: C5_7  and  C7_9
REMARK    2  A    between atoms: C8_11  and  C11_14
REMARK    3  A    between atoms: N1_16  and  C12_17
REMARK    4  A    between atoms: C15_20  and  C16_21
REMARK    5  A    between atoms: C16_21  and  N2_22
REMARK                            x       y       z     vdW  Elec       q    Type
REMARK                         _______ _______ _______ _____ _____    ______ ____
ROOT
ATOM      1  C11 UNL     1     150.936 160.718 163.556  0.00  0.00    +0.284 C 
ATOM      2  O2  UNL     1     150.617 159.557 163.797  0.00  0.00    -0.266 OA
ATOM      3  N1  UNL     1     151.070 161.244 162.278  0.00  0.00    -0.279 N 
ATOM      4  H6  UNL     1     151.385 162.200 162.211  0.00  0.00    +0.155 HD
ENDROOT
BRANCH   3   5
ATOM      5  C12 UNL     1     150.856 160.593 161.044  0.00  0.00    +0.034 A 
ATOM      6  C13 UNL     1     151.778 160.853 160.022  0.00  0.00    +0.023 A 
ATOM      7  C14 UNL     1     151.643 160.252 158.767  0.00  0.00    +0.007 A 
ATOM      8  C15 UNL     1     150.587 159.369 158.509  0.00  0.00    -0.033 A 
ATOM      9  C21 UNL     1     149.661 159.121 159.529  0.00  0.00    +0.007 A 
ATOM     10  C22 UNL     1     149.796 159.724 160.785  0.00  0.00    +0.023 A 
BRANCH   8  11
ATOM     11  C16 UNL     1     150.421 158.729 157.146  0.00  0.00    +0.119 C 
BRANCH  11  12
ATOM     12  N2  UNL     1     151.646 158.085 156.650  0.00  0.00    -0.294 NA
ATOM     13  C17 UNL     1     151.707 156.640 156.965  0.00  0.00    +0.113 C 
ATOM     14  C18 UNL     1     151.317 155.736 155.784  0.00  0.00    +0.175 C 
ATOM     15  O3  UNL     1     152.139 155.931 154.624  0.00  0.00    -0.377 OA
ATOM     16  C19 UNL     1     152.693 157.252 154.542  0.00  0.00    +0.175 C 
ATOM     17  C20 UNL     1     151.790 158.307 155.194  0.00  0.00    +0.113 C 
ENDBRANCH  11  12
ENDBRANCH   8  11
ENDBRANCH   3   5
BRANCH   1  20
ATOM     18  C7  UNL     1     151.883 162.224 166.666  0.00  0.00    +0.137 A 
ATOM     19  O1  UNL     1     151.677 161.179 165.813  0.00  0.00    -0.450 OA
ATOM     20  C8  UNL     1     151.216 161.674 164.621  0.00  0.00    +0.190 A 
ATOM     21  C9  UNL     1     151.113 163.051 164.725  0.00  0.00    +0.055 A 
ATOM     22  C10 UNL     1     151.535 163.400 166.034  0.00  0.00    +0.051 A 
BRANCH  18  29
ATOM     23 CL1  UNL     1     150.776 161.560 171.661  0.00  0.00    -0.084 Cl
ATOM     24  C1  UNL     1     151.902 161.540 170.362  0.00  0.00    +0.042 A 
ATOM     25  C2  UNL     1     153.229 161.205 170.606  0.00  0.00    +0.021 A 
ATOM     26  C3  UNL     1     154.138 161.189 169.548  0.00  0.00    +0.022 A 
ATOM     27  C4  UNL     1     153.723 161.512 168.249  0.00  0.00    +0.052 A 
ATOM     28 CL2  UNL     1     154.929 161.412 167.012  0.00  0.00    -0.083 Cl
ATOM     29  C5  UNL     1     152.384 161.861 167.990  0.00  0.00    +0.037 A 
ATOM     30  C6  UNL     1     151.480 161.863 169.071  0.00  0.00    +0.033 A 
ENDBRANCH  18  29
ENDBRANCH   1  20
TORSDOF 5
ENDMDL
MODEL 3
REMARK VINA RESULT:    -5.182      7.305     10.273
REMARK INTER + INTRA:          -7.627
REMARK INTER:                  -6.715
REMARK INTRA:                  -0.912
REMARK UNBOUND:                -0.931
REMARK  Name = /home/vital/Documents/PhD_2021/Malaria_codes/data/pdb_ligands_mmv/ligand_215.pdb
REMARK  5 active torsions:
REMARK  status: ('A' for Active; 'I' for Inactive)
REMARK    1  A    between atoms: C5_7  and  C7_9
REMARK    2  A    between atoms: C8_11  and  C11_14
REMARK    3  A    between atoms: N1_16  and  C12_17
REMARK    4  A    between atoms: C15_20  and  C16_21
REMARK    5  A    between atoms: C16_21  and  N2_22
REMARK                            x       y       z     vdW  Elec       q    Type
REMARK                         _______ _______ _______ _____ _____    ______ ____
ROOT
ATOM      1  C11 UNL     1     148.092 153.526 161.872  0.00  0.00    +0.284 C 
ATOM      2  O2  UNL     1     146.978 153.997 161.661  0.00  0.00    -0.266 OA
ATOM      3  N1  UNL     1     148.323 152.315 162.509  0.00  0.00    -0.279 N 
ATOM      4  H6  UNL     1     149.286 152.060 162.666  0.00  0.00    +0.155 HD
ENDROOT
BRANCH   3   5
ATOM      5  C12 UNL     1     147.370 151.399 163.006  0.00  0.00    +0.034 A 
ATOM      6  C13 UNL     1     147.405 151.130 164.380  0.00  0.00    +0.023 A 
ATOM      7  C14 UNL     1     146.499 150.235 164.957  0.00  0.00    +0.007 A 
ATOM      8  C15 UNL     1     145.529 149.598 164.174  0.00  0.00    -0.033 A 
ATOM      9  C21 UNL     1     145.504 149.860 162.799  0.00  0.00    +0.007 A 
ATOM     10  C22 UNL     1     146.414 150.755 162.222  0.00  0.00    +0.023 A 
BRANCH   8  11
ATOM     11  C16 UNL     1     144.557 148.611 164.787  0.00  0.00    +0.119 C 
BRANCH  11  12
ATOM     12  N2  UNL     1     143.259 149.209 165.134  0.00  0.00    -0.294 NA
ATOM     13  C17 UNL     1     142.110 148.457 164.580  0.00  0.00    +0.113 C 
ATOM     14  C18 UNL     1     141.427 147.537 165.604  0.00  0.00    +0.175 C 
ATOM     15  O3  UNL     1     140.934 148.235 166.756  0.00  0.00    -0.377 OA
ATOM     16  C19 UNL     1     141.666 149.436 167.042  0.00  0.00    +0.175 C 
ATOM     17  C20 UNL     1     143.133 149.347 166.601  0.00  0.00    +0.113 C 
ENDBRANCH  11  12
ENDBRANCH   8  11
ENDBRANCH   3   5
BRANCH   1  20
ATOM     18  C7  UNL     1     150.518 155.442 160.059  0.00  0.00    +0.137 A 
ATOM     19  O1  UNL     1     149.302 154.851 160.248  0.00  0.00    -0.450 OA
ATOM     20  C8  UNL     1     149.309 154.220 161.465  0.00  0.00    +0.190 A 
ATOM     21  C9  UNL     1     150.552 154.399 162.048  0.00  0.00    +0.055 A 
ATOM     22  C10 UNL     1     151.324 155.174 161.146  0.00  0.00    +0.051 A 
BRANCH  18  29
ATOM     23 CL1  UNL     1     151.886 155.207 155.090  0.00  0.00    -0.084 Cl
ATOM     24  C1  UNL     1     151.315 156.098 156.445  0.00  0.00    +0.042 A 
ATOM     25  C2  UNL     1     151.040 157.454 156.311  0.00  0.00    +0.021 A 
ATOM     26  C3  UNL     1     150.575 158.172 157.413  0.00  0.00    +0.022 A 
ATOM     27  C4  UNL     1     150.390 157.537 158.648  0.00  0.00    +0.052 A 
ATOM     28 CL2  UNL     1     149.766 158.519 159.929  0.00  0.00    -0.083 Cl
ATOM     29  C5  UNL     1     150.673 156.166 158.799  0.00  0.00    +0.037 A 
ATOM     30  C6  UNL     1     151.133 155.457 157.671  0.00  0.00    +0.033 A 
ENDBRANCH  18  29
ENDBRANCH   1  20
TORSDOF 5
ENDMDL
MODEL 4
REMARK VINA RESULT:    -5.089      4.136     11.452
REMARK INTER + INTRA:          -7.506
REMARK INTER:                  -6.870
REMARK INTRA:                  -0.637
REMARK UNBOUND:                -0.931
REMARK  Name = /home/vital/Documents/PhD_2021/Malaria_codes/data/pdb_ligands_mmv/ligand_215.pdb
REMARK  5 active torsions:
REMARK  status: ('A' for Active; 'I' for Inactive)
REMARK    1  A    between atoms: C5_7  and  C7_9
REMARK    2  A    between atoms: C8_11  and  C11_14
REMARK    3  A    between atoms: N1_16  and  C12_17
REMARK    4  A    between atoms: C15_20  and  C16_21
REMARK    5  A    between atoms: C16_21  and  N2_22
REMARK                            x       y       z     vdW  Elec       q    Type
REMARK                         _______ _______ _______ _____ _____    ______ ____
ROOT
ATOM      1  C11 UNL     1     151.517 159.210 161.616  0.00  0.00    +0.284 C 
ATOM      2  O2  UNL     1     152.615 158.661 161.585  0.00  0.00    -0.266 OA
ATOM      3  N1  UNL     1     150.535 159.053 160.647  0.00  0.00    -0.279 N 
ATOM      4  H6  UNL     1     149.693 159.597 160.761  0.00  0.00    +0.155 HD
ENDROOT
BRANCH   3   5
ATOM      5  C12 UNL     1     150.580 158.249 159.488  0.00  0.00    +0.034 A 
ATOM      6  C13 UNL     1     149.957 158.755 158.341  0.00  0.00    +0.023 A 
ATOM      7  C14 UNL     1     149.952 158.026 157.148  0.00  0.00    +0.007 A 
ATOM      8  C15 UNL     1     150.579 156.776 157.073  0.00  0.00    -0.033 A 
ATOM      9  C21 UNL     1     151.191 156.268 158.225  0.00  0.00    +0.007 A 
ATOM     10  C22 UNL     1     151.194 156.999 159.420  0.00  0.00    +0.023 A 
BRANCH   8  11
ATOM     11  C16 UNL     1     150.560 155.969 155.791  0.00  0.00    +0.119 C 
BRANCH  11  12
ATOM     12  N2  UNL     1     151.883 155.847 155.159  0.00  0.00    -0.294 NA
ATOM     13  C17 UNL     1     151.967 154.713 154.212  0.00  0.00    +0.113 C 
ATOM     14  C18 UNL     1     151.824 155.130 152.739  0.00  0.00    +0.175 C 
ATOM     15  O3  UNL     1     152.812 156.082 152.319  0.00  0.00    -0.377 OA
ATOM     16  C19 UNL     1     153.301 156.897 153.393  0.00  0.00    +0.175 C 
ATOM     17  C20 UNL     1     152.249 157.115 154.489  0.00  0.00    +0.113 C 
ENDBRANCH  11  12
ENDBRANCH   8  11
ENDBRANCH   3   5
BRANCH   1  20
ATOM     18  C7  UNL     1     151.261 160.858 164.788  0.00  0.00    +0.137 A 
ATOM     19  O1  UNL     1     151.742 159.923 163.918  0.00  0.00    -0.450 OA
ATOM     20  C8  UNL     1     151.137 160.107 162.701  0.00  0.00    +0.190 A 
ATOM     21  C9  UNL     1     150.248 161.164 162.807  0.00  0.00    +0.055 A 
ATOM     22  C10 UNL     1     150.325 161.638 164.141  0.00  0.00    +0.051 A 
BRANCH  18  29
ATOM     23 CL1  UNL     1     155.374 161.649 167.801  0.00  0.00    -0.084 Cl
ATOM     24  C1  UNL     1     153.739 161.156 167.598  0.00  0.00    +0.042 A 
ATOM     25  C2  UNL     1     153.014 160.710 168.697  0.00  0.00    +0.021 A 
ATOM     26  C3  UNL     1     151.687 160.312 168.527  0.00  0.00    +0.022 A 
ATOM     27  C4  UNL     1     151.088 160.357 167.261  0.00  0.00    +0.052 A 
ATOM     28 CL2  UNL     1     149.425 159.883 167.182  0.00  0.00    -0.083 Cl
ATOM     29  C5  UNL     1     151.815 160.799 166.139  0.00  0.00    +0.037 A 
ATOM     30  C6  UNL     1     153.151 161.204 166.333  0.00  0.00    +0.033 A 
ENDBRANCH  18  29
ENDBRANCH   1  20
TORSDOF 5
ENDMDL
MODEL 5
REMARK VINA RESULT:    -5.047      7.376     10.857
REMARK INTER + INTRA:          -7.453
REMARK INTER:                  -6.538
REMARK INTRA:                  -0.915
REMARK UNBOUND:                -0.931
REMARK  Name = /home/vital/Documents/PhD_2021/Malaria_codes/data/pdb_ligands_mmv/ligand_215.pdb
REMARK  5 active torsions:
REMARK  status: ('A' for Active; 'I' for Inactive)
REMARK    1  A    between atoms: C5_7  and  C7_9
REMARK    2  A    between atoms: C8_11  and  C11_14
REMARK    3  A    between atoms: N1_16  and  C12_17
REMARK    4  A    between atoms: C15_20  and  C16_21
REMARK    5  A    between atoms: C16_21  and  N2_22
REMARK                            x       y       z     vdW  Elec       q    Type
REMARK                         _______ _______ _______ _____ _____    ______ ____
ROOT
ATOM      1  C11 UNL     1     147.951 153.581 161.973  0.00  0.00    +0.284 C 
ATOM      2  O2  UNL     1     146.825 153.945 161.647  0.00  0.00    -0.266 OA
ATOM      3  N1  UNL     1     148.228 152.395 162.640  0.00  0.00    -0.279 N 
ATOM      4  H6  UNL     1     149.190 152.232 162.896  0.00  0.00    +0.155 HD
ENDROOT
BRANCH   3   5
ATOM      5  C12 UNL     1     147.320 151.393 163.043  0.00  0.00    +0.034 A 
ATOM      6  C13 UNL     1     147.300 151.065 164.404  0.00  0.00    +0.023 A 
ATOM      7  C14 UNL     1     146.432 150.083 164.892  0.00  0.00    +0.007 A 
ATOM      8  C15 UNL     1     145.556 149.414 164.029  0.00  0.00    -0.033 A 
ATOM      9  C21 UNL     1     145.586 149.736 162.667  0.00  0.00    +0.007 A 
ATOM     10  C22 UNL     1     146.457 150.718 162.180  0.00  0.00    +0.023 A 
BRANCH   8  11
ATOM     11  C16 UNL     1     144.627 148.334 164.545  0.00  0.00    +0.119 C 
BRANCH  11  12
ATOM     12  N2  UNL     1     144.848 147.024 163.915  0.00  0.00    -0.294 NA
ATOM     13  C17 UNL     1     146.008 146.299 164.480  0.00  0.00    +0.113 C 
ATOM     14  C18 UNL     1     145.619 145.216 165.499  0.00  0.00    +0.175 C 
ATOM     15  O3  UNL     1     144.742 144.217 164.959  0.00  0.00    -0.377 OA
ATOM     16  C19 UNL     1     143.934 144.702 163.878  0.00  0.00    +0.175 C 
ATOM     17  C20 UNL     1     143.623 146.199 164.004  0.00  0.00    +0.113 C 
ENDBRANCH  11  12
ENDBRANCH   8  11
ENDBRANCH   3   5
BRANCH   1  20
ATOM     18  C7  UNL     1     150.368 155.705 160.396  0.00  0.00    +0.137 A 
ATOM     19  O1  UNL     1     149.201 154.999 160.463  0.00  0.00    -0.450 OA
ATOM     20  C8  UNL     1     149.132 154.387 161.688  0.00  0.00    +0.190 A 
ATOM     21  C9  UNL     1     150.278 154.697 162.401  0.00  0.00    +0.055 A 
ATOM     22  C10 UNL     1     151.068 155.534 161.572  0.00  0.00    +0.051 A 
BRANCH  18  29
ATOM     23 CL1  UNL     1     152.031 155.457 155.518  0.00  0.00    -0.084 Cl
ATOM     24  C1  UNL     1     151.374 156.351 156.833  0.00  0.00    +0.042 A 
ATOM     25  C2  UNL     1     151.099 157.704 156.675  0.00  0.00    +0.021 A 
ATOM     26  C3  UNL     1     150.565 158.424 157.744  0.00  0.00    +0.022 A 
ATOM     27  C4  UNL     1     150.310 157.793 158.970  0.00  0.00    +0.052 A 
ATOM     28 CL2  UNL     1     149.604 158.777 160.206  0.00  0.00    -0.083 Cl
ATOM     29  C5  UNL     1     150.592 156.425 159.144  0.00  0.00    +0.037 A 
ATOM     30  C6  UNL     1     151.124 155.714 158.049  0.00  0.00    +0.033 A 
ENDBRANCH  18  29
ENDBRANCH   1  20
TORSDOF 5
ENDMDL
MODEL 6
REMARK VINA RESULT:    -5.024      4.143     11.865
REMARK INTER + INTRA:          -7.423
REMARK INTER:                  -6.801
REMARK INTRA:                  -0.622
REMARK UNBOUND:                -0.931
REMARK  Name = /home/vital/Documents/PhD_2021/Malaria_codes/data/pdb_ligands_mmv/ligand_215.pdb
REMARK  5 active torsions:
REMARK  status: ('A' for Active; 'I' for Inactive)
REMARK    1  A    between atoms: C5_7  and  C7_9
REMARK    2  A    between atoms: C8_11  and  C11_14
REMARK    3  A    between atoms: N1_16  and  C12_17
REMARK    4  A    between atoms: C15_20  and  C16_21
REMARK    5  A    between atoms: C16_21  and  N2_22
REMARK                            x       y       z     vdW  Elec       q    Type
REMARK                         _______ _______ _______ _____ _____    ______ ____
ROOT
ATOM      1  C11 UNL     1     152.090 159.593 159.954  0.00  0.00    +0.284 C 
ATOM      2  O2  UNL     1     153.298 159.676 159.746  0.00  0.00    -0.266 OA
ATOM      3  N1  UNL     1     151.209 158.866 159.165  0.00  0.00    -0.279 N 
ATOM      4  H6  UNL     1     150.232 158.915 159.412  0.00  0.00    +0.155 HD
ENDROOT
BRANCH   3   5
ATOM      5  C12 UNL     1     151.502 158.088 158.025  0.00  0.00    +0.034 A 
ATOM      6  C13 UNL     1     151.488 156.696 158.186  0.00  0.00    +0.023 A 
ATOM      7  C14 UNL     1     151.767 155.848 157.110  0.00  0.00    +0.007 A 
ATOM      8  C15 UNL     1     152.057 156.373 155.845  0.00  0.00    -0.033 A 
ATOM      9  C21 UNL     1     152.082 157.764 155.690  0.00  0.00    +0.007 A 
ATOM     10  C22 UNL     1     151.804 158.613 156.769  0.00  0.00    +0.023 A 
BRANCH   8  11
ATOM     11  C16 UNL     1     152.382 155.463 154.679  0.00  0.00    +0.119 C 
BRANCH  11  12
ATOM     12  N2  UNL     1     152.251 156.121 153.370  0.00  0.00    -0.294 NA
ATOM     13  C17 UNL     1     153.546 156.586 152.826  0.00  0.00    +0.113 C 
ATOM     14  C18 UNL     1     154.141 155.646 151.765  0.00  0.00    +0.175 C 
ATOM     15  O3  UNL     1     153.278 155.444 150.637  0.00  0.00    -0.377 OA
ATOM     16  C19 UNL     1     151.888 155.601 150.956  0.00  0.00    +0.175 C 
ATOM     17  C20 UNL     1     151.574 155.222 152.409  0.00  0.00    +0.113 C 
ENDBRANCH  11  12
ENDBRANCH   8  11
ENDBRANCH   3   5
BRANCH   1  20
ATOM     18  C7  UNL     1     151.301 160.848 163.216  0.00  0.00    +0.137 A 
ATOM     19  O1  UNL     1     152.034 160.135 162.311  0.00  0.00    -0.450 OA
ATOM     20  C8  UNL     1     151.455 160.273 161.076  0.00  0.00    +0.190 A 
ATOM     21  C9  UNL     1     150.330 161.070 161.203  0.00  0.00    +0.055 A 
ATOM     22  C10 UNL     1     150.230 161.431 162.571  0.00  0.00    +0.051 A 
BRANCH  18  29
ATOM     23 CL1  UNL     1     152.484 163.542 167.454  0.00  0.00    -0.084 Cl
ATOM     24  C1  UNL     1     152.368 162.045 166.615  0.00  0.00    +0.042 A 
ATOM     25  C2  UNL     1     152.754 160.869 167.248  0.00  0.00    +0.021 A 
ATOM     26  C3  UNL     1     152.656 159.657 166.564  0.00  0.00    +0.022 A 
ATOM     27  C4  UNL     1     152.178 159.622 165.247  0.00  0.00    +0.052 A 
ATOM     28 CL2  UNL     1     152.059 158.057 164.517  0.00  0.00    -0.083 Cl
ATOM     29  C5  UNL     1     151.793 160.807 164.591  0.00  0.00    +0.037 A 
ATOM     30  C6  UNL     1     151.891 162.019 165.304  0.00  0.00    +0.033 A 
ENDBRANCH  18  29
ENDBRANCH   1  20
TORSDOF 5
ENDMDL
MODEL 7
REMARK VINA RESULT:    -4.920      4.158     11.172
REMARK INTER + INTRA:          -7.288
REMARK INTER:                  -6.322
REMARK INTRA:                  -0.966
REMARK UNBOUND:                -0.931
REMARK  Name = /home/vital/Documents/PhD_2021/Malaria_codes/data/pdb_ligands_mmv/ligand_215.pdb
REMARK  5 active torsions:
REMARK  status: ('A' for Active; 'I' for Inactive)
REMARK    1  A    between atoms: C5_7  and  C7_9
REMARK    2  A    between atoms: C8_11  and  C11_14
REMARK    3  A    between atoms: N1_16  and  C12_17
REMARK    4  A    between atoms: C15_20  and  C16_21
REMARK    5  A    between atoms: C16_21  and  N2_22
REMARK                            x       y       z     vdW  Elec       q    Type
REMARK                         _______ _______ _______ _____ _____    ______ ____
ROOT
ATOM      1  C11 UNL     1     152.035 157.981 162.218  0.00  0.00    +0.284 C 
ATOM      2  O2  UNL     1     153.170 157.985 161.749  0.00  0.00    -0.266 OA
ATOM      3  N1  UNL     1     150.883 157.760 161.476  0.00  0.00    -0.279 N 
ATOM      4  H6  UNL     1     150.005 157.830 161.968  0.00  0.00    +0.155 HD
ENDROOT
BRANCH   3   5
ATOM      5  C12 UNL     1     150.778 157.483 160.096  0.00  0.00    +0.034 A 
ATOM      6  C13 UNL     1     151.121 156.190 159.681  0.00  0.00    +0.023 A 
ATOM      7  C14 UNL     1     151.047 155.829 158.332  0.00  0.00    +0.007 A 
ATOM      8  C15 UNL     1     150.618 156.750 157.369  0.00  0.00    -0.033 A 
ATOM      9  C21 UNL     1     150.287 158.045 157.786  0.00  0.00    +0.007 A 
ATOM     10  C22 UNL     1     150.363 158.407 159.137  0.00  0.00    +0.023 A 
BRANCH   8  11
ATOM     11  C16 UNL     1     150.555 156.374 155.903  0.00  0.00    +0.119 C 
BRANCH  11  12
ATOM     12  N2  UNL     1     151.879 156.188 155.290  0.00  0.00    -0.294 NA
ATOM     13  C17 UNL     1     151.993 154.920 154.536  0.00  0.00    +0.113 C 
ATOM     14  C18 UNL     1     151.836 155.092 153.017  0.00  0.00    +0.175 C 
ATOM     15  O3  UNL     1     152.797 155.990 152.444  0.00  0.00    -0.377 OA
ATOM     16  C19 UNL     1     153.265 156.979 153.371  0.00  0.00    +0.175 C 
ATOM     17  C20 UNL     1     152.209 157.341 154.424  0.00  0.00    +0.113 C 
ENDBRANCH  11  12
ENDBRANCH   8  11
ENDBRANCH   3   5
BRANCH   1  20
ATOM     18  C7  UNL     1     151.340 159.525 165.376  0.00  0.00    +0.137 A 
ATOM     19  O1  UNL     1     151.554 159.514 164.028  0.00  0.00    -0.450 OA
ATOM     20  C8  UNL     1     151.788 158.221 163.635  0.00  0.00    +0.190 A 
ATOM     21  C9  UNL     1     151.738 157.405 164.752  0.00  0.00    +0.055 A 
ATOM     22  C10 UNL     1     151.457 158.240 165.863  0.00  0.00    +0.051 A 
BRANCH  18  29
ATOM     23 CL1  UNL     1     147.757 162.897 166.929  0.00  0.00    -0.084 Cl
ATOM     24  C1  UNL     1     149.405 162.464 166.697  0.00  0.00    +0.042 A 
ATOM     25  C2  UNL     1     150.408 163.362 167.044  0.00  0.00    +0.021 A 
ATOM     26  C3  UNL     1     151.744 163.005 166.855  0.00  0.00    +0.022 A 
ATOM     27  C4  UNL     1     152.076 161.754 166.318  0.00  0.00    +0.052 A 
ATOM     28 CL2  UNL     1     153.765 161.406 166.174  0.00  0.00    -0.083 Cl
ATOM     29  C5  UNL     1     151.069 160.839 165.955  0.00  0.00    +0.037 A 
ATOM     30  C6  UNL     1     149.727 161.216 166.162  0.00  0.00    +0.033 A 
ENDBRANCH  18  29
ENDBRANCH   1  20
TORSDOF 5
ENDMDL
MODEL 8
REMARK VINA RESULT:    -4.884      4.004     11.382
REMARK INTER + INTRA:          -7.242
REMARK INTER:                  -6.283
REMARK INTRA:                  -0.959
REMARK UNBOUND:                -0.931
REMARK  Name = /home/vital/Documents/PhD_2021/Malaria_codes/data/pdb_ligands_mmv/ligand_215.pdb
REMARK  5 active torsions:
REMARK  status: ('A' for Active; 'I' for Inactive)
REMARK    1  A    between atoms: C5_7  and  C7_9
REMARK    2  A    between atoms: C8_11  and  C11_14
REMARK    3  A    between atoms: N1_16  and  C12_17
REMARK    4  A    between atoms: C15_20  and  C16_21
REMARK    5  A    between atoms: C16_21  and  N2_22
REMARK                            x       y       z     vdW  Elec       q    Type
REMARK                         _______ _______ _______ _____ _____    ______ ____
ROOT
ATOM      1  C11 UNL     1     151.952 158.230 161.390  0.00  0.00    +0.284 C 
ATOM      2  O2  UNL     1     152.778 158.931 160.811  0.00  0.00    -0.266 OA
ATOM      3  N1  UNL     1     151.081 157.357 160.753  0.00  0.00    -0.279 N 
ATOM      4  H6  UNL     1     150.415 156.872 161.336  0.00  0.00    +0.155 HD
ENDROOT
BRANCH   3   5
ATOM      5  C12 UNL     1     150.981 157.085 159.371  0.00  0.00    +0.034 A 
ATOM      6  C13 UNL     1     151.531 155.878 158.921  0.00  0.00    +0.023 A 
ATOM      7  C14 UNL     1     151.476 155.527 157.569  0.00  0.00    +0.007 A 
ATOM      8  C15 UNL     1     150.862 156.372 156.637  0.00  0.00    -0.033 A 
ATOM      9  C21 UNL     1     150.323 157.583 157.088  0.00  0.00    +0.007 A 
ATOM     10  C22 UNL     1     150.380 157.934 158.442  0.00  0.00    +0.023 A 
BRANCH   8  11
ATOM     11  C16 UNL     1     150.817 156.010 155.167  0.00  0.00    +0.119 C 
BRANCH  11  12
ATOM     12  N2  UNL     1     152.123 156.116 154.499  0.00  0.00    -0.294 NA
ATOM     13  C17 UNL     1     152.334 155.072 153.472  0.00  0.00    +0.113 C 
ATOM     14  C18 UNL     1     152.089 155.562 152.036  0.00  0.00    +0.175 C 
ATOM     15  O3  UNL     1     152.923 156.668 151.664  0.00  0.00    -0.377 OA
ATOM     16  C19 UNL     1     153.328 157.470 152.783  0.00  0.00    +0.175 C 
ATOM     17  C20 UNL     1     152.290 157.465 153.913  0.00  0.00    +0.113 C 
ENDBRANCH  11  12
ENDBRANCH   8  11
ENDBRANCH   3   5
BRANCH   1  20
ATOM     18  C7  UNL     1     151.868 159.261 164.821  0.00  0.00    +0.137 A 
ATOM     19  O1  UNL     1     152.072 159.439 163.483  0.00  0.00    -0.450 OA
ATOM     20  C8  UNL     1     151.803 158.258 162.840  0.00  0.00    +0.190 A 
ATOM     21  C9  UNL     1     151.440 157.314 163.786  0.00  0.00    +0.055 A 
ATOM     22  C10 UNL     1     151.487 157.955 165.050  0.00  0.00    +0.051 A 
BRANCH  18  29
ATOM     23 CL1  UNL     1     155.180 161.779 167.872  0.00  0.00    -0.084 Cl
ATOM     24  C1  UNL     1     153.645 161.658 167.106  0.00  0.00    +0.042 A 
ATOM     25  C2  UNL     1     152.695 162.652 167.308  0.00  0.00    +0.021 A 
ATOM     26  C3  UNL     1     151.452 162.551 166.683  0.00  0.00    +0.022 A 
ATOM     27  C4  UNL     1     151.158 161.455 165.859  0.00  0.00    +0.052 A 
ATOM     28 CL2  UNL     1     149.603 161.462 165.101  0.00  0.00    -0.083 Cl
ATOM     29  C5  UNL     1     152.110 160.438 165.653  0.00  0.00    +0.037 A 
ATOM     30  C6  UNL     1     153.362 160.564 166.287  0.00  0.00    +0.033 A 
ENDBRANCH  18  29
ENDBRANCH   1  20
TORSDOF 5
ENDMDL
MODEL 9
REMARK VINA RESULT:    -4.796      2.215      2.871
REMARK INTER + INTRA:          -7.128
REMARK INTER:                  -6.464
REMARK INTRA:                  -0.664
REMARK UNBOUND:                -0.931
REMARK  Name = /home/vital/Documents/PhD_2021/Malaria_codes/data/pdb_ligands_mmv/ligand_215.pdb
REMARK  5 active torsions:
REMARK  status: ('A' for Active; 'I' for Inactive)
REMARK    1  A    between atoms: C5_7  and  C7_9
REMARK    2  A    between atoms: C8_11  and  C11_14
REMARK    3  A    between atoms: N1_16  and  C12_17
REMARK    4  A    between atoms: C15_20  and  C16_21
REMARK    5  A    between atoms: C16_21  and  N2_22
REMARK                            x       y       z     vdW  Elec       q    Type
REMARK                         _______ _______ _______ _____ _____    ______ ____
ROOT
ATOM      1  C11 UNL     1     152.098 159.709 160.806  0.00  0.00    +0.284 C 
ATOM      2  O2  UNL     1     152.727 158.789 161.322  0.00  0.00    -0.266 OA
ATOM      3  N1  UNL     1     151.489 160.735 161.516  0.00  0.00    -0.279 N 
ATOM      4  H6  UNL     1     150.959 161.407 160.981  0.00  0.00    +0.155 HD
ENDROOT
BRANCH   3   5
ATOM      5  C12 UNL     1     151.485 160.942 162.912  0.00  0.00    +0.034 A 
ATOM      6  C13 UNL     1     152.731 161.081 163.537  0.00  0.00    +0.023 A 
ATOM      7  C14 UNL     1     152.821 161.289 164.917  0.00  0.00    +0.007 A 
ATOM      8  C15 UNL     1     151.665 161.373 165.702  0.00  0.00    -0.033 A 
ATOM      9  C21 UNL     1     150.421 161.222 165.077  0.00  0.00    +0.007 A 
ATOM     10  C22 UNL     1     150.333 161.012 163.695  0.00  0.00    +0.023 A 
BRANCH   8  11
ATOM     11  C16 UNL     1     151.753 161.576 167.201  0.00  0.00    +0.119 C 
BRANCH  11  12
ATOM     12  N2  UNL     1     153.130 161.536 167.715  0.00  0.00    -0.294 NA
ATOM     13  C17 UNL     1     153.498 162.751 168.476  0.00  0.00    +0.113 C 
ATOM     14  C18 UNL     1     153.425 162.567 170.001  0.00  0.00    +0.175 C 
ATOM     15  O3  UNL     1     154.269 161.515 170.487  0.00  0.00    -0.377 OA
ATOM     16  C19 UNL     1     154.507 160.488 169.514  0.00  0.00    +0.175 C 
ATOM     17  C20 UNL     1     153.334 160.323 168.538  0.00  0.00    +0.113 C 
ENDBRANCH  11  12
ENDBRANCH   8  11
ENDBRANCH   3   5
BRANCH   1  20
ATOM     18  C7  UNL     1     151.841 158.952 157.314  0.00  0.00    +0.137 A 
ATOM     19  O1  UNL     1     152.046 158.653 158.630  0.00  0.00    -0.450 OA
ATOM     20  C8  UNL     1     151.922 159.806 159.362  0.00  0.00    +0.190 A 
ATOM     21  C9  UNL     1     151.652 160.852 158.496  0.00  0.00    +0.055 A 
ATOM     22  C10 UNL     1     151.605 160.305 157.188  0.00  0.00    +0.051 A 
BRANCH  18  29
ATOM     23 CL1  UNL     1     153.557 157.222 152.766  0.00  0.00    -0.084 Cl
ATOM     24  C1  UNL     1     152.725 156.964 154.249  0.00  0.00    +0.042 A 
ATOM     25  C2  UNL     1     152.164 155.721 154.516  0.00  0.00    +0.021 A 
ATOM     26  C3  UNL     1     151.491 155.516 155.721  0.00  0.00    +0.022 A 
ATOM     27  C4  UNL     1     151.376 156.554 156.656  0.00  0.00    +0.052 A 
ATOM     28 CL2  UNL     1     150.561 156.168 158.133  0.00  0.00    -0.083 Cl
ATOM     29  C5  UNL     1     151.934 157.820 156.394  0.00  0.00    +0.037 A 
ATOM     30  C6  UNL     1     152.616 158.003 155.174  0.00  0.00    +0.033 A 
ENDBRANCH  18  29
ENDBRANCH   1  20
TORSDOF 5
ENDMDL
