MODEL 1
REMARK VINA RESULT:    -6.454      0.000      0.000
REMARK INTER + INTRA:          -7.971
REMARK INTER:                  -7.586
REMARK INTRA:                  -0.385
REMARK UNBOUND:                -0.385
REMARK  Name = /home/vital/Documents/PhD_2021/Malaria_codes/data/pdb_ligands_mmv/ligand_192.pdb
REMARK  6 active torsions:
REMARK  status: ('A' for Active; 'I' for Inactive)
REMARK    1  A    between atoms: C1_1  and  O1_2
REMARK    2  A    between atoms: O1_2  and  C2_3
REMARK    3  A    between atoms: C4_5  and  S1_6
REMARK    4  A    between atoms: S1_6  and  C5_7
REMARK    5  A    between atoms: C8_10  and  C9_11
REMARK    6  A    between atoms: C13_17  and  C14_18
REMARK                            x       y       z     vdW  Elec       q    Type
REMARK                         _______ _______ _______ _____ _____    ______ ____
ROOT
ATOM      1  C2  UNL     1     152.479 155.471 151.049  0.00  0.00    +0.133 A 
ATOM      2  C3  UNL     1     153.300 154.610 150.312  0.00  0.00    +0.061 A 
ATOM      3  C4  UNL     1     154.697 154.734 150.360  0.00  0.00    +0.011 A 
ATOM      4  C6  UNL     1     155.282 155.711 151.170  0.00  0.00    +0.015 A 
ATOM      5  C7  UNL     1     154.479 156.572 151.914  0.00  0.00    +0.018 A 
ATOM      6  C8  UNL     1     153.087 156.442 151.858  0.00  0.00    +0.079 A 
ENDROOT
BRANCH   6   7
ATOM      7  C9  UNL     1     152.282 157.399 152.641  0.00  0.00    +0.250 C 
ATOM      8  O2  UNL     1     151.928 158.432 152.078  0.00  0.00    -0.270 OA
ATOM      9  N1  UNL     1     152.031 157.114 153.982  0.00  0.00    -0.297 N 
ATOM     10  C10 UNL     1     152.465 155.895 154.667  0.00  0.00    +0.108 C 
ATOM     11  C11 UNL     1     151.533 155.531 155.817  0.00  0.00    +0.019 C 
ATOM     12  C12 UNL     1     151.403 156.657 156.844  0.00  0.00    +0.006 C 
ATOM     13  C13 UNL     1     151.672 158.049 156.250  0.00  0.00    +0.003 C 
ATOM     14  C14 UNL     1     150.951 159.132 157.048  0.00  0.00    +0.009 C 
ATOM     15  C15 UNL     1     151.291 158.101 154.768  0.00  0.00    +0.111 C 
ENDBRANCH   6   7
BRANCH   1  17
ATOM     16  C1  UNL     1     150.505 154.376 151.817  0.00  0.00    +0.277 C 
ATOM     17  O1  UNL     1     151.111 155.418 151.066  0.00  0.00    -0.494 OA
ENDBRANCH   1  17
BRANCH   3  18
ATOM     18  S1  UNL     1     155.698 153.602 149.408  0.00  0.00    -0.128 S 
ATOM     19  C5  UNL     1     157.302 153.851 150.218  0.00  0.00    +0.090 C 
ENDBRANCH   3  18
TORSDOF 3
ENDMDL
MODEL 2
REMARK VINA RESULT:    -6.435      4.191      7.588
REMARK INTER + INTRA:          -7.948
REMARK INTER:                  -7.567
REMARK INTRA:                  -0.381
REMARK UNBOUND:                -0.385
REMARK  Name = /home/vital/Documents/PhD_2021/Malaria_codes/data/pdb_ligands_mmv/ligand_192.pdb
REMARK  6 active torsions:
REMARK  status: ('A' for Active; 'I' for Inactive)
REMARK    1  A    between atoms: C1_1  and  O1_2
REMARK    2  A    between atoms: O1_2  and  C2_3
REMARK    3  A    between atoms: C4_5  and  S1_6
REMARK    4  A    between atoms: S1_6  and  C5_7
REMARK    5  A    between atoms: C8_10  and  C9_11
REMARK    6  A    between atoms: C13_17  and  C14_18
REMARK                            x       y       z     vdW  Elec       q    Type
REMARK                         _______ _______ _______ _____ _____    ______ ____
ROOT
ATOM      1  C2  UNL     1     150.707 157.447 158.150  0.00  0.00    +0.133 A 
ATOM      2  C3  UNL     1     151.059 157.645 159.490  0.00  0.00    +0.061 A 
ATOM      3  C4  UNL     1     151.495 156.573 160.284  0.00  0.00    +0.011 A 
ATOM      4  C6  UNL     1     151.604 155.295 159.729  0.00  0.00    +0.015 A 
ATOM      5  C7  UNL     1     151.263 155.082 158.395  0.00  0.00    +0.018 A 
ATOM      6  C8  UNL     1     150.827 156.157 157.612  0.00  0.00    +0.079 A 
ENDROOT
BRANCH   6   7
ATOM      7  C9  UNL     1     150.449 155.872 156.215  0.00  0.00    +0.250 C 
ATOM      8  O2  UNL     1     149.340 155.380 156.020  0.00  0.00    -0.270 OA
ATOM      9  N1  UNL     1     151.388 156.107 155.212  0.00  0.00    -0.297 N 
ATOM     10  C10 UNL     1     152.718 156.675 155.438  0.00  0.00    +0.108 C 
ATOM     11  C11 UNL     1     153.224 157.431 154.214  0.00  0.00    +0.019 C 
ATOM     12  C12 UNL     1     153.264 156.555 152.960  0.00  0.00    +0.006 C 
ATOM     13  C13 UNL     1     152.260 155.392 153.004  0.00  0.00    +0.003 C 
ATOM     14  C14 UNL     1     151.867 154.956 151.595  0.00  0.00    +0.009 C 
ATOM     15  C15 UNL     1     151.028 155.756 153.838  0.00  0.00    +0.111 C 
ENDBRANCH   6   7
BRANCH   1  17
ATOM     16  C1  UNL     1     151.125 159.561 157.130  0.00  0.00    +0.277 C 
ATOM     17  O1  UNL     1     150.278 158.434 157.303  0.00  0.00    -0.494 OA
ENDBRANCH   1  17
BRANCH   3  18
ATOM     18  S1  UNL     1     151.942 156.883 161.984  0.00  0.00    -0.128 S 
ATOM     19  C5  UNL     1     150.789 155.757 162.818  0.00  0.00    +0.090 C 
ENDBRANCH   3  18
TORSDOF 3
ENDMDL
MODEL 3
REMARK VINA RESULT:    -6.392      4.573      8.059
REMARK INTER + INTRA:          -7.898
REMARK INTER:                  -7.669
REMARK INTRA:                  -0.228
REMARK UNBOUND:                -0.385
REMARK  Name = /home/vital/Documents/PhD_2021/Malaria_codes/data/pdb_ligands_mmv/ligand_192.pdb
REMARK  6 active torsions:
REMARK  status: ('A' for Active; 'I' for Inactive)
REMARK    1  A    between atoms: C1_1  and  O1_2
REMARK    2  A    between atoms: O1_2  and  C2_3
REMARK    3  A    between atoms: C4_5  and  S1_6
REMARK    4  A    between atoms: S1_6  and  C5_7
REMARK    5  A    between atoms: C8_10  and  C9_11
REMARK    6  A    between atoms: C13_17  and  C14_18
REMARK                            x       y       z     vdW  Elec       q    Type
REMARK                         _______ _______ _______ _____ _____    ______ ____
ROOT
ATOM      1  C2  UNL     1     151.170 156.717 159.127  0.00  0.00    +0.133 A 
ATOM      2  C3  UNL     1     151.200 157.507 160.282  0.00  0.00    +0.061 A 
ATOM      3  C4  UNL     1     150.578 158.765 160.308  0.00  0.00    +0.011 A 
ATOM      4  C6  UNL     1     149.899 159.230 159.178  0.00  0.00    +0.015 A 
ATOM      5  C7  UNL     1     149.855 158.452 158.023  0.00  0.00    +0.018 A 
ATOM      6  C8  UNL     1     150.480 157.201 158.006  0.00  0.00    +0.079 A 
ENDROOT
BRANCH   6   7
ATOM      7  C9  UNL     1     150.430 156.432 156.748  0.00  0.00    +0.250 C 
ATOM      8  O2  UNL     1     149.646 155.488 156.694  0.00  0.00    -0.270 OA
ATOM      9  N1  UNL     1     151.316 156.771 155.727  0.00  0.00    -0.297 N 
ATOM     10  C10 UNL     1     152.267 157.882 155.789  0.00  0.00    +0.108 C 
ATOM     11  C11 UNL     1     152.581 158.435 154.404  0.00  0.00    +0.019 C 
ATOM     12  C12 UNL     1     153.129 157.366 153.457  0.00  0.00    +0.006 C 
ATOM     13  C13 UNL     1     152.677 155.943 153.827  0.00  0.00    +0.003 C 
ATOM     14  C14 UNL     1     152.676 155.034 152.601  0.00  0.00    +0.009 C 
ATOM     15  C15 UNL     1     151.307 155.959 154.510  0.00  0.00    +0.111 C 
ENDBRANCH   6   7
BRANCH   1  17
ATOM     16  C1  UNL     1     151.626 154.600 160.125  0.00  0.00    +0.277 C 
ATOM     17  O1  UNL     1     151.744 155.479 159.015  0.00  0.00    -0.494 OA
ENDBRANCH   1  17
BRANCH   3  18
ATOM     18  S1  UNL     1     150.637 159.727 161.811  0.00  0.00    -0.128 S 
ATOM     19  C5  UNL     1     151.372 161.257 161.171  0.00  0.00    +0.090 C 
ENDBRANCH   3  18
TORSDOF 3
ENDMDL
MODEL 4
REMARK VINA RESULT:    -6.167      6.342      8.912
REMARK INTER + INTRA:          -7.633
REMARK INTER:                  -7.266
REMARK INTRA:                  -0.367
REMARK UNBOUND:                -0.385
REMARK  Name = /home/vital/Documents/PhD_2021/Malaria_codes/data/pdb_ligands_mmv/ligand_192.pdb
REMARK  6 active torsions:
REMARK  status: ('A' for Active; 'I' for Inactive)
REMARK    1  A    between atoms: C1_1  and  O1_2
REMARK    2  A    between atoms: O1_2  and  C2_3
REMARK    3  A    between atoms: C4_5  and  S1_6
REMARK    4  A    between atoms: S1_6  and  C5_7
REMARK    5  A    between atoms: C8_10  and  C9_11
REMARK    6  A    between atoms: C13_17  and  C14_18
REMARK                            x       y       z     vdW  Elec       q    Type
REMARK                         _______ _______ _______ _____ _____    ______ ____
ROOT
ATOM      1  C2  UNL     1     150.085 157.839 159.734  0.00  0.00    +0.133 A 
ATOM      2  C3  UNL     1     150.309 158.210 158.403  0.00  0.00    +0.061 A 
ATOM      3  C4  UNL     1     151.018 157.368 157.533  0.00  0.00    +0.011 A 
ATOM      4  C6  UNL     1     151.489 156.132 157.987  0.00  0.00    +0.015 A 
ATOM      5  C7  UNL     1     151.268 155.746 159.308  0.00  0.00    +0.018 A 
ATOM      6  C8  UNL     1     150.561 156.593 160.168  0.00  0.00    +0.079 A 
ENDROOT
BRANCH   6   7
ATOM      7  C9  UNL     1     150.383 156.150 161.564  0.00  0.00    +0.250 C 
ATOM      8  O2  UNL     1     149.382 155.485 161.821  0.00  0.00    -0.270 OA
ATOM      9  N1  UNL     1     151.310 156.567 162.517  0.00  0.00    -0.297 N 
ATOM     10  C10 UNL     1     152.495 157.376 162.223  0.00  0.00    +0.108 C 
ATOM     11  C11 UNL     1     153.620 157.110 163.216  0.00  0.00    +0.019 C 
ATOM     12  C12 UNL     1     153.195 157.361 164.664  0.00  0.00    +0.006 C 
ATOM     13  C13 UNL     1     151.682 157.199 164.885  0.00  0.00    +0.003 C 
ATOM     14  C14 UNL     1     151.378 156.826 166.334  0.00  0.00    +0.009 C 
ATOM     15  C15 UNL     1     151.086 156.180 163.910  0.00  0.00    +0.111 C 
ENDBRANCH   6   7
BRANCH   1  17
ATOM     16  C1  UNL     1     149.703 159.980 160.711  0.00  0.00    +0.277 C 
ATOM     17  O1  UNL     1     149.400 158.593 160.648  0.00  0.00    -0.494 OA
ENDBRANCH   1  17
BRANCH   3  18
ATOM     18  S1  UNL     1     151.267 157.885 155.842  0.00  0.00    -0.128 S 
ATOM     19  C5  UNL     1     152.576 156.728 155.353  0.00  0.00    +0.090 C 
ENDBRANCH   3  18
TORSDOF 3
ENDMDL
MODEL 5
REMARK VINA RESULT:    -6.050      6.938      9.516
REMARK INTER + INTRA:          -7.496
REMARK INTER:                  -7.194
REMARK INTRA:                  -0.301
REMARK UNBOUND:                -0.385
REMARK  Name = /home/vital/Documents/PhD_2021/Malaria_codes/data/pdb_ligands_mmv/ligand_192.pdb
REMARK  6 active torsions:
REMARK  status: ('A' for Active; 'I' for Inactive)
REMARK    1  A    between atoms: C1_1  and  O1_2
REMARK    2  A    between atoms: O1_2  and  C2_3
REMARK    3  A    between atoms: C4_5  and  S1_6
REMARK    4  A    between atoms: S1_6  and  C5_7
REMARK    5  A    between atoms: C8_10  and  C9_11
REMARK    6  A    between atoms: C13_17  and  C14_18
REMARK                            x       y       z     vdW  Elec       q    Type
REMARK                         _______ _______ _______ _____ _____    ______ ____
ROOT
ATOM      1  C2  UNL     1     150.261 156.525 160.163  0.00  0.00    +0.133 A 
ATOM      2  C3  UNL     1     150.517 156.649 158.793  0.00  0.00    +0.061 A 
ATOM      3  C4  UNL     1     151.319 155.710 158.125  0.00  0.00    +0.011 A 
ATOM      4  C6  UNL     1     151.851 154.624 158.825  0.00  0.00    +0.015 A 
ATOM      5  C7  UNL     1     151.601 154.483 160.189  0.00  0.00    +0.018 A 
ATOM      6  C8  UNL     1     150.802 155.425 160.846  0.00  0.00    +0.079 A 
ENDROOT
BRANCH   6   7
ATOM      7  C9  UNL     1     150.593 155.247 162.296  0.00  0.00    +0.250 C 
ATOM      8  O2  UNL     1     151.328 155.876 163.053  0.00  0.00    -0.270 OA
ATOM      9  N1  UNL     1     149.634 154.330 162.721  0.00  0.00    -0.297 N 
ATOM     10  C10 UNL     1     148.767 153.561 161.826  0.00  0.00    +0.108 C 
ATOM     11  C11 UNL     1     147.442 153.206 162.490  0.00  0.00    +0.019 C 
ATOM     12  C12 UNL     1     147.630 152.424 163.791  0.00  0.00    +0.006 C 
ATOM     13  C13 UNL     1     148.984 152.695 164.468  0.00  0.00    +0.003 C 
ATOM     14  C14 UNL     1     148.901 152.451 165.972  0.00  0.00    +0.009 C 
ATOM     15  C15 UNL     1     149.483 154.109 164.159  0.00  0.00    +0.111 C 
ENDBRANCH   6   7
BRANCH   1  17
ATOM     16  C1  UNL     1     149.852 158.762 160.880  0.00  0.00    +0.277 C 
ATOM     17  O1  UNL     1     149.488 157.388 160.893  0.00  0.00    -0.494 OA
ENDBRANCH   1  17
BRANCH   3  18
ATOM     18  S1  UNL     1     151.605 155.910 156.373  0.00  0.00    -0.128 S 
ATOM     19  C5  UNL     1     151.506 157.716 156.247  0.00  0.00    +0.090 C 
ENDBRANCH   3  18
TORSDOF 3
ENDMDL
MODEL 6
REMARK VINA RESULT:    -5.940      5.855      9.613
REMARK INTER + INTRA:          -7.366
REMARK INTER:                  -7.161
REMARK INTRA:                  -0.205
REMARK UNBOUND:                -0.385
REMARK  Name = /home/vital/Documents/PhD_2021/Malaria_codes/data/pdb_ligands_mmv/ligand_192.pdb
REMARK  6 active torsions:
REMARK  status: ('A' for Active; 'I' for Inactive)
REMARK    1  A    between atoms: C1_1  and  O1_2
REMARK    2  A    between atoms: O1_2  and  C2_3
REMARK    3  A    between atoms: C4_5  and  S1_6
REMARK    4  A    between atoms: S1_6  and  C5_7
REMARK    5  A    between atoms: C8_10  and  C9_11
REMARK    6  A    between atoms: C13_17  and  C14_18
REMARK                            x       y       z     vdW  Elec       q    Type
REMARK                         _______ _______ _______ _____ _____    ______ ____
ROOT
ATOM      1  C2  UNL     1     151.459 158.194 161.114  0.00  0.00    +0.133 A 
ATOM      2  C3  UNL     1     151.453 159.292 161.983  0.00  0.00    +0.061 A 
ATOM      3  C4  UNL     1     150.466 160.285 161.878  0.00  0.00    +0.011 A 
ATOM      4  C6  UNL     1     149.461 160.170 160.914  0.00  0.00    +0.015 A 
ATOM      5  C7  UNL     1     149.450 159.080 160.045  0.00  0.00    +0.018 A 
ATOM      6  C8  UNL     1     150.439 158.097 160.156  0.00  0.00    +0.079 A 
ENDROOT
BRANCH   6   7
ATOM      7  C9  UNL     1     150.398 156.980 159.193  0.00  0.00    +0.250 C 
ATOM      8  O2  UNL     1     150.019 155.888 159.610  0.00  0.00    -0.270 OA
ATOM      9  N1  UNL     1     150.856 157.205 157.896  0.00  0.00    -0.297 N 
ATOM     10  C10 UNL     1     151.327 158.498 157.395  0.00  0.00    +0.108 C 
ATOM     11  C11 UNL     1     151.109 158.635 155.893  0.00  0.00    +0.019 C 
ATOM     12  C12 UNL     1     151.787 157.518 155.098  0.00  0.00    +0.006 C 
ATOM     13  C13 UNL     1     151.974 156.227 155.911  0.00  0.00    +0.003 C 
ATOM     14  C14 UNL     1     152.037 155.008 154.995  0.00  0.00    +0.009 C 
ATOM     15  C15 UNL     1     150.877 156.074 156.968  0.00  0.00    +0.111 C 
ENDBRANCH   6   7
BRANCH   1  17
ATOM     16  C1  UNL     1     152.485 156.435 162.353  0.00  0.00    +0.277 C 
ATOM     17  O1  UNL     1     152.377 157.179 161.148  0.00  0.00    -0.494 OA
ENDBRANCH   1  17
BRANCH   3  18
ATOM     18  S1  UNL     1     150.500 161.659 163.018  0.00  0.00    -0.128 S 
ATOM     19  C5  UNL     1     151.620 160.989 164.278  0.00  0.00    +0.090 C 
ENDBRANCH   3  18
TORSDOF 3
ENDMDL
MODEL 7
REMARK VINA RESULT:    -5.704     13.984     15.760
REMARK INTER + INTRA:          -7.090
REMARK INTER:                  -6.741
REMARK INTRA:                  -0.349
REMARK UNBOUND:                -0.385
REMARK  Name = /home/vital/Documents/PhD_2021/Malaria_codes/data/pdb_ligands_mmv/ligand_192.pdb
REMARK  6 active torsions:
REMARK  status: ('A' for Active; 'I' for Inactive)
REMARK    1  A    between atoms: C1_1  and  O1_2
REMARK    2  A    between atoms: O1_2  and  C2_3
REMARK    3  A    between atoms: C4_5  and  S1_6
REMARK    4  A    between atoms: S1_6  and  C5_7
REMARK    5  A    between atoms: C8_10  and  C9_11
REMARK    6  A    between atoms: C13_17  and  C14_18
REMARK                            x       y       z     vdW  Elec       q    Type
REMARK                         _______ _______ _______ _____ _____    ______ ____
ROOT
ATOM      1  C2  UNL     1     150.879 159.722 167.830  0.00  0.00    +0.133 A 
ATOM      2  C3  UNL     1     151.216 160.935 168.441  0.00  0.00    +0.061 A 
ATOM      3  C4  UNL     1     152.368 161.638 168.056  0.00  0.00    +0.011 A 
ATOM      4  C6  UNL     1     153.181 161.137 167.034  0.00  0.00    +0.015 A 
ATOM      5  C7  UNL     1     152.856 159.933 166.412  0.00  0.00    +0.018 A 
ATOM      6  C8  UNL     1     151.706 159.239 166.804  0.00  0.00    +0.079 A 
ENDROOT
BRANCH   6   7
ATOM      7  C9  UNL     1     151.425 157.955 166.135  0.00  0.00    +0.250 C 
ATOM      8  O2  UNL     1     150.709 157.984 165.137  0.00  0.00    -0.270 OA
ATOM      9  N1  UNL     1     151.921 156.785 166.707  0.00  0.00    -0.297 N 
ATOM     10  C10 UNL     1     152.758 156.740 167.908  0.00  0.00    +0.108 C 
ATOM     11  C11 UNL     1     153.677 155.523 167.909  0.00  0.00    +0.019 C 
ATOM     12  C12 UNL     1     152.906 154.207 167.791  0.00  0.00    +0.006 C 
ATOM     13  C13 UNL     1     151.547 154.364 167.089  0.00  0.00    +0.003 C 
ATOM     14  C14 UNL     1     151.116 153.055 166.434  0.00  0.00    +0.009 C 
ATOM     15  C15 UNL     1     151.578 155.511 166.075  0.00  0.00    +0.111 C 
ENDBRANCH   6   7
BRANCH   1  17
ATOM     16  C1  UNL     1     148.505 159.509 167.789  0.00  0.00    +0.277 C 
ATOM     17  O1  UNL     1     149.774 158.975 168.138  0.00  0.00    -0.494 OA
ENDBRANCH   1  17
BRANCH   3  18
ATOM     18  S1  UNL     1     152.746 163.186 168.861  0.00  0.00    -0.128 S 
ATOM     19  C5  UNL     1     153.348 162.568 170.456  0.00  0.00    +0.090 C 
ENDBRANCH   3  18
TORSDOF 3
ENDMDL
MODEL 8
REMARK VINA RESULT:    -5.617      6.819     10.057
REMARK INTER + INTRA:          -6.986
REMARK INTER:                  -6.797
REMARK INTRA:                  -0.190
REMARK UNBOUND:                -0.385
REMARK  Name = /home/vital/Documents/PhD_2021/Malaria_codes/data/pdb_ligands_mmv/ligand_192.pdb
REMARK  6 active torsions:
REMARK  status: ('A' for Active; 'I' for Inactive)
REMARK    1  A    between atoms: C1_1  and  O1_2
REMARK    2  A    between atoms: O1_2  and  C2_3
REMARK    3  A    between atoms: C4_5  and  S1_6
REMARK    4  A    between atoms: S1_6  and  C5_7
REMARK    5  A    between atoms: C8_10  and  C9_11
REMARK    6  A    between atoms: C13_17  and  C14_18
REMARK                            x       y       z     vdW  Elec       q    Type
REMARK                         _______ _______ _______ _____ _____    ______ ____
ROOT
ATOM      1  C2  UNL     1     150.387 155.502 162.284  0.00  0.00    +0.133 A 
ATOM      2  C3  UNL     1     150.492 155.858 163.634  0.00  0.00    +0.061 A 
ATOM      3  C4  UNL     1     151.584 156.609 164.095  0.00  0.00    +0.011 A 
ATOM      4  C6  UNL     1     152.570 157.030 163.197  0.00  0.00    +0.015 A 
ATOM      5  C7  UNL     1     152.476 156.688 161.849  0.00  0.00    +0.018 A 
ATOM      6  C8  UNL     1     151.384 155.937 161.399  0.00  0.00    +0.079 A 
ENDROOT
BRANCH   6   7
ATOM      7  C9  UNL     1     151.349 155.576 159.969  0.00  0.00    +0.250 C 
ATOM      8  O2  UNL     1     151.673 154.430 159.669  0.00  0.00    -0.270 OA
ATOM      9  N1  UNL     1     151.025 156.565 159.042  0.00  0.00    -0.297 N 
ATOM     10  C10 UNL     1     150.656 157.939 159.390  0.00  0.00    +0.108 C 
ATOM     11  C11 UNL     1     149.735 158.558 158.345  0.00  0.00    +0.019 C 
ATOM     12  C12 UNL     1     150.348 158.547 156.944  0.00  0.00    +0.006 C 
ATOM     13  C13 UNL     1     151.384 157.428 156.746  0.00  0.00    +0.003 C 
ATOM     14  C14 UNL     1     151.493 157.038 155.275  0.00  0.00    +0.009 C 
ATOM     15  C15 UNL     1     151.060 156.215 157.623  0.00  0.00    +0.111 C 
ENDBRANCH   6   7
BRANCH   1  17
ATOM     16  C1  UNL     1     148.806 153.735 162.541  0.00  0.00    +0.277 C 
ATOM     17  O1  UNL     1     149.356 154.778 161.748  0.00  0.00    -0.494 OA
ENDBRANCH   1  17
BRANCH   3  18
ATOM     18  S1  UNL     1     151.664 157.046 165.824  0.00  0.00    -0.128 S 
ATOM     19  C5  UNL     1     152.484 158.659 165.699  0.00  0.00    +0.090 C 
ENDBRANCH   3  18
TORSDOF 3
ENDMDL
MODEL 9
REMARK VINA RESULT:    -5.580     10.133     13.658
REMARK INTER + INTRA:          -6.944
REMARK INTER:                  -6.584
REMARK INTRA:                  -0.359
REMARK UNBOUND:                -0.385
REMARK  Name = /home/vital/Documents/PhD_2021/Malaria_codes/data/pdb_ligands_mmv/ligand_192.pdb
REMARK  6 active torsions:
REMARK  status: ('A' for Active; 'I' for Inactive)
REMARK    1  A    between atoms: C1_1  and  O1_2
REMARK    2  A    between atoms: O1_2  and  C2_3
REMARK    3  A    between atoms: C4_5  and  S1_6
REMARK    4  A    between atoms: S1_6  and  C5_7
REMARK    5  A    between atoms: C8_10  and  C9_11
REMARK    6  A    between atoms: C13_17  and  C14_18
REMARK                            x       y       z     vdW  Elec       q    Type
REMARK                         _______ _______ _______ _____ _____    ______ ____
ROOT
ATOM      1  C2  UNL     1     150.710 161.250 165.806  0.00  0.00    +0.133 A 
ATOM      2  C3  UNL     1     151.101 161.183 167.149  0.00  0.00    +0.061 A 
ATOM      3  C4  UNL     1     152.459 161.177 167.502  0.00  0.00    +0.011 A 
ATOM      4  C6  UNL     1     153.438 161.263 166.507  0.00  0.00    +0.015 A 
ATOM      5  C7  UNL     1     153.065 161.336 165.167  0.00  0.00    +0.018 A 
ATOM      6  C8  UNL     1     151.709 161.340 164.825  0.00  0.00    +0.079 A 
ENDROOT
BRANCH   6   7
ATOM      7  C9  UNL     1     151.369 161.388 163.390  0.00  0.00    +0.250 C 
ATOM      8  O2  UNL     1     151.231 162.497 162.880  0.00  0.00    -0.270 OA
ATOM      9  N1  UNL     1     151.155 160.186 162.717  0.00  0.00    -0.297 N 
ATOM     10  C10 UNL     1     151.299 158.860 163.322  0.00  0.00    +0.108 C 
ATOM     11  C11 UNL     1     151.680 157.807 162.288  0.00  0.00    +0.019 C 
ATOM     12  C12 UNL     1     150.673 157.722 161.140  0.00  0.00    +0.006 C 
ATOM     13  C13 UNL     1     149.905 159.034 160.912  0.00  0.00    +0.003 C 
ATOM     14  C14 UNL     1     149.426 159.144 159.467  0.00  0.00    +0.009 C 
ATOM     15  C15 UNL     1     150.751 160.247 161.313  0.00  0.00    +0.111 C 
ENDBRANCH   6   7
BRANCH   1  17
ATOM     16  C1  UNL     1     148.615 162.385 165.737  0.00  0.00    +0.277 C 
ATOM     17  O1  UNL     1     149.412 161.267 165.372  0.00  0.00    -0.494 OA
ENDBRANCH   1  17
BRANCH   3  18
ATOM     18  S1  UNL     1     152.903 161.100 169.230  0.00  0.00    -0.128 S 
ATOM     19  C5  UNL     1     154.615 160.519 169.085  0.00  0.00    +0.090 C 
ENDBRANCH   3  18
TORSDOF 3
ENDMDL
