MODEL 1
REMARK VINA RESULT:    -4.677      0.000      0.000
REMARK INTER + INTRA:          -8.120
REMARK INTER:                  -6.864
REMARK INTRA:                  -1.256
REMARK UNBOUND:                -1.256
REMARK  Name = /home/vital/Documents/PhD_2021/Malaria_codes/data/pdb_ligands_mmv/ligand_116.pdb
REMARK  9 active torsions:
REMARK  status: ('A' for Active; 'I' for Inactive)
REMARK    1  A    between atoms: C1_1  and  O1_2
REMARK    2  A    between atoms: O1_2  and  C2_3
REMARK    3  A    between atoms: C7_8  and  N1_9
REMARK    4  A    between atoms: N2_12  and  C12_15
REMARK    5  A    between atoms: C12_15  and  C13_16
REMARK    6  A    between atoms: C12_15  and  C20_28
REMARK    7  A    between atoms: C13_16  and  N3_17
REMARK    8  A    between atoms: N3_17  and  S1_18
REMARK    9  A    between atoms: S1_18  and  C14_21
REMARK                            x       y       z     vdW  Elec       q    Type
REMARK                         _______ _______ _______ _____ _____    ______ ____
ROOT
ATOM      1  C12 UNL     1     151.439 160.411 167.860  0.00  0.00    +0.104 C 
ENDROOT
BRANCH   1   5
ATOM      2  N1  UNL     1     151.614 161.074 163.680  0.00  0.00    -0.325 N 
ATOM      3  C8  UNL     1     152.700 160.709 164.591  0.00  0.00    +0.120 C 
ATOM      4  C9  UNL     1     152.572 161.486 165.923  0.00  0.00    +0.104 C 
ATOM      5  N2  UNL     1     151.295 161.309 166.670  0.00  0.00    -0.291 NA
ATOM      6  C10 UNL     1     150.235 160.837 165.736  0.00  0.00    +0.104 C 
ATOM      7  C11 UNL     1     150.328 161.422 164.305  0.00  0.00    +0.120 C 
BRANCH   2  13
ATOM      8  C2  UNL     1     151.334 159.571 161.726  0.00  0.00    +0.141 A 
ATOM      9  C3  UNL     1     151.450 159.373 160.339  0.00  0.00    +0.047 A 
ATOM     10  C4  UNL     1     151.884 160.400 159.504  0.00  0.00    +0.004 A 
ATOM     11  C5  UNL     1     152.207 161.634 160.046  0.00  0.00    +0.002 A 
ATOM     12  C6  UNL     1     152.104 161.838 161.425  0.00  0.00    +0.027 A 
ATOM     13  C7  UNL     1     151.684 160.821 162.309  0.00  0.00    +0.072 A 
BRANCH   8  15
ATOM     14  C1  UNL     1     150.930 157.243 162.154  0.00  0.00    +0.277 C 
ATOM     15  O1  UNL     1     150.858 158.597 162.576  0.00  0.00    -0.493 OA
ENDBRANCH   8  15
ENDBRANCH   2  13
ENDBRANCH   1   5
BRANCH   1  16
ATOM     16  C20 UNL     1     152.122 161.077 169.049  0.00  0.00    -0.011 A 
ATOM     17  C21 UNL     1     153.429 160.773 169.450  0.00  0.00    +0.008 A 
ATOM     18  C22 UNL     1     153.984 161.411 170.555  0.00  0.00    +0.020 A 
ATOM     19  C23 UNL     1     153.215 162.340 171.232  0.00  0.00    +0.111 A 
ATOM     20  N4  UNL     1     151.953 162.666 170.882  0.00  0.00    -0.263 NA
ATOM     21  C24 UNL     1     151.440 162.030 169.805  0.00  0.00    +0.116 A 
ENDBRANCH   1  16
BRANCH   1  22
ATOM     22  C13 UNL     1     152.221 159.097 167.507  0.00  0.00    +0.129 C 
BRANCH  22  23
ATOM     23  N3  UNL     1     151.282 157.957 167.415  0.00  0.00    -0.188 NA
ATOM     24  H19 UNL     1     151.113 157.486 168.310  0.00  0.00    +0.148 HD
BRANCH  23  25
ATOM     25  S1  UNL     1     151.351 156.938 166.092  0.00  0.00    +0.058 S 
ATOM     26  O2  UNL     1     152.420 157.391 165.232  0.00  0.00    -0.153 OA
ATOM     27  O3  UNL     1     149.998 156.764 165.614  0.00  0.00    -0.153 OA
BRANCH  25  28
ATOM     28  C14 UNL     1     151.851 155.396 166.826  0.00  0.00    +0.105 A 
ATOM     29  C15 UNL     1     152.986 155.342 167.641  0.00  0.00    +0.030 A 
ATOM     30  C16 UNL     1     153.360 154.125 168.216  0.00  0.00    +0.022 A 
ATOM     31  C17 UNL     1     152.608 152.976 167.965  0.00  0.00    +0.041 A 
ATOM     32 CL1  UNL     1     153.066 151.483 168.685  0.00  0.00    -0.084 Cl
ATOM     33  C18 UNL     1     151.486 153.029 167.136  0.00  0.00    +0.022 A 
ATOM     34  C19 UNL     1     151.107 154.242 166.557  0.00  0.00    +0.030 A 
ENDBRANCH  25  28
ENDBRANCH  23  25
ENDBRANCH  22  23
ENDBRANCH   1  22
TORSDOF 8
ENDMDL
MODEL 2
REMARK VINA RESULT:    -4.659      3.454      5.487
REMARK INTER + INTRA:          -8.094
REMARK INTER:                  -5.755
REMARK INTRA:                  -2.339
REMARK UNBOUND:                -1.256
REMARK  Name = /home/vital/Documents/PhD_2021/Malaria_codes/data/pdb_ligands_mmv/ligand_116.pdb
REMARK  9 active torsions:
REMARK  status: ('A' for Active; 'I' for Inactive)
REMARK    1  A    between atoms: C1_1  and  O1_2
REMARK    2  A    between atoms: O1_2  and  C2_3
REMARK    3  A    between atoms: C7_8  and  N1_9
REMARK    4  A    between atoms: N2_12  and  C12_15
REMARK    5  A    between atoms: C12_15  and  C13_16
REMARK    6  A    between atoms: C12_15  and  C20_28
REMARK    7  A    between atoms: C13_16  and  N3_17
REMARK    8  A    between atoms: N3_17  and  S1_18
REMARK    9  A    between atoms: S1_18  and  C14_21
REMARK                            x       y       z     vdW  Elec       q    Type
REMARK                         _______ _______ _______ _____ _____    ______ ____
ROOT
ATOM      1  C12 UNL     1     150.461 160.013 162.933  0.00  0.00    +0.104 C 
ENDROOT
BRANCH   1   5
ATOM      2  N1  UNL     1     151.232 158.801 158.948  0.00  0.00    -0.325 N 
ATOM      3  C8  UNL     1     152.164 158.878 160.074  0.00  0.00    +0.120 C 
ATOM      4  C9  UNL     1     151.900 160.154 160.909  0.00  0.00    +0.104 C 
ATOM      5  N2  UNL     1     150.526 160.306 161.466  0.00  0.00    -0.291 NA
ATOM      6  C10 UNL     1     149.578 159.464 160.683  0.00  0.00    +0.104 C 
ATOM      7  C11 UNL     1     149.894 159.372 159.170  0.00  0.00    +0.120 C 
BRANCH   2  13
ATOM      8  C2  UNL     1     151.168 156.590 157.825  0.00  0.00    +0.141 A 
ATOM      9  C3  UNL     1     151.457 155.813 156.690  0.00  0.00    +0.047 A 
ATOM     10  C4  UNL     1     152.023 156.389 155.554  0.00  0.00    +0.004 A 
ATOM     11  C5  UNL     1     152.305 157.745 155.542  0.00  0.00    +0.002 A 
ATOM     12  C6  UNL     1     152.029 158.525 156.669  0.00  0.00    +0.027 A 
ATOM     13  C7  UNL     1     151.472 157.980 157.845  0.00  0.00    +0.072 A 
BRANCH   8  15
ATOM     14  C1  UNL     1     151.177 154.964 159.592  0.00  0.00    +0.277 C 
ATOM     15  O1  UNL     1     150.560 156.068 158.945  0.00  0.00    -0.493 OA
ENDBRANCH   8  15
ENDBRANCH   2  13
ENDBRANCH   1   5
BRANCH   1  16
ATOM     16  C20 UNL     1     150.674 161.241 163.811  0.00  0.00    -0.011 A 
ATOM     17  C21 UNL     1     149.631 162.085 164.212  0.00  0.00    +0.008 A 
ATOM     18  C22 UNL     1     149.899 163.197 165.003  0.00  0.00    +0.020 A 
ATOM     19  C23 UNL     1     151.210 163.436 165.376  0.00  0.00    +0.111 A 
ATOM     20  N4  UNL     1     152.247 162.650 165.016  0.00  0.00    -0.263 NA
ATOM     21  C24 UNL     1     151.955 161.578 164.246  0.00  0.00    +0.116 A 
ENDBRANCH   1  16
BRANCH   1  22
ATOM     22  C13 UNL     1     151.496 158.912 163.355  0.00  0.00    +0.129 C 
BRANCH  22  23
ATOM     23  N3  UNL     1     150.821 157.855 164.140  0.00  0.00    -0.188 NA
ATOM     24  H19 UNL     1     149.802 157.959 164.184  0.00  0.00    +0.148 HD
BRANCH  23  25
ATOM     25  S1  UNL     1     151.527 157.295 165.548  0.00  0.00    +0.058 S 
ATOM     26  O2  UNL     1     152.943 157.138 165.307  0.00  0.00    -0.153 OA
ATOM     27  O3  UNL     1     150.703 156.215 166.040  0.00  0.00    -0.153 OA
BRANCH  25  28
ATOM     28  C14 UNL     1     151.306 158.671 166.656  0.00  0.00    +0.105 A 
ATOM     29  C15 UNL     1     152.418 159.356 167.154  0.00  0.00    +0.030 A 
ATOM     30  C16 UNL     1     152.227 160.438 168.016  0.00  0.00    +0.022 A 
ATOM     31  C17 UNL     1     150.934 160.818 168.381  0.00  0.00    +0.041 A 
ATOM     32 CL1  UNL     1     150.704 162.158 169.434  0.00  0.00    -0.084 Cl
ATOM     33  C18 UNL     1     149.826 160.120 167.897  0.00  0.00    +0.022 A 
ATOM     34  C19 UNL     1     150.010 159.037 167.035  0.00  0.00    +0.030 A 
ENDBRANCH  25  28
ENDBRANCH  23  25
ENDBRANCH  22  23
ENDBRANCH   1  22
TORSDOF 8
ENDMDL
MODEL 3
REMARK VINA RESULT:    -4.565      2.257      3.100
REMARK INTER + INTRA:          -7.956
REMARK INTER:                  -6.672
REMARK INTRA:                  -1.284
REMARK UNBOUND:                -1.256
REMARK  Name = /home/vital/Documents/PhD_2021/Malaria_codes/data/pdb_ligands_mmv/ligand_116.pdb
REMARK  9 active torsions:
REMARK  status: ('A' for Active; 'I' for Inactive)
REMARK    1  A    between atoms: C1_1  and  O1_2
REMARK    2  A    between atoms: O1_2  and  C2_3
REMARK    3  A    between atoms: C7_8  and  N1_9
REMARK    4  A    between atoms: N2_12  and  C12_15
REMARK    5  A    between atoms: C12_15  and  C13_16
REMARK    6  A    between atoms: C12_15  and  C20_28
REMARK    7  A    between atoms: C13_16  and  N3_17
REMARK    8  A    between atoms: N3_17  and  S1_18
REMARK    9  A    between atoms: S1_18  and  C14_21
REMARK                            x       y       z     vdW  Elec       q    Type
REMARK                         _______ _______ _______ _____ _____    ______ ____
ROOT
ATOM      1  C12 UNL     1     151.646 159.325 167.639  0.00  0.00    +0.104 C 
ENDROOT
BRANCH   1   5
ATOM      2  N1  UNL     1     151.634 159.329 163.403  0.00  0.00    -0.325 N 
ATOM      3  C8  UNL     1     152.351 158.432 164.312  0.00  0.00    +0.120 C 
ATOM      4  C9  UNL     1     152.928 159.225 165.510  0.00  0.00    +0.104 C 
ATOM      5  N2  UNL     1     151.947 159.988 166.330  0.00  0.00    -0.291 NA
ATOM      6  C10 UNL     1     150.714 160.233 165.530  0.00  0.00    +0.104 C 
ATOM      7  C11 UNL     1     150.962 160.483 164.022  0.00  0.00    +0.120 C 
BRANCH   2  13
ATOM      8  C2  UNL     1     151.842 159.666 160.954  0.00  0.00    +0.141 A 
ATOM      9  C3  UNL     1     151.488 159.264 159.654  0.00  0.00    +0.047 A 
ATOM     10  C4  UNL     1     150.662 158.161 159.446  0.00  0.00    +0.004 A 
ATOM     11  C5  UNL     1     150.182 157.450 160.534  0.00  0.00    +0.002 A 
ATOM     12  C6  UNL     1     150.521 157.848 161.831  0.00  0.00    +0.027 A 
ATOM     13  C7  UNL     1     151.341 158.966 162.087  0.00  0.00    +0.072 A 
BRANCH   8  15
ATOM     14  C1  UNL     1     152.431 161.961 160.567  0.00  0.00    +0.277 C 
ATOM     15  O1  UNL     1     152.699 160.717 161.197  0.00  0.00    -0.493 OA
ENDBRANCH   8  15
ENDBRANCH   2  13
ENDBRANCH   1   5
BRANCH   1  16
ATOM     16  C20 UNL     1     152.039 160.161 168.852  0.00  0.00    -0.011 A 
ATOM     17  C21 UNL     1     151.105 160.811 169.668  0.00  0.00    +0.008 A 
ATOM     18  C22 UNL     1     151.535 161.569 170.752  0.00  0.00    +0.020 A 
ATOM     19  C23 UNL     1     152.895 161.657 170.993  0.00  0.00    +0.111 A 
ATOM     20  N4  UNL     1     153.831 161.048 170.235  0.00  0.00    -0.263 NA
ATOM     21  C24 UNL     1     153.382 160.319 169.189  0.00  0.00    +0.116 A 
ENDBRANCH   1  16
BRANCH   1  22
ATOM     22  C13 UNL     1     152.338 157.922 167.755  0.00  0.00    +0.129 C 
BRANCH  22  23
ATOM     23  N3  UNL     1     151.316 156.862 167.901  0.00  0.00    -0.188 NA
ATOM     24  H19 UNL     1     150.622 157.054 168.630  0.00  0.00    +0.148 HD
BRANCH  23  25
ATOM     25  S1  UNL     1     151.767 155.258 167.771  0.00  0.00    +0.058 S 
ATOM     26  O2  UNL     1     151.408 154.590 169.000  0.00  0.00    -0.153 OA
ATOM     27  O3  UNL     1     153.113 155.234 167.245  0.00  0.00    -0.153 OA
BRANCH  25  28
ATOM     28  C14 UNL     1     150.690 154.664 166.485  0.00  0.00    +0.105 A 
ATOM     29  C15 UNL     1     150.695 155.275 165.227  0.00  0.00    +0.030 A 
ATOM     30  C16 UNL     1     149.848 154.792 164.227  0.00  0.00    +0.022 A 
ATOM     31  C17 UNL     1     149.002 153.714 164.492  0.00  0.00    +0.041 A 
ATOM     32 CL1  UNL     1     147.970 153.115 163.253  0.00  0.00    -0.084 Cl
ATOM     33  C18 UNL     1     148.986 153.118 165.754  0.00  0.00    +0.022 A 
ATOM     34  C19 UNL     1     149.828 153.597 166.759  0.00  0.00    +0.030 A 
ENDBRANCH  25  28
ENDBRANCH  23  25
ENDBRANCH  22  23
ENDBRANCH   1  22
TORSDOF 8
ENDMDL
MODEL 4
REMARK VINA RESULT:    -4.481      3.601      6.307
REMARK INTER + INTRA:          -7.832
REMARK INTER:                  -6.767
REMARK INTRA:                  -1.065
REMARK UNBOUND:                -1.256
REMARK  Name = /home/vital/Documents/PhD_2021/Malaria_codes/data/pdb_ligands_mmv/ligand_116.pdb
REMARK  9 active torsions:
REMARK  status: ('A' for Active; 'I' for Inactive)
REMARK    1  A    between atoms: C1_1  and  O1_2
REMARK    2  A    between atoms: O1_2  and  C2_3
REMARK    3  A    between atoms: C7_8  and  N1_9
REMARK    4  A    between atoms: N2_12  and  C12_15
REMARK    5  A    between atoms: C12_15  and  C13_16
REMARK    6  A    between atoms: C12_15  and  C20_28
REMARK    7  A    between atoms: C13_16  and  N3_17
REMARK    8  A    between atoms: N3_17  and  S1_18
REMARK    9  A    between atoms: S1_18  and  C14_21
REMARK                            x       y       z     vdW  Elec       q    Type
REMARK                         _______ _______ _______ _____ _____    ______ ____
ROOT
ATOM      1  C12 UNL     1     152.029 157.200 163.634  0.00  0.00    +0.104 C 
ENDROOT
BRANCH   1   5
ATOM      2  N1  UNL     1     151.079 156.521 159.562  0.00  0.00    -0.325 N 
ATOM      3  C8  UNL     1     151.332 157.794 160.239  0.00  0.00    +0.120 C 
ATOM      4  C9  UNL     1     150.671 157.802 161.639  0.00  0.00    +0.104 C 
ATOM      5  N2  UNL     1     151.089 156.719 162.572  0.00  0.00    -0.291 NA
ATOM      6  C10 UNL     1     151.657 155.584 161.793  0.00  0.00    +0.104 C 
ATOM      7  C11 UNL     1     150.974 155.333 160.425  0.00  0.00    +0.120 C 
BRANCH   2  13
ATOM      8  C2  UNL     1     150.628 157.249 157.234  0.00  0.00    +0.141 A 
ATOM      9  C3  UNL     1     150.799 157.033 155.856  0.00  0.00    +0.047 A 
ATOM     10  C4  UNL     1     151.580 155.977 155.389  0.00  0.00    +0.004 A 
ATOM     11  C5  UNL     1     152.196 155.128 156.293  0.00  0.00    +0.002 A 
ATOM     12  C6  UNL     1     152.024 155.329 157.666  0.00  0.00    +0.027 A 
ATOM     13  C7  UNL     1     151.230 156.375 158.182  0.00  0.00    +0.072 A 
BRANCH   8  15
ATOM     14  C1  UNL     1     150.177 159.608 157.215  0.00  0.00    +0.277 C 
ATOM     15  O1  UNL     1     149.909 158.313 157.733  0.00  0.00    -0.493 OA
ENDBRANCH   8  15
ENDBRANCH   2  13
ENDBRANCH   1   5
BRANCH   1  16
ATOM     16  C20 UNL     1     151.769 156.585 165.005  0.00  0.00    -0.011 A 
ATOM     17  C21 UNL     1     152.696 156.631 166.052  0.00  0.00    +0.008 A 
ATOM     18  C22 UNL     1     152.397 156.037 167.274  0.00  0.00    +0.020 A 
ATOM     19  C23 UNL     1     151.172 155.411 167.417  0.00  0.00    +0.111 A 
ATOM     20  N4  UNL     1     150.246 155.343 166.437  0.00  0.00    -0.263 NA
ATOM     21  C24 UNL     1     150.565 155.929 165.261  0.00  0.00    +0.116 A 
ENDBRANCH   1  16
BRANCH   1  22
ATOM     22  C13 UNL     1     152.001 158.762 163.774  0.00  0.00    +0.129 C 
BRANCH  22  23
ATOM     23  N3  UNL     1     150.744 159.191 164.427  0.00  0.00    -0.188 NA
ATOM     24  H19 UNL     1     149.898 158.898 163.928  0.00  0.00    +0.148 HD
BRANCH  23  25
ATOM     25  S1  UNL     1     150.654 160.706 165.127  0.00  0.00    +0.058 S 
ATOM     26  O2  UNL     1     149.367 160.826 165.773  0.00  0.00    -0.153 OA
ATOM     27  O3  UNL     1     151.115 161.659 164.144  0.00  0.00    -0.153 OA
BRANCH  25  28
ATOM     28  C14 UNL     1     151.901 160.614 166.393  0.00  0.00    +0.105 A 
ATOM     29  C15 UNL     1     151.687 159.833 167.533  0.00  0.00    +0.030 A 
ATOM     30  C16 UNL     1     152.678 159.766 168.514  0.00  0.00    +0.022 A 
ATOM     31  C17 UNL     1     153.865 160.483 168.355  0.00  0.00    +0.041 A 
ATOM     32 CL1  UNL     1     155.088 160.387 169.560  0.00  0.00    -0.084 Cl
ATOM     33  C18 UNL     1     154.068 161.277 167.225  0.00  0.00    +0.022 A 
ATOM     34  C19 UNL     1     153.081 161.350 166.241  0.00  0.00    +0.030 A 
ENDBRANCH  25  28
ENDBRANCH  23  25
ENDBRANCH  22  23
ENDBRANCH   1  22
TORSDOF 8
ENDMDL
MODEL 5
REMARK VINA RESULT:    -4.431     12.506     16.233
REMARK INTER + INTRA:          -7.759
REMARK INTER:                  -5.043
REMARK INTRA:                  -2.716
REMARK UNBOUND:                -1.256
REMARK  Name = /home/vital/Documents/PhD_2021/Malaria_codes/data/pdb_ligands_mmv/ligand_116.pdb
REMARK  9 active torsions:
REMARK  status: ('A' for Active; 'I' for Inactive)
REMARK    1  A    between atoms: C1_1  and  O1_2
REMARK    2  A    between atoms: O1_2  and  C2_3
REMARK    3  A    between atoms: C7_8  and  N1_9
REMARK    4  A    between atoms: N2_12  and  C12_15
REMARK    5  A    between atoms: C12_15  and  C13_16
REMARK    6  A    between atoms: C12_15  and  C20_28
REMARK    7  A    between atoms: C13_16  and  N3_17
REMARK    8  A    between atoms: N3_17  and  S1_18
REMARK    9  A    between atoms: S1_18  and  C14_21
REMARK                            x       y       z     vdW  Elec       q    Type
REMARK                         _______ _______ _______ _____ _____    ______ ____
ROOT
ATOM      1  C12 UNL     1     144.408 145.065 164.329  0.00  0.00    +0.104 C 
ENDROOT
BRANCH   1   5
ATOM      2  N1  UNL     1     146.182 148.911 164.371  0.00  0.00    -0.325 N 
ATOM      3  C8  UNL     1     146.744 147.654 163.875  0.00  0.00    +0.120 C 
ATOM      4  C9  UNL     1     146.386 146.489 164.829  0.00  0.00    +0.104 C 
ATOM      5  N2  UNL     1     144.934 146.256 165.070  0.00  0.00    -0.291 NA
ATOM      6  C10 UNL     1     144.173 147.496 164.751  0.00  0.00    +0.104 C 
ATOM      7  C11 UNL     1     144.908 148.813 165.101  0.00  0.00    +0.120 C 
BRANCH   2  13
ATOM      8  C2  UNL     1     147.358 151.061 164.761  0.00  0.00    +0.141 A 
ATOM      9  C3  UNL     1     147.777 152.306 164.262  0.00  0.00    +0.047 A 
ATOM     10  C4  UNL     1     147.526 152.668 162.939  0.00  0.00    +0.004 A 
ATOM     11  C5  UNL     1     146.855 151.789 162.105  0.00  0.00    +0.002 A 
ATOM     12  C6  UNL     1     146.426 150.552 162.595  0.00  0.00    +0.027 A 
ATOM     13  C7  UNL     1     146.645 150.152 163.929  0.00  0.00    +0.072 A 
BRANCH   8  15
ATOM     14  C1  UNL     1     147.447 151.573 167.105  0.00  0.00    +0.277 C 
ATOM     15  O1  UNL     1     147.635 150.646 166.045  0.00  0.00    -0.493 OA
ENDBRANCH   8  15
ENDBRANCH   2  13
ENDBRANCH   1   5
BRANCH   1  16
ATOM     16  C20 UNL     1     143.069 144.561 164.854  0.00  0.00    -0.011 A 
ATOM     17  C21 UNL     1     142.842 144.255 166.202  0.00  0.00    +0.008 A 
ATOM     18  C22 UNL     1     141.597 143.786 166.610  0.00  0.00    +0.020 A 
ATOM     19  C23 UNL     1     140.607 143.636 165.655  0.00  0.00    +0.111 A 
ATOM     20  N4  UNL     1     140.779 143.920 164.347  0.00  0.00    -0.263 NA
ATOM     21  C24 UNL     1     141.999 144.373 163.980  0.00  0.00    +0.116 A 
ENDBRANCH   1  16
BRANCH   1  22
ATOM     22  C13 UNL     1     145.428 143.873 164.339  0.00  0.00    +0.129 C 
BRANCH  22  23
ATOM     23  N3  UNL     1     145.142 142.950 163.218  0.00  0.00    -0.188 NA
ATOM     24  H19 UNL     1     144.283 143.175 162.706  0.00  0.00    +0.148 HD
BRANCH  23  25
ATOM     25  S1  UNL     1     145.440 141.316 163.400  0.00  0.00    +0.058 S 
ATOM     26  O2  UNL     1     146.614 141.163 164.229  0.00  0.00    -0.153 OA
ATOM     27  O3  UNL     1     145.336 140.713 162.091  0.00  0.00    -0.153 OA
BRANCH  25  28
ATOM     28  C14 UNL     1     144.028 140.776 164.340  0.00  0.00    +0.105 A 
ATOM     29  C15 UNL     1     142.790 140.605 163.712  0.00  0.00    +0.030 A 
ATOM     30  C16 UNL     1     141.695 140.174 164.463  0.00  0.00    +0.022 A 
ATOM     31  C17 UNL     1     141.840 139.928 165.829  0.00  0.00    +0.041 A 
ATOM     32 CL1  UNL     1     140.490 139.386 166.746  0.00  0.00    -0.084 Cl
ATOM     33  C18 UNL     1     143.072 140.118 166.457  0.00  0.00    +0.022 A 
ATOM     34  C19 UNL     1     144.171 140.550 165.713  0.00  0.00    +0.030 A 
ENDBRANCH  25  28
ENDBRANCH  23  25
ENDBRANCH  22  23
ENDBRANCH   1  22
TORSDOF 8
ENDMDL
MODEL 6
REMARK VINA RESULT:    -4.381      3.516      5.475
REMARK INTER + INTRA:          -7.685
REMARK INTER:                  -6.265
REMARK INTRA:                  -1.420
REMARK UNBOUND:                -1.256
REMARK  Name = /home/vital/Documents/PhD_2021/Malaria_codes/data/pdb_ligands_mmv/ligand_116.pdb
REMARK  9 active torsions:
REMARK  status: ('A' for Active; 'I' for Inactive)
REMARK    1  A    between atoms: C1_1  and  O1_2
REMARK    2  A    between atoms: O1_2  and  C2_3
REMARK    3  A    between atoms: C7_8  and  N1_9
REMARK    4  A    between atoms: N2_12  and  C12_15
REMARK    5  A    between atoms: C12_15  and  C13_16
REMARK    6  A    between atoms: C12_15  and  C20_28
REMARK    7  A    between atoms: C13_16  and  N3_17
REMARK    8  A    between atoms: N3_17  and  S1_18
REMARK    9  A    between atoms: S1_18  and  C14_21
REMARK                            x       y       z     vdW  Elec       q    Type
REMARK                         _______ _______ _______ _____ _____    ______ ____
ROOT
ATOM      1  C12 UNL     1     151.109 159.577 164.146  0.00  0.00    +0.104 C 
ENDROOT
BRANCH   1   5
ATOM      2  N1  UNL     1     151.542 158.205 160.162  0.00  0.00    -0.325 N 
ATOM      3  C8  UNL     1     151.268 157.425 161.369  0.00  0.00    +0.120 C 
ATOM      4  C9  UNL     1     152.114 157.949 162.555  0.00  0.00    +0.104 C 
ATOM      5  N2  UNL     1     151.934 159.385 162.910  0.00  0.00    -0.291 NA
ATOM      6  C10 UNL     1     151.371 160.118 161.742  0.00  0.00    +0.104 C 
ATOM      7  C11 UNL     1     151.878 159.624 160.364  0.00  0.00    +0.120 C 
BRANCH   2  13
ATOM      8  C2  UNL     1     151.218 156.355 158.540  0.00  0.00    +0.141 A 
ATOM      9  C3  UNL     1     150.902 155.949 157.233  0.00  0.00    +0.047 A 
ATOM     10  C4  UNL     1     150.556 156.883 156.257  0.00  0.00    +0.004 A 
ATOM     11  C5  UNL     1     150.524 158.229 156.579  0.00  0.00    +0.002 A 
ATOM     12  C6  UNL     1     150.846 158.644 157.875  0.00  0.00    +0.027 A 
ATOM     13  C7  UNL     1     151.215 157.735 158.889  0.00  0.00    +0.072 A 
BRANCH   8  15
ATOM     14  C1  UNL     1     150.519 154.508 159.907  0.00  0.00    +0.277 C 
ATOM     15  O1  UNL     1     151.511 155.459 159.544  0.00  0.00    -0.493 OA
ENDBRANCH   8  15
ENDBRANCH   2  13
ENDBRANCH   1   5
BRANCH   1  16
ATOM     16  C20 UNL     1     151.159 160.996 164.699  0.00  0.00    -0.011 A 
ATOM     17  C21 UNL     1     150.052 161.853 164.709  0.00  0.00    +0.008 A 
ATOM     18  C22 UNL     1     150.173 163.143 165.218  0.00  0.00    +0.020 A 
ATOM     19  C23 UNL     1     151.404 163.542 165.707  0.00  0.00    +0.111 A 
ATOM     20  N4  UNL     1     152.498 162.751 165.720  0.00  0.00    -0.263 NA
ATOM     21  C24 UNL     1     152.350 161.505 165.218  0.00  0.00    +0.116 A 
ENDBRANCH   1  16
BRANCH   1  22
ATOM     22  C13 UNL     1     151.525 158.582 165.285  0.00  0.00    +0.129 C 
BRANCH  22  23
ATOM     23  N3  UNL     1     150.455 158.501 166.304  0.00  0.00    -0.188 NA
ATOM     24  H19 UNL     1     149.721 159.208 166.191  0.00  0.00    +0.148 HD
BRANCH  23  25
ATOM     25  S1  UNL     1     150.851 158.152 167.890  0.00  0.00    +0.058 S 
ATOM     26  O2  UNL     1     151.882 157.140 167.883  0.00  0.00    -0.153 OA
ATOM     27  O3  UNL     1     149.612 157.986 168.614  0.00  0.00    -0.153 OA
BRANCH  25  28
ATOM     28  C14 UNL     1     151.581 159.678 168.443  0.00  0.00    +0.105 A 
ATOM     29  C15 UNL     1     150.777 160.802 168.662  0.00  0.00    +0.030 A 
ATOM     30  C16 UNL     1     151.365 161.989 169.102  0.00  0.00    +0.022 A 
ATOM     31  C17 UNL     1     152.745 162.049 169.310  0.00  0.00    +0.041 A 
ATOM     32 CL1  UNL     1     153.462 163.510 169.864  0.00  0.00    -0.084 Cl
ATOM     33  C18 UNL     1     153.547 160.931 169.072  0.00  0.00    +0.022 A 
ATOM     34  C19 UNL     1     152.966 159.741 168.630  0.00  0.00    +0.030 A 
ENDBRANCH  25  28
ENDBRANCH  23  25
ENDBRANCH  22  23
ENDBRANCH   1  22
TORSDOF 8
ENDMDL
MODEL 7
REMARK VINA RESULT:    -4.305      3.541      5.681
REMARK INTER + INTRA:          -7.575
REMARK INTER:                  -6.186
REMARK INTRA:                  -1.389
REMARK UNBOUND:                -1.256
REMARK  Name = /home/vital/Documents/PhD_2021/Malaria_codes/data/pdb_ligands_mmv/ligand_116.pdb
REMARK  9 active torsions:
REMARK  status: ('A' for Active; 'I' for Inactive)
REMARK    1  A    between atoms: C1_1  and  O1_2
REMARK    2  A    between atoms: O1_2  and  C2_3
REMARK    3  A    between atoms: C7_8  and  N1_9
REMARK    4  A    between atoms: N2_12  and  C12_15
REMARK    5  A    between atoms: C12_15  and  C13_16
REMARK    6  A    between atoms: C12_15  and  C20_28
REMARK    7  A    between atoms: C13_16  and  N3_17
REMARK    8  A    between atoms: N3_17  and  S1_18
REMARK    9  A    between atoms: S1_18  and  C14_21
REMARK                            x       y       z     vdW  Elec       q    Type
REMARK                         _______ _______ _______ _____ _____    ______ ____
ROOT
ATOM      1  C12 UNL     1     151.096 159.507 164.089  0.00  0.00    +0.104 C 
ENDROOT
BRANCH   1   5
ATOM      2  N1  UNL     1     151.671 158.016 160.166  0.00  0.00    -0.325 N 
ATOM      3  C8  UNL     1     151.325 157.277 161.381  0.00  0.00    +0.120 C 
ATOM      4  C9  UNL     1     152.129 157.814 162.589  0.00  0.00    +0.104 C 
ATOM      5  N2  UNL     1     151.969 159.262 162.897  0.00  0.00    -0.291 NA
ATOM      6  C10 UNL     1     151.477 159.976 161.686  0.00  0.00    +0.104 C 
ATOM      7  C11 UNL     1     152.032 159.432 160.346  0.00  0.00    +0.120 C 
BRANCH   2  13
ATOM      8  C2  UNL     1     151.047 158.349 157.788  0.00  0.00    +0.141 A 
ATOM      9  C3  UNL     1     150.751 157.783 156.536  0.00  0.00    +0.047 A 
ATOM     10  C4  UNL     1     150.809 156.404 156.343  0.00  0.00    +0.004 A 
ATOM     11  C5  UNL     1     151.164 155.578 157.397  0.00  0.00    +0.002 A 
ATOM     12  C6  UNL     1     151.452 156.131 158.649  0.00  0.00    +0.027 A 
ATOM     13  C7  UNL     1     151.389 157.519 158.893  0.00  0.00    +0.072 A 
BRANCH   8  15
ATOM     14  C1  UNL     1     151.679 160.540 157.036  0.00  0.00    +0.277 C 
ATOM     15  O1  UNL     1     151.052 159.709 158.003  0.00  0.00    -0.493 OA
ENDBRANCH   8  15
ENDBRANCH   2  13
ENDBRANCH   1   5
BRANCH   1  16
ATOM     16  C20 UNL     1     151.176 160.933 164.622  0.00  0.00    -0.011 A 
ATOM     17  C21 UNL     1     150.081 161.806 164.640  0.00  0.00    +0.008 A 
ATOM     18  C22 UNL     1     150.229 163.100 165.129  0.00  0.00    +0.020 A 
ATOM     19  C23 UNL     1     151.474 163.488 165.591  0.00  0.00    +0.111 A 
ATOM     20  N4  UNL     1     152.556 162.682 165.596  0.00  0.00    -0.263 NA
ATOM     21  C24 UNL     1     152.382 161.431 165.113  0.00  0.00    +0.116 A 
ENDBRANCH   1  16
BRANCH   1  22
ATOM     22  C13 UNL     1     151.418 158.517 165.263  0.00  0.00    +0.129 C 
BRANCH  22  23
ATOM     23  N3  UNL     1     150.369 158.605 166.303  0.00  0.00    -0.188 NA
ATOM     24  H19 UNL     1     149.735 159.401 166.185  0.00  0.00    +0.148 HD
BRANCH  23  25
ATOM     25  S1  UNL     1     150.751 158.244 167.890  0.00  0.00    +0.058 S 
ATOM     26  O2  UNL     1     151.760 157.209 167.885  0.00  0.00    -0.153 OA
ATOM     27  O3  UNL     1     149.505 158.102 168.608  0.00  0.00    -0.153 OA
BRANCH  25  28
ATOM     28  C14 UNL     1     151.511 159.752 168.450  0.00  0.00    +0.105 A 
ATOM     29  C15 UNL     1     150.722 160.869 168.744  0.00  0.00    +0.030 A 
ATOM     30  C16 UNL     1     151.334 162.042 169.189  0.00  0.00    +0.022 A 
ATOM     31  C17 UNL     1     152.722 162.095 169.327  0.00  0.00    +0.041 A 
ATOM     32 CL1  UNL     1     153.469 163.539 169.887  0.00  0.00    -0.084 Cl
ATOM     33  C18 UNL     1     153.509 160.985 169.015  0.00  0.00    +0.022 A 
ATOM     34  C19 UNL     1     152.904 159.809 168.568  0.00  0.00    +0.030 A 
ENDBRANCH  25  28
ENDBRANCH  23  25
ENDBRANCH  22  23
ENDBRANCH   1  22
TORSDOF 8
ENDMDL
MODEL 8
REMARK VINA RESULT:    -4.196      4.678      8.891
REMARK INTER + INTRA:          -7.414
REMARK INTER:                  -6.600
REMARK INTRA:                  -0.815
REMARK UNBOUND:                -1.256
REMARK  Name = /home/vital/Documents/PhD_2021/Malaria_codes/data/pdb_ligands_mmv/ligand_116.pdb
REMARK  9 active torsions:
REMARK  status: ('A' for Active; 'I' for Inactive)
REMARK    1  A    between atoms: C1_1  and  O1_2
REMARK    2  A    between atoms: O1_2  and  C2_3
REMARK    3  A    between atoms: C7_8  and  N1_9
REMARK    4  A    between atoms: N2_12  and  C12_15
REMARK    5  A    between atoms: C12_15  and  C13_16
REMARK    6  A    between atoms: C12_15  and  C20_28
REMARK    7  A    between atoms: C13_16  and  N3_17
REMARK    8  A    between atoms: N3_17  and  S1_18
REMARK    9  A    between atoms: S1_18  and  C14_21
REMARK                            x       y       z     vdW  Elec       q    Type
REMARK                         _______ _______ _______ _____ _____    ______ ____
ROOT
ATOM      1  C12 UNL     1     151.406 159.164 161.533  0.00  0.00    +0.104 C 
ENDROOT
BRANCH   1   5
ATOM      2  N1  UNL     1     150.837 161.438 165.060  0.00  0.00    -0.325 N 
ATOM      3  C8  UNL     1     150.806 161.891 163.669  0.00  0.00    +0.120 C 
ATOM      4  C9  UNL     1     151.929 161.207 162.852  0.00  0.00    +0.104 C 
ATOM      5  N2  UNL     1     151.913 159.717 162.829  0.00  0.00    -0.291 NA
ATOM      6  C10 UNL     1     151.137 159.211 163.996  0.00  0.00    +0.104 C 
ATOM      7  C11 UNL     1     151.286 160.055 165.286  0.00  0.00    +0.120 C 
BRANCH   2  13
ATOM      8  C2  UNL     1     150.903 162.808 167.128  0.00  0.00    +0.141 A 
ATOM      9  C3  UNL     1     150.201 163.484 168.142  0.00  0.00    +0.047 A 
ATOM     10  C4  UNL     1     148.809 163.541 168.131  0.00  0.00    +0.004 A 
ATOM     11  C5  UNL     1     148.105 162.925 167.110  0.00  0.00    +0.002 A 
ATOM     12  C6  UNL     1     148.794 162.242 166.102  0.00  0.00    +0.027 A 
ATOM     13  C7  UNL     1     150.201 162.146 166.082  0.00  0.00    +0.072 A 
BRANCH   8  15
ATOM     14  C1  UNL     1     152.979 162.174 168.155  0.00  0.00    +0.277 C 
ATOM     15  O1  UNL     1     152.279 162.775 167.075  0.00  0.00    -0.493 OA
ENDBRANCH   8  15
ENDBRANCH   2  13
ENDBRANCH   1   5
BRANCH   1  16
ATOM     16  C20 UNL     1     151.338 157.641 161.503  0.00  0.00    -0.011 A 
ATOM     17  C21 UNL     1     150.309 156.934 160.870  0.00  0.00    +0.008 A 
ATOM     18  C22 UNL     1     150.302 155.542 160.894  0.00  0.00    +0.020 A 
ATOM     19  C23 UNL     1     151.331 154.893 161.554  0.00  0.00    +0.111 A 
ATOM     20  N4  UNL     1     152.344 155.532 162.176  0.00  0.00    -0.263 NA
ATOM     21  C24 UNL     1     152.323 156.883 162.136  0.00  0.00    +0.116 A 
ENDBRANCH   1  16
BRANCH   1  22
ATOM     22  C13 UNL     1     152.269 159.648 160.315  0.00  0.00    +0.129 C 
BRANCH  22  23
ATOM     23  N3  UNL     1     152.138 158.695 159.189  0.00  0.00    -0.188 NA
ATOM     24  H19 UNL     1     152.951 158.084 159.068  0.00  0.00    +0.148 HD
BRANCH  23  25
ATOM     25  S1  UNL     1     151.422 159.196 157.765  0.00  0.00    +0.058 S 
ATOM     26  O2  UNL     1     152.215 160.274 157.219  0.00  0.00    -0.153 OA
ATOM     27  O3  UNL     1     150.007 159.334 158.022  0.00  0.00    -0.153 OA
BRANCH  25  28
ATOM     28  C14 UNL     1     151.628 157.774 156.716  0.00  0.00    +0.105 A 
ATOM     29  C15 UNL     1     151.001 156.567 157.039  0.00  0.00    +0.030 A 
ATOM     30  C16 UNL     1     151.167 155.462 156.201  0.00  0.00    +0.022 A 
ATOM     31  C17 UNL     1     151.963 155.568 155.059  0.00  0.00    +0.041 A 
ATOM     32 CL1  UNL     1     152.155 154.208 154.024  0.00  0.00    -0.084 Cl
ATOM     33  C18 UNL     1     152.603 156.769 154.749  0.00  0.00    +0.022 A 
ATOM     34  C19 UNL     1     152.442 157.877 155.582  0.00  0.00    +0.030 A 
ENDBRANCH  25  28
ENDBRANCH  23  25
ENDBRANCH  22  23
ENDBRANCH   1  22
TORSDOF 8
ENDMDL
MODEL 9
REMARK VINA RESULT:    -3.931      3.716      7.742
REMARK INTER + INTRA:          -7.026
REMARK INTER:                  -5.797
REMARK INTRA:                  -1.229
REMARK UNBOUND:                -1.256
REMARK  Name = /home/vital/Documents/PhD_2021/Malaria_codes/data/pdb_ligands_mmv/ligand_116.pdb
REMARK  9 active torsions:
REMARK  status: ('A' for Active; 'I' for Inactive)
REMARK    1  A    between atoms: C1_1  and  O1_2
REMARK    2  A    between atoms: O1_2  and  C2_3
REMARK    3  A    between atoms: C7_8  and  N1_9
REMARK    4  A    between atoms: N2_12  and  C12_15
REMARK    5  A    between atoms: C12_15  and  C13_16
REMARK    6  A    between atoms: C12_15  and  C20_28
REMARK    7  A    between atoms: C13_16  and  N3_17
REMARK    8  A    between atoms: N3_17  and  S1_18
REMARK    9  A    between atoms: S1_18  and  C14_21
REMARK                            x       y       z     vdW  Elec       q    Type
REMARK                         _______ _______ _______ _____ _____    ______ ____
ROOT
ATOM      1  C12 UNL     1     150.564 156.166 164.831  0.00  0.00    +0.104 C 
ENDROOT
BRANCH   1   5
ATOM      2  N1  UNL     1     152.107 159.549 166.861  0.00  0.00    -0.325 N 
ATOM      3  C8  UNL     1     152.326 159.140 165.472  0.00  0.00    +0.120 C 
ATOM      4  C9  UNL     1     152.515 157.607 165.383  0.00  0.00    +0.104 C 
ATOM      5  N2  UNL     1     151.401 156.773 165.915  0.00  0.00    -0.291 NA
ATOM      6  C10 UNL     1     150.587 157.580 166.866  0.00  0.00    +0.104 C 
ATOM      7  C11 UNL     1     151.399 158.585 167.719  0.00  0.00    +0.120 C 
BRANCH   2  13
ATOM      8  C2  UNL     1     151.319 161.896 167.028  0.00  0.00    +0.141 A 
ATOM      9  C3  UNL     1     151.560 163.213 167.454  0.00  0.00    +0.047 A 
ATOM     10  C4  UNL     1     152.723 163.540 168.148  0.00  0.00    +0.004 A 
ATOM     11  C5  UNL     1     153.656 162.553 168.423  0.00  0.00    +0.002 A 
ATOM     12  C6  UNL     1     153.430 161.241 167.996  0.00  0.00    +0.027 A 
ATOM     13  C7  UNL     1     152.275 160.870 167.277  0.00  0.00    +0.072 A 
BRANCH   8  15
ATOM     14  C1  UNL     1     149.731 162.293 165.272  0.00  0.00    +0.277 C 
ATOM     15  O1  UNL     1     150.158 161.524 166.387  0.00  0.00    -0.493 OA
ENDBRANCH   8  15
ENDBRANCH   2  13
ENDBRANCH   1   5
BRANCH   1  16
ATOM     16  C20 UNL     1     150.111 154.742 165.134  0.00  0.00    -0.011 A 
ATOM     17  C21 UNL     1     150.866 153.846 165.900  0.00  0.00    +0.008 A 
ATOM     18  C22 UNL     1     150.398 152.555 166.125  0.00  0.00    +0.020 A 
ATOM     19  C23 UNL     1     149.181 152.194 165.576  0.00  0.00    +0.111 A 
ATOM     20  N4  UNL     1     148.418 153.023 164.833  0.00  0.00    -0.263 NA
ATOM     21  C24 UNL     1     148.900 154.270 164.631  0.00  0.00    +0.116 A 
ENDBRANCH   1  16
BRANCH   1  22
ATOM     22  C13 UNL     1     151.306 156.170 163.449  0.00  0.00    +0.129 C 
BRANCH  22  23
ATOM     23  N3  UNL     1     150.441 156.774 162.410  0.00  0.00    -0.188 NA
ATOM     24  H19 UNL     1     149.851 156.096 161.918  0.00  0.00    +0.148 HD
BRANCH  23  25
ATOM     25  S1  UNL     1     151.041 158.005 161.452  0.00  0.00    +0.058 S 
ATOM     26  O2  UNL     1     152.454 158.138 161.724  0.00  0.00    -0.153 OA
ATOM     27  O3  UNL     1     150.126 159.118 161.562  0.00  0.00    -0.153 OA
BRANCH  25  28
ATOM     28  C14 UNL     1     150.857 157.334 159.814  0.00  0.00    +0.105 A 
ATOM     29  C15 UNL     1     150.428 158.152 158.764  0.00  0.00    +0.030 A 
ATOM     30  C16 UNL     1     150.295 157.612 157.483  0.00  0.00    +0.022 A 
ATOM     31  C17 UNL     1     150.581 156.263 157.264  0.00  0.00    +0.041 A 
ATOM     32 CL1  UNL     1     150.427 155.605 155.683  0.00  0.00    -0.084 Cl
ATOM     33  C18 UNL     1     150.990 155.443 158.318  0.00  0.00    +0.022 A 
ATOM     34  C19 UNL     1     151.123 155.977 159.601  0.00  0.00    +0.030 A 
ENDBRANCH  25  28
ENDBRANCH  23  25
ENDBRANCH  22  23
ENDBRANCH   1  22
TORSDOF 8
ENDMDL
