MODEL 1
REMARK VINA RESULT:    -6.046      0.000      0.000
REMARK INTER + INTRA:          -7.673
REMARK INTER:                  -7.107
REMARK INTRA:                  -0.566
REMARK UNBOUND:                -0.566
REMARK  Name = /home/vital/Documents/PhD_2021/Malaria_codes/data/pdb_ligands_mmv/ligand_390.pdb
REMARK  6 active torsions:
REMARK  status: ('A' for Active; 'I' for Inactive)
REMARK    1  A    between atoms: N2_3  and  C2_4
REMARK    2  A    between atoms: N2_3  and  C3_5
REMARK    3  A    between atoms: C5_7  and  C6_8
REMARK    4  A    between atoms: N4_11  and  C8_12
REMARK    5  A    between atoms: C13_17  and  N5_18
REMARK    6  A    between atoms: N6_21  and  C15_22
REMARK                            x       y       z     vdW  Elec       q    Type
REMARK                         _______ _______ _______ _____ _____    ______ ____
ROOT
ATOM      1  C8  UNL     1     150.834 160.542 160.794  0.00  0.00    +0.034 A 
ATOM      2  C9  UNL     1     151.546 161.247 159.822  0.00  0.00    +0.025 A 
ATOM      3  C10 UNL     1     152.114 160.599 158.712  0.00  0.00    +0.025 A 
ATOM      4  C11 UNL     1     150.714 159.155 160.623  0.00  0.00    +0.025 A 
ATOM      5  C12 UNL     1     151.277 158.503 159.518  0.00  0.00    +0.025 A 
ATOM      6  C13 UNL     1     151.980 159.223 158.549  0.00  0.00    +0.035 A 
ENDROOT
BRANCH   1  17
ATOM      7  N1  UNL     1     149.805 162.004 164.005  0.00  0.00    -0.199 NA
ATOM      8  C1  UNL     1     150.138 162.275 165.280  0.00  0.00    +0.126 A 
ATOM      9  N2  UNL     1     149.217 162.937 166.124  0.00  0.00    -0.321 N 
ATOM     10  C2  UNL     1     148.055 163.459 165.403  0.00  0.00    +0.130 C 
ATOM     11  C3  UNL     1     148.877 162.157 167.315  0.00  0.00    +0.130 C 
ATOM     12  C4  UNL     1     151.389 161.942 165.766  0.00  0.00    +0.066 A 
ATOM     13  C5  UNL     1     152.253 161.304 164.905  0.00  0.00    +0.045 A 
ATOM     14  C6  UNL     1     153.629 160.919 165.358  0.00  0.00    +0.066 C 
ATOM     15  N3  UNL     1     151.914 161.010 163.639  0.00  0.00    -0.219 NA
ATOM     16  C7  UNL     1     150.697 161.377 163.221  0.00  0.00    +0.221 A 
ATOM     17  N4  UNL     1     150.257 161.129 161.923  0.00  0.00    -0.284 N 
ATOM     18  H11 UNL     1     149.329 161.509 161.825  0.00  0.00    +0.155 HD
ENDBRANCH   1  17
BRANCH   6  19
ATOM     19  N5  UNL     1     152.531 158.495 157.474  0.00  0.00    -0.269 N 
ATOM     20  C14 UNL     1     151.890 158.093 156.309  0.00  0.00    +0.308 C 
ATOM     21  O1  UNL     1     150.695 158.221 156.084  0.00  0.00    -0.252 OA
ATOM     22  N6  UNL     1     152.810 157.522 155.440  0.00  0.00    -0.269 N 
ATOM     23  H16 UNL     1     153.440 158.092 157.635  0.00  0.00    +0.156 HD
ATOM     24  H17 UNL     1     153.778 157.728 155.629  0.00  0.00    +0.156 HD
BRANCH  22  25
ATOM     25  C15 UNL     1     152.547 156.880 154.212  0.00  0.00    +0.035 A 
ATOM     26  C16 UNL     1     152.774 157.463 152.964  0.00  0.00    +0.023 A 
ATOM     27  C17 UNL     1     152.470 156.766 151.789  0.00  0.00    +0.002 A 
ATOM     28  C18 UNL     1     151.935 155.482 151.853  0.00  0.00    +0.000 A 
ATOM     29  C19 UNL     1     151.698 154.894 153.092  0.00  0.00    +0.002 A 
ATOM     30  C20 UNL     1     151.999 155.591 154.265  0.00  0.00    +0.023 A 
ENDBRANCH  22  25
ENDBRANCH   6  19
TORSDOF 3
ENDMDL
MODEL 2
REMARK VINA RESULT:    -5.926      4.113      7.335
REMARK INTER + INTRA:          -7.531
REMARK INTER:                  -7.457
REMARK INTRA:                  -0.074
REMARK UNBOUND:                -0.566
REMARK  Name = /home/vital/Documents/PhD_2021/Malaria_codes/data/pdb_ligands_mmv/ligand_390.pdb
REMARK  6 active torsions:
REMARK  status: ('A' for Active; 'I' for Inactive)
REMARK    1  A    between atoms: N2_3  and  C2_4
REMARK    2  A    between atoms: N2_3  and  C3_5
REMARK    3  A    between atoms: C5_7  and  C6_8
REMARK    4  A    between atoms: N4_11  and  C8_12
REMARK    5  A    between atoms: C13_17  and  N5_18
REMARK    6  A    between atoms: N6_21  and  C15_22
REMARK                            x       y       z     vdW  Elec       q    Type
REMARK                         _______ _______ _______ _____ _____    ______ ____
ROOT
ATOM      1  C8  UNL     1     152.525 157.141 154.947  0.00  0.00    +0.034 A 
ATOM      2  C9  UNL     1     152.389 155.752 154.926  0.00  0.00    +0.025 A 
ATOM      3  C10 UNL     1     152.730 154.997 153.791  0.00  0.00    +0.025 A 
ATOM      4  C11 UNL     1     153.010 157.756 153.784  0.00  0.00    +0.025 A 
ATOM      5  C12 UNL     1     153.352 157.009 152.649  0.00  0.00    +0.025 A 
ATOM      6  C13 UNL     1     153.219 155.619 152.646  0.00  0.00    +0.035 A 
ENDROOT
BRANCH   1  17
ATOM      7  N1  UNL     1     151.594 158.784 158.100  0.00  0.00    -0.199 NA
ATOM      8  C1  UNL     1     151.195 158.632 159.376  0.00  0.00    +0.126 A 
ATOM      9  N2  UNL     1     150.981 159.771 160.187  0.00  0.00    -0.321 N 
ATOM     10  C2  UNL     1     151.455 161.010 159.569  0.00  0.00    +0.130 C 
ATOM     11  C3  UNL     1     149.615 159.849 160.705  0.00  0.00    +0.130 C 
ATOM     12  C4  UNL     1     151.024 157.371 159.915  0.00  0.00    +0.066 A 
ATOM     13  C5  UNL     1     151.250 156.293 159.088  0.00  0.00    +0.045 A 
ATOM     14  C6  UNL     1     151.093 154.895 159.604  0.00  0.00    +0.066 C 
ATOM     15  N3  UNL     1     151.625 156.442 157.807  0.00  0.00    -0.219 NA
ATOM     16  C7  UNL     1     151.794 157.687 157.350  0.00  0.00    +0.221 A 
ATOM     17  N4  UNL     1     152.193 157.945 156.041  0.00  0.00    -0.284 N 
ATOM     18  H11 UNL     1     152.278 158.943 155.925  0.00  0.00    +0.155 HD
ENDBRANCH   1  17
BRANCH   6  19
ATOM     19  N5  UNL     1     153.569 154.937 151.462  0.00  0.00    -0.269 N 
ATOM     20  C14 UNL     1     154.844 154.605 151.024  0.00  0.00    +0.308 C 
ATOM     21  O1  UNL     1     155.886 154.956 151.560  0.00  0.00    -0.252 OA
ATOM     22  N6  UNL     1     154.759 153.816 149.885  0.00  0.00    -0.269 N 
ATOM     23  H16 UNL     1     152.829 154.813 150.790  0.00  0.00    +0.156 HD
ATOM     24  H17 UNL     1     153.865 153.382 149.718  0.00  0.00    +0.156 HD
BRANCH  22  25
ATOM     25  C15 UNL     1     155.819 153.374 149.066  0.00  0.00    +0.035 A 
ATOM     26  C16 UNL     1     155.898 153.618 147.693  0.00  0.00    +0.023 A 
ATOM     27  C17 UNL     1     156.976 153.131 146.947  0.00  0.00    +0.002 A 
ATOM     28  C18 UNL     1     157.983 152.393 147.565  0.00  0.00    +0.000 A 
ATOM     29  C19 UNL     1     157.910 152.137 148.932  0.00  0.00    +0.002 A 
ATOM     30  C20 UNL     1     156.832 152.622 149.677  0.00  0.00    +0.023 A 
ENDBRANCH  22  25
ENDBRANCH   6  19
TORSDOF 3
ENDMDL
MODEL 3
REMARK VINA RESULT:    -5.880      1.884      2.404
REMARK INTER + INTRA:          -7.477
REMARK INTER:                  -6.979
REMARK INTRA:                  -0.499
REMARK UNBOUND:                -0.566
REMARK  Name = /home/vital/Documents/PhD_2021/Malaria_codes/data/pdb_ligands_mmv/ligand_390.pdb
REMARK  6 active torsions:
REMARK  status: ('A' for Active; 'I' for Inactive)
REMARK    1  A    between atoms: N2_3  and  C2_4
REMARK    2  A    between atoms: N2_3  and  C3_5
REMARK    3  A    between atoms: C5_7  and  C6_8
REMARK    4  A    between atoms: N4_11  and  C8_12
REMARK    5  A    between atoms: C13_17  and  N5_18
REMARK    6  A    between atoms: N6_21  and  C15_22
REMARK                            x       y       z     vdW  Elec       q    Type
REMARK                         _______ _______ _______ _____ _____    ______ ____
ROOT
ATOM      1  C8  UNL     1     150.896 160.093 159.566  0.00  0.00    +0.034 A 
ATOM      2  C9  UNL     1     150.041 159.189 158.934  0.00  0.00    +0.025 A 
ATOM      3  C10 UNL     1     150.211 158.833 157.586  0.00  0.00    +0.025 A 
ATOM      4  C11 UNL     1     151.932 160.641 158.795  0.00  0.00    +0.025 A 
ATOM      5  C12 UNL     1     152.108 160.290 157.450  0.00  0.00    +0.025 A 
ATOM      6  C13 UNL     1     151.249 159.377 156.835  0.00  0.00    +0.035 A 
ENDROOT
BRANCH   1  17
ATOM      7  N1  UNL     1     150.897 160.719 163.187  0.00  0.00    -0.199 NA
ATOM      8  C1  UNL     1     151.297 160.305 164.403  0.00  0.00    +0.126 A 
ATOM      9  N2  UNL     1     150.951 161.055 165.551  0.00  0.00    -0.321 N 
ATOM     10  C2  UNL     1     150.366 162.357 165.229  0.00  0.00    +0.130 C 
ATOM     11  C3  UNL     1     150.179 160.280 166.523  0.00  0.00    +0.130 C 
ATOM     12  C4  UNL     1     152.073 159.170 164.541  0.00  0.00    +0.066 A 
ATOM     13  C5  UNL     1     152.389 158.476 163.393  0.00  0.00    +0.045 A 
ATOM     14  C6  UNL     1     153.233 157.240 163.462  0.00  0.00    +0.066 C 
ATOM     15  N3  UNL     1     151.970 158.874 162.180  0.00  0.00    -0.219 NA
ATOM     16  C7  UNL     1     151.240 159.992 162.111  0.00  0.00    +0.221 A 
ATOM     17  N4  UNL     1     150.771 160.492 160.899  0.00  0.00    -0.284 N 
ATOM     18  H11 UNL     1     150.269 161.348 161.081  0.00  0.00    +0.155 HD
ENDBRANCH   1  17
BRANCH   6  19
ATOM     19  N5  UNL     1     151.480 159.085 155.475  0.00  0.00    -0.269 N 
ATOM     20  C14 UNL     1     152.003 157.916 154.939  0.00  0.00    +0.308 C 
ATOM     21  O1  UNL     1     152.451 156.982 155.589  0.00  0.00    -0.252 OA
ATOM     22  N6  UNL     1     151.942 157.967 153.552  0.00  0.00    -0.269 N 
ATOM     23  H16 UNL     1     151.402 159.862 154.838  0.00  0.00    +0.156 HD
ATOM     24  H17 UNL     1     151.313 158.652 153.166  0.00  0.00    +0.156 HD
BRANCH  22  25
ATOM     25  C15 UNL     1     152.479 157.039 152.635  0.00  0.00    +0.035 A 
ATOM     26  C16 UNL     1     153.829 156.687 152.582  0.00  0.00    +0.023 A 
ATOM     27  C17 UNL     1     154.286 155.769 151.630  0.00  0.00    +0.002 A 
ATOM     28  C18 UNL     1     153.399 155.198 150.722  0.00  0.00    +0.000 A 
ATOM     29  C19 UNL     1     152.052 155.547 150.761  0.00  0.00    +0.002 A 
ATOM     30  C20 UNL     1     151.595 156.466 151.710  0.00  0.00    +0.023 A 
ENDBRANCH  22  25
ENDBRANCH   6  19
TORSDOF 3
ENDMDL
MODEL 4
REMARK VINA RESULT:    -5.329      3.794      6.819
REMARK INTER + INTRA:          -6.830
REMARK INTER:                  -6.967
REMARK INTRA:                   0.137
REMARK UNBOUND:                -0.566
REMARK  Name = /home/vital/Documents/PhD_2021/Malaria_codes/data/pdb_ligands_mmv/ligand_390.pdb
REMARK  6 active torsions:
REMARK  status: ('A' for Active; 'I' for Inactive)
REMARK    1  A    between atoms: N2_3  and  C2_4
REMARK    2  A    between atoms: N2_3  and  C3_5
REMARK    3  A    between atoms: C5_7  and  C6_8
REMARK    4  A    between atoms: N4_11  and  C8_12
REMARK    5  A    between atoms: C13_17  and  N5_18
REMARK    6  A    between atoms: N6_21  and  C15_22
REMARK                            x       y       z     vdW  Elec       q    Type
REMARK                         _______ _______ _______ _____ _____    ______ ____
ROOT
ATOM      1  C8  UNL     1     152.192 157.043 155.590  0.00  0.00    +0.034 A 
ATOM      2  C9  UNL     1     152.645 157.865 154.556  0.00  0.00    +0.025 A 
ATOM      3  C10 UNL     1     153.054 157.335 153.321  0.00  0.00    +0.025 A 
ATOM      4  C11 UNL     1     152.169 155.662 155.348  0.00  0.00    +0.025 A 
ATOM      5  C12 UNL     1     152.576 155.127 154.119  0.00  0.00    +0.025 A 
ATOM      6  C13 UNL     1     153.018 155.962 153.091  0.00  0.00    +0.035 A 
ENDROOT
BRANCH   1  17
ATOM      7  N1  UNL     1     151.194 158.776 158.673  0.00  0.00    -0.199 NA
ATOM      8  C1  UNL     1     151.060 159.951 159.314  0.00  0.00    +0.126 A 
ATOM      9  N2  UNL     1     150.562 159.980 160.637  0.00  0.00    -0.321 N 
ATOM     10  C2  UNL     1     150.028 158.689 161.075  0.00  0.00    +0.130 C 
ATOM     11  C3  UNL     1     151.500 160.588 161.582  0.00  0.00    +0.130 C 
ATOM     12  C4  UNL     1     151.372 161.139 158.679  0.00  0.00    +0.066 A 
ATOM     13  C5  UNL     1     151.847 161.060 157.389  0.00  0.00    +0.045 A 
ATOM     14  C6  UNL     1     152.200 162.305 156.633  0.00  0.00    +0.066 C 
ATOM     15  N3  UNL     1     152.006 159.886 156.755  0.00  0.00    -0.219 NA
ATOM     16  C7  UNL     1     151.666 158.774 157.416  0.00  0.00    +0.221 A 
ATOM     17  N4  UNL     1     151.782 157.511 156.841  0.00  0.00    -0.284 N 
ATOM     18  H11 UNL     1     151.450 156.828 157.505  0.00  0.00    +0.155 HD
ENDBRANCH   1  17
BRANCH   6  19
ATOM     19  N5  UNL     1     153.425 155.350 151.888  0.00  0.00    -0.269 N 
ATOM     20  C14 UNL     1     154.663 154.789 151.602  0.00  0.00    +0.308 C 
ATOM     21  O1  UNL     1     155.643 154.838 152.331  0.00  0.00    -0.252 OA
ATOM     22  N6  UNL     1     154.621 154.166 150.361  0.00  0.00    -0.269 N 
ATOM     23  H16 UNL     1     152.806 155.469 151.102  0.00  0.00    +0.156 HD
ATOM     24  H17 UNL     1     153.701 153.965 150.003  0.00  0.00    +0.156 HD
BRANCH  22  25
ATOM     25  C15 UNL     1     155.696 153.588 149.654  0.00  0.00    +0.035 A 
ATOM     26  C16 UNL     1     156.937 153.298 150.224  0.00  0.00    +0.023 A 
ATOM     27  C17 UNL     1     157.960 152.739 149.450  0.00  0.00    +0.002 A 
ATOM     28  C18 UNL     1     157.752 152.468 148.100  0.00  0.00    +0.000 A 
ATOM     29  C19 UNL     1     156.520 152.760 147.520  0.00  0.00    +0.002 A 
ATOM     30  C20 UNL     1     155.499 153.321 148.292  0.00  0.00    +0.023 A 
ENDBRANCH  22  25
ENDBRANCH   6  19
TORSDOF 3
ENDMDL
MODEL 5
REMARK VINA RESULT:    -4.964      2.542      3.288
REMARK INTER + INTRA:          -6.401
REMARK INTER:                  -6.388
REMARK INTRA:                  -0.012
REMARK UNBOUND:                -0.566
REMARK  Name = /home/vital/Documents/PhD_2021/Malaria_codes/data/pdb_ligands_mmv/ligand_390.pdb
REMARK  6 active torsions:
REMARK  status: ('A' for Active; 'I' for Inactive)
REMARK    1  A    between atoms: N2_3  and  C2_4
REMARK    2  A    between atoms: N2_3  and  C3_5
REMARK    3  A    between atoms: C5_7  and  C6_8
REMARK    4  A    between atoms: N4_11  and  C8_12
REMARK    5  A    between atoms: C13_17  and  N5_18
REMARK    6  A    between atoms: N6_21  and  C15_22
REMARK                            x       y       z     vdW  Elec       q    Type
REMARK                         _______ _______ _______ _____ _____    ______ ____
ROOT
ATOM      1  C8  UNL     1     150.836 156.875 160.668  0.00  0.00    +0.034 A 
ATOM      2  C9  UNL     1     150.435 157.791 159.694  0.00  0.00    +0.025 A 
ATOM      3  C10 UNL     1     150.404 157.449 158.332  0.00  0.00    +0.025 A 
ATOM      4  C11 UNL     1     151.215 155.597 160.231  0.00  0.00    +0.025 A 
ATOM      5  C12 UNL     1     151.186 155.250 158.874  0.00  0.00    +0.025 A 
ATOM      6  C13 UNL     1     150.774 156.174 157.911  0.00  0.00    +0.035 A 
ENDROOT
BRANCH   1  17
ATOM      7  N1  UNL     1     151.055 158.149 164.108  0.00  0.00    -0.199 NA
ATOM      8  C1  UNL     1     151.250 159.215 164.906  0.00  0.00    +0.126 A 
ATOM      9  N2  UNL     1     151.209 159.060 166.311  0.00  0.00    -0.321 N 
ATOM     10  C2  UNL     1     150.720 157.744 166.727  0.00  0.00    +0.130 C 
ATOM     11  C3  UNL     1     152.455 159.465 166.963  0.00  0.00    +0.130 C 
ATOM     12  C4  UNL     1     151.456 160.470 164.366  0.00  0.00    +0.066 A 
ATOM     13  C5  UNL     1     151.482 160.572 162.993  0.00  0.00    +0.045 A 
ATOM     14  C6  UNL     1     151.693 161.901 162.334  0.00  0.00    +0.066 C 
ATOM     15  N3  UNL     1     151.313 159.506 162.194  0.00  0.00    -0.219 NA
ATOM     16  C7  UNL     1     151.096 158.322 162.777  0.00  0.00    +0.221 A 
ATOM     17  N4  UNL     1     150.897 157.160 162.035  0.00  0.00    -0.284 N 
ATOM     18  H11 UNL     1     150.731 156.399 162.675  0.00  0.00    +0.155 HD
ENDBRANCH   1  17
BRANCH   6  19
ATOM     19  N5  UNL     1     150.785 155.757 156.565  0.00  0.00    -0.269 N 
ATOM     20  C14 UNL     1     151.773 155.988 155.617  0.00  0.00    +0.308 C 
ATOM     21  O1  UNL     1     152.756 156.696 155.783  0.00  0.00    -0.252 OA
ATOM     22  N6  UNL     1     151.475 155.295 154.450  0.00  0.00    -0.269 N 
ATOM     23  H16 UNL     1     149.917 155.385 156.211  0.00  0.00    +0.156 HD
ATOM     24  H17 UNL     1     150.803 154.550 154.542  0.00  0.00    +0.156 HD
BRANCH  22  25
ATOM     25  C15 UNL     1     152.156 155.361 153.216  0.00  0.00    +0.035 A 
ATOM     26  C16 UNL     1     153.503 155.704 153.086  0.00  0.00    +0.023 A 
ATOM     27  C17 UNL     1     154.101 155.763 151.822  0.00  0.00    +0.002 A 
ATOM     28  C18 UNL     1     153.358 155.482 150.679  0.00  0.00    +0.000 A 
ATOM     29  C19 UNL     1     152.012 155.145 150.797  0.00  0.00    +0.002 A 
ATOM     30  C20 UNL     1     151.414 155.089 152.058  0.00  0.00    +0.023 A 
ENDBRANCH  22  25
ENDBRANCH   6  19
TORSDOF 3
ENDMDL
MODEL 6
REMARK VINA RESULT:    -4.707      3.384      4.150
REMARK INTER + INTRA:          -6.099
REMARK INTER:                  -6.221
REMARK INTRA:                   0.122
REMARK UNBOUND:                -0.566
REMARK  Name = /home/vital/Documents/PhD_2021/Malaria_codes/data/pdb_ligands_mmv/ligand_390.pdb
REMARK  6 active torsions:
REMARK  status: ('A' for Active; 'I' for Inactive)
REMARK    1  A    between atoms: N2_3  and  C2_4
REMARK    2  A    between atoms: N2_3  and  C3_5
REMARK    3  A    between atoms: C5_7  and  C6_8
REMARK    4  A    between atoms: N4_11  and  C8_12
REMARK    5  A    between atoms: C13_17  and  N5_18
REMARK    6  A    between atoms: N6_21  and  C15_22
REMARK                            x       y       z     vdW  Elec       q    Type
REMARK                         _______ _______ _______ _____ _____    ______ ____
ROOT
ATOM      1  C8  UNL     1     151.298 157.186 160.703  0.00  0.00    +0.034 A 
ATOM      2  C9  UNL     1     151.201 158.109 159.661  0.00  0.00    +0.025 A 
ATOM      3  C10 UNL     1     151.113 157.699 158.320  0.00  0.00    +0.025 A 
ATOM      4  C11 UNL     1     151.312 155.827 160.356  0.00  0.00    +0.025 A 
ATOM      5  C12 UNL     1     151.224 155.411 159.022  0.00  0.00    +0.025 A 
ATOM      6  C13 UNL     1     151.119 156.347 157.990  0.00  0.00    +0.035 A 
ENDROOT
BRANCH   1  17
ATOM      7  N1  UNL     1     151.345 157.605 164.354  0.00  0.00    -0.199 NA
ATOM      8  C1  UNL     1     151.021 157.088 165.553  0.00  0.00    +0.126 A 
ATOM      9  N2  UNL     1     151.340 157.796 166.735  0.00  0.00    -0.321 N 
ATOM     10  C2  UNL     1     152.216 158.944 166.495  0.00  0.00    +0.130 C 
ATOM     11  C3  UNL     1     150.161 158.105 167.545  0.00  0.00    +0.130 C 
ATOM     12  C4  UNL     1     150.407 155.853 165.644  0.00  0.00    +0.066 A 
ATOM     13  C5  UNL     1     150.122 155.199 164.466  0.00  0.00    +0.045 A 
ATOM     14  C6  UNL     1     149.465 153.852 164.485  0.00  0.00    +0.066 C 
ATOM     15  N3  UNL     1     150.423 155.724 163.266  0.00  0.00    -0.219 NA
ATOM     16  C7  UNL     1     151.035 156.913 163.245  0.00  0.00    +0.221 A 
ATOM     17  N4  UNL     1     151.399 157.534 162.053  0.00  0.00    -0.284 N 
ATOM     18  H11 UNL     1     151.863 158.401 162.274  0.00  0.00    +0.155 HD
ENDBRANCH   1  17
BRANCH   6  19
ATOM     19  N5  UNL     1     151.049 155.853 156.671  0.00  0.00    -0.269 N 
ATOM     20  C14 UNL     1     151.945 156.083 155.635  0.00  0.00    +0.308 C 
ATOM     21  O1  UNL     1     152.894 156.852 155.683  0.00  0.00    -0.252 OA
ATOM     22  N6  UNL     1     151.598 155.308 154.535  0.00  0.00    -0.269 N 
ATOM     23  H16 UNL     1     150.180 155.414 156.410  0.00  0.00    +0.156 HD
ATOM     24  H17 UNL     1     150.981 154.534 154.721  0.00  0.00    +0.156 HD
BRANCH  22  25
ATOM     25  C15 UNL     1     152.175 155.339 153.248  0.00  0.00    +0.035 A 
ATOM     26  C16 UNL     1     153.517 155.636 153.002  0.00  0.00    +0.023 A 
ATOM     27  C17 UNL     1     154.010 155.663 151.693  0.00  0.00    +0.002 A 
ATOM     28  C18 UNL     1     153.165 155.396 150.619  0.00  0.00    +0.000 A 
ATOM     29  C19 UNL     1     151.823 155.105 150.852  0.00  0.00    +0.002 A 
ATOM     30  C20 UNL     1     151.331 155.081 152.160  0.00  0.00    +0.023 A 
ENDBRANCH  22  25
ENDBRANCH   6  19
TORSDOF 3
ENDMDL
MODEL 7
REMARK VINA RESULT:    -4.670      8.327      9.557
REMARK INTER + INTRA:          -6.055
REMARK INTER:                  -5.601
REMARK INTRA:                  -0.455
REMARK UNBOUND:                -0.566
REMARK  Name = /home/vital/Documents/PhD_2021/Malaria_codes/data/pdb_ligands_mmv/ligand_390.pdb
REMARK  6 active torsions:
REMARK  status: ('A' for Active; 'I' for Inactive)
REMARK    1  A    between atoms: N2_3  and  C2_4
REMARK    2  A    between atoms: N2_3  and  C3_5
REMARK    3  A    between atoms: C5_7  and  C6_8
REMARK    4  A    between atoms: N4_11  and  C8_12
REMARK    5  A    between atoms: C13_17  and  N5_18
REMARK    6  A    between atoms: N6_21  and  C15_22
REMARK                            x       y       z     vdW  Elec       q    Type
REMARK                         _______ _______ _______ _____ _____    ______ ____
ROOT
ATOM      1  C8  UNL     1     151.834 155.581 166.761  0.00  0.00    +0.034 A 
ATOM      2  C9  UNL     1     151.838 154.324 167.368  0.00  0.00    +0.025 A 
ATOM      3  C10 UNL     1     151.226 153.214 166.764  0.00  0.00    +0.025 A 
ATOM      4  C11 UNL     1     151.186 155.693 165.522  0.00  0.00    +0.025 A 
ATOM      5  C12 UNL     1     150.574 154.590 164.914  0.00  0.00    +0.025 A 
ATOM      6  C13 UNL     1     150.593 153.337 165.529  0.00  0.00    +0.035 A 
ENDROOT
BRANCH   1  17
ATOM      7  N1  UNL     1     152.850 158.777 168.265  0.00  0.00    -0.199 NA
ATOM      8  C1  UNL     1     152.466 159.987 168.710  0.00  0.00    +0.126 A 
ATOM      9  N2  UNL     1     153.425 160.878 169.245  0.00  0.00    -0.321 N 
ATOM     10  C2  UNL     1     154.732 160.253 169.455  0.00  0.00    +0.130 C 
ATOM     11  C3  UNL     1     153.483 162.149 168.521  0.00  0.00    +0.130 C 
ATOM     12  C4  UNL     1     151.135 160.357 168.681  0.00  0.00    +0.066 A 
ATOM     13  C5  UNL     1     150.238 159.454 168.156  0.00  0.00    +0.045 A 
ATOM     14  C6  UNL     1     148.777 159.781 168.098  0.00  0.00    +0.066 C 
ATOM     15  N3  UNL     1     150.622 158.254 167.688  0.00  0.00    -0.219 NA
ATOM     16  C7  UNL     1     151.921 157.946 167.764  0.00  0.00    +0.221 A 
ATOM     17  N4  UNL     1     152.416 156.723 167.317  0.00  0.00    -0.284 N 
ATOM     18  H11 UNL     1     153.409 156.699 167.492  0.00  0.00    +0.155 HD
ENDBRANCH   1  17
BRANCH   6  19
ATOM     19  N5  UNL     1     149.944 152.277 164.863  0.00  0.00    -0.269 N 
ATOM     20  C14 UNL     1     148.581 152.011 164.827  0.00  0.00    +0.308 C 
ATOM     21  O1  UNL     1     147.730 152.609 165.470  0.00  0.00    -0.252 OA
ATOM     22  N6  UNL     1     148.331 150.961 163.952  0.00  0.00    -0.269 N 
ATOM     23  H16 UNL     1     150.542 151.550 164.505  0.00  0.00    +0.156 HD
ATOM     24  H17 UNL     1     149.067 150.753 163.297  0.00  0.00    +0.156 HD
BRANCH  22  25
ATOM     25  C15 UNL     1     147.101 150.309 163.725  0.00  0.00    +0.035 A 
ATOM     26  C16 UNL     1     146.370 149.656 164.719  0.00  0.00    +0.023 A 
ATOM     27  C17 UNL     1     145.164 149.016 164.409  0.00  0.00    +0.002 A 
ATOM     28  C18 UNL     1     144.682 149.023 163.103  0.00  0.00    +0.000 A 
ATOM     29  C19 UNL     1     145.406 149.665 162.103  0.00  0.00    +0.002 A 
ATOM     30  C20 UNL     1     146.611 150.302 162.412  0.00  0.00    +0.023 A 
ENDBRANCH  22  25
ENDBRANCH   6  19
TORSDOF 3
ENDMDL
MODEL 8
REMARK VINA RESULT:    -4.569      3.510      4.225
REMARK INTER + INTRA:          -5.936
REMARK INTER:                  -5.748
REMARK INTRA:                  -0.188
REMARK UNBOUND:                -0.566
REMARK  Name = /home/vital/Documents/PhD_2021/Malaria_codes/data/pdb_ligands_mmv/ligand_390.pdb
REMARK  6 active torsions:
REMARK  status: ('A' for Active; 'I' for Inactive)
REMARK    1  A    between atoms: N2_3  and  C2_4
REMARK    2  A    between atoms: N2_3  and  C3_5
REMARK    3  A    between atoms: C5_7  and  C6_8
REMARK    4  A    between atoms: N4_11  and  C8_12
REMARK    5  A    between atoms: C13_17  and  N5_18
REMARK    6  A    between atoms: N6_21  and  C15_22
REMARK                            x       y       z     vdW  Elec       q    Type
REMARK                         _______ _______ _______ _____ _____    ______ ____
ROOT
ATOM      1  C8  UNL     1     150.847 156.144 161.131  0.00  0.00    +0.034 A 
ATOM      2  C9  UNL     1     151.115 157.401 160.586  0.00  0.00    +0.025 A 
ATOM      3  C10 UNL     1     151.117 157.616 159.198  0.00  0.00    +0.025 A 
ATOM      4  C11 UNL     1     150.586 155.098 160.234  0.00  0.00    +0.025 A 
ATOM      5  C12 UNL     1     150.586 155.305 158.849  0.00  0.00    +0.025 A 
ATOM      6  C13 UNL     1     150.847 156.571 158.318  0.00  0.00    +0.035 A 
ENDROOT
BRANCH   1  17
ATOM      7  N1  UNL     1     151.044 155.922 164.794  0.00  0.00    -0.199 NA
ATOM      8  C1  UNL     1     151.433 156.508 165.941  0.00  0.00    +0.126 A 
ATOM      9  N2  UNL     1     151.207 155.859 167.176  0.00  0.00    -0.321 N 
ATOM     10  C2  UNL     1     150.345 154.683 167.055  0.00  0.00    +0.130 C 
ATOM     11  C3  UNL     1     152.443 155.617 167.923  0.00  0.00    +0.130 C 
ATOM     12  C4  UNL     1     152.022 157.759 165.927  0.00  0.00    +0.066 A 
ATOM     13  C5  UNL     1     152.216 158.354 164.700  0.00  0.00    +0.045 A 
ATOM     14  C6  UNL     1     152.841 159.712 164.605  0.00  0.00    +0.066 C 
ATOM     15  N3  UNL     1     151.851 157.759 163.552  0.00  0.00    -0.219 NA
ATOM     16  C7  UNL     1     151.266 156.559 163.633  0.00  0.00    +0.221 A 
ATOM     17  N4  UNL     1     150.841 155.868 162.501  0.00  0.00    -0.284 N 
ATOM     18  H11 UNL     1     150.412 155.005 162.798  0.00  0.00    +0.155 HD
ENDBRANCH   1  17
BRANCH   6  19
ATOM     19  N5  UNL     1     150.845 156.699 156.914  0.00  0.00    -0.269 N 
ATOM     20  C14 UNL     1     151.804 156.239 156.022  0.00  0.00    +0.308 C 
ATOM     21  O1  UNL     1     152.873 155.734 156.336  0.00  0.00    -0.252 OA
ATOM     22  N6  UNL     1     151.368 156.439 154.718  0.00  0.00    -0.269 N 
ATOM     23  H16 UNL     1     150.153 157.323 156.530  0.00  0.00    +0.156 HD
ATOM     24  H17 UNL     1     150.380 156.601 154.607  0.00  0.00    +0.156 HD
BRANCH  22  25
ATOM     25  C15 UNL     1     152.094 156.224 153.528  0.00  0.00    +0.035 A 
ATOM     26  C16 UNL     1     153.318 156.832 153.241  0.00  0.00    +0.023 A 
ATOM     27  C17 UNL     1     153.968 156.579 152.028  0.00  0.00    +0.002 A 
ATOM     28  C18 UNL     1     153.400 155.719 151.092  0.00  0.00    +0.000 A 
ATOM     29  C19 UNL     1     152.176 155.113 151.365  0.00  0.00    +0.002 A 
ATOM     30  C20 UNL     1     151.525 155.368 152.575  0.00  0.00    +0.023 A 
ENDBRANCH  22  25
ENDBRANCH   6  19
TORSDOF 3
ENDMDL
MODEL 9
REMARK VINA RESULT:    -3.907      3.414     11.187
REMARK INTER + INTRA:          -5.158
REMARK INTER:                  -4.827
REMARK INTRA:                  -0.331
REMARK UNBOUND:                -0.566
REMARK  Name = /home/vital/Documents/PhD_2021/Malaria_codes/data/pdb_ligands_mmv/ligand_390.pdb
REMARK  6 active torsions:
REMARK  status: ('A' for Active; 'I' for Inactive)
REMARK    1  A    between atoms: N2_3  and  C2_4
REMARK    2  A    between atoms: N2_3  and  C3_5
REMARK    3  A    between atoms: C5_7  and  C6_8
REMARK    4  A    between atoms: N4_11  and  C8_12
REMARK    5  A    between atoms: C13_17  and  N5_18
REMARK    6  A    between atoms: N6_21  and  C15_22
REMARK                            x       y       z     vdW  Elec       q    Type
REMARK                         _______ _______ _______ _____ _____    ______ ____
ROOT
ATOM      1  C8  UNL     1     151.129 159.785 161.200  0.00  0.00    +0.034 A 
ATOM      2  C9  UNL     1     150.510 160.977 161.578  0.00  0.00    +0.025 A 
ATOM      3  C10 UNL     1     150.409 161.358 162.927  0.00  0.00    +0.025 A 
ATOM      4  C11 UNL     1     151.643 158.976 162.223  0.00  0.00    +0.025 A 
ATOM      5  C12 UNL     1     151.546 159.349 163.570  0.00  0.00    +0.025 A 
ATOM      6  C13 UNL     1     150.931 160.550 163.933  0.00  0.00    +0.035 A 
ENDROOT
BRANCH   1  17
ATOM      7  N1  UNL     1     151.280 158.148 157.912  0.00  0.00    -0.199 NA
ATOM      8  C1  UNL     1     151.154 157.005 157.215  0.00  0.00    +0.126 A 
ATOM      9  N2  UNL     1     151.353 157.009 155.815  0.00  0.00    -0.321 N 
ATOM     10  C2  UNL     1     151.458 158.357 155.256  0.00  0.00    +0.130 C 
ATOM     11  C3  UNL     1     152.422 156.104 155.392  0.00  0.00    +0.130 C 
ATOM     12  C4  UNL     1     150.797 155.830 157.848  0.00  0.00    +0.066 A 
ATOM     13  C5  UNL     1     150.609 155.878 159.212  0.00  0.00    +0.045 A 
ATOM     14  C6  UNL     1     150.213 154.645 159.967  0.00  0.00    +0.066 C 
ATOM     15  N3  UNL     1     150.759 157.013 159.915  0.00  0.00    -0.219 NA
ATOM     16  C7  UNL     1     151.084 158.121 159.241  0.00  0.00    +0.221 A 
ATOM     17  N4  UNL     1     151.250 159.349 159.877  0.00  0.00    -0.284 N 
ATOM     18  H11 UNL     1     151.468 160.042 159.179  0.00  0.00    +0.155 HD
ENDBRANCH   1  17
BRANCH   6  19
ATOM     19  N5  UNL     1     150.859 160.851 165.308  0.00  0.00    -0.269 N 
ATOM     20  C14 UNL     1     151.887 161.289 166.133  0.00  0.00    +0.308 C 
ATOM     21  O1  UNL     1     153.062 161.380 165.805  0.00  0.00    -0.252 OA
ATOM     22  N6  UNL     1     151.381 161.607 167.387  0.00  0.00    -0.269 N 
ATOM     23  H16 UNL     1     150.011 160.573 165.776  0.00  0.00    +0.156 HD
ATOM     24  H17 UNL     1     150.385 161.749 167.434  0.00  0.00    +0.156 HD
BRANCH  22  25
ATOM     25  C15 UNL     1     152.109 161.969 168.539  0.00  0.00    +0.035 A 
ATOM     26  C16 UNL     1     152.559 163.264 168.802  0.00  0.00    +0.023 A 
ATOM     27  C17 UNL     1     153.291 163.540 169.962  0.00  0.00    +0.002 A 
ATOM     28  C18 UNL     1     153.581 162.522 170.868  0.00  0.00    +0.000 A 
ATOM     29  C19 UNL     1     153.143 161.226 170.613  0.00  0.00    +0.002 A 
ATOM     30  C20 UNL     1     152.414 160.950 169.452  0.00  0.00    +0.023 A 
ENDBRANCH  22  25
ENDBRANCH   6  19
TORSDOF 3
ENDMDL
