MODEL 1
REMARK VINA RESULT:    -7.605      0.000      0.000
REMARK INTER + INTRA:         -10.115
REMARK INTER:                  -9.828
REMARK INTRA:                  -0.287
REMARK UNBOUND:                -0.287
REMARK  Name = /home/vital/Documents/PhD_2021/Malaria_codes/data/pdb_ligands_mmv/ligand_235.pdb
REMARK  8 active torsions:
REMARK  status: ('A' for Active; 'I' for Inactive)
REMARK    1  A    between atoms: C1_1  and  C2_2
REMARK    2  A    between atoms: C2_2  and  C3_3
REMARK    3  A    between atoms: C5_9  and  C6_10
REMARK    4  A    between atoms: C6_10  and  C7_11
REMARK    5  A    between atoms: C10_14  and  O2_15
REMARK    6  A    between atoms: O2_15  and  C11_16
REMARK    7  A    between atoms: C12_17  and  O3_18
REMARK    8  A    between atoms: O3_18  and  C13_19
REMARK                            x       y       z     vdW  Elec       q    Type
REMARK                         _______ _______ _______ _____ _____    ______ ____
ROOT
ATOM      1  C3  UNL     1     155.605 153.808 150.114  0.00  0.00    +0.218 C 
ATOM      2  O1  UNL     1     156.343 154.223 150.998  0.00  0.00    -0.275 OA
ATOM      3  N1  UNL     1     154.311 154.211 149.859  0.00  0.00    -0.263 N 
ATOM      4  C4  UNL     1     153.596 155.167 150.536  0.00  0.00    +0.188 A 
ATOM      5  N2  UNL     1     152.353 155.459 150.218  0.00  0.00    -0.126 NA
ATOM      6  N3  UNL     1     151.828 156.449 151.023  0.00  0.00    -0.144 NA
ATOM      7  C5  UNL     1     152.702 156.874 151.913  0.00  0.00    +0.108 A 
ATOM      8  S1  UNL     1     154.220 156.072 151.835  0.00  0.00    -0.035 S 
ATOM      9  H6  UNL     1     153.791 153.781 149.107  0.00  0.00    +0.157 HD
ENDROOT
BRANCH   1  11
ATOM     10  C1  UNL     1     156.317 151.400 149.806  0.00  0.00    +0.013 C 
ATOM     11  C2  UNL     1     156.046 152.733 149.132  0.00  0.00    +0.093 C 
ENDBRANCH   1  11
BRANCH   7  12
ATOM     12  C6  UNL     1     152.440 157.943 152.925  0.00  0.00    +0.100 C 
BRANCH  12  13
ATOM     13  C7  UNL     1     151.844 157.409 154.208  0.00  0.00    -0.037 A 
ATOM     14  C8  UNL     1     151.938 156.050 154.528  0.00  0.00    +0.008 A 
ATOM     15  C9  UNL     1     151.394 155.562 155.719  0.00  0.00    +0.049 A 
ATOM     16  C10 UNL     1     150.752 156.426 156.613  0.00  0.00    +0.161 A 
ATOM     17  C12 UNL     1     150.660 157.799 156.307  0.00  0.00    +0.162 A 
ATOM     18  C14 UNL     1     151.204 158.277 155.109  0.00  0.00    +0.053 A 
BRANCH  16  19
ATOM     19  O2  UNL     1     150.191 156.033 157.803  0.00  0.00    -0.491 OA
ATOM     20  C11 UNL     1     151.066 155.634 158.846  0.00  0.00    +0.277 C 
ENDBRANCH  16  19
BRANCH  17  21
ATOM     21  O3  UNL     1     150.020 158.582 157.236  0.00  0.00    -0.491 OA
ATOM     22  C13 UNL     1     150.701 159.739 157.700  0.00  0.00    +0.277 C 
ENDBRANCH  17  21
ENDBRANCH  12  13
ENDBRANCH   7  12
TORSDOF 5
ENDMDL
MODEL 2
REMARK VINA RESULT:    -7.463      2.423      7.921
REMARK INTER + INTRA:          -9.932
REMARK INTER:                  -9.531
REMARK INTRA:                  -0.401
REMARK UNBOUND:                -0.287
REMARK  Name = /home/vital/Documents/PhD_2021/Malaria_codes/data/pdb_ligands_mmv/ligand_235.pdb
REMARK  8 active torsions:
REMARK  status: ('A' for Active; 'I' for Inactive)
REMARK    1  A    between atoms: C1_1  and  C2_2
REMARK    2  A    between atoms: C2_2  and  C3_3
REMARK    3  A    between atoms: C5_9  and  C6_10
REMARK    4  A    between atoms: C6_10  and  C7_11
REMARK    5  A    between atoms: C10_14  and  O2_15
REMARK    6  A    between atoms: O2_15  and  C11_16
REMARK    7  A    between atoms: C12_17  and  O3_18
REMARK    8  A    between atoms: O3_18  and  C13_19
REMARK                            x       y       z     vdW  Elec       q    Type
REMARK                         _______ _______ _______ _____ _____    ______ ____
ROOT
ATOM      1  C3  UNL     1     151.190 156.578 158.250  0.00  0.00    +0.218 C 
ATOM      2  O1  UNL     1     151.477 157.758 158.086  0.00  0.00    -0.275 OA
ATOM      3  N1  UNL     1     151.180 155.588 157.291  0.00  0.00    -0.263 N 
ATOM      4  C4  UNL     1     151.502 155.722 155.963  0.00  0.00    +0.188 A 
ATOM      5  N2  UNL     1     151.437 154.708 155.127  0.00  0.00    -0.126 NA
ATOM      6  N3  UNL     1     151.807 155.064 153.846  0.00  0.00    -0.144 NA
ATOM      7  C5  UNL     1     152.147 156.335 153.768  0.00  0.00    +0.108 A 
ATOM      8  S1  UNL     1     152.016 157.183 155.257  0.00  0.00    -0.035 S 
ATOM      9  H6  UNL     1     150.908 154.648 157.543  0.00  0.00    +0.157 HD
ENDROOT
BRANCH   1  11
ATOM     10  C1  UNL     1     151.144 154.562 159.778  0.00  0.00    +0.013 C 
ATOM     11  C2  UNL     1     150.783 156.027 159.608  0.00  0.00    +0.093 C 
ENDBRANCH   1  11
BRANCH   7  12
ATOM     12  C6  UNL     1     152.600 157.023 152.520  0.00  0.00    +0.100 C 
BRANCH  12  13
ATOM     13  C7  UNL     1     153.269 156.086 151.539  0.00  0.00    -0.037 A 
ATOM     14  C8  UNL     1     152.578 155.610 150.421  0.00  0.00    +0.008 A 
ATOM     15  C9  UNL     1     153.203 154.753 149.512  0.00  0.00    +0.049 A 
ATOM     16  C10 UNL     1     154.532 154.361 149.703  0.00  0.00    +0.161 A 
ATOM     17  C12 UNL     1     155.243 154.842 150.821  0.00  0.00    +0.162 A 
ATOM     18  C14 UNL     1     154.606 155.697 151.729  0.00  0.00    +0.053 A 
BRANCH  16  19
ATOM     19  O2  UNL     1     155.223 153.524 148.863  0.00  0.00    -0.491 OA
ATOM     20  C11 UNL     1     154.986 153.646 147.469  0.00  0.00    +0.277 C 
ENDBRANCH  16  19
BRANCH  17  21
ATOM     21  O3  UNL     1     156.543 154.417 150.938  0.00  0.00    -0.491 OA
ATOM     22  C13 UNL     1     156.871 153.606 152.057  0.00  0.00    +0.277 C 
ENDBRANCH  17  21
ENDBRANCH  12  13
ENDBRANCH   7  12
TORSDOF 5
ENDMDL
MODEL 3
REMARK VINA RESULT:    -7.021      2.135      8.079
REMARK INTER + INTRA:          -9.360
REMARK INTER:                  -9.210
REMARK INTRA:                  -0.150
REMARK UNBOUND:                -0.287
REMARK  Name = /home/vital/Documents/PhD_2021/Malaria_codes/data/pdb_ligands_mmv/ligand_235.pdb
REMARK  8 active torsions:
REMARK  status: ('A' for Active; 'I' for Inactive)
REMARK    1  A    between atoms: C1_1  and  C2_2
REMARK    2  A    between atoms: C2_2  and  C3_3
REMARK    3  A    between atoms: C5_9  and  C6_10
REMARK    4  A    between atoms: C6_10  and  C7_11
REMARK    5  A    between atoms: C10_14  and  O2_15
REMARK    6  A    between atoms: O2_15  and  C11_16
REMARK    7  A    between atoms: C12_17  and  O3_18
REMARK    8  A    between atoms: O3_18  and  C13_19
REMARK                            x       y       z     vdW  Elec       q    Type
REMARK                         _______ _______ _______ _____ _____    ______ ____
ROOT
ATOM      1  C3  UNL     1     151.447 157.006 156.777  0.00  0.00    +0.218 C 
ATOM      2  O1  UNL     1     152.031 158.015 156.401  0.00  0.00    -0.275 OA
ATOM      3  N1  UNL     1     151.151 155.891 156.022  0.00  0.00    -0.263 N 
ATOM      4  C4  UNL     1     151.462 155.682 154.702  0.00  0.00    +0.188 A 
ATOM      5  N2  UNL     1     151.111 154.582 154.072  0.00  0.00    -0.126 NA
ATOM      6  N3  UNL     1     151.528 154.578 152.756  0.00  0.00    -0.144 NA
ATOM      7  C5  UNL     1     152.190 155.675 152.448  0.00  0.00    +0.108 A 
ATOM      8  S1  UNL     1     152.326 156.793 153.746  0.00  0.00    -0.035 S 
ATOM      9  H6  UNL     1     150.646 155.122 156.441  0.00  0.00    +0.157 HD
ENDROOT
BRANCH   1  11
ATOM     10  C1  UNL     1     151.489 155.607 158.885  0.00  0.00    +0.013 C 
ATOM     11  C2  UNL     1     150.943 156.849 158.204  0.00  0.00    +0.093 C 
ENDBRANCH   1  11
BRANCH   7  12
ATOM     12  C6  UNL     1     152.777 155.970 151.105  0.00  0.00    +0.100 C 
BRANCH  12  13
ATOM     13  C7  UNL     1     154.047 155.196 150.832  0.00  0.00    -0.037 A 
ATOM     14  C8  UNL     1     155.089 155.182 151.765  0.00  0.00    +0.008 A 
ATOM     15  C9  UNL     1     156.257 154.457 151.513  0.00  0.00    +0.049 A 
ATOM     16  C10 UNL     1     156.400 153.730 150.327  0.00  0.00    +0.161 A 
ATOM     17  C12 UNL     1     155.353 153.728 149.383  0.00  0.00    +0.162 A 
ATOM     18  C14 UNL     1     154.188 154.461 149.642  0.00  0.00    +0.053 A 
BRANCH  16  19
ATOM     19  O2  UNL     1     157.510 152.992 149.998  0.00  0.00    -0.491 OA
ATOM     20  C11 UNL     1     157.441 151.585 150.169  0.00  0.00    +0.277 C 
ENDBRANCH  16  19
BRANCH  17  21
ATOM     21  O3  UNL     1     155.566 152.988 148.246  0.00  0.00    -0.491 OA
ATOM     22  C13 UNL     1     155.511 153.668 147.000  0.00  0.00    +0.277 C 
ENDBRANCH  17  21
ENDBRANCH  12  13
ENDBRANCH   7  12
TORSDOF 5
ENDMDL
MODEL 4
REMARK VINA RESULT:    -6.949      3.499      4.956
REMARK INTER + INTRA:          -9.267
REMARK INTER:                  -9.058
REMARK INTRA:                  -0.209
REMARK UNBOUND:                -0.287
REMARK  Name = /home/vital/Documents/PhD_2021/Malaria_codes/data/pdb_ligands_mmv/ligand_235.pdb
REMARK  8 active torsions:
REMARK  status: ('A' for Active; 'I' for Inactive)
REMARK    1  A    between atoms: C1_1  and  C2_2
REMARK    2  A    between atoms: C2_2  and  C3_3
REMARK    3  A    between atoms: C5_9  and  C6_10
REMARK    4  A    between atoms: C6_10  and  C7_11
REMARK    5  A    between atoms: C10_14  and  O2_15
REMARK    6  A    between atoms: O2_15  and  C11_16
REMARK    7  A    between atoms: C12_17  and  O3_18
REMARK    8  A    between atoms: O3_18  and  C13_19
REMARK                            x       y       z     vdW  Elec       q    Type
REMARK                         _______ _______ _______ _____ _____    ______ ____
ROOT
ATOM      1  C3  UNL     1     153.477 156.877 152.750  0.00  0.00    +0.218 C 
ATOM      2  O1  UNL     1     153.526 158.097 152.833  0.00  0.00    -0.275 OA
ATOM      3  N1  UNL     1     152.792 156.017 153.581  0.00  0.00    -0.263 N 
ATOM      4  C4  UNL     1     152.017 156.356 154.662  0.00  0.00    +0.188 A 
ATOM      5  N2  UNL     1     151.421 155.447 155.403  0.00  0.00    -0.126 NA
ATOM      6  N3  UNL     1     150.692 156.007 156.431  0.00  0.00    -0.144 NA
ATOM      7  C5  UNL     1     150.757 157.324 156.419  0.00  0.00    +0.108 A 
ATOM      8  S1  UNL     1     151.735 157.960 155.158  0.00  0.00    -0.035 S 
ATOM      9  H6  UNL     1     152.840 155.020 153.422  0.00  0.00    +0.157 HD
ENDROOT
BRANCH   1  11
ATOM     10  C1  UNL     1     153.269 155.342 150.749  0.00  0.00    +0.013 C 
ATOM     11  C2  UNL     1     154.210 156.112 151.657  0.00  0.00    +0.093 C 
ENDBRANCH   1  11
BRANCH   7  12
ATOM     12  C6  UNL     1     150.071 158.222 157.398  0.00  0.00    +0.100 C 
BRANCH  12  13
ATOM     13  C7  UNL     1     150.723 158.215 158.763  0.00  0.00    -0.037 A 
ATOM     14  C8  UNL     1     150.824 157.031 159.500  0.00  0.00    +0.008 A 
ATOM     15  C9  UNL     1     151.435 157.027 160.757  0.00  0.00    +0.049 A 
ATOM     16  C10 UNL     1     151.961 158.206 161.295  0.00  0.00    +0.161 A 
ATOM     17  C12 UNL     1     151.874 159.405 160.557  0.00  0.00    +0.162 A 
ATOM     18  C14 UNL     1     151.255 159.399 159.301  0.00  0.00    +0.053 A 
BRANCH  16  19
ATOM     19  O2  UNL     1     152.576 158.294 162.519  0.00  0.00    -0.491 OA
ATOM     20  C11 UNL     1     151.799 157.999 163.670  0.00  0.00    +0.277 C 
ENDBRANCH  16  19
BRANCH  17  21
ATOM     21  O3  UNL     1     152.416 160.518 161.149  0.00  0.00    -0.491 OA
ATOM     22  C13 UNL     1     151.525 161.425 161.784  0.00  0.00    +0.277 C 
ENDBRANCH  17  21
ENDBRANCH  12  13
ENDBRANCH   7  12
TORSDOF 5
ENDMDL
MODEL 5
REMARK VINA RESULT:    -6.833      5.393      9.104
REMARK INTER + INTRA:          -9.117
REMARK INTER:                  -8.988
REMARK INTRA:                  -0.129
REMARK UNBOUND:                -0.287
REMARK  Name = /home/vital/Documents/PhD_2021/Malaria_codes/data/pdb_ligands_mmv/ligand_235.pdb
REMARK  8 active torsions:
REMARK  status: ('A' for Active; 'I' for Inactive)
REMARK    1  A    between atoms: C1_1  and  C2_2
REMARK    2  A    between atoms: C2_2  and  C3_3
REMARK    3  A    between atoms: C5_9  and  C6_10
REMARK    4  A    between atoms: C6_10  and  C7_11
REMARK    5  A    between atoms: C10_14  and  O2_15
REMARK    6  A    between atoms: O2_15  and  C11_16
REMARK    7  A    between atoms: C12_17  and  O3_18
REMARK    8  A    between atoms: O3_18  and  C13_19
REMARK                            x       y       z     vdW  Elec       q    Type
REMARK                         _______ _______ _______ _____ _____    ______ ____
ROOT
ATOM      1  C3  UNL     1     150.545 156.011 162.865  0.00  0.00    +0.218 C 
ATOM      2  O1  UNL     1     149.688 155.508 162.150  0.00  0.00    -0.275 OA
ATOM      3  N1  UNL     1     151.423 157.018 162.522  0.00  0.00    -0.263 N 
ATOM      4  C4  UNL     1     151.504 157.666 161.316  0.00  0.00    +0.188 A 
ATOM      5  N2  UNL     1     152.399 158.603 161.089  0.00  0.00    -0.126 NA
ATOM      6  N3  UNL     1     152.300 159.124 159.815  0.00  0.00    -0.144 NA
ATOM      7  C5  UNL     1     151.322 158.564 159.131  0.00  0.00    +0.108 A 
ATOM      8  S1  UNL     1     150.474 157.347 159.998  0.00  0.00    -0.035 S 
ATOM      9  H6  UNL     1     152.103 157.341 163.196  0.00  0.00    +0.157 HD
ENDROOT
BRANCH   1  11
ATOM     10  C1  UNL     1     151.498 156.597 165.134  0.00  0.00    +0.013 C 
ATOM     11  C2  UNL     1     150.764 155.561 164.302  0.00  0.00    +0.093 C 
ENDBRANCH   1  11
BRANCH   7  12
ATOM     12  C6  UNL     1     150.955 158.913 157.724  0.00  0.00    +0.100 C 
BRANCH  12  13
ATOM     13  C7  UNL     1     151.164 157.768 156.758  0.00  0.00    -0.037 A 
ATOM     14  C8  UNL     1     150.290 156.677 156.743  0.00  0.00    +0.008 A 
ATOM     15  C9  UNL     1     150.481 155.626 155.842  0.00  0.00    +0.049 A 
ATOM     16  C10 UNL     1     151.547 155.652 154.937  0.00  0.00    +0.161 A 
ATOM     17  C12 UNL     1     152.431 156.751 154.935  0.00  0.00    +0.162 A 
ATOM     18  C14 UNL     1     152.233 157.797 155.845  0.00  0.00    +0.053 A 
BRANCH  16  19
ATOM     19  O2  UNL     1     151.810 154.665 154.020  0.00  0.00    -0.491 OA
ATOM     20  C11 UNL     1     151.056 154.664 152.818  0.00  0.00    +0.277 C 
ENDBRANCH  16  19
BRANCH  17  21
ATOM     21  O3  UNL     1     153.449 156.705 154.016  0.00  0.00    -0.491 OA
ATOM     22  C13 UNL     1     153.365 157.579 152.898  0.00  0.00    +0.277 C 
ENDBRANCH  17  21
ENDBRANCH  12  13
ENDBRANCH   7  12
TORSDOF 5
ENDMDL
MODEL 6
REMARK VINA RESULT:    -6.832      3.343      5.184
REMARK INTER + INTRA:          -9.116
REMARK INTER:                  -8.810
REMARK INTRA:                  -0.306
REMARK UNBOUND:                -0.287
REMARK  Name = /home/vital/Documents/PhD_2021/Malaria_codes/data/pdb_ligands_mmv/ligand_235.pdb
REMARK  8 active torsions:
REMARK  status: ('A' for Active; 'I' for Inactive)
REMARK    1  A    between atoms: C1_1  and  C2_2
REMARK    2  A    between atoms: C2_2  and  C3_3
REMARK    3  A    between atoms: C5_9  and  C6_10
REMARK    4  A    between atoms: C6_10  and  C7_11
REMARK    5  A    between atoms: C10_14  and  O2_15
REMARK    6  A    between atoms: O2_15  and  C11_16
REMARK    7  A    between atoms: C12_17  and  O3_18
REMARK    8  A    between atoms: O3_18  and  C13_19
REMARK                            x       y       z     vdW  Elec       q    Type
REMARK                         _______ _______ _______ _____ _____    ______ ____
ROOT
ATOM      1  C3  UNL     1     153.392 156.939 152.819  0.00  0.00    +0.218 C 
ATOM      2  O1  UNL     1     153.375 158.163 152.839  0.00  0.00    -0.275 OA
ATOM      3  N1  UNL     1     152.710 156.088 153.662  0.00  0.00    -0.263 N 
ATOM      4  C4  UNL     1     151.865 156.441 154.684  0.00  0.00    +0.188 A 
ATOM      5  N2  UNL     1     151.279 155.541 155.443  0.00  0.00    -0.126 NA
ATOM      6  N3  UNL     1     150.471 156.115 156.404  0.00  0.00    -0.144 NA
ATOM      7  C5  UNL     1     150.471 157.431 156.324  0.00  0.00    +0.108 A 
ATOM      8  S1  UNL     1     151.479 158.051 155.079  0.00  0.00    -0.035 S 
ATOM      9  H6  UNL     1     152.816 155.088 153.559  0.00  0.00    +0.157 HD
ENDROOT
BRANCH   1  11
ATOM     10  C1  UNL     1     153.361 155.479 150.753  0.00  0.00    +0.013 C 
ATOM     11  C2  UNL     1     154.217 156.158 151.806  0.00  0.00    +0.093 C 
ENDBRANCH   1  11
BRANCH   7  12
ATOM     12  C6  UNL     1     149.692 158.341 157.219  0.00  0.00    +0.100 C 
BRANCH  12  13
ATOM     13  C7  UNL     1     150.366 158.576 158.552  0.00  0.00    -0.037 A 
ATOM     14  C8  UNL     1     150.789 159.856 158.923  0.00  0.00    +0.008 A 
ATOM     15  C9  UNL     1     151.402 160.071 160.160  0.00  0.00    +0.049 A 
ATOM     16  C10 UNL     1     151.598 159.010 161.049  0.00  0.00    +0.161 A 
ATOM     17  C12 UNL     1     151.167 157.716 160.692  0.00  0.00    +0.162 A 
ATOM     18  C14 UNL     1     150.557 157.510 159.448  0.00  0.00    +0.053 A 
BRANCH  16  19
ATOM     19  O2  UNL     1     152.190 159.129 162.282  0.00  0.00    -0.491 OA
ATOM     20  C11 UNL     1     151.534 159.929 163.254  0.00  0.00    +0.277 C 
ENDBRANCH  16  19
BRANCH  17  21
ATOM     21  O3  UNL     1     151.390 156.728 161.619  0.00  0.00    -0.491 OA
ATOM     22  C13 UNL     1     151.577 155.405 161.137  0.00  0.00    +0.277 C 
ENDBRANCH  17  21
ENDBRANCH  12  13
ENDBRANCH   7  12
TORSDOF 5
ENDMDL
MODEL 7
REMARK VINA RESULT:    -6.608      4.068      5.915
REMARK INTER + INTRA:          -8.826
REMARK INTER:                  -8.403
REMARK INTRA:                  -0.423
REMARK UNBOUND:                -0.287
REMARK  Name = /home/vital/Documents/PhD_2021/Malaria_codes/data/pdb_ligands_mmv/ligand_235.pdb
REMARK  8 active torsions:
REMARK  status: ('A' for Active; 'I' for Inactive)
REMARK    1  A    between atoms: C1_1  and  C2_2
REMARK    2  A    between atoms: C2_2  and  C3_3
REMARK    3  A    between atoms: C5_9  and  C6_10
REMARK    4  A    between atoms: C6_10  and  C7_11
REMARK    5  A    between atoms: C10_14  and  O2_15
REMARK    6  A    between atoms: O2_15  and  C11_16
REMARK    7  A    between atoms: C12_17  and  O3_18
REMARK    8  A    between atoms: O3_18  and  C13_19
REMARK                            x       y       z     vdW  Elec       q    Type
REMARK                         _______ _______ _______ _____ _____    ______ ____
ROOT
ATOM      1  C3  UNL     1     152.405 155.807 154.003  0.00  0.00    +0.218 C 
ATOM      2  O1  UNL     1     151.541 155.025 154.377  0.00  0.00    -0.275 OA
ATOM      3  N1  UNL     1     152.625 157.084 154.473  0.00  0.00    -0.263 N 
ATOM      4  C4  UNL     1     151.927 157.732 155.461  0.00  0.00    +0.188 A 
ATOM      5  N2  UNL     1     152.210 158.966 155.818  0.00  0.00    -0.126 NA
ATOM      6  N3  UNL     1     151.389 159.418 156.831  0.00  0.00    -0.144 NA
ATOM      7  C5  UNL     1     150.522 158.499 157.207  0.00  0.00    +0.108 A 
ATOM      8  S1  UNL     1     150.643 157.028 156.329  0.00  0.00    -0.035 S 
ATOM      9  H6  UNL     1     153.363 157.646 154.072  0.00  0.00    +0.157 HD
ENDROOT
BRANCH   1  11
ATOM     10  C1  UNL     1     153.602 156.572 151.910  0.00  0.00    +0.013 C 
ATOM     11  C2  UNL     1     153.401 155.448 152.910  0.00  0.00    +0.093 C 
ENDBRANCH   1  11
BRANCH   7  12
ATOM     12  C6  UNL     1     149.502 158.679 158.285  0.00  0.00    +0.100 C 
BRANCH  12  13
ATOM     13  C7  UNL     1     150.080 158.540 159.675  0.00  0.00    -0.037 A 
ATOM     14  C8  UNL     1     150.897 157.453 160.004  0.00  0.00    +0.008 A 
ATOM     15  C9  UNL     1     151.437 157.334 161.287  0.00  0.00    +0.049 A 
ATOM     16  C10 UNL     1     151.174 158.302 162.261  0.00  0.00    +0.161 A 
ATOM     17  C12 UNL     1     150.360 159.407 161.940  0.00  0.00    +0.162 A 
ATOM     18  C14 UNL     1     149.819 159.515 160.653  0.00  0.00    +0.053 A 
BRANCH  16  19
ATOM     19  O2  UNL     1     151.661 158.263 163.544  0.00  0.00    -0.491 OA
ATOM     20  C11 UNL     1     151.240 157.195 164.378  0.00  0.00    +0.277 C 
ENDBRANCH  16  19
BRANCH  17  21
ATOM     21  O3  UNL     1     150.151 160.316 162.948  0.00  0.00    -0.491 OA
ATOM     22  C13 UNL     1     150.604 161.646 162.737  0.00  0.00    +0.277 C 
ENDBRANCH  17  21
ENDBRANCH  12  13
ENDBRANCH   7  12
TORSDOF 5
ENDMDL
MODEL 8
REMARK VINA RESULT:    -6.597      4.028      5.991
REMARK INTER + INTRA:          -8.813
REMARK INTER:                  -8.561
REMARK INTRA:                  -0.252
REMARK UNBOUND:                -0.287
REMARK  Name = /home/vital/Documents/PhD_2021/Malaria_codes/data/pdb_ligands_mmv/ligand_235.pdb
REMARK  8 active torsions:
REMARK  status: ('A' for Active; 'I' for Inactive)
REMARK    1  A    between atoms: C1_1  and  C2_2
REMARK    2  A    between atoms: C2_2  and  C3_3
REMARK    3  A    between atoms: C5_9  and  C6_10
REMARK    4  A    between atoms: C6_10  and  C7_11
REMARK    5  A    between atoms: C10_14  and  O2_15
REMARK    6  A    between atoms: O2_15  and  C11_16
REMARK    7  A    between atoms: C12_17  and  O3_18
REMARK    8  A    between atoms: O3_18  and  C13_19
REMARK                            x       y       z     vdW  Elec       q    Type
REMARK                         _______ _______ _______ _____ _____    ______ ____
ROOT
ATOM      1  C3  UNL     1     152.804 156.231 153.227  0.00  0.00    +0.218 C 
ATOM      2  O1  UNL     1     152.418 155.096 153.477  0.00  0.00    -0.275 OA
ATOM      3  N1  UNL     1     152.721 157.334 154.050  0.00  0.00    -0.263 N 
ATOM      4  C4  UNL     1     152.201 157.379 155.319  0.00  0.00    +0.188 A 
ATOM      5  N2  UNL     1     152.153 158.497 156.011  0.00  0.00    -0.126 NA
ATOM      6  N3  UNL     1     151.596 158.315 157.260  0.00  0.00    -0.144 NA
ATOM      7  C5  UNL     1     151.255 157.058 157.467  0.00  0.00    +0.108 A 
ATOM      8  S1  UNL     1     151.575 156.023 156.134  0.00  0.00    -0.035 S 
ATOM      9  H6  UNL     1     153.060 158.229 153.725  0.00  0.00    +0.157 HD
ENDROOT
BRANCH   1  11
ATOM     10  C1  UNL     1     153.040 155.661 150.773  0.00  0.00    +0.013 C 
ATOM     11  C2  UNL     1     153.458 156.588 151.900  0.00  0.00    +0.093 C 
ENDBRANCH   1  11
BRANCH   7  12
ATOM     12  C6  UNL     1     150.634 156.538 158.723  0.00  0.00    +0.100 C 
BRANCH  12  13
ATOM     13  C7  UNL     1     150.701 157.524 159.868  0.00  0.00    -0.037 A 
ATOM     14  C8  UNL     1     149.720 158.508 160.021  0.00  0.00    +0.008 A 
ATOM     15  C9  UNL     1     149.780 159.411 161.086  0.00  0.00    +0.049 A 
ATOM     16  C10 UNL     1     150.820 159.341 162.018  0.00  0.00    +0.161 A 
ATOM     17  C12 UNL     1     151.810 158.347 161.880  0.00  0.00    +0.162 A 
ATOM     18  C14 UNL     1     151.743 157.450 160.807  0.00  0.00    +0.053 A 
BRANCH  16  19
ATOM     19  O2  UNL     1     150.958 160.186 163.091  0.00  0.00    -0.491 OA
ATOM     20  C11 UNL     1     151.522 161.467 162.854  0.00  0.00    +0.277 C 
ENDBRANCH  16  19
BRANCH  17  21
ATOM     21  O3  UNL     1     152.795 158.340 162.837  0.00  0.00    -0.491 OA
ATOM     22  C13 UNL     1     152.853 157.223 163.713  0.00  0.00    +0.277 C 
ENDBRANCH  17  21
ENDBRANCH  12  13
ENDBRANCH   7  12
TORSDOF 5
ENDMDL
MODEL 9
REMARK VINA RESULT:    -6.399      6.478     10.306
REMARK INTER + INTRA:          -8.557
REMARK INTER:                  -8.212
REMARK INTRA:                  -0.344
REMARK UNBOUND:                -0.287
REMARK  Name = /home/vital/Documents/PhD_2021/Malaria_codes/data/pdb_ligands_mmv/ligand_235.pdb
REMARK  8 active torsions:
REMARK  status: ('A' for Active; 'I' for Inactive)
REMARK    1  A    between atoms: C1_1  and  C2_2
REMARK    2  A    between atoms: C2_2  and  C3_3
REMARK    3  A    between atoms: C5_9  and  C6_10
REMARK    4  A    between atoms: C6_10  and  C7_11
REMARK    5  A    between atoms: C10_14  and  O2_15
REMARK    6  A    between atoms: O2_15  and  C11_16
REMARK    7  A    between atoms: C12_17  and  O3_18
REMARK    8  A    between atoms: O3_18  and  C13_19
REMARK                            x       y       z     vdW  Elec       q    Type
REMARK                         _______ _______ _______ _____ _____    ______ ____
ROOT
ATOM      1  C3  UNL     1     148.553 152.310 164.731  0.00  0.00    +0.218 C 
ATOM      2  O1  UNL     1     149.650 152.472 165.249  0.00  0.00    -0.275 OA
ATOM      3  N1  UNL     1     148.111 152.849 163.542  0.00  0.00    -0.263 N 
ATOM      4  C4  UNL     1     148.816 153.667 162.695  0.00  0.00    +0.188 A 
ATOM      5  N2  UNL     1     148.286 154.145 161.590  0.00  0.00    -0.126 NA
ATOM      6  N3  UNL     1     149.169 154.939 160.887  0.00  0.00    -0.144 NA
ATOM      7  C5  UNL     1     150.340 155.021 161.488  0.00  0.00    +0.108 A 
ATOM      8  S1  UNL     1     150.427 154.146 162.964  0.00  0.00    -0.035 S 
ATOM      9  H6  UNL     1     147.172 152.656 163.222  0.00  0.00    +0.157 HD
ENDROOT
BRANCH   1  11
ATOM     10  C1  UNL     1     146.613 150.730 164.347  0.00  0.00    +0.013 C 
ATOM     11  C2  UNL     1     147.477 151.444 165.371  0.00  0.00    +0.093 C 
ENDBRANCH   1  11
BRANCH   7  12
ATOM     12  C6  UNL     1     151.509 155.800 160.977  0.00  0.00    +0.100 C 
BRANCH  12  13
ATOM     13  C7  UNL     1     151.316 156.294 159.561  0.00  0.00    -0.037 A 
ATOM     14  C8  UNL     1     151.570 155.456 158.471  0.00  0.00    +0.008 A 
ATOM     15  C9  UNL     1     151.381 155.915 157.164  0.00  0.00    +0.049 A 
ATOM     16  C10 UNL     1     150.930 157.217 156.927  0.00  0.00    +0.161 A 
ATOM     17  C12 UNL     1     150.661 158.068 158.017  0.00  0.00    +0.162 A 
ATOM     18  C14 UNL     1     150.858 157.601 159.323  0.00  0.00    +0.053 A 
BRANCH  16  19
ATOM     19  O2  UNL     1     150.718 157.749 155.679  0.00  0.00    -0.491 OA
ATOM     20  C11 UNL     1     151.827 157.821 154.796  0.00  0.00    +0.277 C 
ENDBRANCH  16  19
BRANCH  17  21
ATOM     21  O3  UNL     1     150.218 159.329 157.704  0.00  0.00    -0.491 OA
ATOM     22  C13 UNL     1     151.143 160.401 157.827  0.00  0.00    +0.277 C 
ENDBRANCH  17  21
ENDBRANCH  12  13
ENDBRANCH   7  12
TORSDOF 5
ENDMDL
