MODEL 1
REMARK VINA RESULT:    -4.646      0.000      0.000
REMARK INTER + INTRA:          -8.053
REMARK INTER:                  -6.547
REMARK INTRA:                  -1.506
REMARK UNBOUND:                -1.506
REMARK  Name = /home/vital/Documents/PhD_2021/Malaria_codes/data/pdb_ligands_mmv/ligand_100.pdb
REMARK  9 active torsions:
REMARK  status: ('A' for Active; 'I' for Inactive)
REMARK    1  A    between atoms: C1_1  and  C2_2
REMARK    2  A    between atoms: C2_2  and  N1_3
REMARK    3  A    between atoms: N1_3  and  C3_4
REMARK    4  A    between atoms: N1_3  and  C5_6
REMARK    5  A    between atoms: C3_4  and  C4_5
REMARK    6  A    between atoms: C5_6  and  C6_7
REMARK    7  A    between atoms: C6_7  and  C7_8
REMARK    8  A    between atoms: C7_8  and  N2_9
REMARK    9  A    between atoms: C9_12  and  C16_20
REMARK                            x       y       z     vdW  Elec       q    Type
REMARK                         _______ _______ _______ _____ _____    ______ ____
ROOT
ATOM      1  N2  UNL     1     150.708 156.556 159.727  0.00  0.00    -0.328 N 
ATOM      2  C8  UNL     1     151.167 157.400 158.689  0.00  0.00    +0.130 A 
ATOM      3  N3  UNL     1     151.394 156.871 157.476  0.00  0.00    -0.212 NA
ATOM      4  C9  UNL     1     151.838 157.690 156.510  0.00  0.00    +0.162 A 
ATOM      5  N4  UNL     1     152.075 159.002 156.673  0.00  0.00    -0.227 NA
ATOM      6  C10 UNL     1     151.827 159.529 157.873  0.00  0.00    +0.077 A 
ATOM      7  C11 UNL     1     152.046 160.888 158.062  0.00  0.00    +0.028 A 
ATOM      8  C12 UNL     1     151.798 161.515 159.287  0.00  0.00    +0.002 A 
ATOM      9  C13 UNL     1     151.314 160.773 160.355  0.00  0.00    +0.001 A 
ATOM     10  C14 UNL     1     151.089 159.408 160.190  0.00  0.00    +0.013 A 
ATOM     11  C15 UNL     1     151.352 158.770 158.950  0.00  0.00    +0.040 A 
ATOM     12  H17 UNL     1     151.335 156.665 160.521  0.00  0.00    +0.147 HD
ENDROOT
BRANCH   4  13
ATOM     13  C16 UNL     1     152.094 157.104 155.176  0.00  0.00    +0.019 A 
ATOM     14  C17 UNL     1     152.446 157.909 154.073  0.00  0.00    +0.013 A 
ATOM     15  C18 UNL     1     152.689 157.357 152.810  0.00  0.00    +0.021 A 
ATOM     16  C19 UNL     1     152.582 155.983 152.624  0.00  0.00    +0.041 A 
ATOM     17 CL1  UNL     1     152.880 155.301 151.073  0.00  0.00    -0.084 Cl
ATOM     18  C20 UNL     1     152.236 155.158 153.689  0.00  0.00    +0.021 A 
ATOM     19  C21 UNL     1     151.995 155.716 154.950  0.00  0.00    +0.013 A 
ENDBRANCH   4  13
BRANCH   1  20
ATOM     20  C7  UNL     1     150.545 155.152 159.355  0.00  0.00    +0.104 C 
BRANCH  20  21
ATOM     21  C6  UNL     1     150.358 154.295 160.611  0.00  0.00    +0.034 C 
BRANCH  21  22
ATOM     22  C5  UNL     1     151.434 154.591 161.669  0.00  0.00    +0.086 C 
BRANCH  22  23
ATOM     23  N1  UNL     1     151.324 155.857 162.408  0.00  0.00    -0.303 NA
BRANCH  23  25
ATOM     24  C1  UNL     1     150.531 154.498 164.334  0.00  0.00    +0.020 C 
ATOM     25  C2  UNL     1     150.493 155.842 163.612  0.00  0.00    +0.081 C 
ENDBRANCH  23  25
BRANCH  23  26
ATOM     26  C3  UNL     1     152.590 156.577 162.578  0.00  0.00    +0.081 C 
ATOM     27  C4  UNL     1     152.590 157.752 163.546  0.00  0.00    +0.020 C 
ENDBRANCH  23  26
ENDBRANCH  22  23
ENDBRANCH  21  22
ENDBRANCH  20  21
ENDBRANCH   1  20
TORSDOF 7
ENDMDL
MODEL 2
REMARK VINA RESULT:    -4.512      2.994      5.721
REMARK INTER + INTRA:          -7.863
REMARK INTER:                  -6.415
REMARK INTRA:                  -1.448
REMARK UNBOUND:                -1.506
REMARK  Name = /home/vital/Documents/PhD_2021/Malaria_codes/data/pdb_ligands_mmv/ligand_100.pdb
REMARK  9 active torsions:
REMARK  status: ('A' for Active; 'I' for Inactive)
REMARK    1  A    between atoms: C1_1  and  C2_2
REMARK    2  A    between atoms: C2_2  and  N1_3
REMARK    3  A    between atoms: N1_3  and  C3_4
REMARK    4  A    between atoms: N1_3  and  C5_6
REMARK    5  A    between atoms: C3_4  and  C4_5
REMARK    6  A    between atoms: C5_6  and  C6_7
REMARK    7  A    between atoms: C6_7  and  C7_8
REMARK    8  A    between atoms: C7_8  and  N2_9
REMARK    9  A    between atoms: C9_12  and  C16_20
REMARK                            x       y       z     vdW  Elec       q    Type
REMARK                         _______ _______ _______ _____ _____    ______ ____
ROOT
ATOM      1  N2  UNL     1     151.650 154.784 158.388  0.00  0.00    -0.328 N 
ATOM      2  C8  UNL     1     151.645 156.159 158.053  0.00  0.00    +0.130 A 
ATOM      3  N3  UNL     1     151.518 157.064 159.036  0.00  0.00    -0.212 NA
ATOM      4  C9  UNL     1     151.506 158.362 158.692  0.00  0.00    +0.162 A 
ATOM      5  N4  UNL     1     151.609 158.818 157.433  0.00  0.00    -0.227 NA
ATOM      6  C10 UNL     1     151.758 157.915 156.461  0.00  0.00    +0.077 A 
ATOM      7  C11 UNL     1     151.885 158.362 155.151  0.00  0.00    +0.028 A 
ATOM      8  C12 UNL     1     152.056 157.479 154.081  0.00  0.00    +0.002 A 
ATOM      9  C13 UNL     1     152.106 156.113 154.317  0.00  0.00    +0.001 A 
ATOM     10  C14 UNL     1     151.978 155.641 155.622  0.00  0.00    +0.013 A 
ATOM     11  C15 UNL     1     151.793 156.537 156.706  0.00  0.00    +0.040 A 
ATOM     12  H17 UNL     1     150.936 154.322 157.829  0.00  0.00    +0.147 HD
ENDROOT
BRANCH   4  13
ATOM     13  C16 UNL     1     151.360 159.358 159.776  0.00  0.00    +0.019 A 
ATOM     14  C17 UNL     1     152.281 160.416 159.933  0.00  0.00    +0.013 A 
ATOM     15  C18 UNL     1     152.145 161.360 160.957  0.00  0.00    +0.021 A 
ATOM     16  C19 UNL     1     151.082 161.264 161.849  0.00  0.00    +0.041 A 
ATOM     17 CL1  UNL     1     150.912 162.423 163.110  0.00  0.00    -0.084 Cl
ATOM     18  C20 UNL     1     150.156 160.234 161.726  0.00  0.00    +0.021 A 
ATOM     19  C21 UNL     1     150.297 159.293 160.699  0.00  0.00    +0.013 A 
ENDBRANCH   4  13
BRANCH   1  20
ATOM     20  C7  UNL     1     151.492 154.495 159.812  0.00  0.00    +0.104 C 
BRANCH  20  21
ATOM     21  C6  UNL     1     150.009 154.542 160.194  0.00  0.00    +0.034 C 
BRANCH  21  22
ATOM     22  C5  UNL     1     149.778 155.340 161.488  0.00  0.00    +0.086 C 
BRANCH  22  23
ATOM     23  N1  UNL     1     150.782 155.203 162.553  0.00  0.00    -0.303 NA
BRANCH  23  25
ATOM     24  C1  UNL     1     152.583 156.913 162.683  0.00  0.00    +0.020 C 
ATOM     25  C2  UNL     1     151.226 156.440 163.197  0.00  0.00    +0.081 C 
ENDBRANCH  23  25
BRANCH  23  26
ATOM     26  C3  UNL     1     150.526 154.110 163.496  0.00  0.00    +0.081 C 
ATOM     27  C4  UNL     1     149.083 153.903 163.936  0.00  0.00    +0.020 C 
ENDBRANCH  23  26
ENDBRANCH  22  23
ENDBRANCH  21  22
ENDBRANCH  20  21
ENDBRANCH   1  20
TORSDOF 7
ENDMDL
MODEL 3
REMARK VINA RESULT:    -4.451      3.114      5.749
REMARK INTER + INTRA:          -7.779
REMARK INTER:                  -6.214
REMARK INTRA:                  -1.565
REMARK UNBOUND:                -1.506
REMARK  Name = /home/vital/Documents/PhD_2021/Malaria_codes/data/pdb_ligands_mmv/ligand_100.pdb
REMARK  9 active torsions:
REMARK  status: ('A' for Active; 'I' for Inactive)
REMARK    1  A    between atoms: C1_1  and  C2_2
REMARK    2  A    between atoms: C2_2  and  N1_3
REMARK    3  A    between atoms: N1_3  and  C3_4
REMARK    4  A    between atoms: N1_3  and  C5_6
REMARK    5  A    between atoms: C3_4  and  C4_5
REMARK    6  A    between atoms: C5_6  and  C6_7
REMARK    7  A    between atoms: C6_7  and  C7_8
REMARK    8  A    between atoms: C7_8  and  N2_9
REMARK    9  A    between atoms: C9_12  and  C16_20
REMARK                            x       y       z     vdW  Elec       q    Type
REMARK                         _______ _______ _______ _____ _____    ______ ____
ROOT
ATOM      1  N2  UNL     1     150.300 154.950 159.013  0.00  0.00    -0.328 N 
ATOM      2  C8  UNL     1     150.830 156.217 158.675  0.00  0.00    +0.130 A 
ATOM      3  N3  UNL     1     150.817 157.192 159.598  0.00  0.00    -0.212 NA
ATOM      4  C9  UNL     1     151.317 158.389 159.250  0.00  0.00    +0.162 A 
ATOM      5  N4  UNL     1     151.826 158.679 158.042  0.00  0.00    -0.227 NA
ATOM      6  C10 UNL     1     151.858 157.701 157.135  0.00  0.00    +0.077 A 
ATOM      7  C11 UNL     1     152.398 157.971 155.883  0.00  0.00    +0.028 A 
ATOM      8  C12 UNL     1     152.478 156.996 154.884  0.00  0.00    +0.002 A 
ATOM      9  C13 UNL     1     152.012 155.713 155.136  0.00  0.00    +0.001 A 
ATOM     10  C14 UNL     1     151.464 155.420 156.384  0.00  0.00    +0.013 A 
ATOM     11  C15 UNL     1     151.373 156.413 157.392  0.00  0.00    +0.040 A 
ATOM     12  H17 UNL     1     149.605 154.703 158.313  0.00  0.00    +0.147 HD
ENDROOT
BRANCH   4  13
ATOM     13  C16 UNL     1     151.295 159.463 160.266  0.00  0.00    +0.019 A 
ATOM     14  C17 UNL     1     150.441 159.400 161.387  0.00  0.00    +0.013 A 
ATOM     15  C18 UNL     1     150.419 160.415 162.351  0.00  0.00    +0.021 A 
ATOM     16  C19 UNL     1     151.252 161.519 162.210  0.00  0.00    +0.041 A 
ATOM     17 CL1  UNL     1     151.228 162.769 163.392  0.00  0.00    -0.084 Cl
ATOM     18  C20 UNL     1     152.107 161.617 161.117  0.00  0.00    +0.021 A 
ATOM     19  C21 UNL     1     152.125 160.598 160.157  0.00  0.00    +0.013 A 
ENDBRANCH   4  13
BRANCH   1  20
ATOM     20  C7  UNL     1     149.762 154.847 160.368  0.00  0.00    +0.104 C 
BRANCH  20  21
ATOM     21  C6  UNL     1     150.858 154.384 161.333  0.00  0.00    +0.034 C 
BRANCH  21  22
ATOM     22  C5  UNL     1     150.598 154.870 162.768  0.00  0.00    +0.086 C 
BRANCH  22  23
ATOM     23  N1  UNL     1     151.151 156.178 163.148  0.00  0.00    -0.303 NA
BRANCH  23  25
ATOM     24  C1  UNL     1     150.387 155.464 165.404  0.00  0.00    +0.020 C 
ATOM     25  C2  UNL     1     151.020 156.562 164.554  0.00  0.00    +0.081 C 
ENDBRANCH  23  25
BRANCH  23  26
ATOM     26  C3  UNL     1     152.472 156.470 162.581  0.00  0.00    +0.081 C 
ATOM     27  C4  UNL     1     153.443 157.244 163.461  0.00  0.00    +0.020 C 
ENDBRANCH  23  26
ENDBRANCH  22  23
ENDBRANCH  21  22
ENDBRANCH  20  21
ENDBRANCH   1  20
TORSDOF 7
ENDMDL
MODEL 4
REMARK VINA RESULT:    -4.357      2.869      5.907
REMARK INTER + INTRA:          -7.646
REMARK INTER:                  -6.052
REMARK INTRA:                  -1.594
REMARK UNBOUND:                -1.506
REMARK  Name = /home/vital/Documents/PhD_2021/Malaria_codes/data/pdb_ligands_mmv/ligand_100.pdb
REMARK  9 active torsions:
REMARK  status: ('A' for Active; 'I' for Inactive)
REMARK    1  A    between atoms: C1_1  and  C2_2
REMARK    2  A    between atoms: C2_2  and  N1_3
REMARK    3  A    between atoms: N1_3  and  C3_4
REMARK    4  A    between atoms: N1_3  and  C5_6
REMARK    5  A    between atoms: C3_4  and  C4_5
REMARK    6  A    between atoms: C5_6  and  C6_7
REMARK    7  A    between atoms: C6_7  and  C7_8
REMARK    8  A    between atoms: C7_8  and  N2_9
REMARK    9  A    between atoms: C9_12  and  C16_20
REMARK                            x       y       z     vdW  Elec       q    Type
REMARK                         _______ _______ _______ _____ _____    ______ ____
ROOT
ATOM      1  N2  UNL     1     151.805 155.899 163.913  0.00  0.00    -0.328 N 
ATOM      2  C8  UNL     1     150.956 155.538 162.840  0.00  0.00    +0.130 A 
ATOM      3  N3  UNL     1     151.132 156.130 161.648  0.00  0.00    -0.212 NA
ATOM      4  C9  UNL     1     150.308 155.778 160.648  0.00  0.00    +0.162 A 
ATOM      5  N4  UNL     1     149.317 154.878 160.758  0.00  0.00    -0.227 NA
ATOM      6  C10 UNL     1     149.161 154.275 161.939  0.00  0.00    +0.077 A 
ATOM      7  C11 UNL     1     148.155 153.325 162.073  0.00  0.00    +0.028 A 
ATOM      8  C12 UNL     1     147.936 152.643 163.274  0.00  0.00    +0.002 A 
ATOM      9  C13 UNL     1     148.741 152.908 164.372  0.00  0.00    +0.001 A 
ATOM     10  C14 UNL     1     149.755 153.858 164.262  0.00  0.00    +0.013 A 
ATOM     11  C15 UNL     1     149.968 154.558 163.047  0.00  0.00    +0.040 A 
ATOM     12  H17 UNL     1     151.219 156.173 164.699  0.00  0.00    +0.147 HD
ENDROOT
BRANCH   4  13
ATOM     13  C16 UNL     1     150.499 156.436 159.337  0.00  0.00    +0.019 A 
ATOM     14  C17 UNL     1     150.772 155.689 158.172  0.00  0.00    +0.013 A 
ATOM     15  C18 UNL     1     150.953 156.308 156.929  0.00  0.00    +0.021 A 
ATOM     16  C19 UNL     1     150.866 157.692 156.828  0.00  0.00    +0.041 A 
ATOM     17 CL1  UNL     1     151.088 158.458 155.303  0.00  0.00    -0.084 Cl
ATOM     18  C20 UNL     1     150.599 158.461 157.956  0.00  0.00    +0.021 A 
ATOM     19  C21 UNL     1     150.418 157.836 159.196  0.00  0.00    +0.013 A 
ENDBRANCH   4  13
BRANCH   1  20
ATOM     20  C7  UNL     1     152.798 156.924 163.597  0.00  0.00    +0.104 C 
BRANCH  20  21
ATOM     21  C6  UNL     1     152.373 158.267 164.198  0.00  0.00    +0.034 C 
BRANCH  21  22
ATOM     22  C5  UNL     1     152.454 158.256 165.734  0.00  0.00    +0.086 C 
BRANCH  22  23
ATOM     23  N1  UNL     1     151.831 157.123 166.434  0.00  0.00    -0.303 NA
BRANCH  23  25
ATOM     24  C1  UNL     1     152.427 154.927 167.436  0.00  0.00    +0.020 C 
ATOM     25  C2  UNL     1     152.653 156.436 167.430  0.00  0.00    +0.081 C 
ENDBRANCH  23  25
BRANCH  23  26
ATOM     26  C3  UNL     1     150.453 157.361 166.874  0.00  0.00    +0.081 C 
ATOM     27  C4  UNL     1     150.187 158.649 167.641  0.00  0.00    +0.020 C 
ENDBRANCH  23  26
ENDBRANCH  22  23
ENDBRANCH  21  22
ENDBRANCH  20  21
ENDBRANCH   1  20
TORSDOF 7
ENDMDL
MODEL 5
REMARK VINA RESULT:    -4.272      3.345      6.043
REMARK INTER + INTRA:          -7.525
REMARK INTER:                  -6.752
REMARK INTRA:                  -0.773
REMARK UNBOUND:                -1.506
REMARK  Name = /home/vital/Documents/PhD_2021/Malaria_codes/data/pdb_ligands_mmv/ligand_100.pdb
REMARK  9 active torsions:
REMARK  status: ('A' for Active; 'I' for Inactive)
REMARK    1  A    between atoms: C1_1  and  C2_2
REMARK    2  A    between atoms: C2_2  and  N1_3
REMARK    3  A    between atoms: N1_3  and  C3_4
REMARK    4  A    between atoms: N1_3  and  C5_6
REMARK    5  A    between atoms: C3_4  and  C4_5
REMARK    6  A    between atoms: C5_6  and  C6_7
REMARK    7  A    between atoms: C6_7  and  C7_8
REMARK    8  A    between atoms: C7_8  and  N2_9
REMARK    9  A    between atoms: C9_12  and  C16_20
REMARK                            x       y       z     vdW  Elec       q    Type
REMARK                         _______ _______ _______ _____ _____    ______ ____
ROOT
ATOM      1  N2  UNL     1     151.456 154.795 158.984  0.00  0.00    -0.328 N 
ATOM      2  C8  UNL     1     151.500 156.151 158.582  0.00  0.00    +0.130 A 
ATOM      3  N3  UNL     1     151.447 157.107 159.522  0.00  0.00    -0.212 NA
ATOM      4  C9  UNL     1     151.481 158.386 159.115  0.00  0.00    +0.162 A 
ATOM      5  N4  UNL     1     151.559 158.775 157.832  0.00  0.00    -0.227 NA
ATOM      6  C10 UNL     1     151.634 157.821 156.902  0.00  0.00    +0.077 A 
ATOM      7  C11 UNL     1     151.736 158.199 155.568  0.00  0.00    +0.028 A 
ATOM      8  C12 UNL     1     151.830 157.259 154.538  0.00  0.00    +0.002 A 
ATOM      9  C13 UNL     1     151.828 155.904 154.840  0.00  0.00    +0.001 A 
ATOM     10  C14 UNL     1     151.725 155.502 156.170  0.00  0.00    +0.013 A 
ATOM     11  C15 UNL     1     151.617 156.456 157.214  0.00  0.00    +0.040 A 
ATOM     12  H17 UNL     1     150.704 154.339 158.472  0.00  0.00    +0.147 HD
ENDROOT
BRANCH   4  13
ATOM     13  C16 UNL     1     151.416 159.439 160.152  0.00  0.00    +0.019 A 
ATOM     14  C17 UNL     1     150.537 159.337 161.251  0.00  0.00    +0.013 A 
ATOM     15  C18 UNL     1     150.474 160.331 162.234  0.00  0.00    +0.021 A 
ATOM     16  C19 UNL     1     151.291 161.452 162.137  0.00  0.00    +0.041 A 
ATOM     17 CL1  UNL     1     151.217 162.676 163.344  0.00  0.00    -0.084 Cl
ATOM     18  C20 UNL     1     152.170 161.587 161.068  0.00  0.00    +0.021 A 
ATOM     19  C21 UNL     1     152.229 160.589 160.088  0.00  0.00    +0.013 A 
ENDBRANCH   4  13
BRANCH   1  20
ATOM     20  C7  UNL     1     151.335 154.582 160.425  0.00  0.00    +0.104 C 
BRANCH  20  21
ATOM     21  C6  UNL     1     149.864 154.381 160.803  0.00  0.00    +0.034 C 
BRANCH  21  22
ATOM     22  C5  UNL     1     149.641 154.516 162.318  0.00  0.00    +0.086 C 
BRANCH  22  23
ATOM     23  N1  UNL     1     148.326 154.121 162.844  0.00  0.00    -0.303 NA
BRANCH  23  25
ATOM     24  C1  UNL     1     147.088 151.971 162.677  0.00  0.00    +0.020 C 
ATOM     25  C2  UNL     1     147.506 153.265 161.986  0.00  0.00    +0.081 C 
ENDBRANCH  23  25
BRANCH  23  26
ATOM     26  C3  UNL     1     148.331 153.708 164.251  0.00  0.00    +0.081 C 
ATOM     27  C4  UNL     1     149.211 154.509 165.201  0.00  0.00    +0.020 C 
ENDBRANCH  23  26
ENDBRANCH  22  23
ENDBRANCH  21  22
ENDBRANCH  20  21
ENDBRANCH   1  20
TORSDOF 7
ENDMDL
MODEL 6
REMARK VINA RESULT:    -4.182      3.451      6.616
REMARK INTER + INTRA:          -7.399
REMARK INTER:                  -6.253
REMARK INTRA:                  -1.146
REMARK UNBOUND:                -1.506
REMARK  Name = /home/vital/Documents/PhD_2021/Malaria_codes/data/pdb_ligands_mmv/ligand_100.pdb
REMARK  9 active torsions:
REMARK  status: ('A' for Active; 'I' for Inactive)
REMARK    1  A    between atoms: C1_1  and  C2_2
REMARK    2  A    between atoms: C2_2  and  N1_3
REMARK    3  A    between atoms: N1_3  and  C3_4
REMARK    4  A    between atoms: N1_3  and  C5_6
REMARK    5  A    between atoms: C3_4  and  C4_5
REMARK    6  A    between atoms: C5_6  and  C6_7
REMARK    7  A    between atoms: C6_7  and  C7_8
REMARK    8  A    between atoms: C7_8  and  N2_9
REMARK    9  A    between atoms: C9_12  and  C16_20
REMARK                            x       y       z     vdW  Elec       q    Type
REMARK                         _______ _______ _______ _____ _____    ______ ____
ROOT
ATOM      1  N2  UNL     1     150.843 159.520 159.594  0.00  0.00    -0.328 N 
ATOM      2  C8  UNL     1     150.845 158.118 159.402  0.00  0.00    +0.130 A 
ATOM      3  N3  UNL     1     150.344 157.332 160.368  0.00  0.00    -0.212 NA
ATOM      4  C9  UNL     1     150.366 156.005 160.166  0.00  0.00    +0.162 A 
ATOM      5  N4  UNL     1     150.857 155.409 159.068  0.00  0.00    -0.227 NA
ATOM      6  C10 UNL     1     151.333 156.195 158.101  0.00  0.00    +0.077 A 
ATOM      7  C11 UNL     1     151.829 155.603 156.945  0.00  0.00    +0.028 A 
ATOM      8  C12 UNL     1     152.334 156.360 155.883  0.00  0.00    +0.002 A 
ATOM      9  C13 UNL     1     152.342 157.745 155.968  0.00  0.00    +0.001 A 
ATOM     10  C14 UNL     1     151.852 158.361 157.118  0.00  0.00    +0.013 A 
ATOM     11  C15 UNL     1     151.351 157.592 158.200  0.00  0.00    +0.040 A 
ATOM     12  H17 UNL     1     151.793 159.858 159.452  0.00  0.00    +0.147 HD
ENDROOT
BRANCH   4  13
ATOM     13  C16 UNL     1     149.819 155.139 161.235  0.00  0.00    +0.019 A 
ATOM     14  C17 UNL     1     150.370 155.136 162.533  0.00  0.00    +0.013 A 
ATOM     15  C18 UNL     1     149.855 154.319 163.546  0.00  0.00    +0.021 A 
ATOM     16  C19 UNL     1     148.776 153.484 163.279  0.00  0.00    +0.041 A 
ATOM     17 CL1  UNL     1     148.140 152.477 164.521  0.00  0.00    -0.084 Cl
ATOM     18  C20 UNL     1     148.208 153.459 162.009  0.00  0.00    +0.021 A 
ATOM     19  C21 UNL     1     148.727 154.279 161.000  0.00  0.00    +0.013 A 
ENDBRANCH   4  13
BRANCH   1  20
ATOM     20  C7  UNL     1     150.295 159.967 160.873  0.00  0.00    +0.104 C 
BRANCH  20  21
ATOM     21  C6  UNL     1     151.346 160.780 161.637  0.00  0.00    +0.034 C 
BRANCH  21  22
ATOM     22  C5  UNL     1     151.337 160.454 163.140  0.00  0.00    +0.086 C 
BRANCH  22  23
ATOM     23  N1  UNL     1     152.484 159.706 163.675  0.00  0.00    -0.303 NA
BRANCH  23  25
ATOM     24  C1  UNL     1     152.500 161.532 165.362  0.00  0.00    +0.020 C 
ATOM     25  C2  UNL     1     153.242 160.348 164.749  0.00  0.00    +0.081 C 
ENDBRANCH  23  25
BRANCH  23  26
ATOM     26  C3  UNL     1     152.228 158.281 163.907  0.00  0.00    +0.081 C 
ATOM     27  C4  UNL     1     153.393 157.326 163.680  0.00  0.00    +0.020 C 
ENDBRANCH  23  26
ENDBRANCH  22  23
ENDBRANCH  21  22
ENDBRANCH  20  21
ENDBRANCH   1  20
TORSDOF 7
ENDMDL
MODEL 7
REMARK VINA RESULT:    -4.168      2.878      4.678
REMARK INTER + INTRA:          -7.379
REMARK INTER:                  -5.838
REMARK INTRA:                  -1.542
REMARK UNBOUND:                -1.506
REMARK  Name = /home/vital/Documents/PhD_2021/Malaria_codes/data/pdb_ligands_mmv/ligand_100.pdb
REMARK  9 active torsions:
REMARK  status: ('A' for Active; 'I' for Inactive)
REMARK    1  A    between atoms: C1_1  and  C2_2
REMARK    2  A    between atoms: C2_2  and  N1_3
REMARK    3  A    between atoms: N1_3  and  C3_4
REMARK    4  A    between atoms: N1_3  and  C5_6
REMARK    5  A    between atoms: C3_4  and  C4_5
REMARK    6  A    between atoms: C5_6  and  C6_7
REMARK    7  A    between atoms: C6_7  and  C7_8
REMARK    8  A    between atoms: C7_8  and  N2_9
REMARK    9  A    between atoms: C9_12  and  C16_20
REMARK                            x       y       z     vdW  Elec       q    Type
REMARK                         _______ _______ _______ _____ _____    ______ ____
ROOT
ATOM      1  N2  UNL     1     151.367 157.351 164.203  0.00  0.00    -0.328 N 
ATOM      2  C8  UNL     1     151.256 158.136 163.030  0.00  0.00    +0.130 A 
ATOM      3  N3  UNL     1     151.080 157.517 161.852  0.00  0.00    -0.212 NA
ATOM      4  C9  UNL     1     150.986 158.282 160.753  0.00  0.00    +0.162 A 
ATOM      5  N4  UNL     1     151.061 159.623 160.749  0.00  0.00    -0.227 NA
ATOM      6  C10 UNL     1     151.213 160.235 161.926  0.00  0.00    +0.077 A 
ATOM      7  C11 UNL     1     151.274 161.624 161.951  0.00  0.00    +0.028 A 
ATOM      8  C12 UNL     1     151.420 162.337 163.144  0.00  0.00    +0.002 A 
ATOM      9  C13 UNL     1     151.505 161.653 164.349  0.00  0.00    +0.001 A 
ATOM     10  C14 UNL     1     151.449 160.261 164.348  0.00  0.00    +0.013 A 
ATOM     11  C15 UNL     1     151.312 159.537 163.135  0.00  0.00    +0.040 A 
ATOM     12  H17 UNL     1     152.226 157.618 164.679  0.00  0.00    +0.147 HD
ENDROOT
BRANCH   4  13
ATOM     13  C16 UNL     1     150.798 157.599 159.454  0.00  0.00    +0.019 A 
ATOM     14  C17 UNL     1     151.073 156.224 159.300  0.00  0.00    +0.013 A 
ATOM     15  C18 UNL     1     150.896 155.574 158.073  0.00  0.00    +0.021 A 
ATOM     16  C19 UNL     1     150.441 156.290 156.971  0.00  0.00    +0.041 A 
ATOM     17 CL1  UNL     1     150.222 155.495 155.461  0.00  0.00    -0.084 Cl
ATOM     18  C20 UNL     1     150.161 157.648 157.086  0.00  0.00    +0.021 A 
ATOM     19  C21 UNL     1     150.339 158.292 158.316  0.00  0.00    +0.013 A 
ENDBRANCH   4  13
BRANCH   1  20
ATOM     20  C7  UNL     1     151.295 155.907 163.989  0.00  0.00    +0.104 C 
BRANCH  20  21
ATOM     21  C6  UNL     1     150.314 155.279 164.983  0.00  0.00    +0.034 C 
BRANCH  21  22
ATOM     22  C5  UNL     1     150.306 156.026 166.327  0.00  0.00    +0.086 C 
BRANCH  22  23
ATOM     23  N1  UNL     1     151.608 156.325 166.940  0.00  0.00    -0.303 NA
BRANCH  23  25
ATOM     24  C1  UNL     1     150.440 158.415 167.610  0.00  0.00    +0.020 C 
ATOM     25  C2  UNL     1     151.756 157.644 167.557  0.00  0.00    +0.081 C 
ENDBRANCH  23  25
BRANCH  23  26
ATOM     26  C3  UNL     1     152.167 155.235 167.746  0.00  0.00    +0.081 C 
ATOM     27  C4  UNL     1     153.682 155.193 167.892  0.00  0.00    +0.020 C 
ENDBRANCH  23  26
ENDBRANCH  22  23
ENDBRANCH  21  22
ENDBRANCH  20  21
ENDBRANCH   1  20
TORSDOF 7
ENDMDL
MODEL 8
REMARK VINA RESULT:    -3.875      3.789      7.384
REMARK INTER + INTRA:          -6.967
REMARK INTER:                  -5.250
REMARK INTRA:                  -1.717
REMARK UNBOUND:                -1.506
REMARK  Name = /home/vital/Documents/PhD_2021/Malaria_codes/data/pdb_ligands_mmv/ligand_100.pdb
REMARK  9 active torsions:
REMARK  status: ('A' for Active; 'I' for Inactive)
REMARK    1  A    between atoms: C1_1  and  C2_2
REMARK    2  A    between atoms: C2_2  and  N1_3
REMARK    3  A    between atoms: N1_3  and  C3_4
REMARK    4  A    between atoms: N1_3  and  C5_6
REMARK    5  A    between atoms: C3_4  and  C4_5
REMARK    6  A    between atoms: C5_6  and  C6_7
REMARK    7  A    between atoms: C6_7  and  C7_8
REMARK    8  A    between atoms: C7_8  and  N2_9
REMARK    9  A    between atoms: C9_12  and  C16_20
REMARK                            x       y       z     vdW  Elec       q    Type
REMARK                         _______ _______ _______ _____ _____    ______ ____
ROOT
ATOM      1  N2  UNL     1     152.107 158.196 165.525  0.00  0.00    -0.328 N 
ATOM      2  C8  UNL     1     151.490 157.150 164.798  0.00  0.00    +0.130 A 
ATOM      3  N3  UNL     1     151.421 157.246 163.460  0.00  0.00    -0.212 NA
ATOM      4  C9  UNL     1     150.823 156.246 162.793  0.00  0.00    +0.162 A 
ATOM      5  N4  UNL     1     150.286 155.159 163.370  0.00  0.00    -0.227 NA
ATOM      6  C10 UNL     1     150.376 155.058 164.697  0.00  0.00    +0.077 A 
ATOM      7  C11 UNL     1     149.845 153.933 165.317  0.00  0.00    +0.028 A 
ATOM      8  C12 UNL     1     149.911 153.749 166.701  0.00  0.00    +0.002 A 
ATOM      9  C13 UNL     1     150.527 154.707 167.494  0.00  0.00    +0.001 A 
ATOM     10  C14 UNL     1     151.065 155.844 166.895  0.00  0.00    +0.013 A 
ATOM     11  C15 UNL     1     150.987 156.035 165.492  0.00  0.00    +0.040 A 
ATOM     12  H17 UNL     1     151.452 158.511 166.238  0.00  0.00    +0.147 HD
ENDROOT
BRANCH   4  13
ATOM     13  C16 UNL     1     150.743 156.355 161.320  0.00  0.00    +0.019 A 
ATOM     14  C17 UNL     1     150.606 157.606 160.681  0.00  0.00    +0.013 A 
ATOM     15  C18 UNL     1     150.530 157.713 159.287  0.00  0.00    +0.021 A 
ATOM     16  C19 UNL     1     150.587 156.567 158.502  0.00  0.00    +0.041 A 
ATOM     17 CL1  UNL     1     150.494 156.694 156.789  0.00  0.00    -0.084 Cl
ATOM     18  C20 UNL     1     150.721 155.316 159.097  0.00  0.00    +0.021 A 
ATOM     19  C21 UNL     1     150.797 155.216 160.491  0.00  0.00    +0.013 A 
ENDBRANCH   4  13
BRANCH   1  20
ATOM     20  C7  UNL     1     152.598 159.307 164.713  0.00  0.00    +0.104 C 
BRANCH  20  21
ATOM     21  C6  UNL     1     153.098 160.436 165.619  0.00  0.00    +0.034 C 
BRANCH  21  22
ATOM     22  C5  UNL     1     152.114 160.727 166.764  0.00  0.00    +0.086 C 
BRANCH  22  23
ATOM     23  N1  UNL     1     152.037 159.743 167.854  0.00  0.00    -0.303 NA
BRANCH  23  25
ATOM     24  C1  UNL     1     153.396 160.700 169.703  0.00  0.00    +0.020 C 
ATOM     25  C2  UNL     1     153.236 159.582 168.678  0.00  0.00    +0.081 C 
ENDBRANCH  23  25
BRANCH  23  26
ATOM     26  C3  UNL     1     150.794 159.788 168.629  0.00  0.00    +0.081 C 
ATOM     27  C4  UNL     1     149.531 159.294 167.935  0.00  0.00    +0.020 C 
ENDBRANCH  23  26
ENDBRANCH  22  23
ENDBRANCH  21  22
ENDBRANCH  20  21
ENDBRANCH   1  20
TORSDOF 7
ENDMDL
MODEL 9
REMARK VINA RESULT:    -3.795      4.367      7.160
REMARK INTER + INTRA:          -6.854
REMARK INTER:                  -5.512
REMARK INTRA:                  -1.341
REMARK UNBOUND:                -1.506
REMARK  Name = /home/vital/Documents/PhD_2021/Malaria_codes/data/pdb_ligands_mmv/ligand_100.pdb
REMARK  9 active torsions:
REMARK  status: ('A' for Active; 'I' for Inactive)
REMARK    1  A    between atoms: C1_1  and  C2_2
REMARK    2  A    between atoms: C2_2  and  N1_3
REMARK    3  A    between atoms: N1_3  and  C3_4
REMARK    4  A    between atoms: N1_3  and  C5_6
REMARK    5  A    between atoms: C3_4  and  C4_5
REMARK    6  A    between atoms: C5_6  and  C6_7
REMARK    7  A    between atoms: C6_7  and  C7_8
REMARK    8  A    between atoms: C7_8  and  N2_9
REMARK    9  A    between atoms: C9_12  and  C16_20
REMARK                            x       y       z     vdW  Elec       q    Type
REMARK                         _______ _______ _______ _____ _____    ______ ____
ROOT
ATOM      1  N2  UNL     1     151.433 155.827 161.403  0.00  0.00    -0.328 N 
ATOM      2  C8  UNL     1     151.168 157.181 161.086  0.00  0.00    +0.130 A 
ATOM      3  N3  UNL     1     151.293 158.108 162.049  0.00  0.00    -0.212 NA
ATOM      4  C9  UNL     1     151.027 159.384 161.725  0.00  0.00    +0.162 A 
ATOM      5  N4  UNL     1     150.640 159.796 160.507  0.00  0.00    -0.227 NA
ATOM      6  C10 UNL     1     150.539 158.874 159.548  0.00  0.00    +0.077 A 
ATOM      7  C11 UNL     1     150.158 159.279 158.274  0.00  0.00    +0.028 A 
ATOM      8  C12 UNL     1     150.041 158.375 157.214  0.00  0.00    +0.002 A 
ATOM      9  C13 UNL     1     150.313 157.030 157.423  0.00  0.00    +0.001 A 
ATOM     10  C14 UNL     1     150.694 156.601 158.693  0.00  0.00    +0.013 A 
ATOM     11  C15 UNL     1     150.801 157.517 159.771  0.00  0.00    +0.040 A 
ATOM     12  H17 UNL     1     150.623 155.276 161.129  0.00  0.00    +0.147 HD
ENDROOT
BRANCH   4  13
ATOM     13  C16 UNL     1     151.160 160.404 162.789  0.00  0.00    +0.019 A 
ATOM     14  C17 UNL     1     150.238 161.465 162.911  0.00  0.00    +0.013 A 
ATOM     15  C18 UNL     1     150.361 162.431 163.916  0.00  0.00    +0.021 A 
ATOM     16  C19 UNL     1     151.413 162.355 164.822  0.00  0.00    +0.041 A 
ATOM     17 CL1  UNL     1     151.567 163.541 166.059  0.00  0.00    -0.084 Cl
ATOM     18  C20 UNL     1     152.342 161.324 164.732  0.00  0.00    +0.021 A 
ATOM     19  C21 UNL     1     152.213 160.360 163.725  0.00  0.00    +0.013 A 
ENDBRANCH   4  13
BRANCH   1  20
ATOM     20  C7  UNL     1     151.807 155.582 162.795  0.00  0.00    +0.104 C 
BRANCH  20  21
ATOM     21  C6  UNL     1     150.586 155.113 163.591  0.00  0.00    +0.034 C 
BRANCH  21  22
ATOM     22  C5  UNL     1     150.424 155.898 164.903  0.00  0.00    +0.086 C 
BRANCH  22  23
ATOM     23  N1  UNL     1     151.608 156.022 165.766  0.00  0.00    -0.303 NA
BRANCH  23  25
ATOM     24  C1  UNL     1     150.819 158.190 166.693  0.00  0.00    +0.020 C 
ATOM     25  C2  UNL     1     151.995 157.377 166.158  0.00  0.00    +0.081 C 
ENDBRANCH  23  25
BRANCH  23  26
ATOM     26  C3  UNL     1     151.664 155.054 166.866  0.00  0.00    +0.081 C 
ATOM     27  C4  UNL     1     152.951 155.008 167.678  0.00  0.00    +0.020 C 
ENDBRANCH  23  26
ENDBRANCH  22  23
ENDBRANCH  21  22
ENDBRANCH  20  21
ENDBRANCH   1  20
TORSDOF 7
ENDMDL
