MODEL 1
REMARK VINA RESULT:    -7.119      0.000      0.000
REMARK INTER + INTRA:          -9.772
REMARK INTER:                  -9.200
REMARK INTRA:                  -0.572
REMARK UNBOUND:                -0.572
REMARK  Name = /home/vital/Documents/PhD_2021/Malaria_codes/data/pdb_ligands_mmv/ligand_139.pdb
REMARK  6 active torsions:
REMARK  status: ('A' for Active; 'I' for Inactive)
REMARK    1  A    between atoms: C1_1  and  C2_2
REMARK    2  A    between atoms: C3_4  and  C4_5
REMARK    3  A    between atoms: C4_5  and  N1_6
REMARK    4  A    between atoms: C7_9  and  C10_12
REMARK    5  A    between atoms: N2_14  and  C11_15
REMARK    6  A    between atoms: C14_18  and  C17_21
REMARK                            x       y       z     vdW  Elec       q    Type
REMARK                         _______ _______ _______ _____ _____    ______ ____
ROOT
ATOM      1  C10 UNL     1     151.911 158.680 156.286  0.00  0.00    +0.220 C 
ATOM      2  O2  UNL     1     152.964 158.399 156.848  0.00  0.00    -0.275 OA
ATOM      3  N2  UNL     1     151.548 158.270 155.009  0.00  0.00    -0.285 N 
ATOM      4  H15 UNL     1     150.702 158.672 154.629  0.00  0.00    +0.155 HD
ENDROOT
BRANCH   1   8
ATOM      5  N1  UNL     1     151.540 158.983 159.552  0.00  0.00    -0.295 NA
ATOM      6  C5  UNL     1     150.465 158.167 158.995  0.00  0.00    +0.085 C 
ATOM      7  C6  UNL     1     149.831 158.787 157.741  0.00  0.00    +0.028 C 
ATOM      8  C7  UNL     1     150.848 159.593 156.923  0.00  0.00    +0.078 C 
ATOM      9  C8  UNL     1     151.463 160.702 157.799  0.00  0.00    +0.028 C 
ATOM     10  C9  UNL     1     151.383 160.409 159.304  0.00  0.00    +0.085 C 
BRANCH   5  11
ATOM     11  C4  UNL     1     151.887 158.651 160.939  0.00  0.00    +0.158 C 
BRANCH  11  15
ATOM     12  C1  UNL     1     152.649 161.454 164.807  0.00  0.00    +0.086 C 
ATOM     13  C2  UNL     1     151.804 160.918 163.724  0.00  0.00    +0.102 A 
ATOM     14  O1  UNL     1     152.397 160.020 162.890  0.00  0.00    -0.464 OA
ATOM     15  C3  UNL     1     151.464 159.652 161.963  0.00  0.00    +0.119 A 
ATOM     16  C25 UNL     1     150.274 160.305 162.214  0.00  0.00    +0.046 A 
ATOM     17  C26 UNL     1     150.496 161.126 163.345  0.00  0.00    +0.044 A 
ENDBRANCH  11  15
ENDBRANCH   5  11
ENDBRANCH   1   8
BRANCH   3  18
ATOM     18  C11 UNL     1     152.253 157.402 154.150  0.00  0.00    +0.033 A 
ATOM     19  C12 UNL     1     152.260 156.013 154.271  0.00  0.00    +0.024 A 
ATOM     20  C13 UNL     1     152.986 155.223 153.371  0.00  0.00    +0.012 A 
ATOM     21  C14 UNL     1     153.713 155.803 152.326  0.00  0.00    -0.002 A 
ATOM     22  C15 UNL     1     153.705 157.198 152.205  0.00  0.00    +0.012 A 
ATOM     23  C16 UNL     1     152.981 157.987 153.107  0.00  0.00    +0.024 A 
BRANCH  21  24
ATOM     24  C17 UNL     1     154.467 154.966 151.394  0.00  0.00    +0.047 A 
ATOM     25  C18 UNL     1     154.247 154.685 150.056  0.00  0.00    +0.036 A 
ATOM     26  C19 UNL     1     155.280 153.821 149.598  0.00  0.00    +0.000 A 
ATOM     27  C20 UNL     1     155.572 153.211 148.364  0.00  0.00    +0.010 A 
ATOM     28  C21 UNL     1     156.706 152.398 148.253  0.00  0.00    +0.001 A 
ATOM     29  C22 UNL     1     157.542 152.192 149.350  0.00  0.00    +0.002 A 
ATOM     30  C23 UNL     1     157.271 152.789 150.585  0.00  0.00    +0.026 A 
ATOM     31  C24 UNL     1     156.131 153.596 150.676  0.00  0.00    +0.047 A 
ATOM     32  N3  UNL     1     155.623 154.302 151.742  0.00  0.00    -0.354 N 
ATOM     33  H25 UNL     1     156.055 154.343 152.653  0.00  0.00    +0.166 HD
ENDBRANCH  21  24
ENDBRANCH   3  18
TORSDOF 5
ENDMDL
MODEL 2
REMARK VINA RESULT:    -6.741      3.943      7.613
REMARK INTER + INTRA:          -9.283
REMARK INTER:                  -8.057
REMARK INTRA:                  -1.225
REMARK UNBOUND:                -0.572
REMARK  Name = /home/vital/Documents/PhD_2021/Malaria_codes/data/pdb_ligands_mmv/ligand_139.pdb
REMARK  6 active torsions:
REMARK  status: ('A' for Active; 'I' for Inactive)
REMARK    1  A    between atoms: C1_1  and  C2_2
REMARK    2  A    between atoms: C3_4  and  C4_5
REMARK    3  A    between atoms: C4_5  and  N1_6
REMARK    4  A    between atoms: C7_9  and  C10_12
REMARK    5  A    between atoms: N2_14  and  C11_15
REMARK    6  A    between atoms: C14_18  and  C17_21
REMARK                            x       y       z     vdW  Elec       q    Type
REMARK                         _______ _______ _______ _____ _____    ______ ____
ROOT
ATOM      1  C10 UNL     1     151.362 162.042 163.396  0.00  0.00    +0.220 C 
ATOM      2  O2  UNL     1     152.357 161.383 163.673  0.00  0.00    -0.275 OA
ATOM      3  N2  UNL     1     150.657 161.969 162.200  0.00  0.00    -0.285 N 
ATOM      4  H15 UNL     1     149.926 162.654 162.064  0.00  0.00    +0.155 HD
ENDROOT
BRANCH   1   8
ATOM      5  N1  UNL     1     150.358 161.342 166.461  0.00  0.00    -0.295 NA
ATOM      6  C5  UNL     1     149.207 161.535 165.584  0.00  0.00    +0.085 C 
ATOM      7  C6  UNL     1     149.323 162.793 164.712  0.00  0.00    +0.028 C 
ATOM      8  C7  UNL     1     150.779 163.105 164.345  0.00  0.00    +0.078 C 
ATOM      9  C8  UNL     1     151.616 163.280 165.627  0.00  0.00    +0.028 C 
ATOM     10  C9  UNL     1     151.010 162.583 166.854  0.00  0.00    +0.085 C 
BRANCH   5  11
ATOM     11  C4  UNL     1     150.116 160.415 167.573  0.00  0.00    +0.158 C 
BRANCH  11  15
ATOM     12  C1  UNL     1     150.613 155.695 166.632  0.00  0.00    +0.086 C 
ATOM     13  C2  UNL     1     151.118 156.997 167.108  0.00  0.00    +0.102 A 
ATOM     14  O1  UNL     1     150.241 158.037 167.053  0.00  0.00    -0.464 OA
ATOM     15  C3  UNL     1     150.893 159.140 167.526  0.00  0.00    +0.119 A 
ATOM     16  C25 UNL     1     152.178 158.800 167.895  0.00  0.00    +0.046 A 
ATOM     17  C26 UNL     1     152.325 157.420 167.620  0.00  0.00    +0.044 A 
ENDBRANCH  11  15
ENDBRANCH   5  11
ENDBRANCH   1   8
BRANCH   3  18
ATOM     18  C11 UNL     1     150.880 161.089 161.121  0.00  0.00    +0.033 A 
ATOM     19  C12 UNL     1     151.968 161.170 160.254  0.00  0.00    +0.024 A 
ATOM     20  C13 UNL     1     152.115 160.251 159.207  0.00  0.00    +0.012 A 
ATOM     21  C14 UNL     1     151.183 159.227 159.011  0.00  0.00    -0.002 A 
ATOM     22  C15 UNL     1     150.091 159.145 159.884  0.00  0.00    +0.012 A 
ATOM     23  C16 UNL     1     149.944 160.067 160.928  0.00  0.00    +0.024 A 
BRANCH  21  24
ATOM     24  C17 UNL     1     151.349 158.274 157.914  0.00  0.00    +0.047 A 
ATOM     25  C18 UNL     1     150.612 157.151 157.577  0.00  0.00    +0.036 A 
ATOM     26  C19 UNL     1     151.179 156.570 156.409  0.00  0.00    +0.000 A 
ATOM     27  C20 UNL     1     150.871 155.440 155.628  0.00  0.00    +0.010 A 
ATOM     28  C21 UNL     1     151.657 155.149 154.507  0.00  0.00    +0.001 A 
ATOM     29  C22 UNL     1     152.732 155.965 154.161  0.00  0.00    +0.002 A 
ATOM     30  C23 UNL     1     153.056 157.092 154.924  0.00  0.00    +0.026 A 
ATOM     31  C24 UNL     1     152.260 157.365 156.042  0.00  0.00    +0.047 A 
ATOM     32  N3  UNL     1     152.337 158.388 156.960  0.00  0.00    -0.354 N 
ATOM     33  H25 UNL     1     153.015 159.133 156.923  0.00  0.00    +0.166 HD
ENDBRANCH  21  24
ENDBRANCH   3  18
TORSDOF 5
ENDMDL
MODEL 3
REMARK VINA RESULT:    -6.454      1.486      2.229
REMARK INTER + INTRA:          -8.912
REMARK INTER:                  -7.925
REMARK INTRA:                  -0.987
REMARK UNBOUND:                -0.572
REMARK  Name = /home/vital/Documents/PhD_2021/Malaria_codes/data/pdb_ligands_mmv/ligand_139.pdb
REMARK  6 active torsions:
REMARK  status: ('A' for Active; 'I' for Inactive)
REMARK    1  A    between atoms: C1_1  and  C2_2
REMARK    2  A    between atoms: C3_4  and  C4_5
REMARK    3  A    between atoms: C4_5  and  N1_6
REMARK    4  A    between atoms: C7_9  and  C10_12
REMARK    5  A    between atoms: N2_14  and  C11_15
REMARK    6  A    between atoms: C14_18  and  C17_21
REMARK                            x       y       z     vdW  Elec       q    Type
REMARK                         _______ _______ _______ _____ _____    ______ ____
ROOT
ATOM      1  C10 UNL     1     151.441 159.043 158.026  0.00  0.00    +0.220 C 
ATOM      2  O2  UNL     1     152.593 159.462 158.036  0.00  0.00    -0.275 OA
ATOM      3  N2  UNL     1     150.890 158.229 157.043  0.00  0.00    -0.285 N 
ATOM      4  H15 UNL     1     149.896 158.055 157.106  0.00  0.00    +0.155 HD
ENDROOT
BRANCH   1   8
ATOM      5  N1  UNL     1     151.804 158.214 161.200  0.00  0.00    -0.295 NA
ATOM      6  C5  UNL     1     150.792 157.370 160.570  0.00  0.00    +0.085 C 
ATOM      7  C6  UNL     1     149.779 158.171 159.739  0.00  0.00    +0.028 C 
ATOM      8  C7  UNL     1     150.412 159.417 159.109  0.00  0.00    +0.078 C 
ATOM      9  C8  UNL     1     151.007 160.316 160.210  0.00  0.00    +0.028 C 
ATOM     10  C9  UNL     1     151.339 159.560 161.504  0.00  0.00    +0.085 C 
BRANCH   5  11
ATOM     11  C4  UNL     1     152.523 157.566 162.304  0.00  0.00    +0.158 C 
BRANCH  11  15
ATOM     12  C1  UNL     1     153.608 160.894 165.643  0.00  0.00    +0.086 C 
ATOM     13  C2  UNL     1     152.862 159.716 165.160  0.00  0.00    +0.102 A 
ATOM     14  O1  UNL     1     153.155 159.296 163.899  0.00  0.00    -0.464 OA
ATOM     15  C3  UNL     1     152.365 158.213 163.641  0.00  0.00    +0.119 A 
ATOM     16  C25 UNL     1     151.579 157.935 164.740  0.00  0.00    +0.046 A 
ATOM     17  C26 UNL     1     151.896 158.908 165.718  0.00  0.00    +0.044 A 
ENDBRANCH  11  15
ENDBRANCH   5  11
ENDBRANCH   1   8
BRANCH   3  18
ATOM     18  C11 UNL     1     151.542 157.663 155.929  0.00  0.00    +0.033 A 
ATOM     19  C12 UNL     1     151.932 158.381 154.800  0.00  0.00    +0.024 A 
ATOM     20  C13 UNL     1     152.580 157.740 153.736  0.00  0.00    +0.012 A 
ATOM     21  C14 UNL     1     152.858 156.370 153.782  0.00  0.00    -0.002 A 
ATOM     22  C15 UNL     1     152.467 155.650 154.917  0.00  0.00    +0.012 A 
ATOM     23  C16 UNL     1     151.817 156.292 155.979  0.00  0.00    +0.024 A 
BRANCH  21  24
ATOM     24  C17 UNL     1     153.535 155.713 152.664  0.00  0.00    +0.047 A 
ATOM     25  C18 UNL     1     153.155 155.569 151.340  0.00  0.00    +0.036 A 
ATOM     26  C19 UNL     1     154.174 154.855 150.651  0.00  0.00    +0.000 A 
ATOM     27  C20 UNL     1     154.338 154.418 149.323  0.00  0.00    +0.010 A 
ATOM     28  C21 UNL     1     155.500 153.723 148.969  0.00  0.00    +0.001 A 
ATOM     29  C22 UNL     1     156.490 153.466 149.917  0.00  0.00    +0.002 A 
ATOM     30  C23 UNL     1     156.348 153.892 151.242  0.00  0.00    +0.026 A 
ATOM     31  C24 UNL     1     155.177 154.582 151.576  0.00  0.00    +0.047 A 
ATOM     32  N3  UNL     1     154.771 155.115 152.778  0.00  0.00    -0.354 N 
ATOM     33  H25 UNL     1     155.319 155.088 153.624  0.00  0.00    +0.166 HD
ENDBRANCH  21  24
ENDBRANCH   3  18
TORSDOF 5
ENDMDL
MODEL 4
REMARK VINA RESULT:    -6.267      3.631      7.283
REMARK INTER + INTRA:          -8.670
REMARK INTER:                  -7.562
REMARK INTRA:                  -1.108
REMARK UNBOUND:                -0.572
REMARK  Name = /home/vital/Documents/PhD_2021/Malaria_codes/data/pdb_ligands_mmv/ligand_139.pdb
REMARK  6 active torsions:
REMARK  status: ('A' for Active; 'I' for Inactive)
REMARK    1  A    between atoms: C1_1  and  C2_2
REMARK    2  A    between atoms: C3_4  and  C4_5
REMARK    3  A    between atoms: C4_5  and  N1_6
REMARK    4  A    between atoms: C7_9  and  C10_12
REMARK    5  A    between atoms: N2_14  and  C11_15
REMARK    6  A    between atoms: C14_18  and  C17_21
REMARK                            x       y       z     vdW  Elec       q    Type
REMARK                         _______ _______ _______ _____ _____    ______ ____
ROOT
ATOM      1  C10 UNL     1     151.431 161.570 162.902  0.00  0.00    +0.220 C 
ATOM      2  O2  UNL     1     152.609 161.235 162.960  0.00  0.00    -0.275 OA
ATOM      3  N2  UNL     1     150.574 161.314 161.838  0.00  0.00    -0.285 N 
ATOM      4  H15 UNL     1     149.662 161.750 161.878  0.00  0.00    +0.155 HD
ENDROOT
BRANCH   1   8
ATOM      5  N1  UNL     1     151.764 160.861 166.108  0.00  0.00    -0.295 NA
ATOM      6  C5  UNL     1     150.445 160.450 165.634  0.00  0.00    +0.085 C 
ATOM      7  C6  UNL     1     149.744 161.534 164.802  0.00  0.00    +0.028 C 
ATOM      8  C7  UNL     1     150.745 162.387 164.012  0.00  0.00    +0.078 C 
ATOM      9  C8  UNL     1     151.751 163.041 164.978  0.00  0.00    +0.028 C 
ATOM     10  C9  UNL     1     151.893 162.297 166.313  0.00  0.00    +0.085 C 
BRANCH   5  11
ATOM     11  C4  UNL     1     152.282 160.049 167.216  0.00  0.00    +0.158 C 
BRANCH  11  15
ATOM     12  C1  UNL     1     153.719 162.515 171.123  0.00  0.00    +0.086 C 
ATOM     13  C2  UNL     1     152.731 161.732 170.358  0.00  0.00    +0.102 A 
ATOM     14  O1  UNL     1     153.122 161.315 169.122  0.00  0.00    -0.464 OA
ATOM     15  C3  UNL     1     152.078 160.621 168.581  0.00  0.00    +0.119 A 
ATOM     16  C25 UNL     1     151.028 160.584 169.475  0.00  0.00    +0.046 A 
ATOM     17  C26 UNL     1     151.447 161.305 170.618  0.00  0.00    +0.044 A 
ENDBRANCH  11  15
ENDBRANCH   5  11
ENDBRANCH   1   8
BRANCH   3  18
ATOM     18  C11 UNL     1     150.845 160.565 160.675  0.00  0.00    +0.033 A 
ATOM     19  C12 UNL     1     151.778 160.932 159.706  0.00  0.00    +0.024 A 
ATOM     20  C13 UNL     1     151.988 160.127 158.579  0.00  0.00    +0.012 A 
ATOM     21  C14 UNL     1     151.277 158.935 158.401  0.00  0.00    -0.002 A 
ATOM     22  C15 UNL     1     150.342 158.568 159.376  0.00  0.00    +0.012 A 
ATOM     23  C16 UNL     1     150.130 159.375 160.500  0.00  0.00    +0.024 A 
BRANCH  21  24
ATOM     24  C17 UNL     1     151.506 158.104 157.220  0.00  0.00    +0.047 A 
ATOM     25  C18 UNL     1     151.176 156.783 156.970  0.00  0.00    +0.036 A 
ATOM     26  C19 UNL     1     151.611 156.447 155.658  0.00  0.00    +0.000 A 
ATOM     27  C20 UNL     1     151.559 155.277 154.878  0.00  0.00    +0.010 A 
ATOM     28  C21 UNL     1     152.094 155.292 153.584  0.00  0.00    +0.001 A 
ATOM     29  C22 UNL     1     152.672 156.450 153.068  0.00  0.00    +0.002 A 
ATOM     30  C23 UNL     1     152.734 157.624 153.827  0.00  0.00    +0.026 A 
ATOM     31  C24 UNL     1     152.196 157.588 155.118  0.00  0.00    +0.047 A 
ATOM     32  N3  UNL     1     152.115 158.573 156.076  0.00  0.00    -0.354 N 
ATOM     33  H25 UNL     1     152.438 159.519 155.945  0.00  0.00    +0.166 HD
ENDBRANCH  21  24
ENDBRANCH   3  18
TORSDOF 5
ENDMDL
MODEL 5
REMARK VINA RESULT:    -6.228      2.296      3.031
REMARK INTER + INTRA:          -8.620
REMARK INTER:                  -7.510
REMARK INTRA:                  -1.110
REMARK UNBOUND:                -0.572
REMARK  Name = /home/vital/Documents/PhD_2021/Malaria_codes/data/pdb_ligands_mmv/ligand_139.pdb
REMARK  6 active torsions:
REMARK  status: ('A' for Active; 'I' for Inactive)
REMARK    1  A    between atoms: C1_1  and  C2_2
REMARK    2  A    between atoms: C3_4  and  C4_5
REMARK    3  A    between atoms: C4_5  and  N1_6
REMARK    4  A    between atoms: C7_9  and  C10_12
REMARK    5  A    between atoms: N2_14  and  C11_15
REMARK    6  A    between atoms: C14_18  and  C17_21
REMARK                            x       y       z     vdW  Elec       q    Type
REMARK                         _______ _______ _______ _____ _____    ______ ____
ROOT
ATOM      1  C10 UNL     1     151.501 159.026 158.177  0.00  0.00    +0.220 C 
ATOM      2  O2  UNL     1     152.647 159.459 158.135  0.00  0.00    -0.275 OA
ATOM      3  N2  UNL     1     150.910 158.221 157.210  0.00  0.00    -0.285 N 
ATOM      4  H15 UNL     1     149.923 158.034 157.319  0.00  0.00    +0.155 HD
ENDROOT
BRANCH   1   8
ATOM      5  N1  UNL     1     151.986 158.071 161.298  0.00  0.00    -0.295 NA
ATOM      6  C5  UNL     1     150.937 157.264 160.681  0.00  0.00    +0.085 C 
ATOM      7  C6  UNL     1     149.901 158.108 159.924  0.00  0.00    +0.028 C 
ATOM      8  C7  UNL     1     150.524 159.370 159.316  0.00  0.00    +0.078 C 
ATOM      9  C8  UNL     1     151.177 160.219 160.424  0.00  0.00    +0.028 C 
ATOM     10  C9  UNL     1     151.553 159.409 161.673  0.00  0.00    +0.085 C 
BRANCH   5  11
ATOM     11  C4  UNL     1     152.742 157.372 162.345  0.00  0.00    +0.158 C 
BRANCH  11  15
ATOM     12  C1  UNL     1     149.582 154.665 164.813  0.00  0.00    +0.086 C 
ATOM     13  C2  UNL     1     150.525 155.793 164.688  0.00  0.00    +0.102 A 
ATOM     14  O1  UNL     1     151.138 155.931 163.480  0.00  0.00    -0.464 OA
ATOM     15  C3  UNL     1     151.965 157.014 163.569  0.00  0.00    +0.119 A 
ATOM     16  C25 UNL     1     151.868 157.574 164.827  0.00  0.00    +0.046 A 
ATOM     17  C26 UNL     1     150.944 156.783 165.549  0.00  0.00    +0.044 A 
ENDBRANCH  11  15
ENDBRANCH   5  11
ENDBRANCH   1   8
BRANCH   3  18
ATOM     18  C11 UNL     1     151.512 157.680 156.054  0.00  0.00    +0.033 A 
ATOM     19  C12 UNL     1     151.871 158.428 154.934  0.00  0.00    +0.024 A 
ATOM     20  C13 UNL     1     152.468 157.811 153.828  0.00  0.00    +0.012 A 
ATOM     21  C14 UNL     1     152.726 156.436 153.821  0.00  0.00    -0.002 A 
ATOM     22  C15 UNL     1     152.366 155.687 154.947  0.00  0.00    +0.012 A 
ATOM     23  C16 UNL     1     151.766 156.304 156.052  0.00  0.00    +0.024 A 
BRANCH  21  24
ATOM     24  C17 UNL     1     153.351 155.804 152.659  0.00  0.00    +0.047 A 
ATOM     25  C18 UNL     1     152.874 155.613 151.373  0.00  0.00    +0.036 A 
ATOM     26  C19 UNL     1     153.878 154.954 150.610  0.00  0.00    +0.000 A 
ATOM     27  C20 UNL     1     153.960 154.505 149.279  0.00  0.00    +0.010 A 
ATOM     28  C21 UNL     1     155.133 153.881 148.839  0.00  0.00    +0.001 A 
ATOM     29  C22 UNL     1     156.212 153.705 149.703  0.00  0.00    +0.002 A 
ATOM     30  C23 UNL     1     156.151 154.144 151.030  0.00  0.00    +0.026 A 
ATOM     31  C24 UNL     1     154.969 154.763 151.452  0.00  0.00    +0.047 A 
ATOM     32  N3  UNL     1     154.629 155.289 152.677  0.00  0.00    -0.354 N 
ATOM     33  H25 UNL     1     155.245 155.313 153.475  0.00  0.00    +0.166 HD
ENDBRANCH  21  24
ENDBRANCH   3  18
TORSDOF 5
ENDMDL
MODEL 6
REMARK VINA RESULT:    -6.214      7.712     11.706
REMARK INTER + INTRA:          -8.602
REMARK INTER:                  -6.641
REMARK INTRA:                  -1.962
REMARK UNBOUND:                -0.572
REMARK  Name = /home/vital/Documents/PhD_2021/Malaria_codes/data/pdb_ligands_mmv/ligand_139.pdb
REMARK  6 active torsions:
REMARK  status: ('A' for Active; 'I' for Inactive)
REMARK    1  A    between atoms: C1_1  and  C2_2
REMARK    2  A    between atoms: C3_4  and  C4_5
REMARK    3  A    between atoms: C4_5  and  N1_6
REMARK    4  A    between atoms: C7_9  and  C10_12
REMARK    5  A    between atoms: N2_14  and  C11_15
REMARK    6  A    between atoms: C14_18  and  C17_21
REMARK                            x       y       z     vdW  Elec       q    Type
REMARK                         _______ _______ _______ _____ _____    ______ ____
ROOT
ATOM      1  C10 UNL     1     153.707 160.741 169.093  0.00  0.00    +0.220 C 
ATOM      2  O2  UNL     1     154.818 160.647 168.584  0.00  0.00    -0.275 OA
ATOM      3  N2  UNL     1     152.517 160.332 168.503  0.00  0.00    -0.285 N 
ATOM      4  H15 UNL     1     151.664 160.576 168.989  0.00  0.00    +0.155 HD
ENDROOT
BRANCH   1   8
ATOM      5  N1  UNL     1     151.191 162.788 169.701  0.00  0.00    -0.295 NA
ATOM      6  C5  UNL     1     152.438 163.540 169.587  0.00  0.00    +0.085 C 
ATOM      7  C6  UNL     1     153.587 162.920 170.394  0.00  0.00    +0.028 C 
ATOM      8  C7  UNL     1     153.476 161.392 170.469  0.00  0.00    +0.078 C 
ATOM      9  C8  UNL     1     152.125 160.995 171.095  0.00  0.00    +0.028 C 
ATOM     10  C9  UNL     1     151.047 162.080 170.965  0.00  0.00    +0.085 C 
BRANCH   5  11
ATOM     11  C4  UNL     1     149.997 163.542 169.298  0.00  0.00    +0.158 C 
BRANCH  11  15
ATOM     12  C1  UNL     1     150.583 163.036 164.523  0.00  0.00    +0.086 C 
ATOM     13  C2  UNL     1     149.763 163.046 165.749  0.00  0.00    +0.102 A 
ATOM     14  O1  UNL     1     150.423 163.309 166.910  0.00  0.00    -0.464 OA
ATOM     15  C3  UNL     1     149.501 163.268 167.916  0.00  0.00    +0.119 A 
ATOM     16  C25 UNL     1     148.253 162.991 167.396  0.00  0.00    +0.046 A 
ATOM     17  C26 UNL     1     148.423 162.843 165.999  0.00  0.00    +0.044 A 
ENDBRANCH  11  15
ENDBRANCH   5  11
ENDBRANCH   1   8
BRANCH   3  18
ATOM     18  C11 UNL     1     152.350 159.665 167.272  0.00  0.00    +0.033 A 
ATOM     19  C12 UNL     1     152.741 160.186 166.039  0.00  0.00    +0.024 A 
ATOM     20  C13 UNL     1     152.541 159.455 164.861  0.00  0.00    +0.012 A 
ATOM     21  C14 UNL     1     151.954 158.185 164.892  0.00  0.00    -0.002 A 
ATOM     22  C15 UNL     1     151.563 157.663 166.131  0.00  0.00    +0.012 A 
ATOM     23  C16 UNL     1     151.761 158.396 167.307  0.00  0.00    +0.024 A 
BRANCH  21  24
ATOM     24  C17 UNL     1     151.751 157.432 163.654  0.00  0.00    +0.047 A 
ATOM     25  C18 UNL     1     151.331 157.851 162.404  0.00  0.00    +0.036 A 
ATOM     26  C19 UNL     1     151.310 156.728 161.532  0.00  0.00    +0.000 A 
ATOM     27  C20 UNL     1     150.970 156.544 160.178  0.00  0.00    +0.010 A 
ATOM     28  C21 UNL     1     151.069 155.266 159.615  0.00  0.00    +0.001 A 
ATOM     29  C22 UNL     1     151.500 154.184 160.381  0.00  0.00    +0.002 A 
ATOM     30  C23 UNL     1     151.842 154.345 161.728  0.00  0.00    +0.026 A 
ATOM     31  C24 UNL     1     151.734 155.629 162.273  0.00  0.00    +0.047 A 
ATOM     32  N3  UNL     1     152.000 156.081 163.545  0.00  0.00    -0.354 N 
ATOM     33  H25 UNL     1     152.352 155.501 164.291  0.00  0.00    +0.166 HD
ENDBRANCH  21  24
ENDBRANCH   3  18
TORSDOF 5
ENDMDL
MODEL 7
REMARK VINA RESULT:    -5.850      4.766      8.439
REMARK INTER + INTRA:          -8.132
REMARK INTER:                  -5.885
REMARK INTRA:                  -2.247
REMARK UNBOUND:                -0.572
REMARK  Name = /home/vital/Documents/PhD_2021/Malaria_codes/data/pdb_ligands_mmv/ligand_139.pdb
REMARK  6 active torsions:
REMARK  status: ('A' for Active; 'I' for Inactive)
REMARK    1  A    between atoms: C1_1  and  C2_2
REMARK    2  A    between atoms: C3_4  and  C4_5
REMARK    3  A    between atoms: C4_5  and  N1_6
REMARK    4  A    between atoms: C7_9  and  C10_12
REMARK    5  A    between atoms: N2_14  and  C11_15
REMARK    6  A    between atoms: C14_18  and  C17_21
REMARK                            x       y       z     vdW  Elec       q    Type
REMARK                         _______ _______ _______ _____ _____    ______ ____
ROOT
ATOM      1  C10 UNL     1     149.977 162.386 164.527  0.00  0.00    +0.220 C 
ATOM      2  O2  UNL     1     148.939 162.624 163.919  0.00  0.00    -0.275 OA
ATOM      3  N2  UNL     1     151.035 161.626 164.044  0.00  0.00    -0.285 N 
ATOM      4  H15 UNL     1     151.778 161.417 164.698  0.00  0.00    +0.155 HD
ENDROOT
BRANCH   1   8
ATOM      5  N1  UNL     1     150.991 160.375 166.940  0.00  0.00    -0.295 NA
ATOM      6  C5  UNL     1     149.575 160.692 167.107  0.00  0.00    +0.085 C 
ATOM      7  C6  UNL     1     149.276 162.191 166.961  0.00  0.00    +0.028 C 
ATOM      8  C7  UNL     1     150.225 162.871 165.967  0.00  0.00    +0.078 C 
ATOM      9  C8  UNL     1     151.685 162.673 166.418  0.00  0.00    +0.028 C 
ATOM     10  C9  UNL     1     151.884 161.456 167.333  0.00  0.00    +0.085 C 
BRANCH   5  11
ATOM     11  C4  UNL     1     151.377 159.059 167.463  0.00  0.00    +0.158 C 
BRANCH  11  15
ATOM     12  C1  UNL     1     153.245 157.164 163.423  0.00  0.00    +0.086 C 
ATOM     13  C2  UNL     1     152.362 157.121 164.604  0.00  0.00    +0.102 A 
ATOM     14  O1  UNL     1     152.393 158.214 165.416  0.00  0.00    -0.464 OA
ATOM     15  C3  UNL     1     151.523 157.980 166.441  0.00  0.00    +0.119 A 
ATOM     16  C25 UNL     1     150.928 156.745 166.277  0.00  0.00    +0.046 A 
ATOM     17  C26 UNL     1     151.474 156.189 165.096  0.00  0.00    +0.044 A 
ENDBRANCH  11  15
ENDBRANCH   5  11
ENDBRANCH   1   8
BRANCH   3  18
ATOM     18  C11 UNL     1     151.172 161.057 162.760  0.00  0.00    +0.033 A 
ATOM     19  C12 UNL     1     151.915 161.625 161.726  0.00  0.00    +0.024 A 
ATOM     20  C13 UNL     1     152.001 160.991 160.480  0.00  0.00    +0.012 A 
ATOM     21  C14 UNL     1     151.354 159.773 160.245  0.00  0.00    -0.002 A 
ATOM     22  C15 UNL     1     150.609 159.204 161.285  0.00  0.00    +0.012 A 
ATOM     23  C16 UNL     1     150.521 159.840 162.529  0.00  0.00    +0.024 A 
BRANCH  21  24
ATOM     24  C17 UNL     1     151.452 159.121 158.939  0.00  0.00    +0.047 A 
ATOM     25  C18 UNL     1     151.706 159.651 157.685  0.00  0.00    +0.036 A 
ATOM     26  C19 UNL     1     151.710 158.591 156.737  0.00  0.00    +0.000 A 
ATOM     27  C20 UNL     1     151.900 158.522 155.344  0.00  0.00    +0.010 A 
ATOM     28  C21 UNL     1     151.840 157.278 154.706  0.00  0.00    +0.001 A 
ATOM     29  C22 UNL     1     151.597 156.116 155.436  0.00  0.00    +0.002 A 
ATOM     30  C23 UNL     1     151.405 156.161 156.821  0.00  0.00    +0.026 A 
ATOM     31  C24 UNL     1     151.466 157.415 157.440  0.00  0.00    +0.047 A 
ATOM     32  N3  UNL     1     151.321 157.761 158.764  0.00  0.00    -0.354 N 
ATOM     33  H25 UNL     1     151.163 157.100 159.509  0.00  0.00    +0.166 HD
ENDBRANCH  21  24
ENDBRANCH   3  18
TORSDOF 5
ENDMDL
MODEL 8
REMARK VINA RESULT:    -5.667      7.117     11.442
REMARK INTER + INTRA:          -7.896
REMARK INTER:                  -6.199
REMARK INTRA:                  -1.696
REMARK UNBOUND:                -0.572
REMARK  Name = /home/vital/Documents/PhD_2021/Malaria_codes/data/pdb_ligands_mmv/ligand_139.pdb
REMARK  6 active torsions:
REMARK  status: ('A' for Active; 'I' for Inactive)
REMARK    1  A    between atoms: C1_1  and  C2_2
REMARK    2  A    between atoms: C3_4  and  C4_5
REMARK    3  A    between atoms: C4_5  and  N1_6
REMARK    4  A    between atoms: C7_9  and  C10_12
REMARK    5  A    between atoms: N2_14  and  C11_15
REMARK    6  A    between atoms: C14_18  and  C17_21
REMARK                            x       y       z     vdW  Elec       q    Type
REMARK                         _______ _______ _______ _____ _____    ______ ____
ROOT
ATOM      1  C10 UNL     1     153.891 160.891 168.356  0.00  0.00    +0.220 C 
ATOM      2  O2  UNL     1     154.949 160.923 167.738  0.00  0.00    -0.275 OA
ATOM      3  N2  UNL     1     152.635 160.710 167.790  0.00  0.00    -0.285 N 
ATOM      4  H15 UNL     1     151.841 160.821 168.407  0.00  0.00    +0.155 HD
ENDROOT
BRANCH   1   8
ATOM      5  N1  UNL     1     151.451 162.582 169.798  0.00  0.00    -0.295 NA
ATOM      6  C5  UNL     1     152.674 163.380 169.777  0.00  0.00    +0.085 C 
ATOM      7  C6  UNL     1     153.909 162.594 170.242  0.00  0.00    +0.028 C 
ATOM      8  C7  UNL     1     153.812 161.107 169.879  0.00  0.00    +0.078 C 
ATOM      9  C8  UNL     1     152.542 160.497 170.501  0.00  0.00    +0.028 C 
ATOM     10  C9  UNL     1     151.452 161.534 170.808  0.00  0.00    +0.085 C 
BRANCH   5  11
ATOM     11  C4  UNL     1     150.217 163.377 169.761  0.00  0.00    +0.158 C 
BRANCH  11  15
ATOM     12  C1  UNL     1     149.970 163.542 164.933  0.00  0.00    +0.086 C 
ATOM     13  C2  UNL     1     149.363 163.439 166.273  0.00  0.00    +0.102 A 
ATOM     14  O1  UNL     1     150.225 163.468 167.326  0.00  0.00    -0.464 OA
ATOM     15  C3  UNL     1     149.478 163.355 168.463  0.00  0.00    +0.119 A 
ATOM     16  C25 UNL     1     148.140 163.268 168.136  0.00  0.00    +0.046 A 
ATOM     17  C26 UNL     1     148.067 163.315 166.724  0.00  0.00    +0.044 A 
ENDBRANCH  11  15
ENDBRANCH   5  11
ENDBRANCH   1   8
BRANCH   3  18
ATOM     18  C11 UNL     1     152.328 160.447 166.439  0.00  0.00    +0.033 A 
ATOM     19  C12 UNL     1     151.740 159.268 165.984  0.00  0.00    +0.024 A 
ATOM     20  C13 UNL     1     151.465 159.089 164.622  0.00  0.00    +0.012 A 
ATOM     21  C14 UNL     1     151.766 160.088 163.688  0.00  0.00    -0.002 A 
ATOM     22  C15 UNL     1     152.356 161.271 164.148  0.00  0.00    +0.012 A 
ATOM     23  C16 UNL     1     152.632 161.448 165.509  0.00  0.00    +0.024 A 
BRANCH  21  24
ATOM     24  C17 UNL     1     151.474 159.887 162.269  0.00  0.00    +0.047 A 
ATOM     25  C18 UNL     1     150.403 159.268 161.649  0.00  0.00    +0.036 A 
ATOM     26  C19 UNL     1     150.585 159.349 160.240  0.00  0.00    +0.000 A 
ATOM     27  C20 UNL     1     149.845 158.904 159.129  0.00  0.00    +0.010 A 
ATOM     28  C21 UNL     1     150.324 159.163 157.839  0.00  0.00    +0.001 A 
ATOM     29  C22 UNL     1     151.519 159.856 157.651  0.00  0.00    +0.002 A 
ATOM     30  C23 UNL     1     152.269 160.308 158.742  0.00  0.00    +0.026 A 
ATOM     31  C24 UNL     1     151.775 160.037 160.023  0.00  0.00    +0.047 A 
ATOM     32  N3  UNL     1     152.287 160.355 161.260  0.00  0.00    -0.354 N 
ATOM     33  H25 UNL     1     153.135 160.881 161.404  0.00  0.00    +0.166 HD
ENDBRANCH  21  24
ENDBRANCH   3  18
TORSDOF 5
ENDMDL
MODEL 9
REMARK VINA RESULT:    -5.654      4.706      8.732
REMARK INTER + INTRA:          -7.878
REMARK INTER:                  -6.123
REMARK INTRA:                  -1.755
REMARK UNBOUND:                -0.572
REMARK  Name = /home/vital/Documents/PhD_2021/Malaria_codes/data/pdb_ligands_mmv/ligand_139.pdb
REMARK  6 active torsions:
REMARK  status: ('A' for Active; 'I' for Inactive)
REMARK    1  A    between atoms: C1_1  and  C2_2
REMARK    2  A    between atoms: C3_4  and  C4_5
REMARK    3  A    between atoms: C4_5  and  N1_6
REMARK    4  A    between atoms: C7_9  and  C10_12
REMARK    5  A    between atoms: N2_14  and  C11_15
REMARK    6  A    between atoms: C14_18  and  C17_21
REMARK                            x       y       z     vdW  Elec       q    Type
REMARK                         _______ _______ _______ _____ _____    ______ ____
ROOT
ATOM      1  C10 UNL     1     150.413 160.518 165.348  0.00  0.00    +0.220 C 
ATOM      2  O2  UNL     1     149.350 160.840 164.828  0.00  0.00    -0.275 OA
ATOM      3  N2  UNL     1     151.431 159.809 164.721  0.00  0.00    -0.285 N 
ATOM      4  H15 UNL     1     152.202 159.513 165.306  0.00  0.00    +0.155 HD
ENDROOT
BRANCH   1   8
ATOM      5  N1  UNL     1     151.801 158.302 167.361  0.00  0.00    -0.295 NA
ATOM      6  C5  UNL     1     150.384 158.453 167.677  0.00  0.00    +0.085 C 
ATOM      7  C6  UNL     1     149.945 159.921 167.773  0.00  0.00    +0.028 C 
ATOM      8  C7  UNL     1     150.743 160.821 166.821  0.00  0.00    +0.078 C 
ATOM      9  C8  UNL     1     152.248 160.706 167.129  0.00  0.00    +0.028 C 
ATOM     10  C9  UNL     1     152.629 159.400 167.840  0.00  0.00    +0.085 C 
BRANCH   5  11
ATOM     11  C4  UNL     1     152.343 156.970 167.658  0.00  0.00    +0.158 C 
BRANCH  11  15
ATOM     12  C1  UNL     1     150.173 154.652 164.009  0.00  0.00    +0.086 C 
ATOM     13  C2  UNL     1     150.596 154.774 165.416  0.00  0.00    +0.102 A 
ATOM     14  O1  UNL     1     151.287 155.902 165.739  0.00  0.00    -0.464 OA
ATOM     15  C3  UNL     1     151.589 155.824 167.069  0.00  0.00    +0.119 A 
ATOM     16  C25 UNL     1     151.080 154.654 167.595  0.00  0.00    +0.046 A 
ATOM     17  C26 UNL     1     150.445 153.975 166.528  0.00  0.00    +0.044 A 
ENDBRANCH  11  15
ENDBRANCH   5  11
ENDBRANCH   1   8
BRANCH   3  18
ATOM     18  C11 UNL     1     151.492 159.398 163.374  0.00  0.00    +0.033 A 
ATOM     19  C12 UNL     1     151.609 158.071 162.963  0.00  0.00    +0.024 A 
ATOM     20  C13 UNL     1     151.660 157.750 161.601  0.00  0.00    +0.012 A 
ATOM     21  C14 UNL     1     151.585 158.746 160.621  0.00  0.00    -0.002 A 
ATOM     22  C15 UNL     1     151.466 160.077 161.035  0.00  0.00    +0.012 A 
ATOM     23  C16 UNL     1     151.419 160.398 162.397  0.00  0.00    +0.024 A 
BRANCH  21  24
ATOM     24  C17 UNL     1     151.639 158.395 159.202  0.00  0.00    +0.047 A 
ATOM     25  C18 UNL     1     151.587 159.196 158.074  0.00  0.00    +0.036 A 
ATOM     26  C19 UNL     1     151.691 158.366 156.923  0.00  0.00    +0.000 A 
ATOM     27  C20 UNL     1     151.691 158.609 155.537  0.00  0.00    +0.010 A 
ATOM     28  C21 UNL     1     151.820 157.531 154.653  0.00  0.00    +0.001 A 
ATOM     29  C22 UNL     1     151.948 156.229 155.135  0.00  0.00    +0.002 A 
ATOM     30  C23 UNL     1     151.951 155.966 156.509  0.00  0.00    +0.026 A 
ATOM     31  C24 UNL     1     151.819 157.057 157.375  0.00  0.00    +0.047 A 
ATOM     32  N3  UNL     1     151.791 157.102 158.751  0.00  0.00    -0.354 N 
ATOM     33  H25 UNL     1     151.892 156.295 159.347  0.00  0.00    +0.166 HD
ENDBRANCH  21  24
ENDBRANCH   3  18
TORSDOF 5
ENDMDL
