MODEL 1
REMARK VINA RESULT:    -6.048      0.000      0.000
REMARK INTER + INTRA:          -8.717
REMARK INTER:                  -8.523
REMARK INTRA:                  -0.194
REMARK UNBOUND:                -0.194
REMARK  Name = /home/vital/Documents/PhD_2021/Malaria_codes/data/pdb_ligands_mmv/ligand_135.pdb
REMARK  9 active torsions:
REMARK  status: ('A' for Active; 'I' for Inactive)
REMARK    1  A    between atoms: C1_1  and  O1_2
REMARK    2  A    between atoms: O1_2  and  C2_3
REMARK    3  A    between atoms: C6_7  and  C8_9
REMARK    4  A    between atoms: N2_11  and  C9_12
REMARK    5  A    between atoms: C11_15  and  C14_18
REMARK    6  A    between atoms: N3_20  and  C15_21
REMARK    7  A    between atoms: C15_21  and  C16_22
REMARK    8  A    between atoms: C16_22  and  N4_23
REMARK    9  A    between atoms: N5_26  and  C21_29
REMARK                            x       y       z     vdW  Elec       q    Type
REMARK                         _______ _______ _______ _____ _____    ______ ____
ROOT
ATOM      1  C14 UNL     1     150.375 155.940 161.298  0.00  0.00    +0.251 C 
ATOM      2  O2  UNL     1     149.717 154.917 161.121  0.00  0.00    -0.270 OA
ATOM      3  N3  UNL     1     150.782 156.323 162.554  0.00  0.00    -0.310 N 
ATOM      4  H12 UNL     1     151.168 157.253 162.676  0.00  0.00    +0.149 HD
ENDROOT
BRANCH   1  11
ATOM      5  C8  UNL     1     151.732 157.873 156.831  0.00  0.00    +0.101 A 
ATOM      6  N1  UNL     1     151.878 159.220 156.712  0.00  0.00    -0.170 NA
ATOM      7  N2  UNL     1     151.632 159.712 157.959  0.00  0.00    -0.260 N 
ATOM      8  C9  UNL     1     151.732 161.129 158.196  0.00  0.00    +0.173 C 
ATOM      9  C10 UNL     1     151.316 158.736 158.835  0.00  0.00    +0.107 A 
ATOM     10  S1  UNL     1     150.898 158.559 160.430  0.00  0.00    -0.064 S 
ATOM     11  C11 UNL     1     150.758 156.828 160.208  0.00  0.00    +0.076 A 
ATOM     12  C12 UNL     1     151.045 156.454 158.891  0.00  0.00    +0.033 A 
ATOM     13  C13 UNL     1     151.370 157.590 158.151  0.00  0.00    +0.036 A 
BRANCH   5  18
ATOM     14  C2  UNL     1     153.020 156.529 153.555  0.00  0.00    +0.121 A 
ATOM     15  C3  UNL     1     152.341 155.311 153.482  0.00  0.00    +0.045 A 
ATOM     16  C4  UNL     1     151.473 154.921 154.500  0.00  0.00    +0.004 A 
ATOM     17  C5  UNL     1     151.274 155.753 155.602  0.00  0.00    +0.010 A 
ATOM     18  C6  UNL     1     151.933 156.985 155.687  0.00  0.00    +0.006 A 
ATOM     19  C7  UNL     1     152.815 157.361 154.659  0.00  0.00    +0.055 A 
BRANCH  14  21
ATOM     20  C1  UNL     1     154.549 155.677 151.946  0.00  0.00    +0.277 C 
ATOM     21  O1  UNL     1     153.847 156.787 152.496  0.00  0.00    -0.495 OA
ENDBRANCH  14  21
ENDBRANCH   5  18
ENDBRANCH   1  11
BRANCH   3  22
ATOM     22  C15 UNL     1     150.310 155.665 163.755  0.00  0.00    +0.120 C 
BRANCH  22  23
ATOM     23  C16 UNL     1     151.088 156.150 164.990  0.00  0.00    +0.103 C 
BRANCH  23  24
ATOM     24  N4  UNL     1     150.761 157.545 165.371  0.00  0.00    -0.298 NA
ATOM     25  C17 UNL     1     150.752 157.723 166.845  0.00  0.00    +0.103 C 
ATOM     26  C18 UNL     1     150.471 159.187 167.265  0.00  0.00    +0.120 C 
ATOM     27  N5  UNL     1     151.455 160.112 166.658  0.00  0.00    -0.325 N 
ATOM     28  C19 UNL     1     151.527 159.948 165.192  0.00  0.00    +0.120 C 
ATOM     29  C20 UNL     1     151.765 158.473 164.787  0.00  0.00    +0.103 C 
BRANCH  27  30
ATOM     30  C21 UNL     1     152.605 160.399 167.404  0.00  0.00    +0.065 A 
ATOM     31  C22 UNL     1     152.729 159.863 168.703  0.00  0.00    +0.026 A 
ATOM     32  C23 UNL     1     153.840 160.117 169.517  0.00  0.00    +0.002 A 
ATOM     33  C24 UNL     1     154.868 160.932 169.058  0.00  0.00    +0.003 A 
ATOM     34  C25 UNL     1     154.772 161.497 167.792  0.00  0.00    +0.040 A 
ATOM     35  C26 UNL     1     153.657 161.239 166.989  0.00  0.00    +0.144 A 
ATOM     36  F1  UNL     1     153.647 161.818 165.778  0.00  0.00    -0.204 F 
ENDBRANCH  27  30
ENDBRANCH  23  24
ENDBRANCH  22  23
ENDBRANCH   3  22
TORSDOF 7
ENDMDL
MODEL 2
REMARK VINA RESULT:    -5.836      2.657      3.660
REMARK INTER + INTRA:          -8.418
REMARK INTER:                  -7.858
REMARK INTRA:                  -0.559
REMARK UNBOUND:                -0.194
REMARK  Name = /home/vital/Documents/PhD_2021/Malaria_codes/data/pdb_ligands_mmv/ligand_135.pdb
REMARK  9 active torsions:
REMARK  status: ('A' for Active; 'I' for Inactive)
REMARK    1  A    between atoms: C1_1  and  O1_2
REMARK    2  A    between atoms: O1_2  and  C2_3
REMARK    3  A    between atoms: C6_7  and  C8_9
REMARK    4  A    between atoms: N2_11  and  C9_12
REMARK    5  A    between atoms: C11_15  and  C14_18
REMARK    6  A    between atoms: N3_20  and  C15_21
REMARK    7  A    between atoms: C15_21  and  C16_22
REMARK    8  A    between atoms: C16_22  and  N4_23
REMARK    9  A    between atoms: N5_26  and  C21_29
REMARK                            x       y       z     vdW  Elec       q    Type
REMARK                         _______ _______ _______ _____ _____    ______ ____
ROOT
ATOM      1  C14 UNL     1     151.621 160.181 161.776  0.00  0.00    +0.251 C 
ATOM      2  O2  UNL     1     152.635 160.843 161.567  0.00  0.00    -0.270 OA
ATOM      3  N3  UNL     1     150.706 160.552 162.733  0.00  0.00    -0.310 N 
ATOM      4  H12 UNL     1     149.980 159.893 162.991  0.00  0.00    +0.149 HD
ENDROOT
BRANCH   1  11
ATOM      5  C8  UNL     1     151.077 156.621 158.232  0.00  0.00    +0.101 A 
ATOM      6  N1  UNL     1     150.578 155.407 158.587  0.00  0.00    -0.170 NA
ATOM      7  N2  UNL     1     150.302 155.516 159.918  0.00  0.00    -0.260 N 
ATOM      8  C9  UNL     1     149.723 154.398 160.616  0.00  0.00    +0.173 C 
ATOM      9  C10 UNL     1     150.632 156.730 160.405  0.00  0.00    +0.107 A 
ATOM     10  S1  UNL     1     150.612 157.560 161.840  0.00  0.00    -0.064 S 
ATOM     11  C11 UNL     1     151.317 158.955 161.050  0.00  0.00    +0.076 A 
ATOM     12  C12 UNL     1     151.540 158.716 159.689  0.00  0.00    +0.033 A 
ATOM     13  C13 UNL     1     151.117 157.426 159.374  0.00  0.00    +0.036 A 
BRANCH   5  18
ATOM     14  C2  UNL     1     152.568 156.167 154.801  0.00  0.00    +0.121 A 
ATOM     15  C3  UNL     1     152.273 157.401 154.218  0.00  0.00    +0.045 A 
ATOM     16  C4  UNL     1     151.582 158.378 154.934  0.00  0.00    +0.004 A 
ATOM     17  C5  UNL     1     151.183 158.126 156.247  0.00  0.00    +0.010 A 
ATOM     18  C6  UNL     1     151.482 156.900 156.855  0.00  0.00    +0.006 A 
ATOM     19  C7  UNL     1     152.169 155.921 156.117  0.00  0.00    +0.055 A 
BRANCH  14  21
ATOM     20  C1  UNL     1     153.597 155.774 152.694  0.00  0.00    +0.277 C 
ATOM     21  O1  UNL     1     153.241 155.298 153.987  0.00  0.00    -0.495 OA
ENDBRANCH  14  21
ENDBRANCH   5  18
ENDBRANCH   1  11
BRANCH   3  22
ATOM     22  C15 UNL     1     150.962 161.622 163.675  0.00  0.00    +0.120 C 
BRANCH  22  23
ATOM     23  C16 UNL     1     149.647 162.201 164.223  0.00  0.00    +0.103 C 
BRANCH  23  24
ATOM     24  N4  UNL     1     149.609 162.258 165.703  0.00  0.00    -0.298 NA
ATOM     25  C17 UNL     1     149.968 160.952 166.311  0.00  0.00    +0.103 C 
ATOM     26  C18 UNL     1     149.993 161.005 167.859  0.00  0.00    +0.120 C 
ATOM     27  N5  UNL     1     150.923 162.052 168.341  0.00  0.00    -0.325 N 
ATOM     28  C19 UNL     1     150.627 163.366 167.735  0.00  0.00    +0.120 C 
ATOM     29  C20 UNL     1     150.563 163.288 166.190  0.00  0.00    +0.103 C 
BRANCH  27  30
ATOM     30  C21 UNL     1     152.243 161.662 168.598  0.00  0.00    +0.065 A 
ATOM     31  C22 UNL     1     153.232 161.914 167.625  0.00  0.00    +0.026 A 
ATOM     32  C23 UNL     1     154.571 161.540 167.801  0.00  0.00    +0.002 A 
ATOM     33  C24 UNL     1     154.964 160.886 168.962  0.00  0.00    +0.003 A 
ATOM     34  C25 UNL     1     154.015 160.600 169.935  0.00  0.00    +0.040 A 
ATOM     35  C26 UNL     1     152.680 160.975 169.748  0.00  0.00    +0.144 A 
ATOM     36  F1  UNL     1     151.829 160.667 170.739  0.00  0.00    -0.204 F 
ENDBRANCH  27  30
ENDBRANCH  23  24
ENDBRANCH  22  23
ENDBRANCH   3  22
TORSDOF 7
ENDMDL
MODEL 3
REMARK VINA RESULT:    -5.702      3.504     10.831
REMARK INTER + INTRA:          -8.229
REMARK INTER:                  -7.645
REMARK INTRA:                  -0.584
REMARK UNBOUND:                -0.194
REMARK  Name = /home/vital/Documents/PhD_2021/Malaria_codes/data/pdb_ligands_mmv/ligand_135.pdb
REMARK  9 active torsions:
REMARK  status: ('A' for Active; 'I' for Inactive)
REMARK    1  A    between atoms: C1_1  and  O1_2
REMARK    2  A    between atoms: O1_2  and  C2_3
REMARK    3  A    between atoms: C6_7  and  C8_9
REMARK    4  A    between atoms: N2_11  and  C9_12
REMARK    5  A    between atoms: C11_15  and  C14_18
REMARK    6  A    between atoms: N3_20  and  C15_21
REMARK    7  A    between atoms: C15_21  and  C16_22
REMARK    8  A    between atoms: C16_22  and  N4_23
REMARK    9  A    between atoms: N5_26  and  C21_29
REMARK                            x       y       z     vdW  Elec       q    Type
REMARK                         _______ _______ _______ _____ _____    ______ ____
ROOT
ATOM      1  C14 UNL     1     151.206 160.241 163.093  0.00  0.00    +0.251 C 
ATOM      2  O2  UNL     1     150.188 159.775 162.584  0.00  0.00    -0.270 OA
ATOM      3  N3  UNL     1     152.004 161.131 162.414  0.00  0.00    -0.310 N 
ATOM      4  H12 UNL     1     152.916 161.355 162.798  0.00  0.00    +0.149 HD
ENDROOT
BRANCH   1  11
ATOM      5  C8  UNL     1     152.424 157.768 167.327  0.00  0.00    +0.101 A 
ATOM      6  N1  UNL     1     152.963 158.461 168.364  0.00  0.00    -0.170 NA
ATOM      7  N2  UNL     1     152.990 159.758 167.944  0.00  0.00    -0.260 N 
ATOM      8  C9  UNL     1     153.486 160.780 168.828  0.00  0.00    +0.173 C 
ATOM      9  C10 UNL     1     152.517 159.892 166.688  0.00  0.00    +0.107 A 
ATOM     10  S1  UNL     1     152.264 161.077 165.556  0.00  0.00    -0.064 S 
ATOM     11  C11 UNL     1     151.652 159.882 164.432  0.00  0.00    +0.076 A 
ATOM     12  C12 UNL     1     151.669 158.599 164.989  0.00  0.00    +0.033 A 
ATOM     13  C13 UNL     1     152.164 158.668 166.289  0.00  0.00    +0.036 A 
BRANCH   5  18
ATOM     14  C2  UNL     1     150.722 154.406 167.235  0.00  0.00    +0.121 A 
ATOM     15  C3  UNL     1     151.786 153.561 167.556  0.00  0.00    +0.045 A 
ATOM     16  C4  UNL     1     153.058 154.080 167.792  0.00  0.00    +0.004 A 
ATOM     17  C5  UNL     1     153.275 155.456 167.713  0.00  0.00    +0.010 A 
ATOM     18  C6  UNL     1     152.217 156.322 167.408  0.00  0.00    +0.006 A 
ATOM     19  C7  UNL     1     150.942 155.784 167.161  0.00  0.00    +0.055 A 
BRANCH  14  21
ATOM     20  C1  UNL     1     149.592 152.486 166.407  0.00  0.00    +0.277 C 
ATOM     21  O1  UNL     1     149.531 153.769 167.019  0.00  0.00    -0.495 OA
ENDBRANCH  14  21
ENDBRANCH   5  18
ENDBRANCH   1  11
BRANCH   3  22
ATOM     22  C15 UNL     1     151.813 161.428 161.009  0.00  0.00    +0.120 C 
BRANCH  22  23
ATOM     23  C16 UNL     1     152.382 160.304 160.126  0.00  0.00    +0.103 C 
BRANCH  23  24
ATOM     24  N4  UNL     1     151.337 159.575 159.370  0.00  0.00    -0.298 NA
ATOM     25  C17 UNL     1     151.220 160.075 157.977  0.00  0.00    +0.103 C 
ATOM     26  C18 UNL     1     150.175 159.288 157.149  0.00  0.00    +0.120 C 
ATOM     27  N5  UNL     1     150.489 157.841 157.133  0.00  0.00    -0.325 N 
ATOM     28  C19 UNL     1     150.651 157.302 158.499  0.00  0.00    +0.120 C 
ATOM     29  C20 UNL     1     151.667 158.126 159.328  0.00  0.00    +0.103 C 
BRANCH  27  30
ATOM     30  C21 UNL     1     151.284 157.373 156.079  0.00  0.00    +0.065 A 
ATOM     31  C22 UNL     1     151.714 158.281 155.091  0.00  0.00    +0.026 A 
ATOM     32  C23 UNL     1     152.497 157.887 153.998  0.00  0.00    +0.002 A 
ATOM     33  C24 UNL     1     152.869 156.557 153.852  0.00  0.00    +0.003 A 
ATOM     34  C25 UNL     1     152.447 155.627 154.794  0.00  0.00    +0.040 A 
ATOM     35  C26 UNL     1     151.663 156.030 155.879  0.00  0.00    +0.144 A 
ATOM     36  F1  UNL     1     151.304 155.070 156.746  0.00  0.00    -0.204 F 
ENDBRANCH  27  30
ENDBRANCH  23  24
ENDBRANCH  22  23
ENDBRANCH   3  22
TORSDOF 7
ENDMDL
MODEL 4
REMARK VINA RESULT:    -5.678      8.967     12.179
REMARK INTER + INTRA:          -8.196
REMARK INTER:                  -7.715
REMARK INTRA:                  -0.481
REMARK UNBOUND:                -0.194
REMARK  Name = /home/vital/Documents/PhD_2021/Malaria_codes/data/pdb_ligands_mmv/ligand_135.pdb
REMARK  9 active torsions:
REMARK  status: ('A' for Active; 'I' for Inactive)
REMARK    1  A    between atoms: C1_1  and  O1_2
REMARK    2  A    between atoms: O1_2  and  C2_3
REMARK    3  A    between atoms: C6_7  and  C8_9
REMARK    4  A    between atoms: N2_11  and  C9_12
REMARK    5  A    between atoms: C11_15  and  C14_18
REMARK    6  A    between atoms: N3_20  and  C15_21
REMARK    7  A    between atoms: C15_21  and  C16_22
REMARK    8  A    between atoms: C16_22  and  N4_23
REMARK    9  A    between atoms: N5_26  and  C21_29
REMARK                            x       y       z     vdW  Elec       q    Type
REMARK                         _______ _______ _______ _____ _____    ______ ____
ROOT
ATOM      1  C14 UNL     1     146.961 151.764 162.622  0.00  0.00    +0.251 C 
ATOM      2  O2  UNL     1     146.020 151.867 161.838  0.00  0.00    -0.270 OA
ATOM      3  N3  UNL     1     147.119 150.649 163.412  0.00  0.00    -0.310 N 
ATOM      4  H12 UNL     1     147.803 150.679 164.160  0.00  0.00    +0.149 HD
ENDROOT
BRANCH   1  11
ATOM      5  C8  UNL     1     150.287 155.493 161.877  0.00  0.00    +0.101 A 
ATOM      6  N1  UNL     1     150.926 156.032 162.949  0.00  0.00    -0.170 NA
ATOM      7  N2  UNL     1     150.476 155.320 164.021  0.00  0.00    -0.260 N 
ATOM      8  C9  UNL     1     150.982 155.618 165.335  0.00  0.00    +0.173 C 
ATOM      9  C10 UNL     1     149.570 154.386 163.663  0.00  0.00    +0.107 A 
ATOM     10  S1  UNL     1     148.621 153.218 164.359  0.00  0.00    -0.064 S 
ATOM     11  C11 UNL     1     147.964 152.807 162.789  0.00  0.00    +0.076 A 
ATOM     12  C12 UNL     1     148.515 153.602 161.778  0.00  0.00    +0.033 A 
ATOM     13  C13 UNL     1     149.439 154.482 162.337  0.00  0.00    +0.036 A 
BRANCH   5  18
ATOM     14  C2  UNL     1     150.467 157.833 158.928  0.00  0.00    +0.121 A 
ATOM     15  C3  UNL     1     150.970 156.981 157.943  0.00  0.00    +0.045 A 
ATOM     16  C4  UNL     1     151.261 155.650 158.237  0.00  0.00    +0.004 A 
ATOM     17  C5  UNL     1     151.045 155.158 159.525  0.00  0.00    +0.010 A 
ATOM     18  C6  UNL     1     150.526 155.993 160.523  0.00  0.00    +0.006 A 
ATOM     19  C7  UNL     1     150.249 157.336 160.216  0.00  0.00    +0.055 A 
BRANCH  14  21
ATOM     20  C1  UNL     1     150.259 159.346 157.106  0.00  0.00    +0.277 C 
ATOM     21  O1  UNL     1     150.234 159.115 158.510  0.00  0.00    -0.495 OA
ENDBRANCH  14  21
ENDBRANCH   5  18
ENDBRANCH   1  11
BRANCH   3  22
ATOM     22  C15 UNL     1     146.103 149.622 163.515  0.00  0.00    +0.120 C 
BRANCH  22  23
ATOM     23  C16 UNL     1     146.726 148.265 163.878  0.00  0.00    +0.103 C 
BRANCH  23  24
ATOM     24  N4  UNL     1     145.824 147.407 164.681  0.00  0.00    -0.298 NA
ATOM     25  C17 UNL     1     144.862 146.668 163.824  0.00  0.00    +0.103 C 
ATOM     26  C18 UNL     1     143.948 145.721 164.639  0.00  0.00    +0.120 C 
ATOM     27  N5  UNL     1     144.748 144.759 165.432  0.00  0.00    -0.325 N 
ATOM     28  C19 UNL     1     145.746 145.447 166.277  0.00  0.00    +0.120 C 
ATOM     29  C20 UNL     1     146.624 146.423 165.456  0.00  0.00    +0.103 C 
BRANCH  27  30
ATOM     30  C21 UNL     1     145.042 143.529 164.833  0.00  0.00    +0.065 A 
ATOM     31  C22 UNL     1     145.445 143.504 163.482  0.00  0.00    +0.026 A 
ATOM     32  C23 UNL     1     145.741 142.312 162.808  0.00  0.00    +0.002 A 
ATOM     33  C24 UNL     1     145.630 141.094 163.466  0.00  0.00    +0.003 A 
ATOM     34  C25 UNL     1     145.215 141.074 164.792  0.00  0.00    +0.040 A 
ATOM     35  C26 UNL     1     144.919 142.270 165.455  0.00  0.00    +0.144 A 
ATOM     36  F1  UNL     1     144.531 142.163 166.736  0.00  0.00    -0.204 F 
ENDBRANCH  27  30
ENDBRANCH  23  24
ENDBRANCH  22  23
ENDBRANCH   3  22
TORSDOF 7
ENDMDL
MODEL 5
REMARK VINA RESULT:    -5.607      1.676      2.267
REMARK INTER + INTRA:          -8.096
REMARK INTER:                  -7.888
REMARK INTRA:                  -0.208
REMARK UNBOUND:                -0.194
REMARK  Name = /home/vital/Documents/PhD_2021/Malaria_codes/data/pdb_ligands_mmv/ligand_135.pdb
REMARK  9 active torsions:
REMARK  status: ('A' for Active; 'I' for Inactive)
REMARK    1  A    between atoms: C1_1  and  O1_2
REMARK    2  A    between atoms: O1_2  and  C2_3
REMARK    3  A    between atoms: C6_7  and  C8_9
REMARK    4  A    between atoms: N2_11  and  C9_12
REMARK    5  A    between atoms: C11_15  and  C14_18
REMARK    6  A    between atoms: N3_20  and  C15_21
REMARK    7  A    between atoms: C15_21  and  C16_22
REMARK    8  A    between atoms: C16_22  and  N4_23
REMARK    9  A    between atoms: N5_26  and  C21_29
REMARK                            x       y       z     vdW  Elec       q    Type
REMARK                         _______ _______ _______ _____ _____    ______ ____
ROOT
ATOM      1  C14 UNL     1     149.901 155.039 161.159  0.00  0.00    +0.251 C 
ATOM      2  O2  UNL     1     148.828 154.478 160.945  0.00  0.00    -0.270 OA
ATOM      3  N3  UNL     1     150.636 154.775 162.290  0.00  0.00    -0.310 N 
ATOM      4  H12 UNL     1     151.420 155.380 162.510  0.00  0.00    +0.149 HD
ENDROOT
BRANCH   1  11
ATOM      5  C8  UNL     1     151.793 157.455 157.145  0.00  0.00    +0.101 A 
ATOM      6  N1  UNL     1     152.112 158.772 157.257  0.00  0.00    -0.170 NA
ATOM      7  N2  UNL     1     151.843 159.090 158.556  0.00  0.00    -0.260 N 
ATOM      8  C9  UNL     1     152.099 160.425 159.028  0.00  0.00    +0.173 C 
ATOM      9  C10 UNL     1     151.348 158.039 159.241  0.00  0.00    +0.107 A 
ATOM     10  S1  UNL     1     150.802 157.670 160.763  0.00  0.00    -0.064 S 
ATOM     11  C11 UNL     1     150.465 156.029 160.251  0.00  0.00    +0.076 A 
ATOM     12  C12 UNL     1     150.795 155.833 158.906  0.00  0.00    +0.033 A 
ATOM     13  C13 UNL     1     151.308 157.018 158.381  0.00  0.00    +0.036 A 
BRANCH   5  18
ATOM     14  C2  UNL     1     153.073 156.536 153.722  0.00  0.00    +0.121 A 
ATOM     15  C3  UNL     1     152.312 155.398 153.450  0.00  0.00    +0.045 A 
ATOM     16  C4  UNL     1     151.391 154.921 154.382  0.00  0.00    +0.004 A 
ATOM     17  C5  UNL     1     151.221 155.587 155.596  0.00  0.00    +0.010 A 
ATOM     18  C6  UNL     1     151.963 156.740 155.881  0.00  0.00    +0.006 A 
ATOM     19  C7  UNL     1     152.896 157.203 154.937  0.00  0.00    +0.055 A 
BRANCH  14  21
ATOM     20  C1  UNL     1     154.359 155.859 151.841  0.00  0.00    +0.277 C 
ATOM     21  O1  UNL     1     153.944 156.891 152.729  0.00  0.00    -0.495 OA
ENDBRANCH  14  21
ENDBRANCH   5  18
ENDBRANCH   1  11
BRANCH   3  22
ATOM     22  C15 UNL     1     150.118 153.978 163.383  0.00  0.00    +0.120 C 
BRANCH  22  23
ATOM     23  C16 UNL     1     149.889 154.841 164.634  0.00  0.00    +0.103 C 
BRANCH  23  24
ATOM     24  N4  UNL     1     151.132 155.463 165.146  0.00  0.00    -0.298 NA
ATOM     25  C17 UNL     1     151.199 156.909 164.813  0.00  0.00    +0.103 C 
ATOM     26  C18 UNL     1     152.463 157.593 165.390  0.00  0.00    +0.120 C 
ATOM     27  N5  UNL     1     152.541 157.417 166.858  0.00  0.00    -0.325 N 
ATOM     28  C19 UNL     1     152.443 155.994 167.243  0.00  0.00    +0.120 C 
ATOM     29  C20 UNL     1     151.198 155.313 166.623  0.00  0.00    +0.103 C 
BRANCH  27  30
ATOM     30  C21 UNL     1     151.963 158.415 167.652  0.00  0.00    +0.065 A 
ATOM     31  C22 UNL     1     152.802 159.274 168.390  0.00  0.00    +0.026 A 
ATOM     32  C23 UNL     1     152.299 160.285 169.219  0.00  0.00    +0.002 A 
ATOM     33  C24 UNL     1     150.927 160.463 169.346  0.00  0.00    +0.003 A 
ATOM     34  C25 UNL     1     150.066 159.623 168.651  0.00  0.00    +0.040 A 
ATOM     35  C26 UNL     1     150.579 158.614 167.829  0.00  0.00    +0.144 A 
ATOM     36  F1  UNL     1     149.679 157.851 167.189  0.00  0.00    -0.204 F 
ENDBRANCH  27  30
ENDBRANCH  23  24
ENDBRANCH  22  23
ENDBRANCH   3  22
TORSDOF 7
ENDMDL
MODEL 6
REMARK VINA RESULT:    -5.499      3.338      6.142
REMARK INTER + INTRA:          -7.943
REMARK INTER:                  -7.315
REMARK INTRA:                  -0.628
REMARK UNBOUND:                -0.194
REMARK  Name = /home/vital/Documents/PhD_2021/Malaria_codes/data/pdb_ligands_mmv/ligand_135.pdb
REMARK  9 active torsions:
REMARK  status: ('A' for Active; 'I' for Inactive)
REMARK    1  A    between atoms: C1_1  and  O1_2
REMARK    2  A    between atoms: O1_2  and  C2_3
REMARK    3  A    between atoms: C6_7  and  C8_9
REMARK    4  A    between atoms: N2_11  and  C9_12
REMARK    5  A    between atoms: C11_15  and  C14_18
REMARK    6  A    between atoms: N3_20  and  C15_21
REMARK    7  A    between atoms: C15_21  and  C16_22
REMARK    8  A    between atoms: C16_22  and  N4_23
REMARK    9  A    between atoms: N5_26  and  C21_29
REMARK                            x       y       z     vdW  Elec       q    Type
REMARK                         _______ _______ _______ _____ _____    ______ ____
ROOT
ATOM      1  C14 UNL     1     151.568 160.075 161.779  0.00  0.00    +0.251 C 
ATOM      2  O2  UNL     1     152.537 160.780 161.507  0.00  0.00    -0.270 OA
ATOM      3  N3  UNL     1     150.676 160.429 162.764  0.00  0.00    -0.310 N 
ATOM      4  H12 UNL     1     149.996 159.743 163.071  0.00  0.00    +0.149 HD
ENDROOT
BRANCH   1  11
ATOM      5  C8  UNL     1     150.122 155.375 160.617  0.00  0.00    +0.101 A 
ATOM      6  N1  UNL     1     150.292 154.927 159.345  0.00  0.00    -0.170 NA
ATOM      7  N2  UNL     1     150.898 155.957 158.688  0.00  0.00    -0.260 N 
ATOM      8  C9  UNL     1     151.252 155.804 157.301  0.00  0.00    +0.173 C 
ATOM      9  C10 UNL     1     151.085 157.027 159.488  0.00  0.00    +0.107 A 
ATOM     10  S1  UNL     1     151.702 158.564 159.415  0.00  0.00    -0.064 S 
ATOM     11  C11 UNL     1     151.295 158.815 161.099  0.00  0.00    +0.076 A 
ATOM     12  C12 UNL     1     150.691 157.682 161.656  0.00  0.00    +0.033 A 
ATOM     13  C13 UNL     1     150.607 156.684 160.688  0.00  0.00    +0.036 A 
BRANCH   5  18
ATOM     14  C2  UNL     1     149.594 153.528 163.860  0.00  0.00    +0.121 A 
ATOM     15  C3  UNL     1     148.360 152.920 163.622  0.00  0.00    +0.045 A 
ATOM     16  C4  UNL     1     147.693 153.118 162.413  0.00  0.00    +0.004 A 
ATOM     17  C5  UNL     1     148.263 153.924 161.428  0.00  0.00    +0.010 A 
ATOM     18  C6  UNL     1     149.507 154.531 161.641  0.00  0.00    +0.006 A 
ATOM     19  C7  UNL     1     150.163 154.332 162.869  0.00  0.00    +0.055 A 
BRANCH  14  21
ATOM     20  C1  UNL     1     150.782 152.001 165.242  0.00  0.00    +0.277 C 
ATOM     21  O1  UNL     1     150.136 153.260 165.087  0.00  0.00    -0.495 OA
ENDBRANCH  14  21
ENDBRANCH   5  18
ENDBRANCH   1  11
BRANCH   3  22
ATOM     22  C15 UNL     1     150.918 161.537 163.665  0.00  0.00    +0.120 C 
BRANCH  22  23
ATOM     23  C16 UNL     1     149.595 162.109 164.201  0.00  0.00    +0.103 C 
BRANCH  23  24
ATOM     24  N4  UNL     1     149.561 162.206 165.679  0.00  0.00    -0.298 NA
ATOM     25  C17 UNL     1     149.915 160.916 166.322  0.00  0.00    +0.103 C 
ATOM     26  C18 UNL     1     149.944 161.010 167.868  0.00  0.00    +0.120 C 
ATOM     27  N5  UNL     1     150.881 162.063 168.319  0.00  0.00    -0.325 N 
ATOM     28  C19 UNL     1     150.591 163.363 167.679  0.00  0.00    +0.120 C 
ATOM     29  C20 UNL     1     150.523 163.244 166.137  0.00  0.00    +0.103 C 
BRANCH  27  30
ATOM     30  C21 UNL     1     152.199 161.673 168.584  0.00  0.00    +0.065 A 
ATOM     31  C22 UNL     1     153.203 161.968 167.638  0.00  0.00    +0.026 A 
ATOM     32  C23 UNL     1     154.541 161.596 167.822  0.00  0.00    +0.002 A 
ATOM     33  C24 UNL     1     154.920 160.901 168.963  0.00  0.00    +0.003 A 
ATOM     34  C25 UNL     1     153.956 160.572 169.909  0.00  0.00    +0.040 A 
ATOM     35  C26 UNL     1     152.623 160.946 169.714  0.00  0.00    +0.144 A 
ATOM     36  F1  UNL     1     151.757 160.595 170.679  0.00  0.00    -0.204 F 
ENDBRANCH  27  30
ENDBRANCH  23  24
ENDBRANCH  22  23
ENDBRANCH   3  22
TORSDOF 7
ENDMDL
MODEL 7
REMARK VINA RESULT:    -5.437      2.227      3.218
REMARK INTER + INTRA:          -7.855
REMARK INTER:                  -7.333
REMARK INTRA:                  -0.522
REMARK UNBOUND:                -0.194
REMARK  Name = /home/vital/Documents/PhD_2021/Malaria_codes/data/pdb_ligands_mmv/ligand_135.pdb
REMARK  9 active torsions:
REMARK  status: ('A' for Active; 'I' for Inactive)
REMARK    1  A    between atoms: C1_1  and  O1_2
REMARK    2  A    between atoms: O1_2  and  C2_3
REMARK    3  A    between atoms: C6_7  and  C8_9
REMARK    4  A    between atoms: N2_11  and  C9_12
REMARK    5  A    between atoms: C11_15  and  C14_18
REMARK    6  A    between atoms: N3_20  and  C15_21
REMARK    7  A    between atoms: C15_21  and  C16_22
REMARK    8  A    between atoms: C16_22  and  N4_23
REMARK    9  A    between atoms: N5_26  and  C21_29
REMARK                            x       y       z     vdW  Elec       q    Type
REMARK                         _______ _______ _______ _____ _____    ______ ____
ROOT
ATOM      1  C14 UNL     1     151.151 156.650 163.110  0.00  0.00    +0.251 C 
ATOM      2  O2  UNL     1     150.780 155.480 163.037  0.00  0.00    -0.270 OA
ATOM      3  N3  UNL     1     151.422 157.243 164.321  0.00  0.00    -0.310 N 
ATOM      4  H12 UNL     1     151.556 158.248 164.349  0.00  0.00    +0.149 HD
ENDROOT
BRANCH   1  11
ATOM      5  C8  UNL     1     151.584 158.426 158.400  0.00  0.00    +0.101 A 
ATOM      6  N1  UNL     1     151.732 159.764 158.210  0.00  0.00    -0.170 NA
ATOM      7  N2  UNL     1     151.764 160.296 159.465  0.00  0.00    -0.260 N 
ATOM      8  C9  UNL     1     151.943 161.715 159.631  0.00  0.00    +0.173 C 
ATOM      9  C10 UNL     1     151.617 159.352 160.418  0.00  0.00    +0.107 A 
ATOM     10  S1  UNL     1     151.539 159.229 162.069  0.00  0.00    -0.064 S 
ATOM     11  C11 UNL     1     151.317 157.498 161.937  0.00  0.00    +0.076 A 
ATOM     12  C12 UNL     1     151.313 157.082 160.601  0.00  0.00    +0.033 A 
ATOM     13  C13 UNL     1     151.501 158.187 159.774  0.00  0.00    +0.036 A 
BRANCH   5  18
ATOM     14  C2  UNL     1     152.459 156.694 155.169  0.00  0.00    +0.121 A 
ATOM     15  C3  UNL     1     151.431 155.753 155.085  0.00  0.00    +0.045 A 
ATOM     16  C4  UNL     1     150.459 155.673 156.081  0.00  0.00    +0.004 A 
ATOM     17  C5  UNL     1     150.507 156.542 157.171  0.00  0.00    +0.010 A 
ATOM     18  C6  UNL     1     151.521 157.503 157.267  0.00  0.00    +0.006 A 
ATOM     19  C7  UNL     1     152.502 157.564 156.261  0.00  0.00    +0.055 A 
BRANCH  14  21
ATOM     20  C1  UNL     1     153.048 157.466 152.999  0.00  0.00    +0.277 C 
ATOM     21  O1  UNL     1     153.351 156.660 154.132  0.00  0.00    -0.495 OA
ENDBRANCH  14  21
ENDBRANCH   5  18
ENDBRANCH   1  11
BRANCH   3  22
ATOM     22  C15 UNL     1     151.110 156.604 165.583  0.00  0.00    +0.120 C 
BRANCH  22  23
ATOM     23  C16 UNL     1     152.114 157.017 166.672  0.00  0.00    +0.103 C 
BRANCH  23  24
ATOM     24  N4  UNL     1     151.574 158.033 167.605  0.00  0.00    -0.298 NA
ATOM     25  C17 UNL     1     152.222 159.355 167.409  0.00  0.00    +0.103 C 
ATOM     26  C18 UNL     1     151.631 160.448 168.334  0.00  0.00    +0.120 C 
ATOM     27  N5  UNL     1     150.169 160.577 168.139  0.00  0.00    -0.325 N 
ATOM     28  C19 UNL     1     149.481 159.278 168.288  0.00  0.00    +0.120 C 
ATOM     29  C20 UNL     1     150.111 158.185 167.390  0.00  0.00    +0.103 C 
BRANCH  27  30
ATOM     30  C21 UNL     1     149.732 161.514 167.195  0.00  0.00    +0.065 A 
ATOM     31  C22 UNL     1     150.672 162.088 166.315  0.00  0.00    +0.026 A 
ATOM     32  C23 UNL     1     150.316 163.044 165.354  0.00  0.00    +0.002 A 
ATOM     33  C24 UNL     1     148.998 163.469 165.250  0.00  0.00    +0.003 A 
ATOM     34  C25 UNL     1     148.045 162.943 166.114  0.00  0.00    +0.040 A 
ATOM     35  C26 UNL     1     148.412 161.992 167.071  0.00  0.00    +0.144 A 
ATOM     36  F1  UNL     1     147.429 161.531 167.862  0.00  0.00    -0.204 F 
ENDBRANCH  27  30
ENDBRANCH  23  24
ENDBRANCH  22  23
ENDBRANCH   3  22
TORSDOF 7
ENDMDL
MODEL 8
REMARK VINA RESULT:    -5.341      2.780      4.611
REMARK INTER + INTRA:          -7.721
REMARK INTER:                  -7.088
REMARK INTRA:                  -0.632
REMARK UNBOUND:                -0.194
REMARK  Name = /home/vital/Documents/PhD_2021/Malaria_codes/data/pdb_ligands_mmv/ligand_135.pdb
REMARK  9 active torsions:
REMARK  status: ('A' for Active; 'I' for Inactive)
REMARK    1  A    between atoms: C1_1  and  O1_2
REMARK    2  A    between atoms: O1_2  and  C2_3
REMARK    3  A    between atoms: C6_7  and  C8_9
REMARK    4  A    between atoms: N2_11  and  C9_12
REMARK    5  A    between atoms: C11_15  and  C14_18
REMARK    6  A    between atoms: N3_20  and  C15_21
REMARK    7  A    between atoms: C15_21  and  C16_22
REMARK    8  A    between atoms: C16_22  and  N4_23
REMARK    9  A    between atoms: N5_26  and  C21_29
REMARK                            x       y       z     vdW  Elec       q    Type
REMARK                         _______ _______ _______ _____ _____    ______ ____
ROOT
ATOM      1  C14 UNL     1     151.391 158.831 162.271  0.00  0.00    +0.251 C 
ATOM      2  O2  UNL     1     151.035 157.694 162.571  0.00  0.00    -0.270 OA
ATOM      3  N3  UNL     1     151.720 159.758 163.232  0.00  0.00    -0.310 N 
ATOM      4  H12 UNL     1     151.839 160.726 162.951  0.00  0.00    +0.149 HD
ENDROOT
BRANCH   1  11
ATOM      5  C8  UNL     1     151.649 159.109 157.232  0.00  0.00    +0.101 A 
ATOM      6  N1  UNL     1     151.680 160.332 156.639  0.00  0.00    -0.170 NA
ATOM      7  N2  UNL     1     151.671 161.224 157.671  0.00  0.00    -0.260 N 
ATOM      8  C9  UNL     1     151.726 162.635 157.391  0.00  0.00    +0.173 C 
ATOM      9  C10 UNL     1     151.610 160.608 158.870  0.00  0.00    +0.107 A 
ATOM     10  S1  UNL     1     151.550 160.991 160.482  0.00  0.00    -0.064 S 
ATOM     11  C11 UNL     1     151.478 159.290 160.890  0.00  0.00    +0.076 A 
ATOM     12  C12 UNL     1     151.505 158.486 159.746  0.00  0.00    +0.033 A 
ATOM     13  C13 UNL     1     151.593 159.297 158.616  0.00  0.00    +0.036 A 
BRANCH   5  18
ATOM     14  C2  UNL     1     152.691 156.525 154.694  0.00  0.00    +0.121 A 
ATOM     15  C3  UNL     1     151.717 155.546 154.896  0.00  0.00    +0.045 A 
ATOM     16  C4  UNL     1     150.728 155.718 155.864  0.00  0.00    +0.004 A 
ATOM     17  C5  UNL     1     150.704 156.880 156.635  0.00  0.00    +0.010 A 
ATOM     18  C6  UNL     1     151.663 157.882 156.438  0.00  0.00    +0.006 A 
ATOM     19  C7  UNL     1     152.661 157.690 155.467  0.00  0.00    +0.055 A 
BRANCH  14  21
ATOM     20  C1  UNL     1     153.581 157.032 152.549  0.00  0.00    +0.277 C 
ATOM     21  O1  UNL     1     153.607 156.228 153.723  0.00  0.00    -0.495 OA
ENDBRANCH  14  21
ENDBRANCH   5  18
ENDBRANCH   1  11
BRANCH   3  22
ATOM     22  C15 UNL     1     151.488 159.527 164.643  0.00  0.00    +0.120 C 
BRANCH  22  23
ATOM     23  C16 UNL     1     152.716 158.880 165.303  0.00  0.00    +0.103 C 
BRANCH  23  24
ATOM     24  N4  UNL     1     152.362 157.937 166.390  0.00  0.00    -0.298 NA
ATOM     25  C17 UNL     1     150.919 157.588 166.364  0.00  0.00    +0.103 C 
ATOM     26  C18 UNL     1     150.538 156.557 167.455  0.00  0.00    +0.120 C 
ATOM     27  N5  UNL     1     151.350 155.325 167.331  0.00  0.00    -0.325 N 
ATOM     28  C19 UNL     1     152.797 155.624 167.317  0.00  0.00    +0.120 C 
ATOM     29  C20 UNL     1     153.156 156.688 166.250  0.00  0.00    +0.103 C 
BRANCH  27  30
ATOM     30  C21 UNL     1     150.825 154.291 166.546  0.00  0.00    +0.065 A 
ATOM     31  C22 UNL     1     149.631 154.515 165.830  0.00  0.00    +0.026 A 
ATOM     32  C23 UNL     1     149.034 153.526 165.037  0.00  0.00    +0.002 A 
ATOM     33  C24 UNL     1     149.613 152.266 164.943  0.00  0.00    +0.003 A 
ATOM     34  C25 UNL     1     150.778 152.000 165.651  0.00  0.00    +0.040 A 
ATOM     35  C26 UNL     1     151.364 152.993 166.442  0.00  0.00    +0.144 A 
ATOM     36  F1  UNL     1     152.491 152.655 167.088  0.00  0.00    -0.204 F 
ENDBRANCH  27  30
ENDBRANCH  23  24
ENDBRANCH  22  23
ENDBRANCH   3  22
TORSDOF 7
ENDMDL
MODEL 9
REMARK VINA RESULT:    -5.322      1.348      1.612
REMARK INTER + INTRA:          -7.693
REMARK INTER:                  -7.217
REMARK INTRA:                  -0.476
REMARK UNBOUND:                -0.194
REMARK  Name = /home/vital/Documents/PhD_2021/Malaria_codes/data/pdb_ligands_mmv/ligand_135.pdb
REMARK  9 active torsions:
REMARK  status: ('A' for Active; 'I' for Inactive)
REMARK    1  A    between atoms: C1_1  and  O1_2
REMARK    2  A    between atoms: O1_2  and  C2_3
REMARK    3  A    between atoms: C6_7  and  C8_9
REMARK    4  A    between atoms: N2_11  and  C9_12
REMARK    5  A    between atoms: C11_15  and  C14_18
REMARK    6  A    between atoms: N3_20  and  C15_21
REMARK    7  A    between atoms: C15_21  and  C16_22
REMARK    8  A    between atoms: C16_22  and  N4_23
REMARK    9  A    between atoms: N5_26  and  C21_29
REMARK                            x       y       z     vdW  Elec       q    Type
REMARK                         _______ _______ _______ _____ _____    ______ ____
ROOT
ATOM      1  C14 UNL     1     150.478 156.095 162.674  0.00  0.00    +0.251 C 
ATOM      2  O2  UNL     1     149.512 155.338 162.617  0.00  0.00    -0.270 OA
ATOM      3  N3  UNL     1     151.272 156.163 163.795  0.00  0.00    -0.310 N 
ATOM      4  H12 UNL     1     151.947 156.917 163.866  0.00  0.00    +0.149 HD
ENDROOT
BRANCH   1  11
ATOM      5  C8  UNL     1     151.597 158.061 158.156  0.00  0.00    +0.101 A 
ATOM      6  N1  UNL     1     151.878 159.388 158.065  0.00  0.00    -0.170 NA
ATOM      7  N2  UNL     1     151.811 159.851 159.346  0.00  0.00    -0.260 N 
ATOM      8  C9  UNL     1     152.088 161.237 159.616  0.00  0.00    +0.173 C 
ATOM      9  C10 UNL     1     151.476 158.877 160.218  0.00  0.00    +0.107 A 
ATOM     10  S1  UNL     1     151.199 158.679 161.841  0.00  0.00    -0.064 S 
ATOM     11  C11 UNL     1     150.849 156.983 161.580  0.00  0.00    +0.076 A 
ATOM     12  C12 UNL     1     150.963 156.637 160.229  0.00  0.00    +0.033 A 
ATOM     13  C13 UNL     1     151.336 157.762 159.497  0.00  0.00    +0.036 A 
BRANCH   5  18
ATOM     14  C2  UNL     1     152.621 156.519 154.874  0.00  0.00    +0.121 A 
ATOM     15  C3  UNL     1     151.598 155.588 154.687  0.00  0.00    +0.045 A 
ATOM     16  C4  UNL     1     150.581 155.452 155.631  0.00  0.00    +0.004 A 
ATOM     17  C5  UNL     1     150.578 156.255 156.771  0.00  0.00    +0.010 A 
ATOM     18  C6  UNL     1     151.587 157.206 156.970  0.00  0.00    +0.006 A 
ATOM     19  C7  UNL     1     152.613 157.324 156.016  0.00  0.00    +0.055 A 
BRANCH  14  21
ATOM     20  C1  UNL     1     153.265 157.344 152.739  0.00  0.00    +0.277 C 
ATOM     21  O1  UNL     1     153.560 156.544 153.879  0.00  0.00    -0.495 OA
ENDBRANCH  14  21
ENDBRANCH   5  18
ENDBRANCH   1  11
BRANCH   3  22
ATOM     22  C15 UNL     1     150.919 155.503 165.035  0.00  0.00    +0.120 C 
BRANCH  22  23
ATOM     23  C16 UNL     1     151.478 156.269 166.246  0.00  0.00    +0.103 C 
BRANCH  23  24
ATOM     24  N4  UNL     1     151.105 157.703 166.248  0.00  0.00    -0.298 NA
ATOM     25  C17 UNL     1     150.339 158.068 167.466  0.00  0.00    +0.103 C 
ATOM     26  C18 UNL     1     149.989 159.576 167.519  0.00  0.00    +0.120 C 
ATOM     27  N5  UNL     1     151.210 160.409 167.430  0.00  0.00    -0.325 N 
ATOM     28  C19 UNL     1     152.026 160.058 166.249  0.00  0.00    +0.120 C 
ATOM     29  C20 UNL     1     152.330 158.541 166.188  0.00  0.00    +0.103 C 
BRANCH  27  30
ATOM     30  C21 UNL     1     151.817 160.780 168.636  0.00  0.00    +0.065 A 
ATOM     31  C22 UNL     1     151.058 160.745 169.823  0.00  0.00    +0.026 A 
ATOM     32  C23 UNL     1     151.589 161.117 171.066  0.00  0.00    +0.002 A 
ATOM     33  C24 UNL     1     152.906 161.551 171.158  0.00  0.00    +0.003 A 
ATOM     34  C25 UNL     1     153.680 161.620 170.007  0.00  0.00    +0.040 A 
ATOM     35  C26 UNL     1     153.139 161.249 168.771  0.00  0.00    +0.144 A 
ATOM     36  F1  UNL     1     153.957 161.340 167.710  0.00  0.00    -0.204 F 
ENDBRANCH  27  30
ENDBRANCH  23  24
ENDBRANCH  22  23
ENDBRANCH   3  22
TORSDOF 7
ENDMDL
