MODEL 1
REMARK VINA RESULT:    -6.067      0.000      0.000
REMARK INTER + INTRA:          -9.961
REMARK INTER:                  -8.373
REMARK INTRA:                  -1.589
REMARK UNBOUND:                -1.589
REMARK  Name = /home/vital/Documents/PhD_2021/Malaria_codes/data/pdb_ligands_mmv/ligand_312.pdb
REMARK  8 active torsions:
REMARK  status: ('A' for Active; 'I' for Inactive)
REMARK    1  A    between atoms: C1_1  and  O1_2
REMARK    2  A    between atoms: O1_2  and  C2_3
REMARK    3  A    between atoms: C5_6  and  C6_7
REMARK    4  A    between atoms: C6_7  and  N1_8
REMARK    5  A    between atoms: C10_12  and  C12_14
REMARK    6  A    between atoms: C12_14  and  C13_16
REMARK    7  A    between atoms: C16_19  and  C19_22
REMARK    8  A    between atoms: C20_26  and  O3_27
REMARK                            x       y       z     vdW  Elec       q    Type
REMARK                         _______ _______ _______ _____ _____    ______ ____
ROOT
ATOM      1  N1  UNL     1     152.605 157.676 155.997  0.00  0.00    -0.297 NA
ATOM      2  C7  UNL     1     152.483 156.336 156.587  0.00  0.00    +0.085 C 
ATOM      3  C8  UNL     1     151.446 155.439 155.902  0.00  0.00    +0.016 C 
ATOM      4  C9  UNL     1     151.381 155.638 154.385  0.00  0.00    +0.014 C 
ATOM      5  C10 UNL     1     152.658 156.293 153.857  0.00  0.00    +0.074 C 
ATOM      6  C11 UNL     1     153.019 157.599 154.583  0.00  0.00    +0.096 C 
ENDROOT
BRANCH   5   7
ATOM      7  C12 UNL     1     152.713 156.476 152.343  0.00  0.00    +0.167 C 
ATOM      8  O2  UNL     1     152.016 157.332 151.794  0.00  0.00    -0.292 OA
BRANCH   7   9
ATOM      9  C13 UNL     1     153.591 155.637 151.476  0.00  0.00    +0.018 A 
ATOM     10  C14 UNL     1     153.178 155.118 150.246  0.00  0.00    +0.012 A 
ATOM     11  C15 UNL     1     154.059 154.351 149.475  0.00  0.00    +0.013 A 
ATOM     12  C16 UNL     1     155.368 154.104 149.913  0.00  0.00    +0.055 A 
ATOM     13  C17 UNL     1     155.780 154.637 151.143  0.00  0.00    +0.013 A 
ATOM     14  C18 UNL     1     154.901 155.403 151.913  0.00  0.00    +0.012 A 
BRANCH  12  15
ATOM     15  C19 UNL     1     156.318 153.262 149.094  0.00  0.00    +0.417 C 
ATOM     16  F1  UNL     1     157.510 153.036 149.714  0.00  0.00    -0.166 F 
ATOM     17  F2  UNL     1     155.815 152.033 148.797  0.00  0.00    -0.166 F 
ATOM     18  F3  UNL     1     156.622 153.842 147.900  0.00  0.00    -0.166 F 
ENDBRANCH  12  15
ENDBRANCH   7   9
ENDBRANCH   5   7
BRANCH   1  19
ATOM     19  C6  UNL     1     151.397 158.506 156.172  0.00  0.00    +0.123 C 
BRANCH  19  23
ATOM     20  C2  UNL     1     150.710 159.782 160.261  0.00  0.00    +0.124 A 
ATOM     21  C3  UNL     1     149.696 159.172 159.521  0.00  0.00    +0.046 A 
ATOM     22  C4  UNL     1     149.921 158.766 158.204  0.00  0.00    +0.012 A 
ATOM     23  C5  UNL     1     151.169 158.970 157.596  0.00  0.00    +0.008 A 
ATOM     24  C20 UNL     1     152.181 159.574 158.351  0.00  0.00    +0.125 A 
ATOM     25  C21 UNL     1     151.960 159.981 159.672  0.00  0.00    +0.091 A 
BRANCH  20  27
ATOM     26  C1  UNL     1     150.898 161.339 162.051  0.00  0.00    +0.277 C 
ATOM     27  O1  UNL     1     150.354 160.131 161.535  0.00  0.00    -0.495 OA
ENDBRANCH  20  27
BRANCH  24  28
ATOM     28  O3  UNL     1     153.410 159.766 157.779  0.00  0.00    -0.506 OA
ATOM     29  H21 UNL     1     153.768 160.616 158.083  0.00  0.00    +0.292 HD
ENDBRANCH  24  28
ENDBRANCH  19  23
ENDBRANCH   1  19
TORSDOF 7
ENDMDL
MODEL 2
REMARK VINA RESULT:    -5.424      6.158     10.739
REMARK INTER + INTRA:          -9.074
REMARK INTER:                  -7.767
REMARK INTRA:                  -1.307
REMARK UNBOUND:                -1.589
REMARK  Name = /home/vital/Documents/PhD_2021/Malaria_codes/data/pdb_ligands_mmv/ligand_312.pdb
REMARK  8 active torsions:
REMARK  status: ('A' for Active; 'I' for Inactive)
REMARK    1  A    between atoms: C1_1  and  O1_2
REMARK    2  A    between atoms: O1_2  and  C2_3
REMARK    3  A    between atoms: C5_6  and  C6_7
REMARK    4  A    between atoms: C6_7  and  N1_8
REMARK    5  A    between atoms: C10_12  and  C12_14
REMARK    6  A    between atoms: C12_14  and  C13_16
REMARK    7  A    between atoms: C16_19  and  C19_22
REMARK    8  A    between atoms: C20_26  and  O3_27
REMARK                            x       y       z     vdW  Elec       q    Type
REMARK                         _______ _______ _______ _____ _____    ______ ____
ROOT
ATOM      1  N1  UNL     1     150.803 156.763 155.751  0.00  0.00    -0.297 NA
ATOM      2  C7  UNL     1     150.130 155.937 156.762  0.00  0.00    +0.085 C 
ATOM      3  C8  UNL     1     150.810 155.946 158.136  0.00  0.00    +0.016 C 
ATOM      4  C9  UNL     1     151.409 157.306 158.505  0.00  0.00    +0.014 C 
ATOM      5  C10 UNL     1     150.784 158.430 157.679  0.00  0.00    +0.074 C 
ATOM      6  C11 UNL     1     150.846 158.179 156.163  0.00  0.00    +0.096 C 
ENDROOT
BRANCH   5   7
ATOM      7  C12 UNL     1     151.275 159.834 158.020  0.00  0.00    +0.167 C 
ATOM      8  O2  UNL     1     151.739 160.562 157.141  0.00  0.00    -0.292 OA
BRANCH   7   9
ATOM      9  C13 UNL     1     151.222 160.375 159.410  0.00  0.00    +0.018 A 
ATOM     10  C14 UNL     1     150.176 160.102 160.295  0.00  0.00    +0.012 A 
ATOM     11  C15 UNL     1     150.196 160.630 161.592  0.00  0.00    +0.013 A 
ATOM     12  C16 UNL     1     151.268 161.423 162.027  0.00  0.00    +0.055 A 
ATOM     13  C17 UNL     1     152.320 161.683 161.137  0.00  0.00    +0.013 A 
ATOM     14  C18 UNL     1     152.300 161.157 159.843  0.00  0.00    +0.012 A 
BRANCH  12  15
ATOM     15  C19 UNL     1     151.288 162.009 163.419  0.00  0.00    +0.417 C 
ATOM     16  F1  UNL     1     150.227 161.624 164.182  0.00  0.00    -0.166 F 
ATOM     17  F2  UNL     1     152.399 161.660 164.124  0.00  0.00    -0.166 F 
ATOM     18  F3  UNL     1     151.264 163.371 163.406  0.00  0.00    -0.166 F 
ENDBRANCH  12  15
ENDBRANCH   7   9
ENDBRANCH   5   7
BRANCH   1  19
ATOM     19  C6  UNL     1     152.140 156.259 155.377  0.00  0.00    +0.123 C 
BRANCH  19  23
ATOM     20  C2  UNL     1     152.671 155.487 151.142  0.00  0.00    +0.124 A 
ATOM     21  C3  UNL     1     153.505 156.379 151.817  0.00  0.00    +0.046 A 
ATOM     22  C4  UNL     1     153.328 156.627 153.180  0.00  0.00    +0.012 A 
ATOM     23  C5  UNL     1     152.303 155.989 153.895  0.00  0.00    +0.008 A 
ATOM     24  C20 UNL     1     151.479 155.090 153.209  0.00  0.00    +0.125 A 
ATOM     25  C21 UNL     1     151.654 154.838 151.844  0.00  0.00    +0.091 A 
BRANCH  20  27
ATOM     26  C1  UNL     1     154.016 154.459 149.469  0.00  0.00    +0.277 C 
ATOM     27  O1  UNL     1     152.954 155.339 149.811  0.00  0.00    -0.495 OA
ENDBRANCH  20  27
BRANCH  24  28
ATOM     28  O3  UNL     1     150.484 154.446 153.895  0.00  0.00    -0.506 OA
ATOM     29  H21 UNL     1     149.936 155.108 154.348  0.00  0.00    +0.292 HD
ENDBRANCH  24  28
ENDBRANCH  19  23
ENDBRANCH   1  19
TORSDOF 7
ENDMDL
MODEL 3
REMARK VINA RESULT:    -5.125      7.567     12.596
REMARK INTER + INTRA:          -8.661
REMARK INTER:                  -7.400
REMARK INTRA:                  -1.262
REMARK UNBOUND:                -1.589
REMARK  Name = /home/vital/Documents/PhD_2021/Malaria_codes/data/pdb_ligands_mmv/ligand_312.pdb
REMARK  8 active torsions:
REMARK  status: ('A' for Active; 'I' for Inactive)
REMARK    1  A    between atoms: C1_1  and  O1_2
REMARK    2  A    between atoms: O1_2  and  C2_3
REMARK    3  A    between atoms: C5_6  and  C6_7
REMARK    4  A    between atoms: C6_7  and  N1_8
REMARK    5  A    between atoms: C10_12  and  C12_14
REMARK    6  A    between atoms: C12_14  and  C13_16
REMARK    7  A    between atoms: C16_19  and  C19_22
REMARK    8  A    between atoms: C20_26  and  O3_27
REMARK                            x       y       z     vdW  Elec       q    Type
REMARK                         _______ _______ _______ _____ _____    ______ ____
ROOT
ATOM      1  N1  UNL     1     151.864 159.041 160.132  0.00  0.00    -0.297 NA
ATOM      2  C7  UNL     1     152.654 160.159 159.599  0.00  0.00    +0.085 C 
ATOM      3  C8  UNL     1     152.025 161.538 159.824  0.00  0.00    +0.016 C 
ATOM      4  C9  UNL     1     151.300 161.659 161.168  0.00  0.00    +0.014 C 
ATOM      5  C10 UNL     1     151.775 160.591 162.153  0.00  0.00    +0.074 C 
ATOM      6  C11 UNL     1     151.688 159.162 161.592  0.00  0.00    +0.096 C 
ENDROOT
BRANCH   5   7
ATOM      7  C12 UNL     1     151.152 160.670 163.544  0.00  0.00    +0.167 C 
ATOM      8  O2  UNL     1     149.950 160.452 163.701  0.00  0.00    -0.292 OA
BRANCH   7   9
ATOM      9  C13 UNL     1     151.957 161.016 164.752  0.00  0.00    +0.018 A 
ATOM     10  C14 UNL     1     151.439 161.732 165.835  0.00  0.00    +0.012 A 
ATOM     11  C15 UNL     1     152.245 162.010 166.945  0.00  0.00    +0.013 A 
ATOM     12  C16 UNL     1     153.574 161.562 166.997  0.00  0.00    +0.055 A 
ATOM     13  C17 UNL     1     154.083 160.833 165.913  0.00  0.00    +0.013 A 
ATOM     14  C18 UNL     1     153.279 160.556 164.804  0.00  0.00    +0.012 A 
BRANCH  12  15
ATOM     15  C19 UNL     1     154.454 161.872 168.185  0.00  0.00    +0.417 C 
ATOM     16  F1  UNL     1     154.069 162.987 168.866  0.00  0.00    -0.166 F 
ATOM     17  F2  UNL     1     154.479 160.866 169.101  0.00  0.00    -0.166 F 
ATOM     18  F3  UNL     1     155.751 162.084 167.825  0.00  0.00    -0.166 F 
ENDBRANCH  12  15
ENDBRANCH   7   9
ENDBRANCH   5   7
BRANCH   1  19
ATOM     19  C6  UNL     1     150.576 158.850 159.437  0.00  0.00    +0.123 C 
BRANCH  19  23
ATOM     20  C2  UNL     1     150.754 156.123 156.068  0.00  0.00    +0.124 A 
ATOM     21  C3  UNL     1     150.845 155.650 157.377  0.00  0.00    +0.046 A 
ATOM     22  C4  UNL     1     150.790 156.532 158.458  0.00  0.00    +0.012 A 
ATOM     23  C5  UNL     1     150.650 157.912 158.249  0.00  0.00    +0.008 A 
ATOM     24  C20 UNL     1     150.551 158.374 156.932  0.00  0.00    +0.125 A 
ATOM     25  C21 UNL     1     150.604 157.493 155.845  0.00  0.00    +0.091 A 
BRANCH  20  27
ATOM     26  C1  UNL     1     152.038 155.053 154.374  0.00  0.00    +0.277 C 
ATOM     27  O1  UNL     1     150.823 155.153 155.106  0.00  0.00    -0.495 OA
ENDBRANCH  20  27
BRANCH  24  28
ATOM     28  O3  UNL     1     150.398 159.716 156.709  0.00  0.00    -0.506 OA
ATOM     29  H21 UNL     1     149.848 160.090 157.417  0.00  0.00    +0.292 HD
ENDBRANCH  24  28
ENDBRANCH  19  23
ENDBRANCH   1  19
TORSDOF 7
ENDMDL
MODEL 4
REMARK VINA RESULT:    -5.090      4.192      6.955
REMARK INTER + INTRA:          -8.612
REMARK INTER:                  -7.319
REMARK INTRA:                  -1.293
REMARK UNBOUND:                -1.589
REMARK  Name = /home/vital/Documents/PhD_2021/Malaria_codes/data/pdb_ligands_mmv/ligand_312.pdb
REMARK  8 active torsions:
REMARK  status: ('A' for Active; 'I' for Inactive)
REMARK    1  A    between atoms: C1_1  and  O1_2
REMARK    2  A    between atoms: O1_2  and  C2_3
REMARK    3  A    between atoms: C5_6  and  C6_7
REMARK    4  A    between atoms: C6_7  and  N1_8
REMARK    5  A    between atoms: C10_12  and  C12_14
REMARK    6  A    between atoms: C12_14  and  C13_16
REMARK    7  A    between atoms: C16_19  and  C19_22
REMARK    8  A    between atoms: C20_26  and  O3_27
REMARK                            x       y       z     vdW  Elec       q    Type
REMARK                         _______ _______ _______ _____ _____    ______ ____
ROOT
ATOM      1  N1  UNL     1     152.413 158.604 162.178  0.00  0.00    -0.297 NA
ATOM      2  C7  UNL     1     152.578 157.189 162.538  0.00  0.00    +0.085 C 
ATOM      3  C8  UNL     1     151.322 156.336 162.328  0.00  0.00    +0.016 C 
ATOM      4  C9  UNL     1     150.515 156.743 161.092  0.00  0.00    +0.014 C 
ATOM      5  C10 UNL     1     151.370 157.543 160.109  0.00  0.00    +0.074 C 
ATOM      6  C11 UNL     1     152.067 158.753 160.752  0.00  0.00    +0.096 C 
ENDROOT
BRANCH   5   7
ATOM      7  C12 UNL     1     150.668 157.941 158.814  0.00  0.00    +0.167 C 
ATOM      8  O2  UNL     1     149.593 158.542 158.849  0.00  0.00    -0.292 OA
BRANCH   7   9
ATOM      9  C13 UNL     1     151.239 157.620 157.474  0.00  0.00    +0.018 A 
ATOM     10  C14 UNL     1     151.677 156.341 157.117  0.00  0.00    +0.012 A 
ATOM     11  C15 UNL     1     152.188 156.106 155.835  0.00  0.00    +0.013 A 
ATOM     12  C16 UNL     1     152.255 157.138 154.888  0.00  0.00    +0.055 A 
ATOM     13  C17 UNL     1     151.803 158.415 155.248  0.00  0.00    +0.013 A 
ATOM     14  C18 UNL     1     151.292 158.652 156.527  0.00  0.00    +0.012 A 
BRANCH  12  15
ATOM     15  C19 UNL     1     152.822 156.894 153.509  0.00  0.00    +0.417 C 
ATOM     16  F1  UNL     1     153.547 155.745 153.419  0.00  0.00    -0.166 F 
ATOM     17  F2  UNL     1     151.859 156.801 152.551  0.00  0.00    -0.166 F 
ATOM     18  F3  UNL     1     153.655 157.894 153.109  0.00  0.00    -0.166 F 
ENDBRANCH  12  15
ENDBRANCH   7   9
ENDBRANCH   5   7
BRANCH   1  19
ATOM     19  C6  UNL     1     151.467 159.325 163.052  0.00  0.00    +0.123 C 
BRANCH  19  23
ATOM     20  C2  UNL     1     153.093 160.407 166.925  0.00  0.00    +0.124 A 
ATOM     21  C3  UNL     1     153.587 160.985 165.755  0.00  0.00    +0.046 A 
ATOM     22  C4  UNL     1     153.062 160.631 164.510  0.00  0.00    +0.012 A 
ATOM     23  C5  UNL     1     152.033 159.682 164.411  0.00  0.00    +0.008 A 
ATOM     24  C20 UNL     1     151.541 159.116 165.593  0.00  0.00    +0.125 A 
ATOM     25  C21 UNL     1     152.062 159.470 166.842  0.00  0.00    +0.091 A 
BRANCH  20  27
ATOM     26  C1  UNL     1     154.840 161.675 167.928  0.00  0.00    +0.277 C 
ATOM     27  O1  UNL     1     153.697 160.842 168.073  0.00  0.00    -0.495 OA
ENDBRANCH  20  27
BRANCH  24  28
ATOM     28  O3  UNL     1     150.526 158.201 165.516  0.00  0.00    -0.506 OA
ATOM     29  H21 UNL     1     150.208 158.009 166.414  0.00  0.00    +0.292 HD
ENDBRANCH  24  28
ENDBRANCH  19  23
ENDBRANCH   1  19
TORSDOF 7
ENDMDL
MODEL 5
REMARK VINA RESULT:    -5.054      7.949     13.088
REMARK INTER + INTRA:          -8.563
REMARK INTER:                  -6.982
REMARK INTRA:                  -1.581
REMARK UNBOUND:                -1.589
REMARK  Name = /home/vital/Documents/PhD_2021/Malaria_codes/data/pdb_ligands_mmv/ligand_312.pdb
REMARK  8 active torsions:
REMARK  status: ('A' for Active; 'I' for Inactive)
REMARK    1  A    between atoms: C1_1  and  O1_2
REMARK    2  A    between atoms: O1_2  and  C2_3
REMARK    3  A    between atoms: C5_6  and  C6_7
REMARK    4  A    between atoms: C6_7  and  N1_8
REMARK    5  A    between atoms: C10_12  and  C12_14
REMARK    6  A    between atoms: C12_14  and  C13_16
REMARK    7  A    between atoms: C16_19  and  C19_22
REMARK    8  A    between atoms: C20_26  and  O3_27
REMARK                            x       y       z     vdW  Elec       q    Type
REMARK                         _______ _______ _______ _____ _____    ______ ____
ROOT
ATOM      1  N1  UNL     1     151.624 158.892 161.104  0.00  0.00    -0.297 NA
ATOM      2  C7  UNL     1     152.535 159.934 160.610  0.00  0.00    +0.085 C 
ATOM      3  C8  UNL     1     152.033 161.365 160.830  0.00  0.00    +0.016 C 
ATOM      4  C9  UNL     1     151.278 161.544 162.151  0.00  0.00    +0.014 C 
ATOM      5  C10 UNL     1     151.616 160.427 163.139  0.00  0.00    +0.074 C 
ATOM      6  C11 UNL     1     151.412 159.017 162.558  0.00  0.00    +0.096 C 
ENDROOT
BRANCH   5   7
ATOM      7  C12 UNL     1     150.957 160.554 164.510  0.00  0.00    +0.167 C 
ATOM      8  O2  UNL     1     149.733 160.652 164.605  0.00  0.00    -0.292 OA
BRANCH   7   9
ATOM      9  C13 UNL     1     151.754 160.571 165.771  0.00  0.00    +0.018 A 
ATOM     10  C14 UNL     1     151.354 159.908 166.935  0.00  0.00    +0.012 A 
ATOM     11  C15 UNL     1     152.158 159.952 168.080  0.00  0.00    +0.013 A 
ATOM     12  C16 UNL     1     153.378 160.645 168.075  0.00  0.00    +0.055 A 
ATOM     13  C17 UNL     1     153.778 161.298 166.901  0.00  0.00    +0.013 A 
ATOM     14  C18 UNL     1     152.977 161.254 165.757  0.00  0.00    +0.012 A 
BRANCH  12  15
ATOM     15  C19 UNL     1     154.242 160.711 169.313  0.00  0.00    +0.417 C 
ATOM     16  F1  UNL     1     154.581 161.981 169.667  0.00  0.00    -0.166 F 
ATOM     17  F2  UNL     1     153.640 160.168 170.407  0.00  0.00    -0.166 F 
ATOM     18  F3  UNL     1     155.417 160.039 169.158  0.00  0.00    -0.166 F 
ENDBRANCH  12  15
ENDBRANCH   7   9
ENDBRANCH   5   7
BRANCH   1  19
ATOM     19  C6  UNL     1     150.348 158.831 160.365  0.00  0.00    +0.123 C 
BRANCH  19  23
ATOM     20  C2  UNL     1     150.443 156.221 156.902  0.00  0.00    +0.124 A 
ATOM     21  C3  UNL     1     150.069 157.560 156.779  0.00  0.00    +0.046 A 
ATOM     22  C4  UNL     1     150.037 158.395 157.898  0.00  0.00    +0.012 A 
ATOM     23  C5  UNL     1     150.373 157.903 159.168  0.00  0.00    +0.008 A 
ATOM     24  C20 UNL     1     150.754 156.561 159.276  0.00  0.00    +0.125 A 
ATOM     25  C21 UNL     1     150.789 155.721 158.157  0.00  0.00    +0.091 A 
BRANCH  20  27
ATOM     26  C1  UNL     1     151.623 155.521 154.958  0.00  0.00    +0.277 C 
ATOM     27  O1  UNL     1     150.429 155.517 155.728  0.00  0.00    -0.495 OA
ENDBRANCH  20  27
BRANCH  24  28
ATOM     28  O3  UNL     1     151.100 156.067 160.506  0.00  0.00    -0.506 OA
ATOM     29  H21 UNL     1     151.769 155.373 160.388  0.00  0.00    +0.292 HD
ENDBRANCH  24  28
ENDBRANCH  19  23
ENDBRANCH   1  19
TORSDOF 7
ENDMDL
MODEL 6
REMARK VINA RESULT:    -4.823      3.408      5.984
REMARK INTER + INTRA:          -8.244
REMARK INTER:                  -7.339
REMARK INTRA:                  -0.905
REMARK UNBOUND:                -1.589
REMARK  Name = /home/vital/Documents/PhD_2021/Malaria_codes/data/pdb_ligands_mmv/ligand_312.pdb
REMARK  8 active torsions:
REMARK  status: ('A' for Active; 'I' for Inactive)
REMARK    1  A    between atoms: C1_1  and  O1_2
REMARK    2  A    between atoms: O1_2  and  C2_3
REMARK    3  A    between atoms: C5_6  and  C6_7
REMARK    4  A    between atoms: C6_7  and  N1_8
REMARK    5  A    between atoms: C10_12  and  C12_14
REMARK    6  A    between atoms: C12_14  and  C13_16
REMARK    7  A    between atoms: C16_19  and  C19_22
REMARK    8  A    between atoms: C20_26  and  O3_27
REMARK                            x       y       z     vdW  Elec       q    Type
REMARK                         _______ _______ _______ _____ _____    ______ ____
ROOT
ATOM      1  N1  UNL     1     152.045 158.924 161.383  0.00  0.00    -0.297 NA
ATOM      2  C7  UNL     1     152.281 157.525 161.763  0.00  0.00    +0.085 C 
ATOM      3  C8  UNL     1     151.121 156.580 161.434  0.00  0.00    +0.016 C 
ATOM      4  C9  UNL     1     150.409 156.928 160.123  0.00  0.00    +0.014 C 
ATOM      5  C10 UNL     1     151.293 157.794 159.225  0.00  0.00    +0.074 C 
ATOM      6  C11 UNL     1     151.829 159.052 159.929  0.00  0.00    +0.096 C 
ENDROOT
BRANCH   5   7
ATOM      7  C12 UNL     1     150.692 158.142 157.867  0.00  0.00    +0.167 C 
ATOM      8  O2  UNL     1     149.699 158.868 157.793  0.00  0.00    -0.292 OA
BRANCH   7   9
ATOM      9  C13 UNL     1     151.266 157.622 156.592  0.00  0.00    +0.018 A 
ATOM     10  C14 UNL     1     151.787 158.452 155.595  0.00  0.00    +0.012 A 
ATOM     11  C15 UNL     1     152.325 157.897 154.428  0.00  0.00    +0.013 A 
ATOM     12  C16 UNL     1     152.365 156.506 154.247  0.00  0.00    +0.055 A 
ATOM     13  C17 UNL     1     151.852 155.679 155.256  0.00  0.00    +0.013 A 
ATOM     14  C18 UNL     1     151.315 156.232 156.421  0.00  0.00    +0.012 A 
BRANCH  12  15
ATOM     15  C19 UNL     1     152.929 155.901 152.982  0.00  0.00    +0.417 C 
ATOM     16  F1  UNL     1     153.992 155.078 153.206  0.00  0.00    -0.166 F 
ATOM     17  F2  UNL     1     152.017 155.155 152.301  0.00  0.00    -0.166 F 
ATOM     18  F3  UNL     1     153.368 156.848 152.108  0.00  0.00    -0.166 F 
ENDBRANCH  12  15
ENDBRANCH   7   9
ENDBRANCH   5   7
BRANCH   1  19
ATOM     19  C6  UNL     1     150.965 159.568 162.157  0.00  0.00    +0.123 C 
BRANCH  19  23
ATOM     20  C2  UNL     1     152.418 161.812 165.573  0.00  0.00    +0.124 A 
ATOM     21  C3  UNL     1     152.741 160.463 165.413  0.00  0.00    +0.046 A 
ATOM     22  C4  UNL     1     152.268 159.745 164.313  0.00  0.00    +0.012 A 
ATOM     23  C5  UNL     1     151.453 160.362 163.352  0.00  0.00    +0.008 A 
ATOM     24  C20 UNL     1     151.144 161.716 163.519  0.00  0.00    +0.125 A 
ATOM     25  C21 UNL     1     151.617 162.441 164.620  0.00  0.00    +0.091 A 
BRANCH  20  27
ATOM     26  C1  UNL     1     153.876 161.625 167.445  0.00  0.00    +0.277 C 
ATOM     27  O1  UNL     1     152.945 162.393 166.694  0.00  0.00    -0.495 OA
ENDBRANCH  20  27
BRANCH  24  28
ATOM     28  O3  UNL     1     150.363 162.339 162.583  0.00  0.00    -0.506 OA
ATOM     29  H21 UNL     1     150.935 162.688 161.880  0.00  0.00    +0.292 HD
ENDBRANCH  24  28
ENDBRANCH  19  23
ENDBRANCH   1  19
TORSDOF 7
ENDMDL
MODEL 7
REMARK VINA RESULT:    -4.806      6.709     10.456
REMARK INTER + INTRA:          -8.221
REMARK INTER:                  -5.318
REMARK INTRA:                  -2.903
REMARK UNBOUND:                -1.589
REMARK  Name = /home/vital/Documents/PhD_2021/Malaria_codes/data/pdb_ligands_mmv/ligand_312.pdb
REMARK  8 active torsions:
REMARK  status: ('A' for Active; 'I' for Inactive)
REMARK    1  A    between atoms: C1_1  and  O1_2
REMARK    2  A    between atoms: O1_2  and  C2_3
REMARK    3  A    between atoms: C5_6  and  C6_7
REMARK    4  A    between atoms: C6_7  and  N1_8
REMARK    5  A    between atoms: C10_12  and  C12_14
REMARK    6  A    between atoms: C12_14  and  C13_16
REMARK    7  A    between atoms: C16_19  and  C19_22
REMARK    8  A    between atoms: C20_26  and  O3_27
REMARK                            x       y       z     vdW  Elec       q    Type
REMARK                         _______ _______ _______ _____ _____    ______ ____
ROOT
ATOM      1  N1  UNL     1     151.845 161.873 163.532  0.00  0.00    -0.297 NA
ATOM      2  C7  UNL     1     151.476 162.741 164.657  0.00  0.00    +0.085 C 
ATOM      3  C8  UNL     1     150.407 162.152 165.583  0.00  0.00    +0.016 C 
ATOM      4  C9  UNL     1     150.537 160.637 165.770  0.00  0.00    +0.014 C 
ATOM      5  C10 UNL     1     151.941 160.152 165.410  0.00  0.00    +0.074 C 
ATOM      6  C11 UNL     1     152.396 160.590 164.007  0.00  0.00    +0.096 C 
ENDROOT
BRANCH   5   7
ATOM      7  C12 UNL     1     152.187 158.661 165.623  0.00  0.00    +0.167 C 
ATOM      8  O2  UNL     1     152.502 158.236 166.736  0.00  0.00    -0.292 OA
BRANCH   7   9
ATOM      9  C13 UNL     1     152.064 157.673 164.513  0.00  0.00    +0.018 A 
ATOM     10  C14 UNL     1     153.056 157.482 163.548  0.00  0.00    +0.012 A 
ATOM     11  C15 UNL     1     152.883 156.525 162.540  0.00  0.00    +0.013 A 
ATOM     12  C16 UNL     1     151.724 155.736 162.492  0.00  0.00    +0.055 A 
ATOM     13  C17 UNL     1     150.738 155.924 163.470  0.00  0.00    +0.013 A 
ATOM     14  C18 UNL     1     150.910 156.879 164.476  0.00  0.00    +0.012 A 
BRANCH  12  15
ATOM     15  C19 UNL     1     151.524 154.713 161.398  0.00  0.00    +0.417 C 
ATOM     16  F1  UNL     1     152.432 153.699 161.435  0.00  0.00    -0.166 F 
ATOM     17  F2  UNL     1     150.300 154.119 161.447  0.00  0.00    -0.166 F 
ATOM     18  F3  UNL     1     151.625 155.261 160.155  0.00  0.00    -0.166 F 
ENDBRANCH  12  15
ENDBRANCH   7   9
ENDBRANCH   5   7
BRANCH   1  19
ATOM     19  C6  UNL     1     150.750 161.674 162.561  0.00  0.00    +0.123 C 
BRANCH  19  23
ATOM     20  C2  UNL     1     151.535 158.683 159.519  0.00  0.00    +0.124 A 
ATOM     21  C3  UNL     1     150.385 158.618 160.307  0.00  0.00    +0.046 A 
ATOM     22  C4  UNL     1     150.138 159.582 161.287  0.00  0.00    +0.012 A 
ATOM     23  C5  UNL     1     151.045 160.630 161.504  0.00  0.00    +0.008 A 
ATOM     24  C20 UNL     1     152.190 160.689 160.702  0.00  0.00    +0.125 A 
ATOM     25  C21 UNL     1     152.440 159.726 159.717  0.00  0.00    +0.091 A 
BRANCH  20  27
ATOM     26  C1  UNL     1     150.828 157.755 157.445  0.00  0.00    +0.277 C 
ATOM     27  O1  UNL     1     151.652 157.676 158.600  0.00  0.00    -0.495 OA
ENDBRANCH  20  27
BRANCH  24  28
ATOM     28  O3  UNL     1     153.078 161.714 160.889  0.00  0.00    -0.506 OA
ATOM     29  H21 UNL     1     153.008 162.331 160.141  0.00  0.00    +0.292 HD
ENDBRANCH  24  28
ENDBRANCH  19  23
ENDBRANCH   1  19
TORSDOF 7
ENDMDL
MODEL 8
REMARK VINA RESULT:    -4.749     17.495     19.533
REMARK INTER + INTRA:          -8.142
REMARK INTER:                  -4.943
REMARK INTRA:                  -3.199
REMARK UNBOUND:                -1.589
REMARK  Name = /home/vital/Documents/PhD_2021/Malaria_codes/data/pdb_ligands_mmv/ligand_312.pdb
REMARK  8 active torsions:
REMARK  status: ('A' for Active; 'I' for Inactive)
REMARK    1  A    between atoms: C1_1  and  O1_2
REMARK    2  A    between atoms: O1_2  and  C2_3
REMARK    3  A    between atoms: C5_6  and  C6_7
REMARK    4  A    between atoms: C6_7  and  N1_8
REMARK    5  A    between atoms: C10_12  and  C12_14
REMARK    6  A    between atoms: C12_14  and  C13_16
REMARK    7  A    between atoms: C16_19  and  C19_22
REMARK    8  A    between atoms: C20_26  and  O3_27
REMARK                            x       y       z     vdW  Elec       q    Type
REMARK                         _______ _______ _______ _____ _____    ______ ____
ROOT
ATOM      1  N1  UNL     1     142.074 147.415 164.513  0.00  0.00    -0.297 NA
ATOM      2  C7  UNL     1     142.113 148.701 165.221  0.00  0.00    +0.085 C 
ATOM      3  C8  UNL     1     142.696 148.624 166.636  0.00  0.00    +0.016 C 
ATOM      4  C9  UNL     1     143.850 147.624 166.760  0.00  0.00    +0.014 C 
ATOM      5  C10 UNL     1     144.463 147.312 165.395  0.00  0.00    +0.074 C 
ATOM      6  C11 UNL     1     143.429 146.855 164.352  0.00  0.00    +0.096 C 
ENDROOT
BRANCH   5   7
ATOM      7  C12 UNL     1     145.663 146.369 165.424  0.00  0.00    +0.167 C 
ATOM      8  O2  UNL     1     146.761 146.773 165.809  0.00  0.00    -0.292 OA
BRANCH   7   9
ATOM      9  C13 UNL     1     145.561 144.946 164.987  0.00  0.00    +0.018 A 
ATOM     10  C14 UNL     1     145.636 144.551 163.649  0.00  0.00    +0.012 A 
ATOM     11  C15 UNL     1     145.549 143.196 163.310  0.00  0.00    +0.013 A 
ATOM     12  C16 UNL     1     145.401 142.215 164.302  0.00  0.00    +0.055 A 
ATOM     13  C17 UNL     1     145.339 142.618 165.644  0.00  0.00    +0.013 A 
ATOM     14  C18 UNL     1     145.426 143.970 165.983  0.00  0.00    +0.012 A 
BRANCH  12  15
ATOM     15  C19 UNL     1     145.290 140.753 163.942  0.00  0.00    +0.417 C 
ATOM     16  F1  UNL     1     144.702 140.539 162.732  0.00  0.00    -0.166 F 
ATOM     17  F2  UNL     1     146.498 140.129 163.885  0.00  0.00    -0.166 F 
ATOM     18  F3  UNL     1     144.549 140.054 164.846  0.00  0.00    -0.166 F 
ENDBRANCH  12  15
ENDBRANCH   7   9
ENDBRANCH   5   7
BRANCH   1  19
ATOM     19  C6  UNL     1     141.144 146.441 165.118  0.00  0.00    +0.123 C 
BRANCH  19  23
ATOM     20  C2  UNL     1     141.540 142.385 163.633  0.00  0.00    +0.124 A 
ATOM     21  C3  UNL     1     141.654 142.662 164.996  0.00  0.00    +0.046 A 
ATOM     22  C4  UNL     1     141.529 143.970 165.468  0.00  0.00    +0.012 A 
ATOM     23  C5  UNL     1     141.293 145.032 164.582  0.00  0.00    +0.008 A 
ATOM     24  C20 UNL     1     141.173 144.739 163.219  0.00  0.00    +0.125 A 
ATOM     25  C21 UNL     1     141.296 143.430 162.741  0.00  0.00    +0.091 A 
BRANCH  20  27
ATOM     26  C1  UNL     1     141.243 140.109 164.263  0.00  0.00    +0.277 C 
ATOM     27  O1  UNL     1     141.685 141.064 163.307  0.00  0.00    -0.495 OA
ENDBRANCH  20  27
BRANCH  24  28
ATOM     28  O3  UNL     1     140.927 145.761 162.341  0.00  0.00    -0.506 OA
ATOM     29  H21 UNL     1     141.514 146.505 162.554  0.00  0.00    +0.292 HD
ENDBRANCH  24  28
ENDBRANCH  19  23
ENDBRANCH   1  19
TORSDOF 7
ENDMDL
MODEL 9
REMARK VINA RESULT:    -4.453     17.237     19.395
REMARK INTER + INTRA:          -7.734
REMARK INTER:                  -4.607
REMARK INTRA:                  -3.127
REMARK UNBOUND:                -1.589
REMARK  Name = /home/vital/Documents/PhD_2021/Malaria_codes/data/pdb_ligands_mmv/ligand_312.pdb
REMARK  8 active torsions:
REMARK  status: ('A' for Active; 'I' for Inactive)
REMARK    1  A    between atoms: C1_1  and  O1_2
REMARK    2  A    between atoms: O1_2  and  C2_3
REMARK    3  A    between atoms: C5_6  and  C6_7
REMARK    4  A    between atoms: C6_7  and  N1_8
REMARK    5  A    between atoms: C10_12  and  C12_14
REMARK    6  A    between atoms: C12_14  and  C13_16
REMARK    7  A    between atoms: C16_19  and  C19_22
REMARK    8  A    between atoms: C20_26  and  O3_27
REMARK                            x       y       z     vdW  Elec       q    Type
REMARK                         _______ _______ _______ _____ _____    ______ ____
ROOT
ATOM      1  N1  UNL     1     141.450 142.325 166.388  0.00  0.00    -0.297 NA
ATOM      2  C7  UNL     1     141.240 140.911 166.050  0.00  0.00    +0.085 C 
ATOM      3  C8  UNL     1     141.980 140.449 164.790  0.00  0.00    +0.016 C 
ATOM      4  C9  UNL     1     143.356 141.100 164.624  0.00  0.00    +0.014 C 
ATOM      5  C10 UNL     1     143.871 141.657 165.952  0.00  0.00    +0.074 C 
ATOM      6  C11 UNL     1     142.876 142.606 166.641  0.00  0.00    +0.096 C 
ENDROOT
BRANCH   5   7
ATOM      7  C12 UNL     1     145.266 142.273 165.899  0.00  0.00    +0.167 C 
ATOM      8  O2  UNL     1     146.255 141.597 166.185  0.00  0.00    -0.292 OA
BRANCH   7   9
ATOM      9  C13 UNL     1     145.488 143.697 165.512  0.00  0.00    +0.018 A 
ATOM     10  C14 UNL     1     145.675 144.721 166.444  0.00  0.00    +0.012 A 
ATOM     11  C15 UNL     1     145.894 146.034 166.011  0.00  0.00    +0.013 A 
ATOM     12  C16 UNL     1     145.944 146.341 164.644  0.00  0.00    +0.055 A 
ATOM     13  C17 UNL     1     145.767 145.306 163.714  0.00  0.00    +0.013 A 
ATOM     14  C18 UNL     1     145.549 143.995 164.144  0.00  0.00    +0.012 A 
BRANCH  12  15
ATOM     15  C19 UNL     1     146.163 147.758 164.170  0.00  0.00    +0.417 C 
ATOM     16  F1  UNL     1     147.378 147.949 163.583  0.00  0.00    -0.166 F 
ATOM     17  F2  UNL     1     145.240 148.158 163.254  0.00  0.00    -0.166 F 
ATOM     18  F3  UNL     1     146.096 148.659 165.189  0.00  0.00    -0.166 F 
ENDBRANCH  12  15
ENDBRANCH   7   9
ENDBRANCH   5   7
BRANCH   1  19
ATOM     19  C6  UNL     1     140.872 143.256 165.399  0.00  0.00    +0.123 C 
BRANCH  19  23
ATOM     20  C2  UNL     1     142.231 147.360 165.754  0.00  0.00    +0.124 A 
ATOM     21  C3  UNL     1     142.317 146.681 164.538  0.00  0.00    +0.046 A 
ATOM     22  C4  UNL     1     141.881 145.358 164.430  0.00  0.00    +0.012 A 
ATOM     23  C5  UNL     1     141.355 144.685 165.543  0.00  0.00    +0.008 A 
ATOM     24  C20 UNL     1     141.266 145.380 166.754  0.00  0.00    +0.125 A 
ATOM     25  C21 UNL     1     141.701 146.706 166.866  0.00  0.00    +0.091 A 
BRANCH  20  27
ATOM     26  C1  UNL     1     142.411 149.467 166.846  0.00  0.00    +0.277 C 
ATOM     27  O1  UNL     1     142.694 148.647 165.720  0.00  0.00    -0.495 OA
ENDBRANCH  20  27
BRANCH  24  28
ATOM     28  O3  UNL     1     140.741 144.744 167.846  0.00  0.00    -0.506 OA
ATOM     29  H21 UNL     1     141.454 144.271 168.307  0.00  0.00    +0.292 HD
ENDBRANCH  24  28
ENDBRANCH  19  23
ENDBRANCH   1  19
TORSDOF 7
ENDMDL
