MODEL 1
REMARK VINA RESULT:    -8.833      0.000      0.000
REMARK INTER + INTRA:         -10.289
REMARK INTER:                  -9.866
REMARK INTRA:                  -0.423
REMARK UNBOUND:                -0.423
REMARK  Name = /home/vital/Documents/PhD_2021/Malaria_codes/data/pdb_ligands_mmv/ligand_111.pdb
REMARK  2 active torsions:
REMARK  status: ('A' for Active; 'I' for Inactive)
REMARK    1  A    between atoms: C1_2  and  C2_5
REMARK    2  A    between atoms: C5_8  and  N1_9
REMARK                            x       y       z     vdW  Elec       q    Type
REMARK                         _______ _______ _______ _____ _____    ______ ____
ROOT
ATOM      1  N1  UNL     1     152.098 156.402 156.917  0.00  0.00    -0.297 N 
ATOM      2  C6  UNL     1     151.197 157.302 157.556  0.00  0.00    +0.156 A 
ATOM      3  N2  UNL     1     150.600 158.282 156.850  0.00  0.00    -0.113 NA
ATOM      4  N3  UNL     1     149.796 159.127 157.441  0.00  0.00    -0.041 NA
ATOM      5  N4  UNL     1     149.538 159.064 158.720  0.00  0.00    -0.129 NA
ATOM      6  C7  UNL     1     150.089 158.102 159.467  0.00  0.00    +0.098 A 
ATOM      7  C8  UNL     1     149.795 158.039 160.825  0.00  0.00    +0.030 A 
ATOM      8  C9  UNL     1     150.335 157.052 161.654  0.00  0.00    +0.002 A 
ATOM      9  C10 UNL     1     151.186 156.095 161.118  0.00  0.00    +0.001 A 
ATOM     10  C11 UNL     1     151.494 156.142 159.761  0.00  0.00    +0.013 A 
ATOM     11  C12 UNL     1     150.952 157.155 158.925  0.00  0.00    +0.044 A 
ATOM     12  H3  UNL     1     152.977 156.408 157.426  0.00  0.00    +0.154 HD
ENDROOT
BRANCH   1  16
ATOM     13  C2  UNL     1     152.535 155.850 152.727  0.00  0.00    +0.055 A 
ATOM     14  C3  UNL     1     153.248 156.861 153.382  0.00  0.00    +0.014 A 
ATOM     15  C4  UNL     1     153.123 157.043 154.764  0.00  0.00    +0.024 A 
ATOM     16  C5  UNL     1     152.301 156.211 155.533  0.00  0.00    +0.032 A 
ATOM     17  C13 UNL     1     151.555 155.230 154.864  0.00  0.00    +0.024 A 
ATOM     18  C14 UNL     1     151.674 155.043 153.482  0.00  0.00    +0.014 A 
BRANCH  13  20
ATOM     19  F1  UNL     1     153.933 155.469 150.819  0.00  0.00    -0.166 F 
ATOM     20  C1  UNL     1     152.649 155.667 151.234  0.00  0.00    +0.417 C 
ATOM     21  F2  UNL     1     151.945 154.590 150.789  0.00  0.00    -0.166 F 
ATOM     22  F3  UNL     1     152.190 156.734 150.524  0.00  0.00    -0.166 F 
ENDBRANCH  13  20
ENDBRANCH   1  16
TORSDOF 2
ENDMDL
MODEL 2
REMARK VINA RESULT:    -8.833      4.434      7.958
REMARK INTER + INTRA:         -10.288
REMARK INTER:                  -9.843
REMARK INTRA:                  -0.446
REMARK UNBOUND:                -0.423
REMARK  Name = /home/vital/Documents/PhD_2021/Malaria_codes/data/pdb_ligands_mmv/ligand_111.pdb
REMARK  2 active torsions:
REMARK  status: ('A' for Active; 'I' for Inactive)
REMARK    1  A    between atoms: C1_2  and  C2_5
REMARK    2  A    between atoms: C5_8  and  N1_9
REMARK                            x       y       z     vdW  Elec       q    Type
REMARK                         _______ _______ _______ _____ _____    ______ ____
ROOT
ATOM      1  N1  UNL     1     153.250 156.026 153.577  0.00  0.00    -0.297 N 
ATOM      2  C6  UNL     1     152.897 155.679 152.240  0.00  0.00    +0.156 A 
ATOM      3  N2  UNL     1     151.617 155.764 151.832  0.00  0.00    -0.113 NA
ATOM      4  N3  UNL     1     151.286 155.417 150.615  0.00  0.00    -0.041 NA
ATOM      5  N4  UNL     1     152.166 154.981 149.753  0.00  0.00    -0.129 NA
ATOM      6  C7  UNL     1     153.454 154.893 150.099  0.00  0.00    +0.098 A 
ATOM      7  C8  UNL     1     154.381 154.438 149.166  0.00  0.00    +0.030 A 
ATOM      8  C9  UNL     1     155.742 154.333 149.467  0.00  0.00    +0.002 A 
ATOM      9  C10 UNL     1     156.196 154.694 150.727  0.00  0.00    +0.001 A 
ATOM     10  C11 UNL     1     155.284 155.150 151.675  0.00  0.00    +0.013 A 
ATOM     11  C12 UNL     1     153.900 155.244 151.368  0.00  0.00    +0.044 A 
ATOM     12  H3  UNL     1     153.752 155.247 153.992  0.00  0.00    +0.154 HD
ENDROOT
BRANCH   1  16
ATOM     13  C2  UNL     1     151.009 158.024 156.583  0.00  0.00    +0.055 A 
ATOM     14  C3  UNL     1     151.531 158.742 155.501  0.00  0.00    +0.014 A 
ATOM     15  C4  UNL     1     152.259 158.091 154.497  0.00  0.00    +0.024 A 
ATOM     16  C5  UNL     1     152.467 156.708 154.534  0.00  0.00    +0.032 A 
ATOM     17  C13 UNL     1     151.981 156.003 155.645  0.00  0.00    +0.024 A 
ATOM     18  C14 UNL     1     151.254 156.647 156.652  0.00  0.00    +0.014 A 
BRANCH  13  20
ATOM     19  F1  UNL     1     148.900 158.754 157.456  0.00  0.00    -0.166 F 
ATOM     20  C1  UNL     1     150.245 158.726 157.678  0.00  0.00    +0.417 C 
ATOM     21  F2  UNL     1     150.409 158.127 158.890  0.00  0.00    -0.166 F 
ATOM     22  F3  UNL     1     150.619 160.025 157.849  0.00  0.00    -0.166 F 
ENDBRANCH  13  20
ENDBRANCH   1  16
TORSDOF 2
ENDMDL
MODEL 3
REMARK VINA RESULT:    -8.669      5.048      9.220
REMARK INTER + INTRA:         -10.105
REMARK INTER:                  -9.671
REMARK INTRA:                  -0.434
REMARK UNBOUND:                -0.423
REMARK  Name = /home/vital/Documents/PhD_2021/Malaria_codes/data/pdb_ligands_mmv/ligand_111.pdb
REMARK  2 active torsions:
REMARK  status: ('A' for Active; 'I' for Inactive)
REMARK    1  A    between atoms: C1_2  and  C2_5
REMARK    2  A    between atoms: C5_8  and  N1_9
REMARK                            x       y       z     vdW  Elec       q    Type
REMARK                         _______ _______ _______ _____ _____    ______ ____
ROOT
ATOM      1  N1  UNL     1     154.219 155.346 151.036  0.00  0.00    -0.297 N 
ATOM      2  C6  UNL     1     155.446 154.632 150.913  0.00  0.00    +0.156 A 
ATOM      3  N2  UNL     1     156.335 154.628 151.925  0.00  0.00    -0.113 NA
ATOM      4  N3  UNL     1     157.474 153.998 151.802  0.00  0.00    -0.041 NA
ATOM      5  N4  UNL     1     157.799 153.355 150.713  0.00  0.00    -0.129 NA
ATOM      6  C7  UNL     1     156.948 153.311 149.683  0.00  0.00    +0.098 A 
ATOM      7  C8  UNL     1     157.303 152.611 148.534  0.00  0.00    +0.030 A 
ATOM      8  C9  UNL     1     156.452 152.523 147.429  0.00  0.00    +0.002 A 
ATOM      9  C10 UNL     1     155.211 153.142 147.467  0.00  0.00    +0.001 A 
ATOM     10  C11 UNL     1     154.838 153.849 148.608  0.00  0.00    +0.013 A 
ATOM     11  C12 UNL     1     155.712 153.945 149.724  0.00  0.00    +0.044 A 
ATOM     12  H3  UNL     1     154.131 155.979 150.247  0.00  0.00    +0.154 HD
ENDROOT
BRANCH   1  16
ATOM     13  C2  UNL     1     152.371 157.074 154.450  0.00  0.00    +0.055 A 
ATOM     14  C3  UNL     1     152.423 155.683 154.306  0.00  0.00    +0.014 A 
ATOM     15  C4  UNL     1     153.042 155.102 153.193  0.00  0.00    +0.024 A 
ATOM     16  C5  UNL     1     153.642 155.890 152.205  0.00  0.00    +0.032 A 
ATOM     17  C13 UNL     1     153.546 157.284 152.331  0.00  0.00    +0.024 A 
ATOM     18  C14 UNL     1     152.928 157.871 153.441  0.00  0.00    +0.014 A 
BRANCH  13  20
ATOM     19  F1  UNL     1     150.718 158.597 155.280  0.00  0.00    -0.166 F 
ATOM     20  C1  UNL     1     151.684 157.703 155.636  0.00  0.00    +0.417 C 
ATOM     21  F2  UNL     1     151.064 156.781 156.424  0.00  0.00    -0.166 F 
ATOM     22  F3  UNL     1     152.535 158.383 156.453  0.00  0.00    -0.166 F 
ENDBRANCH  13  20
ENDBRANCH   1  16
TORSDOF 2
ENDMDL
MODEL 4
REMARK VINA RESULT:    -8.507      3.198      4.572
REMARK INTER + INTRA:          -9.925
REMARK INTER:                  -9.535
REMARK INTRA:                  -0.390
REMARK UNBOUND:                -0.423
REMARK  Name = /home/vital/Documents/PhD_2021/Malaria_codes/data/pdb_ligands_mmv/ligand_111.pdb
REMARK  2 active torsions:
REMARK  status: ('A' for Active; 'I' for Inactive)
REMARK    1  A    between atoms: C1_2  and  C2_5
REMARK    2  A    between atoms: C5_8  and  N1_9
REMARK                            x       y       z     vdW  Elec       q    Type
REMARK                         _______ _______ _______ _____ _____    ______ ____
ROOT
ATOM      1  N1  UNL     1     152.851 156.780 152.732  0.00  0.00    -0.297 N 
ATOM      2  C6  UNL     1     151.994 156.323 153.775  0.00  0.00    +0.156 A 
ATOM      3  N2  UNL     1     151.493 155.074 153.745  0.00  0.00    -0.113 NA
ATOM      4  N3  UNL     1     150.682 154.664 154.686  0.00  0.00    -0.041 NA
ATOM      5  N4  UNL     1     150.326 155.432 155.680  0.00  0.00    -0.129 NA
ATOM      6  C7  UNL     1     150.806 156.676 155.770  0.00  0.00    +0.098 A 
ATOM      7  C8  UNL     1     150.427 157.478 156.842  0.00  0.00    +0.030 A 
ATOM      8  C9  UNL     1     150.903 158.784 156.993  0.00  0.00    +0.002 A 
ATOM      9  C10 UNL     1     151.784 159.306 156.057  0.00  0.00    +0.001 A 
ATOM     10  C11 UNL     1     152.174 158.519 154.976  0.00  0.00    +0.013 A 
ATOM     11  C12 UNL     1     151.678 157.197 154.820  0.00  0.00    +0.044 A 
ATOM     12  H3  UNL     1     152.473 157.643 152.356  0.00  0.00    +0.154 HD
ENDROOT
BRANCH   1  16
ATOM     13  C2  UNL     1     154.809 154.352 149.846  0.00  0.00    +0.055 A 
ATOM     14  C3  UNL     1     153.464 154.702 149.676  0.00  0.00    +0.014 A 
ATOM     15  C4  UNL     1     152.813 155.514 150.613  0.00  0.00    +0.024 A 
ATOM     16  C5  UNL     1     153.489 156.013 151.732  0.00  0.00    +0.032 A 
ATOM     17  C13 UNL     1     154.822 155.620 151.921  0.00  0.00    +0.024 A 
ATOM     18  C14 UNL     1     155.479 154.809 150.989  0.00  0.00    +0.014 A 
BRANCH  13  20
ATOM     19  F1  UNL     1     156.797 153.827 148.617  0.00  0.00    -0.166 F 
ATOM     20  C1  UNL     1     155.506 153.458 148.851  0.00  0.00    +0.417 C 
ATOM     21  F2  UNL     1     155.559 152.163 149.267  0.00  0.00    -0.166 F 
ATOM     22  F3  UNL     1     154.900 153.435 147.631  0.00  0.00    -0.166 F 
ENDBRANCH  13  20
ENDBRANCH   1  16
TORSDOF 2
ENDMDL
MODEL 5
REMARK VINA RESULT:    -7.607      1.400      2.272
REMARK INTER + INTRA:          -8.920
REMARK INTER:                  -8.857
REMARK INTRA:                  -0.063
REMARK UNBOUND:                -0.423
REMARK  Name = /home/vital/Documents/PhD_2021/Malaria_codes/data/pdb_ligands_mmv/ligand_111.pdb
REMARK  2 active torsions:
REMARK  status: ('A' for Active; 'I' for Inactive)
REMARK    1  A    between atoms: C1_2  and  C2_5
REMARK    2  A    between atoms: C5_8  and  N1_9
REMARK                            x       y       z     vdW  Elec       q    Type
REMARK                         _______ _______ _______ _____ _____    ______ ____
ROOT
ATOM      1  N1  UNL     1     151.151 157.712 156.930  0.00  0.00    -0.297 N 
ATOM      2  C6  UNL     1     151.270 157.019 158.169  0.00  0.00    +0.156 A 
ATOM      3  N2  UNL     1     151.680 155.737 158.194  0.00  0.00    -0.113 NA
ATOM      4  N3  UNL     1     151.762 155.090 159.328  0.00  0.00    -0.041 NA
ATOM      5  N4  UNL     1     151.455 155.647 160.469  0.00  0.00    -0.129 NA
ATOM      6  C7  UNL     1     151.058 156.922 160.506  0.00  0.00    +0.098 A 
ATOM      7  C8  UNL     1     150.747 157.505 161.731  0.00  0.00    +0.030 A 
ATOM      8  C9  UNL     1     150.336 158.837 161.833  0.00  0.00    +0.002 A 
ATOM      9  C10 UNL     1     150.235 159.614 160.688  0.00  0.00    +0.001 A 
ATOM     10  C11 UNL     1     150.541 159.049 159.452  0.00  0.00    +0.013 A 
ATOM     11  C12 UNL     1     150.947 157.691 159.353  0.00  0.00    +0.044 A 
ATOM     12  H3  UNL     1     150.213 158.096 156.862  0.00  0.00    +0.154 HD
ENDROOT
BRANCH   1  16
ATOM     13  C2  UNL     1     152.473 156.508 153.075  0.00  0.00    +0.055 A 
ATOM     14  C3  UNL     1     152.738 157.803 153.538  0.00  0.00    +0.014 A 
ATOM     15  C4  UNL     1     152.320 158.205 154.812  0.00  0.00    +0.024 A 
ATOM     16  C5  UNL     1     151.645 157.325 155.665  0.00  0.00    +0.032 A 
ATOM     17  C13 UNL     1     151.342 156.045 155.177  0.00  0.00    +0.024 A 
ATOM     18  C14 UNL     1     151.757 155.636 153.905  0.00  0.00    +0.014 A 
BRANCH  13  20
ATOM     19  F1  UNL     1     152.431 154.847 151.350  0.00  0.00    -0.166 F 
ATOM     20  C1  UNL     1     152.901 156.079 151.694  0.00  0.00    +0.417 C 
ATOM     21  F2  UNL     1     152.458 156.930 150.727  0.00  0.00    -0.166 F 
ATOM     22  F3  UNL     1     154.253 156.014 151.545  0.00  0.00    -0.166 F 
ENDBRANCH  13  20
ENDBRANCH   1  16
TORSDOF 2
ENDMDL
MODEL 6
REMARK VINA RESULT:    -7.467      4.677      6.086
REMARK INTER + INTRA:          -8.763
REMARK INTER:                  -8.311
REMARK INTRA:                  -0.452
REMARK UNBOUND:                -0.423
REMARK  Name = /home/vital/Documents/PhD_2021/Malaria_codes/data/pdb_ligands_mmv/ligand_111.pdb
REMARK  2 active torsions:
REMARK  status: ('A' for Active; 'I' for Inactive)
REMARK    1  A    between atoms: C1_2  and  C2_5
REMARK    2  A    between atoms: C5_8  and  N1_9
REMARK                            x       y       z     vdW  Elec       q    Type
REMARK                         _______ _______ _______ _____ _____    ______ ____
ROOT
ATOM      1  N1  UNL     1     150.402 155.037 161.891  0.00  0.00    -0.297 N 
ATOM      2  C6  UNL     1     149.311 154.200 162.266  0.00  0.00    +0.156 A 
ATOM      3  N2  UNL     1     148.314 153.951 161.395  0.00  0.00    -0.113 NA
ATOM      4  N3  UNL     1     147.298 153.208 161.748  0.00  0.00    -0.041 NA
ATOM      5  N4  UNL     1     147.202 152.681 162.940  0.00  0.00    -0.129 NA
ATOM      6  C7  UNL     1     148.170 152.881 163.839  0.00  0.00    +0.098 A 
ATOM      7  C8  UNL     1     148.061 152.303 165.100  0.00  0.00    +0.030 A 
ATOM      8  C9  UNL     1     149.045 152.470 166.079  0.00  0.00    +0.002 A 
ATOM      9  C10 UNL     1     150.173 153.226 165.795  0.00  0.00    +0.001 A 
ATOM     10  C11 UNL     1     150.301 153.815 164.539  0.00  0.00    +0.013 A 
ATOM     11  C12 UNL     1     149.292 153.652 163.553  0.00  0.00    +0.044 A 
ATOM     12  H3  UNL     1     150.496 155.776 162.580  0.00  0.00    +0.154 HD
ENDROOT
BRANCH   1  16
ATOM     13  C2  UNL     1     151.368 156.246 157.934  0.00  0.00    +0.055 A 
ATOM     14  C3  UNL     1     150.600 157.078 158.756  0.00  0.00    +0.014 A 
ATOM     15  C4  UNL     1     150.288 156.697 160.067  0.00  0.00    +0.024 A 
ATOM     16  C5  UNL     1     150.749 155.487 160.598  0.00  0.00    +0.032 A 
ATOM     17  C13 UNL     1     151.478 154.637 159.753  0.00  0.00    +0.024 A 
ATOM     18  C14 UNL     1     151.793 155.012 158.442  0.00  0.00    +0.014 A 
BRANCH  13  20
ATOM     19  F1  UNL     1     152.809 156.042 156.031  0.00  0.00    -0.166 F 
ATOM     20  C1  UNL     1     151.685 156.643 156.514  0.00  0.00    +0.417 C 
ATOM     21  F2  UNL     1     150.687 156.314 155.648  0.00  0.00    -0.166 F 
ATOM     22  F3  UNL     1     151.887 157.982 156.361  0.00  0.00    -0.166 F 
ENDBRANCH  13  20
ENDBRANCH   1  16
TORSDOF 2
ENDMDL
MODEL 7
REMARK VINA RESULT:    -7.382      4.528      6.326
REMARK INTER + INTRA:          -8.668
REMARK INTER:                  -8.291
REMARK INTRA:                  -0.377
REMARK UNBOUND:                -0.423
REMARK  Name = /home/vital/Documents/PhD_2021/Malaria_codes/data/pdb_ligands_mmv/ligand_111.pdb
REMARK  2 active torsions:
REMARK  status: ('A' for Active; 'I' for Inactive)
REMARK    1  A    between atoms: C1_2  and  C2_5
REMARK    2  A    between atoms: C5_8  and  N1_9
REMARK                            x       y       z     vdW  Elec       q    Type
REMARK                         _______ _______ _______ _____ _____    ______ ____
ROOT
ATOM      1  N1  UNL     1     151.011 156.434 162.377  0.00  0.00    -0.297 N 
ATOM      2  C6  UNL     1     150.359 155.682 163.397  0.00  0.00    +0.156 A 
ATOM      3  N2  UNL     1     149.325 154.875 163.091  0.00  0.00    -0.113 NA
ATOM      4  N3  UNL     1     148.706 154.208 164.030  0.00  0.00    -0.041 NA
ATOM      5  N4  UNL     1     149.054 154.291 165.287  0.00  0.00    -0.129 NA
ATOM      6  C7  UNL     1     150.083 155.065 165.646  0.00  0.00    +0.098 A 
ATOM      7  C8  UNL     1     150.450 155.133 166.986  0.00  0.00    +0.030 A 
ATOM      8  C9  UNL     1     151.522 155.918 167.421  0.00  0.00    +0.002 A 
ATOM      9  C10 UNL     1     152.255 156.650 166.498  0.00  0.00    +0.001 A 
ATOM     10  C11 UNL     1     151.903 156.596 165.151  0.00  0.00    +0.013 A 
ATOM     11  C12 UNL     1     150.804 155.806 164.717  0.00  0.00    +0.044 A 
ATOM     12  H3  UNL     1     151.016 157.412 162.647  0.00  0.00    +0.154 HD
ENDROOT
BRANCH   1  16
ATOM     13  C2  UNL     1     150.775 156.120 158.146  0.00  0.00    +0.055 A 
ATOM     14  C3  UNL     1     151.225 155.035 158.908  0.00  0.00    +0.014 A 
ATOM     15  C4  UNL     1     151.292 155.122 160.304  0.00  0.00    +0.024 A 
ATOM     16  C5  UNL     1     150.896 156.283 160.977  0.00  0.00    +0.032 A 
ATOM     17  C13 UNL     1     150.491 157.382 160.205  0.00  0.00    +0.024 A 
ATOM     18  C14 UNL     1     150.421 157.302 158.809  0.00  0.00    +0.014 A 
BRANCH  13  20
ATOM     19  F1  UNL     1     149.599 155.419 156.180  0.00  0.00    -0.166 F 
ATOM     20  C1  UNL     1     150.723 156.037 156.641  0.00  0.00    +0.417 C 
ATOM     21  F2  UNL     1     150.740 157.265 156.054  0.00  0.00    -0.166 F 
ATOM     22  F3  UNL     1     151.769 155.350 156.103  0.00  0.00    -0.166 F 
ENDBRANCH  13  20
ENDBRANCH   1  16
TORSDOF 2
ENDMDL
MODEL 8
REMARK VINA RESULT:    -7.165      2.534      3.421
REMARK INTER + INTRA:          -8.425
REMARK INTER:                  -8.190
REMARK INTRA:                  -0.235
REMARK UNBOUND:                -0.423
REMARK  Name = /home/vital/Documents/PhD_2021/Malaria_codes/data/pdb_ligands_mmv/ligand_111.pdb
REMARK  2 active torsions:
REMARK  status: ('A' for Active; 'I' for Inactive)
REMARK    1  A    between atoms: C1_2  and  C2_5
REMARK    2  A    between atoms: C5_8  and  N1_9
REMARK                            x       y       z     vdW  Elec       q    Type
REMARK                         _______ _______ _______ _____ _____    ______ ____
ROOT
ATOM      1  N1  UNL     1     151.098 158.605 158.380  0.00  0.00    -0.297 N 
ATOM      2  C6  UNL     1     151.355 158.193 159.720  0.00  0.00    +0.156 A 
ATOM      3  N2  UNL     1     151.620 156.901 159.994  0.00  0.00    -0.113 NA
ATOM      4  N3  UNL     1     151.826 156.515 161.227  0.00  0.00    -0.041 NA
ATOM      5  N4  UNL     1     151.785 157.349 162.232  0.00  0.00    -0.129 NA
ATOM      6  C7  UNL     1     151.543 158.646 162.016  0.00  0.00    +0.098 A 
ATOM      7  C8  UNL     1     151.515 159.523 163.096  0.00  0.00    +0.030 A 
ATOM      8  C9  UNL     1     151.276 160.891 162.931  0.00  0.00    +0.002 A 
ATOM      9  C10 UNL     1     151.063 161.402 161.659  0.00  0.00    +0.001 A 
ATOM     10  C11 UNL     1     151.085 160.539 160.566  0.00  0.00    +0.013 A 
ATOM     11  C12 UNL     1     151.317 159.149 160.740  0.00  0.00    +0.044 A 
ATOM     12  H3  UNL     1     150.211 159.098 158.357  0.00  0.00    +0.154 HD
ENDROOT
BRANCH   1  16
ATOM     13  C2  UNL     1     151.937 156.413 154.838  0.00  0.00    +0.055 A 
ATOM     14  C3  UNL     1     151.001 155.930 155.760  0.00  0.00    +0.014 A 
ATOM     15  C4  UNL     1     150.705 156.651 156.923  0.00  0.00    +0.024 A 
ATOM     16  C5  UNL     1     151.319 157.880 157.188  0.00  0.00    +0.032 A 
ATOM     17  C13 UNL     1     152.290 158.335 156.284  0.00  0.00    +0.024 A 
ATOM     18  C14 UNL     1     152.590 157.619 155.120  0.00  0.00    +0.014 A 
BRANCH  13  20
ATOM     19  F1  UNL     1     153.457 154.957 153.695  0.00  0.00    -0.166 F 
ATOM     20  C1  UNL     1     152.274 155.626 153.596  0.00  0.00    +0.417 C 
ATOM     21  F2  UNL     1     151.335 154.683 153.310  0.00  0.00    -0.166 F 
ATOM     22  F3  UNL     1     152.379 156.401 152.480  0.00  0.00    -0.166 F 
ENDBRANCH  13  20
ENDBRANCH   1  16
TORSDOF 2
ENDMDL
MODEL 9
REMARK VINA RESULT:    -7.080      4.679      6.531
REMARK INTER + INTRA:          -8.330
REMARK INTER:                  -8.112
REMARK INTRA:                  -0.218
REMARK UNBOUND:                -0.423
REMARK  Name = /home/vital/Documents/PhD_2021/Malaria_codes/data/pdb_ligands_mmv/ligand_111.pdb
REMARK  2 active torsions:
REMARK  status: ('A' for Active; 'I' for Inactive)
REMARK    1  A    between atoms: C1_2  and  C2_5
REMARK    2  A    between atoms: C5_8  and  N1_9
REMARK                            x       y       z     vdW  Elec       q    Type
REMARK                         _______ _______ _______ _____ _____    ______ ____
ROOT
ATOM      1  N1  UNL     1     150.497 159.625 161.844  0.00  0.00    -0.297 N 
ATOM      2  C6  UNL     1     151.468 159.611 162.886  0.00  0.00    +0.156 A 
ATOM      3  N2  UNL     1     152.372 158.615 162.959  0.00  0.00    -0.113 NA
ATOM      4  N3  UNL     1     153.245 158.584 163.932  0.00  0.00    -0.041 NA
ATOM      5  N4  UNL     1     153.281 159.500 164.863  0.00  0.00    -0.129 NA
ATOM      6  C7  UNL     1     152.419 160.521 164.832  0.00  0.00    +0.098 A 
ATOM      7  C8  UNL     1     152.478 161.495 165.823  0.00  0.00    +0.030 A 
ATOM      8  C9  UNL     1     151.609 162.589 165.838  0.00  0.00    +0.002 A 
ATOM      9  C10 UNL     1     150.657 162.723 164.837  0.00  0.00    +0.001 A 
ATOM     10  C11 UNL     1     150.581 161.757 163.836  0.00  0.00    +0.013 A 
ATOM     11  C12 UNL     1     151.459 160.641 163.833  0.00  0.00    +0.044 A 
ATOM     12  H3  UNL     1     149.574 159.700 162.261  0.00  0.00    +0.154 HD
ENDROOT
BRANCH   1  16
ATOM     13  C2  UNL     1     150.576 157.351 158.256  0.00  0.00    +0.055 A 
ATOM     14  C3  UNL     1     150.498 156.706 159.497  0.00  0.00    +0.014 A 
ATOM     15  C4  UNL     1     150.456 157.446 160.684  0.00  0.00    +0.024 A 
ATOM     16  C5  UNL     1     150.471 158.845 160.667  0.00  0.00    +0.032 A 
ATOM     17  C13 UNL     1     150.597 159.483 159.424  0.00  0.00    +0.024 A 
ATOM     18  C14 UNL     1     150.640 158.750 158.233  0.00  0.00    +0.014 A 
BRANCH  13  20
ATOM     19  F1  UNL     1     150.825 157.337 155.874  0.00  0.00    -0.166 F 
ATOM     20  C1  UNL     1     150.646 156.556 156.976  0.00  0.00    +0.417 C 
ATOM     21  F2  UNL     1     151.677 155.666 156.974  0.00  0.00    -0.166 F 
ATOM     22  F3  UNL     1     149.521 155.826 156.734  0.00  0.00    -0.166 F 
ENDBRANCH  13  20
ENDBRANCH   1  16
TORSDOF 2
ENDMDL
