MODEL 1
REMARK VINA RESULT:    -6.170      0.000      0.000
REMARK INTER + INTRA:          -7.934
REMARK INTER:                  -7.252
REMARK INTRA:                  -0.682
REMARK UNBOUND:                -0.682
REMARK  Name = /home/vital/Documents/PhD_2021/Malaria_codes/data/pdb_ligands_mmv/ligand_298.pdb
REMARK  3 active torsions:
REMARK  status: ('A' for Active; 'I' for Inactive)
REMARK    1  A    between atoms: C5_6  and  C7_8
REMARK    2  A    between atoms: N1_10  and  C8_11
REMARK    3  A    between atoms: C11_14  and  C14_17
REMARK                            x       y       z     vdW  Elec       q    Type
REMARK                         _______ _______ _______ _____ _____    ______ ____
ROOT
ATOM      1  C8  UNL     1     151.430 160.739 161.499  0.00  0.00    +0.034 A 
ATOM      2  C9  UNL     1     152.155 161.292 160.444  0.00  0.00    +0.024 A 
ATOM      3  C10 UNL     1     152.241 160.634 159.208  0.00  0.00    +0.013 A 
ATOM      4  C11 UNL     1     151.602 159.406 158.999  0.00  0.00    +0.017 A 
ATOM      5  C12 UNL     1     150.876 158.856 160.063  0.00  0.00    +0.013 A 
ATOM      6  C13 UNL     1     150.789 159.512 161.297  0.00  0.00    +0.024 A 
ENDROOT
BRANCH   4   7
ATOM      7  C14 UNL     1     151.663 158.680 157.725  0.00  0.00    +0.139 A 
ATOM      8  N2  UNL     1     151.387 157.398 157.552  0.00  0.00    -0.228 NA
ATOM      9  C15 UNL     1     151.571 157.137 156.218  0.00  0.00    +0.090 A 
ATOM     10  C16 UNL     1     151.415 155.940 155.506  0.00  0.00    +0.038 A 
ATOM     11  C17 UNL     1     151.666 155.923 154.122  0.00  0.00    -0.016 A 
ATOM     12  C18 UNL     1     151.518 154.739 153.383  0.00  0.00    +0.008 A 
ATOM     13  C19 UNL     1     151.766 154.716 152.009  0.00  0.00    +0.001 A 
ATOM     14  C20 UNL     1     152.165 155.878 151.357  0.00  0.00    +0.001 A 
ATOM     15  C21 UNL     1     152.317 157.065 152.076  0.00  0.00    +0.008 A 
ATOM     16  C22 UNL     1     152.073 157.108 153.458  0.00  0.00    -0.016 A 
ATOM     17  C23 UNL     1     152.229 158.310 154.171  0.00  0.00    +0.036 A 
ATOM     18  C24 UNL     1     151.970 158.279 155.544  0.00  0.00    +0.067 A 
ATOM     19  N3  UNL     1     152.021 159.242 156.518  0.00  0.00    -0.338 N 
ATOM     20  H16 UNL     1     152.279 160.206 156.371  0.00  0.00    +0.167 HD
ENDBRANCH   4   7
BRANCH   1  23
ATOM     21  C7  UNL     1     152.144 161.202 163.859  0.00  0.00    +0.248 C 
ATOM     22  O1  UNL     1     153.171 160.529 163.873  0.00  0.00    -0.270 OA
ATOM     23  N1  UNL     1     151.293 161.334 162.774  0.00  0.00    -0.282 N 
ATOM     24  H5  UNL     1     150.476 161.913 162.872  0.00  0.00    +0.155 HD
BRANCH  21  30
ATOM     25 BR1  UNL     1     152.971 162.373 169.086  0.00  0.00    -0.050 Br
ATOM     26  C1  UNL     1     152.038 162.551 167.449  0.00  0.00    +0.019 A 
ATOM     27  C2  UNL     1     150.943 163.409 167.374  0.00  0.00    +0.015 A 
ATOM     28  C3  UNL     1     150.258 163.540 166.171  0.00  0.00    +0.002 A 
ATOM     29  C4  UNL     1     150.671 162.813 165.052  0.00  0.00    +0.013 A 
ATOM     30  C5  UNL     1     151.775 161.943 165.117  0.00  0.00    +0.038 A 
ATOM     31  C6  UNL     1     152.459 161.819 166.333  0.00  0.00    +0.028 A 
ENDBRANCH  21  30
ENDBRANCH   1  23
TORSDOF 3
ENDMDL
MODEL 2
REMARK VINA RESULT:    -6.112      4.060     11.594
REMARK INTER + INTRA:          -7.866
REMARK INTER:                  -7.213
REMARK INTRA:                  -0.653
REMARK UNBOUND:                -0.682
REMARK  Name = /home/vital/Documents/PhD_2021/Malaria_codes/data/pdb_ligands_mmv/ligand_298.pdb
REMARK  3 active torsions:
REMARK  status: ('A' for Active; 'I' for Inactive)
REMARK    1  A    between atoms: C5_6  and  C7_8
REMARK    2  A    between atoms: N1_10  and  C8_11
REMARK    3  A    between atoms: C11_14  and  C14_17
REMARK                            x       y       z     vdW  Elec       q    Type
REMARK                         _______ _______ _______ _____ _____    ______ ____
ROOT
ATOM      1  C8  UNL     1     151.791 158.938 157.329  0.00  0.00    +0.034 A 
ATOM      2  C9  UNL     1     150.693 158.578 158.109  0.00  0.00    +0.024 A 
ATOM      3  C10 UNL     1     150.519 159.114 159.394  0.00  0.00    +0.013 A 
ATOM      4  C11 UNL     1     151.440 160.022 159.928  0.00  0.00    +0.017 A 
ATOM      5  C12 UNL     1     152.541 160.378 159.139  0.00  0.00    +0.013 A 
ATOM      6  C13 UNL     1     152.716 159.845 157.856  0.00  0.00    +0.024 A 
ENDROOT
BRANCH   4   7
ATOM      7  C14 UNL     1     151.301 160.608 161.267  0.00  0.00    +0.139 A 
ATOM      8  N2  UNL     1     152.255 160.681 162.181  0.00  0.00    -0.228 NA
ATOM      9  C15 UNL     1     151.700 161.298 163.273  0.00  0.00    +0.090 A 
ATOM     10  C16 UNL     1     152.272 161.621 164.511  0.00  0.00    +0.038 A 
ATOM     11  C17 UNL     1     151.487 162.262 165.487  0.00  0.00    -0.016 A 
ATOM     12  C18 UNL     1     152.033 162.598 166.736  0.00  0.00    +0.008 A 
ATOM     13  C19 UNL     1     151.260 163.234 167.709  0.00  0.00    +0.001 A 
ATOM     14  C20 UNL     1     149.929 163.541 167.444  0.00  0.00    +0.001 A 
ATOM     15  C21 UNL     1     149.370 163.215 166.208  0.00  0.00    +0.008 A 
ATOM     16  C22 UNL     1     150.131 162.575 165.217  0.00  0.00    -0.016 A 
ATOM     17  C23 UNL     1     149.556 162.251 163.975  0.00  0.00    +0.036 A 
ATOM     18  C24 UNL     1     150.372 161.615 163.037  0.00  0.00    +0.067 A 
ATOM     19  N3  UNL     1     150.143 161.169 161.761  0.00  0.00    -0.338 N 
ATOM     20  H16 UNL     1     149.268 161.242 161.267  0.00  0.00    +0.167 HD
ENDBRANCH   4   7
BRANCH   1  23
ATOM     21  C7  UNL     1     152.509 157.190 155.677  0.00  0.00    +0.248 C 
ATOM     22  O1  UNL     1     152.781 156.293 156.470  0.00  0.00    -0.270 OA
ATOM     23  N1  UNL     1     152.042 158.448 156.027  0.00  0.00    -0.282 N 
ATOM     24  H5  UNL     1     151.850 159.109 155.293  0.00  0.00    +0.155 HD
BRANCH  21  30
ATOM     25 BR1  UNL     1     155.216 154.851 151.607  0.00  0.00    -0.050 Br
ATOM     26  C1  UNL     1     153.817 155.917 152.303  0.00  0.00    +0.019 A 
ATOM     27  C2  UNL     1     152.892 156.487 151.431  0.00  0.00    +0.015 A 
ATOM     28  C3  UNL     1     151.863 157.271 151.943  0.00  0.00    +0.002 A 
ATOM     29  C4  UNL     1     151.766 157.479 153.321  0.00  0.00    +0.013 A 
ATOM     30  C5  UNL     1     152.695 156.909 154.211  0.00  0.00    +0.038 A 
ATOM     31  C6  UNL     1     153.728 156.120 153.685  0.00  0.00    +0.028 A 
ENDBRANCH  21  30
ENDBRANCH   1  23
TORSDOF 3
ENDMDL
MODEL 3
REMARK VINA RESULT:    -5.787      0.610      1.483
REMARK INTER + INTRA:          -7.483
REMARK INTER:                  -6.803
REMARK INTRA:                  -0.680
REMARK UNBOUND:                -0.682
REMARK  Name = /home/vital/Documents/PhD_2021/Malaria_codes/data/pdb_ligands_mmv/ligand_298.pdb
REMARK  3 active torsions:
REMARK  status: ('A' for Active; 'I' for Inactive)
REMARK    1  A    between atoms: C5_6  and  C7_8
REMARK    2  A    between atoms: N1_10  and  C8_11
REMARK    3  A    between atoms: C11_14  and  C14_17
REMARK                            x       y       z     vdW  Elec       q    Type
REMARK                         _______ _______ _______ _____ _____    ______ ____
ROOT
ATOM      1  C8  UNL     1     151.009 160.921 161.773  0.00  0.00    +0.034 A 
ATOM      2  C9  UNL     1     151.588 161.600 160.702  0.00  0.00    +0.024 A 
ATOM      3  C10 UNL     1     151.754 160.972 159.458  0.00  0.00    +0.013 A 
ATOM      4  C11 UNL     1     151.346 159.648 159.259  0.00  0.00    +0.017 A 
ATOM      5  C12 UNL     1     150.766 158.972 160.340  0.00  0.00    +0.013 A 
ATOM      6  C13 UNL     1     150.598 159.598 161.581  0.00  0.00    +0.024 A 
ENDROOT
BRANCH   4   7
ATOM      7  C14 UNL     1     151.500 158.948 157.978  0.00  0.00    +0.139 A 
ATOM      8  N2  UNL     1     151.821 159.511 156.824  0.00  0.00    -0.228 NA
ATOM      9  C15 UNL     1     151.856 158.501 155.896  0.00  0.00    +0.090 A 
ATOM     10  C16 UNL     1     152.143 158.549 154.525  0.00  0.00    +0.038 A 
ATOM     11  C17 UNL     1     152.114 157.361 153.772  0.00  0.00    -0.016 A 
ATOM     12  C18 UNL     1     152.397 157.378 152.398  0.00  0.00    +0.008 A 
ATOM     13  C19 UNL     1     152.370 156.203 151.646  0.00  0.00    +0.001 A 
ATOM     14  C20 UNL     1     152.060 154.993 152.260  0.00  0.00    +0.001 A 
ATOM     15  C21 UNL     1     151.777 154.957 153.626  0.00  0.00    +0.008 A 
ATOM     16  C22 UNL     1     151.798 156.129 154.399  0.00  0.00    -0.016 A 
ATOM     17  C23 UNL     1     151.510 156.079 155.775  0.00  0.00    +0.036 A 
ATOM     18  C24 UNL     1     151.549 157.284 156.482  0.00  0.00    +0.067 A 
ATOM     19  N3  UNL     1     151.329 157.592 157.799  0.00  0.00    -0.338 N 
ATOM     20  H16 UNL     1     151.081 156.931 158.519  0.00  0.00    +0.167 HD
ENDBRANCH   4   7
BRANCH   1  23
ATOM     21  C7  UNL     1     151.744 161.642 164.062  0.00  0.00    +0.248 C 
ATOM     22  O1  UNL     1     152.926 161.317 163.983  0.00  0.00    -0.270 OA
ATOM     23  N1  UNL     1     150.805 161.478 163.056  0.00  0.00    -0.282 N 
ATOM     24  H5  UNL     1     149.860 161.781 163.228  0.00  0.00    +0.155 HD
BRANCH  21  30
ATOM     25 BR1  UNL     1     152.720 163.540 169.043  0.00  0.00    -0.050 Br
ATOM     26  C1  UNL     1     151.578 163.144 167.587  0.00  0.00    +0.019 A 
ATOM     27  C2  UNL     1     150.219 163.436 167.684  0.00  0.00    +0.015 A 
ATOM     28  C3  UNL     1     149.379 163.145 166.615  0.00  0.00    +0.002 A 
ATOM     29  C4  UNL     1     149.903 162.565 165.456  0.00  0.00    +0.013 A 
ATOM     30  C5  UNL     1     151.274 162.265 165.348  0.00  0.00    +0.038 A 
ATOM     31  C6  UNL     1     152.112 162.563 166.431  0.00  0.00    +0.028 A 
ENDBRANCH  21  30
ENDBRANCH   1  23
TORSDOF 3
ENDMDL
MODEL 4
REMARK VINA RESULT:    -5.617      3.792     11.697
REMARK INTER + INTRA:          -7.284
REMARK INTER:                  -6.655
REMARK INTRA:                  -0.629
REMARK UNBOUND:                -0.682
REMARK  Name = /home/vital/Documents/PhD_2021/Malaria_codes/data/pdb_ligands_mmv/ligand_298.pdb
REMARK  3 active torsions:
REMARK  status: ('A' for Active; 'I' for Inactive)
REMARK    1  A    between atoms: C5_6  and  C7_8
REMARK    2  A    between atoms: N1_10  and  C8_11
REMARK    3  A    between atoms: C11_14  and  C14_17
REMARK                            x       y       z     vdW  Elec       q    Type
REMARK                         _______ _______ _______ _____ _____    ______ ____
ROOT
ATOM      1  C8  UNL     1     151.853 158.786 158.965  0.00  0.00    +0.034 A 
ATOM      2  C9  UNL     1     152.023 160.161 159.118  0.00  0.00    +0.024 A 
ATOM      3  C10 UNL     1     151.761 160.785 160.347  0.00  0.00    +0.013 A 
ATOM      4  C11 UNL     1     151.322 160.047 161.452  0.00  0.00    +0.017 A 
ATOM      5  C12 UNL     1     151.154 158.666 161.291  0.00  0.00    +0.013 A 
ATOM      6  C13 UNL     1     151.415 158.042 160.065  0.00  0.00    +0.024 A 
ENDROOT
BRANCH   4   7
ATOM      7  C14 UNL     1     151.035 160.654 162.757  0.00  0.00    +0.139 A 
ATOM      8  N2  UNL     1     149.839 161.006 163.199  0.00  0.00    -0.228 NA
ATOM      9  C15 UNL     1     150.026 161.528 164.454  0.00  0.00    +0.090 A 
ATOM     10  C16 UNL     1     149.092 162.047 165.360  0.00  0.00    +0.038 A 
ATOM     11  C17 UNL     1     149.535 162.532 166.605  0.00  0.00    -0.016 A 
ATOM     12  C18 UNL     1     148.622 163.058 167.533  0.00  0.00    +0.008 A 
ATOM     13  C19 UNL     1     149.055 163.539 168.769  0.00  0.00    +0.001 A 
ATOM     14  C20 UNL     1     150.408 163.500 169.094  0.00  0.00    +0.001 A 
ATOM     15  C21 UNL     1     151.329 162.980 168.184  0.00  0.00    +0.008 A 
ATOM     16  C22 UNL     1     150.913 162.492 166.935  0.00  0.00    -0.016 A 
ATOM     17  C23 UNL     1     151.852 161.969 166.026  0.00  0.00    +0.036 A 
ATOM     18  C24 UNL     1     151.366 161.502 164.802  0.00  0.00    +0.067 A 
ATOM     19  N3  UNL     1     151.985 160.944 163.714  0.00  0.00    -0.338 N 
ATOM     20  H16 UNL     1     152.975 160.775 163.629  0.00  0.00    +0.167 HD
ENDBRANCH   4   7
BRANCH   1  23
ATOM     21  C7  UNL     1     151.157 157.662 156.832  0.00  0.00    +0.248 C 
ATOM     22  O1  UNL     1     149.946 157.850 156.916  0.00  0.00    -0.270 OA
ATOM     23  N1  UNL     1     152.093 158.079 157.765  0.00  0.00    -0.282 N 
ATOM     24  H5  UNL     1     153.063 157.871 157.597  0.00  0.00    +0.155 HD
BRANCH  21  30
ATOM     25 BR1  UNL     1     153.863 157.540 152.139  0.00  0.00    -0.050 Br
ATOM     26  C1  UNL     1     152.850 156.733 153.518  0.00  0.00    +0.019 A 
ATOM     27  C2  UNL     1     152.546 155.376 153.440  0.00  0.00    +0.015 A 
ATOM     28  C3  UNL     1     151.802 154.782 154.453  0.00  0.00    +0.002 A 
ATOM     29  C4  UNL     1     151.367 155.549 155.538  0.00  0.00    +0.013 A 
ATOM     30  C5  UNL     1     151.669 156.920 155.627  0.00  0.00    +0.038 A 
ATOM     31  C6  UNL     1     152.420 157.508 154.601  0.00  0.00    +0.028 A 
ENDBRANCH  21  30
ENDBRANCH   1  23
TORSDOF 3
ENDMDL
MODEL 5
REMARK VINA RESULT:    -5.540      1.641      1.968
REMARK INTER + INTRA:          -7.194
REMARK INTER:                  -6.614
REMARK INTRA:                  -0.580
REMARK UNBOUND:                -0.682
REMARK  Name = /home/vital/Documents/PhD_2021/Malaria_codes/data/pdb_ligands_mmv/ligand_298.pdb
REMARK  3 active torsions:
REMARK  status: ('A' for Active; 'I' for Inactive)
REMARK    1  A    between atoms: C5_6  and  C7_8
REMARK    2  A    between atoms: N1_10  and  C8_11
REMARK    3  A    between atoms: C11_14  and  C14_17
REMARK                            x       y       z     vdW  Elec       q    Type
REMARK                         _______ _______ _______ _____ _____    ______ ____
ROOT
ATOM      1  C8  UNL     1     150.989 159.128 161.894  0.00  0.00    +0.034 A 
ATOM      2  C9  UNL     1     150.724 160.000 160.839  0.00  0.00    +0.024 A 
ATOM      3  C10 UNL     1     150.863 159.580 159.507  0.00  0.00    +0.013 A 
ATOM      4  C11 UNL     1     151.271 158.276 159.201  0.00  0.00    +0.017 A 
ATOM      5  C12 UNL     1     151.535 157.406 160.266  0.00  0.00    +0.013 A 
ATOM      6  C13 UNL     1     151.396 157.824 161.596  0.00  0.00    +0.024 A 
ENDROOT
BRANCH   4   7
ATOM      7  C14 UNL     1     151.430 157.791 157.825  0.00  0.00    +0.139 A 
ATOM      8  N2  UNL     1     151.116 156.581 157.392  0.00  0.00    -0.228 NA
ATOM      9  C15 UNL     1     151.425 156.555 156.055  0.00  0.00    +0.090 A 
ATOM     10  C16 UNL     1     151.290 155.520 155.121  0.00  0.00    +0.038 A 
ATOM     11  C17 UNL     1     151.682 155.738 153.787  0.00  0.00    -0.016 A 
ATOM     12  C18 UNL     1     151.558 154.719 152.830  0.00  0.00    +0.008 A 
ATOM     13  C19 UNL     1     151.946 154.930 151.505  0.00  0.00    +0.001 A 
ATOM     14  C20 UNL     1     152.462 156.164 151.122  0.00  0.00    +0.001 A 
ATOM     15  C21 UNL     1     152.592 157.188 152.061  0.00  0.00    +0.008 A 
ATOM     16  C22 UNL     1     152.208 156.995 153.397  0.00  0.00    -0.016 A 
ATOM     17  C23 UNL     1     152.344 158.036 154.334  0.00  0.00    +0.036 A 
ATOM     18  C24 UNL     1     151.942 157.773 155.646  0.00  0.00    +0.067 A 
ATOM     19  N3  UNL     1     151.935 158.539 156.783  0.00  0.00    -0.338 N 
ATOM     20  H16 UNL     1     152.250 159.494 156.844  0.00  0.00    +0.167 HD
ENDBRANCH   4   7
BRANCH   1  23
ATOM     21  C7  UNL     1     151.898 159.578 164.189  0.00  0.00    +0.248 C 
ATOM     22  O1  UNL     1     153.088 159.387 163.953  0.00  0.00    -0.270 OA
ATOM     23  N1  UNL     1     150.875 159.469 163.261  0.00  0.00    -0.282 N 
ATOM     24  H5  UNL     1     149.932 159.648 163.563  0.00  0.00    +0.155 HD
BRANCH  21  30
ATOM     25 BR1  UNL     1     148.592 162.058 167.695  0.00  0.00    -0.050 Br
ATOM     26  C1  UNL     1     150.117 161.024 167.264  0.00  0.00    +0.019 A 
ATOM     27  C2  UNL     1     150.952 160.576 168.285  0.00  0.00    +0.015 A 
ATOM     28  C3  UNL     1     152.073 159.816 167.969  0.00  0.00    +0.002 A 
ATOM     29  C4  UNL     1     152.352 159.510 166.634  0.00  0.00    +0.013 A 
ATOM     30  C5  UNL     1     151.515 159.958 165.594  0.00  0.00    +0.038 A 
ATOM     31  C6  UNL     1     150.388 160.722 165.924  0.00  0.00    +0.028 A 
ENDBRANCH  21  30
ENDBRANCH   1  23
TORSDOF 3
ENDMDL
MODEL 6
REMARK VINA RESULT:    -5.519      4.481     11.685
REMARK INTER + INTRA:          -7.169
REMARK INTER:                  -6.951
REMARK INTRA:                  -0.218
REMARK UNBOUND:                -0.682
REMARK  Name = /home/vital/Documents/PhD_2021/Malaria_codes/data/pdb_ligands_mmv/ligand_298.pdb
REMARK  3 active torsions:
REMARK  status: ('A' for Active; 'I' for Inactive)
REMARK    1  A    between atoms: C5_6  and  C7_8
REMARK    2  A    between atoms: N1_10  and  C8_11
REMARK    3  A    between atoms: C11_14  and  C14_17
REMARK                            x       y       z     vdW  Elec       q    Type
REMARK                         _______ _______ _______ _____ _____    ______ ____
ROOT
ATOM      1  C8  UNL     1     152.146 157.576 156.310  0.00  0.00    +0.034 A 
ATOM      2  C9  UNL     1     151.606 156.777 157.317  0.00  0.00    +0.024 A 
ATOM      3  C10 UNL     1     151.310 157.314 158.580  0.00  0.00    +0.013 A 
ATOM      4  C11 UNL     1     151.548 158.664 158.863  0.00  0.00    +0.017 A 
ATOM      5  C12 UNL     1     152.090 159.460 157.846  0.00  0.00    +0.013 A 
ATOM      6  C13 UNL     1     152.385 158.926 156.586  0.00  0.00    +0.024 A 
ENDROOT
BRANCH   4   7
ATOM      7  C14 UNL     1     151.255 159.270 160.167  0.00  0.00    +0.139 A 
ATOM      8  N2  UNL     1     150.465 160.311 160.375  0.00  0.00    -0.228 NA
ATOM      9  C15 UNL     1     150.475 160.541 161.728  0.00  0.00    +0.090 A 
ATOM     10  C16 UNL     1     149.810 161.521 162.477  0.00  0.00    +0.038 A 
ATOM     11  C17 UNL     1     149.981 161.555 163.873  0.00  0.00    -0.016 A 
ATOM     12  C18 UNL     1     149.327 162.524 164.650  0.00  0.00    +0.008 A 
ATOM     13  C19 UNL     1     149.493 162.563 166.036  0.00  0.00    +0.001 A 
ATOM     14  C20 UNL     1     150.315 161.632 166.662  0.00  0.00    +0.001 A 
ATOM     15  C21 UNL     1     150.972 160.661 165.905  0.00  0.00    +0.008 A 
ATOM     16  C22 UNL     1     150.819 160.606 164.511  0.00  0.00    -0.016 A 
ATOM     17  C23 UNL     1     151.487 159.621 163.759  0.00  0.00    +0.036 A 
ATOM     18  C24 UNL     1     151.288 159.627 162.376  0.00  0.00    +0.067 A 
ATOM     19  N3  UNL     1     151.769 158.832 161.369  0.00  0.00    -0.338 N 
ATOM     20  H16 UNL     1     152.399 158.055 161.490  0.00  0.00    +0.167 HD
ENDBRANCH   4   7
BRANCH   1  23
ATOM     21  C7  UNL     1     152.197 155.873 154.468  0.00  0.00    +0.248 C 
ATOM     22  O1  UNL     1     151.612 154.962 155.047  0.00  0.00    -0.270 OA
ATOM     23  N1  UNL     1     152.473 157.117 155.014  0.00  0.00    -0.282 N 
ATOM     24  H5  UNL     1     152.959 157.792 154.448  0.00  0.00    +0.155 HD
BRANCH  21  30
ATOM     25 BR1  UNL     1     156.129 155.033 150.834  0.00  0.00    -0.050 Br
ATOM     26  C1  UNL     1     154.316 155.242 151.333  0.00  0.00    +0.019 A 
ATOM     27  C2  UNL     1     153.324 155.168 150.357  0.00  0.00    +0.015 A 
ATOM     28  C3  UNL     1     151.991 155.322 150.723  0.00  0.00    +0.002 A 
ATOM     29  C4  UNL     1     151.659 155.549 152.061  0.00  0.00    +0.013 A 
ATOM     30  C5  UNL     1     152.653 155.626 153.055  0.00  0.00    +0.038 A 
ATOM     31  C6  UNL     1     153.992 155.469 152.675  0.00  0.00    +0.028 A 
ENDBRANCH  21  30
ENDBRANCH   1  23
TORSDOF 3
ENDMDL
MODEL 7
REMARK VINA RESULT:    -5.230      1.644      2.334
REMARK INTER + INTRA:          -6.829
REMARK INTER:                  -6.189
REMARK INTRA:                  -0.640
REMARK UNBOUND:                -0.682
REMARK  Name = /home/vital/Documents/PhD_2021/Malaria_codes/data/pdb_ligands_mmv/ligand_298.pdb
REMARK  3 active torsions:
REMARK  status: ('A' for Active; 'I' for Inactive)
REMARK    1  A    between atoms: C5_6  and  C7_8
REMARK    2  A    between atoms: N1_10  and  C8_11
REMARK    3  A    between atoms: C11_14  and  C14_17
REMARK                            x       y       z     vdW  Elec       q    Type
REMARK                         _______ _______ _______ _____ _____    ______ ____
ROOT
ATOM      1  C8  UNL     1     151.154 160.905 163.619  0.00  0.00    +0.034 A 
ATOM      2  C9  UNL     1     150.565 161.483 162.495  0.00  0.00    +0.024 A 
ATOM      3  C10 UNL     1     150.656 160.867 161.238  0.00  0.00    +0.013 A 
ATOM      4  C11 UNL     1     151.341 159.656 161.077  0.00  0.00    +0.017 A 
ATOM      5  C12 UNL     1     151.930 159.082 162.210  0.00  0.00    +0.013 A 
ATOM      6  C13 UNL     1     151.839 159.696 163.465  0.00  0.00    +0.024 A 
ENDROOT
BRANCH   4   7
ATOM      7  C14 UNL     1     151.464 158.974 159.783  0.00  0.00    +0.139 A 
ATOM      8  N2  UNL     1     151.130 157.718 159.538  0.00  0.00    -0.228 NA
ATOM      9  C15 UNL     1     151.407 157.494 158.213  0.00  0.00    +0.090 A 
ATOM     10  C16 UNL     1     151.241 156.335 157.443  0.00  0.00    +0.038 A 
ATOM     11  C17 UNL     1     151.604 156.352 156.084  0.00  0.00    -0.016 A 
ATOM     12  C18 UNL     1     151.449 155.206 155.288  0.00  0.00    +0.008 A 
ATOM     13  C19 UNL     1     151.807 155.217 153.938  0.00  0.00    +0.001 A 
ATOM     14  C20 UNL     1     152.324 156.376 153.368  0.00  0.00    +0.001 A 
ATOM     15  C21 UNL     1     152.483 157.525 154.144  0.00  0.00    +0.008 A 
ATOM     16  C22 UNL     1     152.130 157.533 155.502  0.00  0.00    -0.016 A 
ATOM     17  C23 UNL     1     152.296 158.698 156.274  0.00  0.00    +0.036 A 
ATOM     18  C24 UNL     1     151.924 158.633 157.619  0.00  0.00    +0.067 A 
ATOM     19  N3  UNL     1     151.950 159.557 158.632  0.00  0.00    -0.338 N 
ATOM     20  H16 UNL     1     152.274 160.507 158.546  0.00  0.00    +0.167 HD
ENDBRANCH   4   7
BRANCH   1  23
ATOM     21  C7  UNL     1     150.229 161.137 165.940  0.00  0.00    +0.248 C 
ATOM     22  O1  UNL     1     149.332 160.301 165.862  0.00  0.00    -0.270 OA
ATOM     23  N1  UNL     1     151.109 161.458 164.919  0.00  0.00    -0.282 N 
ATOM     24  H5  UNL     1     151.809 162.161 165.092  0.00  0.00    +0.155 HD
BRANCH  21  30
ATOM     25 BR1  UNL     1     152.962 162.150 170.509  0.00  0.00    -0.050 Br
ATOM     26  C1  UNL     1     151.514 162.417 169.320  0.00  0.00    +0.019 A 
ATOM     27  C2  UNL     1     150.524 163.342 169.644  0.00  0.00    +0.015 A 
ATOM     28  C3  UNL     1     149.460 163.539 168.770  0.00  0.00    +0.002 A 
ATOM     29  C4  UNL     1     149.393 162.810 167.580  0.00  0.00    +0.013 A 
ATOM     30  C5  UNL     1     150.388 161.873 167.243  0.00  0.00    +0.038 A 
ATOM     31  C6  UNL     1     151.456 161.683 168.130  0.00  0.00    +0.028 A 
ENDBRANCH  21  30
ENDBRANCH   1  23
TORSDOF 3
ENDMDL
MODEL 8
REMARK VINA RESULT:    -4.725     10.661     12.106
REMARK INTER + INTRA:          -6.235
REMARK INTER:                  -5.590
REMARK INTRA:                  -0.645
REMARK UNBOUND:                -0.682
REMARK  Name = /home/vital/Documents/PhD_2021/Malaria_codes/data/pdb_ligands_mmv/ligand_298.pdb
REMARK  3 active torsions:
REMARK  status: ('A' for Active; 'I' for Inactive)
REMARK    1  A    between atoms: C5_6  and  C7_8
REMARK    2  A    between atoms: N1_10  and  C8_11
REMARK    3  A    between atoms: C11_14  and  C14_17
REMARK                            x       y       z     vdW  Elec       q    Type
REMARK                         _______ _______ _______ _____ _____    ______ ____
ROOT
ATOM      1  C8  UNL     1     148.624 153.492 163.808  0.00  0.00    +0.034 A 
ATOM      2  C9  UNL     1     148.790 152.630 164.891  0.00  0.00    +0.024 A 
ATOM      3  C10 UNL     1     148.131 151.392 164.932  0.00  0.00    +0.013 A 
ATOM      4  C11 UNL     1     147.289 150.989 163.888  0.00  0.00    +0.017 A 
ATOM      5  C12 UNL     1     147.127 151.861 162.804  0.00  0.00    +0.013 A 
ATOM      6  C13 UNL     1     147.785 153.096 162.762  0.00  0.00    +0.024 A 
ENDROOT
BRANCH   4   7
ATOM      7  C14 UNL     1     146.578 149.705 163.885  0.00  0.00    +0.139 A 
ATOM      8  N2  UNL     1     145.270 149.546 164.011  0.00  0.00    -0.228 NA
ATOM      9  C15 UNL     1     145.036 148.195 163.955  0.00  0.00    +0.090 A 
ATOM     10  C16 UNL     1     143.829 147.488 164.037  0.00  0.00    +0.038 A 
ATOM     11  C17 UNL     1     143.846 146.084 163.952  0.00  0.00    -0.016 A 
ATOM     12  C18 UNL     1     142.653 145.349 164.031  0.00  0.00    +0.008 A 
ATOM     13  C19 UNL     1     142.663 143.955 163.947  0.00  0.00    +0.001 A 
ATOM     14  C20 UNL     1     143.868 143.279 163.782  0.00  0.00    +0.001 A 
ATOM     15  C21 UNL     1     145.064 143.994 163.701  0.00  0.00    +0.008 A 
ATOM     16  C22 UNL     1     145.074 145.395 163.784  0.00  0.00    -0.016 A 
ATOM     17  C23 UNL     1     146.286 146.105 163.700  0.00  0.00    +0.036 A 
ATOM     18  C24 UNL     1     146.221 147.497 163.791  0.00  0.00    +0.067 A 
ATOM     19  N3  UNL     1     147.182 148.474 163.749  0.00  0.00    -0.338 N 
ATOM     20  H16 UNL     1     148.171 148.313 163.638  0.00  0.00    +0.167 HD
ENDBRANCH   4   7
BRANCH   1  23
ATOM     21  C7  UNL     1     150.435 155.047 163.031  0.00  0.00    +0.248 C 
ATOM     22  O1  UNL     1     151.135 154.228 162.441  0.00  0.00    -0.270 OA
ATOM     23  N1  UNL     1     149.250 154.754 163.688  0.00  0.00    -0.282 N 
ATOM     24  H5  UNL     1     148.754 155.504 164.140  0.00  0.00    +0.155 HD
BRANCH  21  30
ATOM     25 BR1  UNL     1     151.318 159.767 160.520  0.00  0.00    -0.050 Br
ATOM     26  C1  UNL     1     151.335 158.641 162.041  0.00  0.00    +0.019 A 
ATOM     27  C2  UNL     1     151.795 159.141 163.257  0.00  0.00    +0.015 A 
ATOM     28  C3  UNL     1     151.807 158.314 164.375  0.00  0.00    +0.002 A 
ATOM     29  C4  UNL     1     151.361 156.994 164.270  0.00  0.00    +0.013 A 
ATOM     30  C5  UNL     1     150.894 156.479 163.046  0.00  0.00    +0.038 A 
ATOM     31  C6  UNL     1     150.885 157.321 161.926  0.00  0.00    +0.028 A 
ENDBRANCH  21  30
ENDBRANCH   1  23
TORSDOF 3
ENDMDL
MODEL 9
REMARK VINA RESULT:    -4.707     10.625     12.066
REMARK INTER + INTRA:          -6.215
REMARK INTER:                  -5.573
REMARK INTRA:                  -0.642
REMARK UNBOUND:                -0.682
REMARK  Name = /home/vital/Documents/PhD_2021/Malaria_codes/data/pdb_ligands_mmv/ligand_298.pdb
REMARK  3 active torsions:
REMARK  status: ('A' for Active; 'I' for Inactive)
REMARK    1  A    between atoms: C5_6  and  C7_8
REMARK    2  A    between atoms: N1_10  and  C8_11
REMARK    3  A    between atoms: C11_14  and  C14_17
REMARK                            x       y       z     vdW  Elec       q    Type
REMARK                         _______ _______ _______ _____ _____    ______ ____
ROOT
ATOM      1  C8  UNL     1     148.676 153.514 163.792  0.00  0.00    +0.034 A 
ATOM      2  C9  UNL     1     148.866 152.643 164.864  0.00  0.00    +0.024 A 
ATOM      3  C10 UNL     1     148.217 151.400 164.903  0.00  0.00    +0.013 A 
ATOM      4  C11 UNL     1     147.362 151.000 163.870  0.00  0.00    +0.017 A 
ATOM      5  C12 UNL     1     147.176 151.880 162.797  0.00  0.00    +0.013 A 
ATOM      6  C13 UNL     1     147.823 153.120 162.756  0.00  0.00    +0.024 A 
ENDROOT
BRANCH   4   7
ATOM      7  C14 UNL     1     146.661 149.710 163.867  0.00  0.00    +0.139 A 
ATOM      8  N2  UNL     1     147.231 148.521 163.757  0.00  0.00    -0.228 NA
ATOM      9  C15 UNL     1     146.217 147.598 163.800  0.00  0.00    +0.090 A 
ATOM     10  C16 UNL     1     146.269 146.200 163.726  0.00  0.00    +0.038 A 
ATOM     11  C17 UNL     1     145.075 145.460 163.794  0.00  0.00    -0.016 A 
ATOM     12  C18 UNL     1     145.096 144.059 163.722  0.00  0.00    +0.008 A 
ATOM     13  C19 UNL     1     143.914 143.319 163.789  0.00  0.00    +0.001 A 
ATOM     14  C20 UNL     1     142.694 143.973 163.930  0.00  0.00    +0.001 A 
ATOM     15  C21 UNL     1     142.654 145.366 164.004  0.00  0.00    +0.008 A 
ATOM     16  C22 UNL     1     143.832 146.127 163.938  0.00  0.00    -0.016 A 
ATOM     17  C23 UNL     1     143.778 147.531 164.014  0.00  0.00    +0.036 A 
ATOM     18  C24 UNL     1     144.989 148.224 163.940  0.00  0.00    +0.067 A 
ATOM     19  N3  UNL     1     145.296 149.559 163.981  0.00  0.00    -0.338 N 
ATOM     20  H16 UNL     1     144.628 150.308 164.078  0.00  0.00    +0.167 HD
ENDBRANCH   4   7
BRANCH   1  23
ATOM     21  C7  UNL     1     150.439 155.098 162.966  0.00  0.00    +0.248 C 
ATOM     22  O1  UNL     1     151.113 154.298 162.322  0.00  0.00    -0.270 OA
ATOM     23  N1  UNL     1     149.289 154.782 163.673  0.00  0.00    -0.282 N 
ATOM     24  H5  UNL     1     148.813 155.518 164.167  0.00  0.00    +0.155 HD
BRANCH  21  30
ATOM     25 BR1  UNL     1     151.171 159.886 160.537  0.00  0.00    -0.050 Br
ATOM     26  C1  UNL     1     151.271 158.722 162.025  0.00  0.00    +0.019 A 
ATOM     27  C2  UNL     1     151.792 159.193 163.229  0.00  0.00    +0.015 A 
ATOM     28  C3  UNL     1     151.866 158.337 164.323  0.00  0.00    +0.002 A 
ATOM     29  C4  UNL     1     151.420 157.018 164.206  0.00  0.00    +0.013 A 
ATOM     30  C5  UNL     1     150.893 156.532 162.995  0.00  0.00    +0.038 A 
ATOM     31  C6  UNL     1     150.822 157.403 161.899  0.00  0.00    +0.028 A 
ENDBRANCH  21  30
ENDBRANCH   1  23
TORSDOF 3
ENDMDL
