MODEL 1
REMARK VINA RESULT:    -6.809      0.000      0.000
REMARK INTER + INTRA:          -8.825
REMARK INTER:                  -8.004
REMARK INTRA:                  -0.821
REMARK UNBOUND:                -0.821
REMARK  Name = /home/vital/Documents/PhD_2021/Malaria_codes/data/pdb_ligands_mmv/ligand_250.pdb
REMARK  4 active torsions:
REMARK  status: ('A' for Active; 'I' for Inactive)
REMARK    1  A    between atoms: O1_1  and  C1_2
REMARK    2  A    between atoms: C4_5  and  C7_8
REMARK    3  A    between atoms: C7_8  and  C9_12
REMARK    4  A    between atoms: C12_15  and  O2_16
REMARK                            x       y       z     vdW  Elec       q    Type
REMARK                         _______ _______ _______ _____ _____    ______ ____
ROOT
ATOM      1  C7  UNL     1     150.603 156.937 158.495  0.00  0.00    +0.019 C 
ATOM      2  C8  UNL     1     150.061 158.175 158.589  0.00  0.00    +0.115 C 
ATOM      3 CL1  UNL     1     149.503 158.855 160.093  0.00  0.00    -0.070 Cl
ATOM      4 CL2  UNL     1     149.861 159.229 157.215  0.00  0.00    -0.070 Cl
ENDROOT
BRANCH   1   8
ATOM      5  C1  UNL     1     151.831 155.441 154.685  0.00  0.00    +0.117 A 
ATOM      6  C2  UNL     1     150.527 155.234 155.119  0.00  0.00    +0.046 A 
ATOM      7  C3  UNL     1     150.126 155.721 156.364  0.00  0.00    +0.012 A 
ATOM      8  C4  UNL     1     151.034 156.414 157.176  0.00  0.00    -0.015 A 
ATOM      9  C5  UNL     1     152.345 156.620 156.720  0.00  0.00    +0.012 A 
ATOM     10  C6  UNL     1     152.745 156.131 155.474  0.00  0.00    +0.046 A 
BRANCH   5  11
ATOM     11  O1  UNL     1     152.179 154.948 153.462  0.00  0.00    -0.507 OA
ATOM     12  H1  UNL     1     151.462 154.375 153.144  0.00  0.00    +0.292 HD
ENDBRANCH   5  11
ENDBRANCH   1   8
BRANCH   1  13
ATOM     13  C9  UNL     1     150.766 156.104 159.712  0.00  0.00    -0.015 A 
ATOM     14  C10 UNL     1     151.732 156.442 160.669  0.00  0.00    +0.012 A 
ATOM     15  C11 UNL     1     151.884 155.665 161.819  0.00  0.00    +0.046 A 
ATOM     16  C12 UNL     1     151.070 154.555 162.013  0.00  0.00    +0.117 A 
ATOM     17  C13 UNL     1     150.101 154.207 161.077  0.00  0.00    +0.046 A 
ATOM     18  C14 UNL     1     149.949 154.984 159.926  0.00  0.00    +0.012 A 
BRANCH  16  19
ATOM     19  O2  UNL     1     151.254 153.825 163.150  0.00  0.00    -0.507 OA
ATOM     20  H8  UNL     1     150.674 154.179 163.843  0.00  0.00    +0.292 HD
ENDBRANCH  16  19
ENDBRANCH   1  13
TORSDOF 4
ENDMDL
MODEL 2
REMARK VINA RESULT:    -6.643      0.340      5.734
REMARK INTER + INTRA:          -8.629
REMARK INTER:                  -7.849
REMARK INTRA:                  -0.780
REMARK UNBOUND:                -0.821
REMARK  Name = /home/vital/Documents/PhD_2021/Malaria_codes/data/pdb_ligands_mmv/ligand_250.pdb
REMARK  4 active torsions:
REMARK  status: ('A' for Active; 'I' for Inactive)
REMARK    1  A    between atoms: O1_1  and  C1_2
REMARK    2  A    between atoms: C4_5  and  C7_8
REMARK    3  A    between atoms: C7_8  and  C9_12
REMARK    4  A    between atoms: C12_15  and  O2_16
REMARK                            x       y       z     vdW  Elec       q    Type
REMARK                         _______ _______ _______ _____ _____    ______ ____
ROOT
ATOM      1  C7  UNL     1     150.580 156.975 158.666  0.00  0.00    +0.019 C 
ATOM      2  C8  UNL     1     150.196 158.269 158.779  0.00  0.00    +0.115 C 
ATOM      3 CL1  UNL     1     150.022 159.330 157.407  0.00  0.00    -0.070 Cl
ATOM      4 CL2  UNL     1     149.831 159.020 160.308  0.00  0.00    -0.070 Cl
ENDROOT
BRANCH   1   8
ATOM      5  C1  UNL     1     151.009 154.578 162.179  0.00  0.00    +0.117 A 
ATOM      6  C2  UNL     1     151.916 155.601 161.927  0.00  0.00    +0.046 A 
ATOM      7  C3  UNL     1     151.777 156.383 160.779  0.00  0.00    +0.012 A 
ATOM      8  C4  UNL     1     150.730 156.137 159.881  0.00  0.00    -0.015 A 
ATOM      9  C5  UNL     1     149.818 155.105 160.153  0.00  0.00    +0.012 A 
ATOM     10  C6  UNL     1     149.960 154.323 161.302  0.00  0.00    +0.046 A 
BRANCH   5  11
ATOM     11  O1  UNL     1     151.184 153.840 163.311  0.00  0.00    -0.507 OA
ATOM     12  H1  UNL     1     151.976 154.160 163.772  0.00  0.00    +0.292 HD
ENDBRANCH   5  11
ENDBRANCH   1   8
BRANCH   1  13
ATOM     13  C9  UNL     1     150.850 156.394 157.328  0.00  0.00    -0.015 A 
ATOM     14  C10 UNL     1     149.823 155.756 156.620  0.00  0.00    +0.012 A 
ATOM     15  C11 UNL     1     150.071 155.215 155.357  0.00  0.00    +0.046 A 
ATOM     16  C12 UNL     1     151.342 155.314 154.802  0.00  0.00    +0.117 A 
ATOM     17  C13 UNL     1     152.373 155.949 155.488  0.00  0.00    +0.046 A 
ATOM     18  C14 UNL     1     152.125 156.491 156.751  0.00  0.00    +0.012 A 
BRANCH  16  19
ATOM     19  O2  UNL     1     151.539 154.771 153.568  0.00  0.00    -0.507 OA
ATOM     20  H8  UNL     1     152.191 155.309 153.092  0.00  0.00    +0.292 HD
ENDBRANCH  16  19
ENDBRANCH   1  13
TORSDOF 4
ENDMDL
MODEL 3
REMARK VINA RESULT:    -6.313      9.428     12.798
REMARK INTER + INTRA:          -8.241
REMARK INTER:                  -7.337
REMARK INTRA:                  -0.905
REMARK UNBOUND:                -0.821
REMARK  Name = /home/vital/Documents/PhD_2021/Malaria_codes/data/pdb_ligands_mmv/ligand_250.pdb
REMARK  4 active torsions:
REMARK  status: ('A' for Active; 'I' for Inactive)
REMARK    1  A    between atoms: O1_1  and  C1_2
REMARK    2  A    between atoms: C4_5  and  C7_8
REMARK    3  A    between atoms: C7_8  and  C9_12
REMARK    4  A    between atoms: C12_15  and  O2_16
REMARK                            x       y       z     vdW  Elec       q    Type
REMARK                         _______ _______ _______ _____ _____    ______ ____
ROOT
ATOM      1  C7  UNL     1     145.015 148.500 164.975  0.00  0.00    +0.019 C 
ATOM      2  C8  UNL     1     145.458 147.221 164.988  0.00  0.00    +0.115 C 
ATOM      3 CL1  UNL     1     146.841 146.687 164.071  0.00  0.00    -0.070 Cl
ATOM      4 CL2  UNL     1     144.697 145.963 165.922  0.00  0.00    -0.070 Cl
ENDROOT
BRANCH   1   8
ATOM      5  C1  UNL     1     141.569 149.609 167.248  0.00  0.00    +0.117 A 
ATOM      6  C2  UNL     1     142.802 149.489 167.879  0.00  0.00    +0.046 A 
ATOM      7  C3  UNL     1     143.927 149.125 167.137  0.00  0.00    +0.012 A 
ATOM      8  C4  UNL     1     143.816 148.878 165.763  0.00  0.00    -0.015 A 
ATOM      9  C5  UNL     1     142.565 149.010 165.139  0.00  0.00    +0.012 A 
ATOM     10  C6  UNL     1     141.440 149.373 165.883  0.00  0.00    +0.046 A 
BRANCH   5  11
ATOM     11  O1  UNL     1     140.498 149.965 168.012  0.00  0.00    -0.507 OA
ATOM     12  H1  UNL     1     139.758 149.372 167.805  0.00  0.00    +0.292 HD
ENDBRANCH   5  11
ENDBRANCH   1   8
BRANCH   1  13
ATOM     13  C9  UNL     1     145.729 149.526 164.175  0.00  0.00    -0.015 A 
ATOM     14  C10 UNL     1     145.319 149.803 162.864  0.00  0.00    +0.012 A 
ATOM     15  C11 UNL     1     145.983 150.772 162.110  0.00  0.00    +0.046 A 
ATOM     16  C12 UNL     1     147.052 151.466 162.667  0.00  0.00    +0.117 A 
ATOM     17  C13 UNL     1     147.470 151.208 163.969  0.00  0.00    +0.046 A 
ATOM     18  C14 UNL     1     146.806 150.238 164.723  0.00  0.00    +0.012 A 
BRANCH  16  19
ATOM     19  O2  UNL     1     147.671 152.402 161.895  0.00  0.00    -0.507 OA
ATOM     20  H8  UNL     1     148.405 151.979 161.421  0.00  0.00    +0.292 HD
ENDBRANCH  16  19
ENDBRANCH   1  13
TORSDOF 4
ENDMDL
MODEL 4
REMARK VINA RESULT:    -6.106      8.619     10.817
REMARK INTER + INTRA:          -7.998
REMARK INTER:                  -7.062
REMARK INTRA:                  -0.936
REMARK UNBOUND:                -0.821
REMARK  Name = /home/vital/Documents/PhD_2021/Malaria_codes/data/pdb_ligands_mmv/ligand_250.pdb
REMARK  4 active torsions:
REMARK  status: ('A' for Active; 'I' for Inactive)
REMARK    1  A    between atoms: O1_1  and  C1_2
REMARK    2  A    between atoms: C4_5  and  C7_8
REMARK    3  A    between atoms: C7_8  and  C9_12
REMARK    4  A    between atoms: C12_15  and  O2_16
REMARK                            x       y       z     vdW  Elec       q    Type
REMARK                         _______ _______ _______ _____ _____    ______ ____
ROOT
ATOM      1  C7  UNL     1     152.349 157.973 167.071  0.00  0.00    +0.019 C 
ATOM      2  C8  UNL     1     152.484 158.347 165.777  0.00  0.00    +0.115 C 
ATOM      3 CL1  UNL     1     152.689 157.205 164.476  0.00  0.00    -0.070 Cl
ATOM      4 CL2  UNL     1     152.468 160.012 165.264  0.00  0.00    -0.070 Cl
ENDROOT
BRANCH   1   8
ATOM      5  C1  UNL     1     151.914 160.924 170.132  0.00  0.00    +0.117 A 
ATOM      6  C2  UNL     1     150.800 160.510 169.410  0.00  0.00    +0.046 A 
ATOM      7  C3  UNL     1     150.943 159.548 168.409  0.00  0.00    +0.012 A 
ATOM      8  C4  UNL     1     152.202 159.002 168.129  0.00  0.00    -0.015 A 
ATOM      9  C5  UNL     1     153.316 159.425 168.872  0.00  0.00    +0.012 A 
ATOM     10  C6  UNL     1     153.171 160.390 169.873  0.00  0.00    +0.046 A 
BRANCH   5  11
ATOM     11  O1  UNL     1     151.728 161.867 171.099  0.00  0.00    -0.507 OA
ATOM     12  H1  UNL     1     152.237 161.609 171.885  0.00  0.00    +0.292 HD
ENDBRANCH   5  11
ENDBRANCH   1   8
BRANCH   1  13
ATOM     13  C9  UNL     1     152.347 156.534 167.432  0.00  0.00    -0.015 A 
ATOM     14  C10 UNL     1     153.549 155.888 167.749  0.00  0.00    +0.012 A 
ATOM     15  C11 UNL     1     153.550 154.536 168.097  0.00  0.00    +0.046 A 
ATOM     16  C12 UNL     1     152.352 153.832 168.131  0.00  0.00    +0.117 A 
ATOM     17  C13 UNL     1     151.147 154.457 167.823  0.00  0.00    +0.046 A 
ATOM     18  C14 UNL     1     151.145 155.810 167.476  0.00  0.00    +0.012 A 
BRANCH  16  19
ATOM     19  O2  UNL     1     152.400 152.514 168.474  0.00  0.00    -0.507 OA
ATOM     20  H8  UNL     1     151.744 152.350 169.170  0.00  0.00    +0.292 HD
ENDBRANCH  16  19
ENDBRANCH   1  13
TORSDOF 4
ENDMDL
MODEL 5
REMARK VINA RESULT:    -6.057      9.457     11.864
REMARK INTER + INTRA:          -7.940
REMARK INTER:                  -7.006
REMARK INTRA:                  -0.935
REMARK UNBOUND:                -0.821
REMARK  Name = /home/vital/Documents/PhD_2021/Malaria_codes/data/pdb_ligands_mmv/ligand_250.pdb
REMARK  4 active torsions:
REMARK  status: ('A' for Active; 'I' for Inactive)
REMARK    1  A    between atoms: O1_1  and  C1_2
REMARK    2  A    between atoms: C4_5  and  C7_8
REMARK    3  A    between atoms: C7_8  and  C9_12
REMARK    4  A    between atoms: C12_15  and  O2_16
REMARK                            x       y       z     vdW  Elec       q    Type
REMARK                         _______ _______ _______ _____ _____    ______ ____
ROOT
ATOM      1  C7  UNL     1     145.079 148.368 164.845  0.00  0.00    +0.019 C 
ATOM      2  C8  UNL     1     145.582 147.112 164.809  0.00  0.00    +0.115 C 
ATOM      3 CL1  UNL     1     144.880 145.783 165.692  0.00  0.00    -0.070 Cl
ATOM      4 CL2  UNL     1     146.990 146.679 163.878  0.00  0.00    -0.070 Cl
ENDROOT
BRANCH   1   8
ATOM      5  C1  UNL     1     146.977 151.511 162.657  0.00  0.00    +0.117 A 
ATOM      6  C2  UNL     1     146.071 150.674 162.016  0.00  0.00    +0.046 A 
ATOM      7  C3  UNL     1     145.452 149.647 162.730  0.00  0.00    +0.012 A 
ATOM      8  C4  UNL     1     145.745 149.456 164.086  0.00  0.00    -0.015 A 
ATOM      9  C5  UNL     1     146.657 150.313 164.721  0.00  0.00    +0.012 A 
ATOM     10  C6  UNL     1     147.276 151.341 164.004  0.00  0.00    +0.046 A 
BRANCH   5  11
ATOM     11  O1  UNL     1     147.557 152.501 161.920  0.00  0.00    -0.507 OA
ATOM     12  H1  UNL     1     148.496 152.557 162.161  0.00  0.00    +0.292 HD
ENDBRANCH   5  11
ENDBRANCH   1   8
BRANCH   1  13
ATOM     13  C9  UNL     1     143.861 148.659 165.641  0.00  0.00    -0.015 A 
ATOM     14  C10 UNL     1     143.978 149.101 166.966  0.00  0.00    +0.012 A 
ATOM     15  C11 UNL     1     142.835 149.382 167.716  0.00  0.00    +0.046 A 
ATOM     16  C12 UNL     1     141.578 149.226 167.142  0.00  0.00    +0.117 A 
ATOM     17  C13 UNL     1     141.442 148.792 165.827  0.00  0.00    +0.046 A 
ATOM     18  C14 UNL     1     142.586 148.511 165.076  0.00  0.00    +0.012 A 
BRANCH  16  19
ATOM     19  O2  UNL     1     140.490 149.511 167.912  0.00  0.00    -0.507 OA
ATOM     20  H8  UNL     1     139.712 149.084 167.520  0.00  0.00    +0.292 HD
ENDBRANCH  16  19
ENDBRANCH   1  13
TORSDOF 4
ENDMDL
MODEL 6
REMARK VINA RESULT:    -5.900      8.482     10.449
REMARK INTER + INTRA:          -7.756
REMARK INTER:                  -6.791
REMARK INTRA:                  -0.965
REMARK UNBOUND:                -0.821
REMARK  Name = /home/vital/Documents/PhD_2021/Malaria_codes/data/pdb_ligands_mmv/ligand_250.pdb
REMARK  4 active torsions:
REMARK  status: ('A' for Active; 'I' for Inactive)
REMARK    1  A    between atoms: O1_1  and  C1_2
REMARK    2  A    between atoms: C4_5  and  C7_8
REMARK    3  A    between atoms: C7_8  and  C9_12
REMARK    4  A    between atoms: C12_15  and  O2_16
REMARK                            x       y       z     vdW  Elec       q    Type
REMARK                         _______ _______ _______ _____ _____    ______ ____
ROOT
ATOM      1  C7  UNL     1     152.269 158.031 166.878  0.00  0.00    +0.019 C 
ATOM      2  C8  UNL     1     152.624 158.458 165.643  0.00  0.00    +0.115 C 
ATOM      3 CL1  UNL     1     152.686 160.143 165.203  0.00  0.00    -0.070 Cl
ATOM      4 CL2  UNL     1     153.060 157.371 164.353  0.00  0.00    -0.070 Cl
ENDROOT
BRANCH   1   8
ATOM      5  C1  UNL     1     152.117 153.850 167.752  0.00  0.00    +0.117 A 
ATOM      6  C2  UNL     1     153.296 154.556 167.962  0.00  0.00    +0.046 A 
ATOM      7  C3  UNL     1     153.346 155.921 167.675  0.00  0.00    +0.012 A 
ATOM      8  C4  UNL     1     152.215 156.578 167.174  0.00  0.00    -0.015 A 
ATOM      9  C5  UNL     1     151.030 155.853 166.973  0.00  0.00    +0.012 A 
ATOM     10  C6  UNL     1     150.982 154.486 167.260  0.00  0.00    +0.046 A 
BRANCH   5  11
ATOM     11  O1  UNL     1     152.114 152.519 168.046  0.00  0.00    -0.507 OA
ATOM     12  H1  UNL     1     152.976 152.282 168.422  0.00  0.00    +0.292 HD
ENDBRANCH   5  11
ENDBRANCH   1   8
BRANCH   1  13
ATOM     13  C9  UNL     1     151.934 159.015 167.936  0.00  0.00    -0.015 A 
ATOM     14  C10 UNL     1     150.610 159.443 168.104  0.00  0.00    +0.012 A 
ATOM     15  C11 UNL     1     150.290 160.363 169.103  0.00  0.00    +0.046 A 
ATOM     16  C12 UNL     1     151.290 160.852 169.936  0.00  0.00    +0.117 A 
ATOM     17  C13 UNL     1     152.609 160.436 169.788  0.00  0.00    +0.046 A 
ATOM     18  C14 UNL     1     152.930 159.515 168.789  0.00  0.00    +0.012 A 
BRANCH  16  19
ATOM     19  O2  UNL     1     150.931 161.750 170.897  0.00  0.00    -0.507 OA
ATOM     20  H8  UNL     1     150.797 162.615 170.479  0.00  0.00    +0.292 HD
ENDBRANCH  16  19
ENDBRANCH   1  13
TORSDOF 4
ENDMDL
MODEL 7
REMARK VINA RESULT:    -5.737     10.526     13.098
REMARK INTER + INTRA:          -7.564
REMARK INTER:                  -6.606
REMARK INTRA:                  -0.959
REMARK UNBOUND:                -0.821
REMARK  Name = /home/vital/Documents/PhD_2021/Malaria_codes/data/pdb_ligands_mmv/ligand_250.pdb
REMARK  4 active torsions:
REMARK  status: ('A' for Active; 'I' for Inactive)
REMARK    1  A    between atoms: O1_1  and  C1_2
REMARK    2  A    between atoms: C4_5  and  C7_8
REMARK    3  A    between atoms: C7_8  and  C9_12
REMARK    4  A    between atoms: C12_15  and  O2_16
REMARK                            x       y       z     vdW  Elec       q    Type
REMARK                         _______ _______ _______ _____ _____    ______ ____
ROOT
ATOM      1  C7  UNL     1     143.916 147.574 165.496  0.00  0.00    +0.019 C 
ATOM      2  C8  UNL     1     142.686 147.897 165.959  0.00  0.00    +0.115 C 
ATOM      3 CL1  UNL     1     141.634 146.749 166.743  0.00  0.00    -0.070 Cl
ATOM      4 CL2  UNL     1     142.012 149.499 165.824  0.00  0.00    -0.070 Cl
ENDROOT
BRANCH   1   8
ATOM      5  C1  UNL     1     146.291 150.536 163.535  0.00  0.00    +0.117 A 
ATOM      6  C2  UNL     1     145.399 149.768 162.796  0.00  0.00    +0.046 A 
ATOM      7  C3  UNL     1     144.625 148.799 163.436  0.00  0.00    +0.012 A 
ATOM      8  C4  UNL     1     144.747 148.598 164.817  0.00  0.00    -0.015 A 
ATOM      9  C5  UNL     1     145.647 149.387 165.550  0.00  0.00    +0.012 A 
ATOM     10  C6  UNL     1     146.423 150.356 164.907  0.00  0.00    +0.046 A 
BRANCH   5  11
ATOM     11  O1  UNL     1     147.028 151.470 162.868  0.00  0.00    -0.507 OA
ATOM     12  H1  UNL     1     146.947 152.319 163.332  0.00  0.00    +0.292 HD
ENDBRANCH   5  11
ENDBRANCH   1   8
BRANCH   1  13
ATOM     13  C9  UNL     1     144.435 146.194 165.668  0.00  0.00    -0.015 A 
ATOM     14  C10 UNL     1     144.187 145.224 164.688  0.00  0.00    +0.012 A 
ATOM     15  C11 UNL     1     144.680 143.927 164.843  0.00  0.00    +0.046 A 
ATOM     16  C12 UNL     1     145.423 143.602 165.972  0.00  0.00    +0.117 A 
ATOM     17  C13 UNL     1     145.684 144.554 166.954  0.00  0.00    +0.046 A 
ATOM     18  C14 UNL     1     145.191 145.851 166.800  0.00  0.00    +0.012 A 
BRANCH  16  19
ATOM     19  O2  UNL     1     145.884 142.324 166.082  0.00  0.00    -0.507 OA
ATOM     20  H8  UNL     1     145.323 141.845 166.713  0.00  0.00    +0.292 HD
ENDBRANCH  16  19
ENDBRANCH   1  13
TORSDOF 4
ENDMDL
MODEL 8
REMARK VINA RESULT:    -5.729     10.457     13.537
REMARK INTER + INTRA:          -7.555
REMARK INTER:                  -6.601
REMARK INTRA:                  -0.955
REMARK UNBOUND:                -0.821
REMARK  Name = /home/vital/Documents/PhD_2021/Malaria_codes/data/pdb_ligands_mmv/ligand_250.pdb
REMARK  4 active torsions:
REMARK  status: ('A' for Active; 'I' for Inactive)
REMARK    1  A    between atoms: O1_1  and  C1_2
REMARK    2  A    between atoms: C4_5  and  C7_8
REMARK    3  A    between atoms: C7_8  and  C9_12
REMARK    4  A    between atoms: C12_15  and  O2_16
REMARK                            x       y       z     vdW  Elec       q    Type
REMARK                         _______ _______ _______ _____ _____    ______ ____
ROOT
ATOM      1  C7  UNL     1     144.003 147.582 165.438  0.00  0.00    +0.019 C 
ATOM      2  C8  UNL     1     142.730 147.893 165.779  0.00  0.00    +0.115 C 
ATOM      3 CL1  UNL     1     142.068 149.497 165.612  0.00  0.00    -0.070 Cl
ATOM      4 CL2  UNL     1     141.609 146.726 166.425  0.00  0.00    -0.070 Cl
ENDROOT
BRANCH   1   8
ATOM      5  C1  UNL     1     145.468 143.603 165.977  0.00  0.00    +0.117 A 
ATOM      6  C2  UNL     1     144.824 143.947 164.794  0.00  0.00    +0.046 A 
ATOM      7  C3  UNL     1     144.345 145.245 164.618  0.00  0.00    +0.012 A 
ATOM      8  C4  UNL     1     144.507 146.200 165.631  0.00  0.00    -0.015 A 
ATOM      9  C5  UNL     1     145.164 145.839 166.818  0.00  0.00    +0.012 A 
ATOM     10  C6  UNL     1     145.643 144.538 166.992  0.00  0.00    +0.046 A 
BRANCH   5  11
ATOM     11  O1  UNL     1     145.919 142.323 166.105  0.00  0.00    -0.507 OA
ATOM     12  H1  UNL     1     145.595 141.803 165.353  0.00  0.00    +0.292 HD
ENDBRANCH   5  11
ENDBRANCH   1   8
BRANCH   1  13
ATOM     13  C9  UNL     1     144.896 148.623 164.870  0.00  0.00    -0.015 A 
ATOM     14  C10 UNL     1     144.903 148.863 163.489  0.00  0.00    +0.012 A 
ATOM     15  C11 UNL     1     145.736 149.846 162.952  0.00  0.00    +0.046 A 
ATOM     16  C12 UNL     1     146.556 150.590 163.793  0.00  0.00    +0.117 A 
ATOM     17  C13 UNL     1     146.559 150.369 165.167  0.00  0.00    +0.046 A 
ATOM     18  C14 UNL     1     145.726 149.385 165.705  0.00  0.00    +0.012 A 
BRANCH  16  19
ATOM     19  O2  UNL     1     147.353 151.538 163.225  0.00  0.00    -0.507 OA
ATOM     20  H8  UNL     1     146.909 152.398 163.291  0.00  0.00    +0.292 HD
ENDBRANCH  16  19
ENDBRANCH   1  13
TORSDOF 4
ENDMDL
MODEL 9
REMARK VINA RESULT:    -5.679     10.487     13.101
REMARK INTER + INTRA:          -7.496
REMARK INTER:                  -6.544
REMARK INTRA:                  -0.953
REMARK UNBOUND:                -0.821
REMARK  Name = /home/vital/Documents/PhD_2021/Malaria_codes/data/pdb_ligands_mmv/ligand_250.pdb
REMARK  4 active torsions:
REMARK  status: ('A' for Active; 'I' for Inactive)
REMARK    1  A    between atoms: O1_1  and  C1_2
REMARK    2  A    between atoms: C4_5  and  C7_8
REMARK    3  A    between atoms: C7_8  and  C9_12
REMARK    4  A    between atoms: C12_15  and  O2_16
REMARK                            x       y       z     vdW  Elec       q    Type
REMARK                         _______ _______ _______ _____ _____    ______ ____
ROOT
ATOM      1  C7  UNL     1     143.984 147.559 165.421  0.00  0.00    +0.019 C 
ATOM      2  C8  UNL     1     142.688 147.853 165.681  0.00  0.00    +0.115 C 
ATOM      3 CL1  UNL     1     141.527 146.657 166.189  0.00  0.00    -0.070 Cl
ATOM      4 CL2  UNL     1     142.034 149.462 165.538  0.00  0.00    -0.070 Cl
ENDROOT
BRANCH   1   8
ATOM      5  C1  UNL     1     146.639 150.641 164.110  0.00  0.00    +0.117 A 
ATOM      6  C2  UNL     1     145.872 149.949 163.179  0.00  0.00    +0.046 A 
ATOM      7  C3  UNL     1     145.007 148.941 163.607  0.00  0.00    +0.012 A 
ATOM      8  C4  UNL     1     144.911 148.625 164.968  0.00  0.00    -0.015 A 
ATOM      9  C5  UNL     1     145.686 149.337 165.897  0.00  0.00    +0.012 A 
ATOM     10  C6  UNL     1     146.553 150.345 165.466  0.00  0.00    +0.046 A 
BRANCH   5  11
ATOM     11  O1  UNL     1     147.471 151.617 163.647  0.00  0.00    -0.507 OA
ATOM     12  H1  UNL     1     146.969 152.195 163.050  0.00  0.00    +0.292 HD
ENDBRANCH   5  11
ENDBRANCH   1   8
BRANCH   1  13
ATOM     13  C9  UNL     1     144.478 146.169 165.589  0.00  0.00    -0.015 A 
ATOM     14  C10 UNL     1     144.975 145.747 166.829  0.00  0.00    +0.012 A 
ATOM     15  C11 UNL     1     145.434 144.439 166.993  0.00  0.00    +0.046 A 
ATOM     16  C12 UNL     1     145.392 143.554 165.921  0.00  0.00    +0.117 A 
ATOM     17  C13 UNL     1     144.897 143.954 164.684  0.00  0.00    +0.046 A 
ATOM     18  C14 UNL     1     144.438 145.262 164.519  0.00  0.00    +0.012 A 
BRANCH  16  19
ATOM     19  O2  UNL     1     145.851 142.287 166.126  0.00  0.00    -0.507 OA
ATOM     20  H8  UNL     1     145.847 142.106 167.080  0.00  0.00    +0.292 HD
ENDBRANCH  16  19
ENDBRANCH   1  13
TORSDOF 4
ENDMDL
