MODEL 1
REMARK VINA RESULT:    -8.082      0.000      0.000
REMARK INTER + INTRA:          -9.328
REMARK INTER:                  -8.791
REMARK INTRA:                  -0.537
REMARK UNBOUND:                -0.537
REMARK  Name = /home/vital/Documents/PhD_2021/Malaria_codes/data/pdb_ligands_mmv/ligand_247.pdb
REMARK  2 active torsions:
REMARK  status: ('A' for Active; 'I' for Inactive)
REMARK    1  A    between atoms: O1_1  and  C1_2
REMARK    2  A    between atoms: C3_4  and  C17_20
REMARK                            x       y       z     vdW  Elec       q    Type
REMARK                         _______ _______ _______ _____ _____    ______ ____
ROOT
ATOM      1  C1  UNL     1     145.387 145.076 164.017  0.00  0.00    +0.131 C 
ATOM      2  C2  UNL     1     144.611 146.082 164.452  0.00  0.00    +0.038 C 
ATOM      3  C3  UNL     1     144.543 147.457 163.898  0.00  0.00    +0.117 C 
ATOM      4  S1  UNL     1     142.796 147.916 163.606  0.00  0.00    -0.110 S 
ATOM      5  C4  UNL     1     142.309 148.268 165.286  0.00  0.00    +0.034 A 
ATOM      6  C5  UNL     1     141.795 149.557 165.517  0.00  0.00    +0.017 A 
ATOM      7  C6  UNL     1     141.412 149.962 166.794  0.00  0.00    +0.001 A 
ATOM      8  C7  UNL     1     141.532 149.078 167.857  0.00  0.00    +0.002 A 
ATOM      9  C8  UNL     1     142.029 147.792 167.632  0.00  0.00    +0.029 A 
ATOM     10  C9  UNL     1     142.430 147.362 166.356  0.00  0.00    +0.078 A 
ATOM     11  N1  UNL     1     142.844 146.020 166.302  0.00  0.00    -0.246 NA
ATOM     12  C10 UNL     1     143.740 145.531 165.526  0.00  0.00    +0.080 C 
ATOM     13  C11 UNL     1     144.100 144.109 165.640  0.00  0.00    +0.011 A 
ATOM     14  C12 UNL     1     143.582 143.144 166.488  0.00  0.00    +0.011 A 
ATOM     15  C13 UNL     1     144.115 141.858 166.404  0.00  0.00    +0.001 A 
ATOM     16  C14 UNL     1     145.142 141.574 165.487  0.00  0.00    +0.001 A 
ATOM     17  C15 UNL     1     145.649 142.569 164.641  0.00  0.00    +0.012 A 
ATOM     18  C16 UNL     1     145.113 143.845 164.729  0.00  0.00    +0.026 A 
ENDROOT
BRANCH   3  19
ATOM     19  C17 UNL     1     145.346 148.539 164.617  0.00  0.00    -0.030 A 
ATOM     20  C18 UNL     1     145.842 149.627 163.872  0.00  0.00    +0.006 A 
ATOM     21  C19 UNL     1     146.567 150.652 164.484  0.00  0.00    +0.015 A 
ATOM     22  C20 UNL     1     146.807 150.603 165.854  0.00  0.00    +0.018 A 
ATOM     23 BR1  UNL     1     147.785 151.989 166.687  0.00  0.00    -0.050 Br
ATOM     24  C21 UNL     1     146.330 149.539 166.613  0.00  0.00    +0.015 A 
ATOM     25  C22 UNL     1     145.605 148.513 165.998  0.00  0.00    +0.006 A 
ENDBRANCH   3  19
BRANCH   1  26
ATOM     26  O1  UNL     1     146.304 145.151 163.009  0.00  0.00    -0.506 OA
ATOM     27  H1  UNL     1     146.117 144.453 162.359  0.00  0.00    +0.292 HD
ENDBRANCH   1  26
TORSDOF 2
ENDMDL
MODEL 2
REMARK VINA RESULT:    -7.708      9.462     12.990
REMARK INTER + INTRA:          -8.921
REMARK INTER:                  -8.125
REMARK INTRA:                  -0.796
REMARK UNBOUND:                -0.537
REMARK  Name = /home/vital/Documents/PhD_2021/Malaria_codes/data/pdb_ligands_mmv/ligand_247.pdb
REMARK  2 active torsions:
REMARK  status: ('A' for Active; 'I' for Inactive)
REMARK    1  A    between atoms: O1_1  and  C1_2
REMARK    2  A    between atoms: C3_4  and  C17_20
REMARK                            x       y       z     vdW  Elec       q    Type
REMARK                         _______ _______ _______ _____ _____    ______ ____
ROOT
ATOM      1  C1  UNL     1     151.584 155.857 166.192  0.00  0.00    +0.131 C 
ATOM      2  C2  UNL     1     151.666 156.489 165.009  0.00  0.00    +0.038 C 
ATOM      3  C3  UNL     1     152.681 157.493 164.606  0.00  0.00    +0.117 C 
ATOM      4  S1  UNL     1     153.387 157.037 162.981  0.00  0.00    -0.110 S 
ATOM      5  C4  UNL     1     152.043 157.561 161.930  0.00  0.00    +0.034 A 
ATOM      6  C5  UNL     1     152.375 158.499 160.935  0.00  0.00    +0.017 A 
ATOM      7  C6  UNL     1     151.405 159.009 160.074  0.00  0.00    +0.001 A 
ATOM      8  C7  UNL     1     150.090 158.581 160.193  0.00  0.00    +0.002 A 
ATOM      9  C8  UNL     1     149.757 157.640 161.170  0.00  0.00    +0.029 A 
ATOM     10  C9  UNL     1     150.714 157.116 162.057  0.00  0.00    +0.078 A 
ATOM     11  N1  UNL     1     150.216 156.135 162.930  0.00  0.00    -0.246 NA
ATOM     12  C10 UNL     1     150.615 155.909 164.128  0.00  0.00    +0.080 C 
ATOM     13  C11 UNL     1     149.943 154.880 164.935  0.00  0.00    +0.011 A 
ATOM     14  C12 UNL     1     148.896 154.043 164.584  0.00  0.00    +0.011 A 
ATOM     15  C13 UNL     1     148.428 153.155 165.552  0.00  0.00    +0.001 A 
ATOM     16  C14 UNL     1     149.009 153.127 166.831  0.00  0.00    +0.001 A 
ATOM     17  C15 UNL     1     150.067 153.985 167.161  0.00  0.00    +0.012 A 
ATOM     18  C16 UNL     1     150.529 154.865 166.193  0.00  0.00    +0.026 A 
ENDROOT
BRANCH   3  19
ATOM     19  C17 UNL     1     152.284 158.965 164.708  0.00  0.00    -0.030 A 
ATOM     20  C18 UNL     1     153.260 159.952 164.466  0.00  0.00    +0.006 A 
ATOM     21  C19 UNL     1     152.945 161.312 164.529  0.00  0.00    +0.015 A 
ATOM     22  C20 UNL     1     151.646 161.704 164.833  0.00  0.00    +0.018 A 
ATOM     23 BR1  UNL     1     151.213 163.542 164.915  0.00  0.00    -0.050 Br
ATOM     24  C21 UNL     1     150.662 160.750 165.077  0.00  0.00    +0.015 A 
ATOM     25  C22 UNL     1     150.980 159.389 165.015  0.00  0.00    +0.006 A 
ENDBRANCH   3  19
BRANCH   1  26
ATOM     26  O1  UNL     1     152.395 156.065 167.268  0.00  0.00    -0.506 OA
ATOM     27  H1  UNL     1     151.868 155.988 168.081  0.00  0.00    +0.292 HD
ENDBRANCH   1  26
TORSDOF 2
ENDMDL
MODEL 3
REMARK VINA RESULT:    -7.383     10.471     14.032
REMARK INTER + INTRA:          -8.567
REMARK INTER:                  -7.810
REMARK INTRA:                  -0.757
REMARK UNBOUND:                -0.537
REMARK  Name = /home/vital/Documents/PhD_2021/Malaria_codes/data/pdb_ligands_mmv/ligand_247.pdb
REMARK  2 active torsions:
REMARK  status: ('A' for Active; 'I' for Inactive)
REMARK    1  A    between atoms: O1_1  and  C1_2
REMARK    2  A    between atoms: C3_4  and  C17_20
REMARK                            x       y       z     vdW  Elec       q    Type
REMARK                         _______ _______ _______ _____ _____    ______ ____
ROOT
ATOM      1  C1  UNL     1     151.561 156.678 166.769  0.00  0.00    +0.131 C 
ATOM      2  C2  UNL     1     151.646 157.788 166.016  0.00  0.00    +0.038 C 
ATOM      3  C3  UNL     1     152.161 159.113 166.441  0.00  0.00    +0.117 C 
ATOM      4  S1  UNL     1     153.385 159.716 165.222  0.00  0.00    -0.110 S 
ATOM      5  C4  UNL     1     152.267 160.250 163.937  0.00  0.00    +0.034 A 
ATOM      6  C5  UNL     1     152.379 161.598 163.550  0.00  0.00    +0.017 A 
ATOM      7  C6  UNL     1     151.538 162.140 162.580  0.00  0.00    +0.001 A 
ATOM      8  C7  UNL     1     150.578 161.339 161.979  0.00  0.00    +0.002 A 
ATOM      9  C8  UNL     1     150.472 159.996 162.349  0.00  0.00    +0.029 A 
ATOM     10  C9  UNL     1     151.301 159.426 163.331  0.00  0.00    +0.078 A 
ATOM     11  N1  UNL     1     151.097 158.050 163.531  0.00  0.00    -0.246 NA
ATOM     12  C10 UNL     1     151.235 157.413 164.636  0.00  0.00    +0.080 C 
ATOM     13  C11 UNL     1     150.922 155.978 164.689  0.00  0.00    +0.011 A 
ATOM     14  C12 UNL     1     150.495 155.140 163.672  0.00  0.00    +0.011 A 
ATOM     15  C13 UNL     1     150.251 153.806 163.994  0.00  0.00    +0.001 A 
ATOM     16  C14 UNL     1     150.435 153.348 165.310  0.00  0.00    +0.001 A 
ATOM     17  C15 UNL     1     150.866 154.217 166.322  0.00  0.00    +0.012 A 
ATOM     18  C16 UNL     1     151.109 155.542 165.993  0.00  0.00    +0.026 A 
ENDROOT
BRANCH   3  19
ATOM     19  C17 UNL     1     151.129 160.165 166.843  0.00  0.00    -0.030 A 
ATOM     20  C18 UNL     1     151.575 161.450 167.211  0.00  0.00    +0.006 A 
ATOM     21  C19 UNL     1     150.673 162.454 167.570  0.00  0.00    +0.015 A 
ATOM     22  C20 UNL     1     149.308 162.186 167.565  0.00  0.00    +0.018 A 
ATOM     23 BR1  UNL     1     148.082 163.542 168.045  0.00  0.00    -0.050 Br
ATOM     24  C21 UNL     1     148.840 160.926 167.206  0.00  0.00    +0.015 A 
ATOM     25  C22 UNL     1     149.745 159.922 166.848  0.00  0.00    +0.006 A 
ENDBRANCH   3  19
BRANCH   1  26
ATOM     26  O1  UNL     1     151.886 156.580 168.090  0.00  0.00    -0.506 OA
ATOM     27  H1  UNL     1     152.238 155.691 168.265  0.00  0.00    +0.292 HD
ENDBRANCH   1  26
TORSDOF 2
ENDMDL
MODEL 4
REMARK VINA RESULT:    -7.312     11.338     14.443
REMARK INTER + INTRA:          -8.490
REMARK INTER:                  -7.754
REMARK INTRA:                  -0.736
REMARK UNBOUND:                -0.537
REMARK  Name = /home/vital/Documents/PhD_2021/Malaria_codes/data/pdb_ligands_mmv/ligand_247.pdb
REMARK  2 active torsions:
REMARK  status: ('A' for Active; 'I' for Inactive)
REMARK    1  A    between atoms: O1_1  and  C1_2
REMARK    2  A    between atoms: C3_4  and  C17_20
REMARK                            x       y       z     vdW  Elec       q    Type
REMARK                         _______ _______ _______ _____ _____    ______ ____
ROOT
ATOM      1  C1  UNL     1     150.489 156.579 166.522  0.00  0.00    +0.131 C 
ATOM      2  C2  UNL     1     150.942 157.790 166.888  0.00  0.00    +0.038 C 
ATOM      3  C3  UNL     1     150.262 159.093 166.683  0.00  0.00    +0.117 C 
ATOM      4  S1  UNL     1     150.233 160.025 168.257  0.00  0.00    -0.110 S 
ATOM      5  C4  UNL     1     151.925 160.593 168.283  0.00  0.00    +0.034 A 
ATOM      6  C5  UNL     1     152.100 161.987 168.365  0.00  0.00    +0.017 A 
ATOM      7  C6  UNL     1     153.374 162.554 168.359  0.00  0.00    +0.001 A 
ATOM      8  C7  UNL     1     154.489 161.732 168.279  0.00  0.00    +0.002 A 
ATOM      9  C8  UNL     1     154.321 160.347 168.212  0.00  0.00    +0.029 A 
ATOM     10  C9  UNL     1     153.048 159.750 168.207  0.00  0.00    +0.078 A 
ATOM     11  N1  UNL     1     153.069 158.345 168.199  0.00  0.00    -0.246 NA
ATOM     12  C10 UNL     1     152.205 157.575 167.646  0.00  0.00    +0.080 C 
ATOM     13  C11 UNL     1     152.407 156.119 167.677  0.00  0.00    +0.011 A 
ATOM     14  C12 UNL     1     153.433 155.393 168.261  0.00  0.00    +0.011 A 
ATOM     15  C13 UNL     1     153.396 154.005 168.132  0.00  0.00    +0.001 A 
ATOM     16  C14 UNL     1     152.350 153.385 167.427  0.00  0.00    +0.001 A 
ATOM     17  C15 UNL     1     151.326 154.142 166.844  0.00  0.00    +0.012 A 
ATOM     18  C16 UNL     1     151.367 155.522 166.979  0.00  0.00    +0.026 A 
ENDROOT
BRANCH   3  19
ATOM     19  C17 UNL     1     150.709 159.930 165.486  0.00  0.00    -0.030 A 
ATOM     20  C18 UNL     1     151.702 159.417 164.628  0.00  0.00    +0.006 A 
ATOM     21  C19 UNL     1     152.134 160.134 163.510  0.00  0.00    +0.015 A 
ATOM     22  C20 UNL     1     151.576 161.378 163.232  0.00  0.00    +0.018 A 
ATOM     23 BR1  UNL     1     152.153 162.351 161.718  0.00  0.00    -0.050 Br
ATOM     24  C21 UNL     1     150.594 161.909 164.063  0.00  0.00    +0.015 A 
ATOM     25  C22 UNL     1     150.164 161.190 165.183  0.00  0.00    +0.006 A 
ENDBRANCH   3  19
BRANCH   1  26
ATOM     26  O1  UNL     1     149.334 156.330 165.840  0.00  0.00    -0.506 OA
ATOM     27  H1  UNL     1     149.390 156.743 164.962  0.00  0.00    +0.292 HD
ENDBRANCH   1  26
TORSDOF 2
ENDMDL
MODEL 5
REMARK VINA RESULT:    -6.964      3.033      6.159
REMARK INTER + INTRA:          -8.112
REMARK INTER:                  -7.432
REMARK INTRA:                  -0.680
REMARK UNBOUND:                -0.537
REMARK  Name = /home/vital/Documents/PhD_2021/Malaria_codes/data/pdb_ligands_mmv/ligand_247.pdb
REMARK  2 active torsions:
REMARK  status: ('A' for Active; 'I' for Inactive)
REMARK    1  A    between atoms: O1_1  and  C1_2
REMARK    2  A    between atoms: C3_4  and  C17_20
REMARK                            x       y       z     vdW  Elec       q    Type
REMARK                         _______ _______ _______ _____ _____    ______ ____
ROOT
ATOM      1  C1  UNL     1     146.254 149.688 166.165  0.00  0.00    +0.131 C 
ATOM      2  C2  UNL     1     145.088 149.123 165.808  0.00  0.00    +0.038 C 
ATOM      3  C3  UNL     1     144.195 148.307 166.668  0.00  0.00    +0.117 C 
ATOM      4  S1  UNL     1     142.480 148.931 166.539  0.00  0.00    -0.110 S 
ATOM      5  C4  UNL     1     142.045 148.243 164.951  0.00  0.00    +0.034 A 
ATOM      6  C5  UNL     1     140.911 147.409 164.936  0.00  0.00    +0.017 A 
ATOM      7  C6  UNL     1     140.492 146.786 163.763  0.00  0.00    +0.001 A 
ATOM      8  C7  UNL     1     141.196 146.996 162.586  0.00  0.00    +0.002 A 
ATOM      9  C8  UNL     1     142.313 147.835 162.592  0.00  0.00    +0.029 A 
ATOM     10  C9  UNL     1     142.763 148.469 163.763  0.00  0.00    +0.078 A 
ATOM     11  N1  UNL     1     143.861 149.325 163.571  0.00  0.00    -0.246 NA
ATOM     12  C10 UNL     1     144.796 149.563 164.416  0.00  0.00    +0.080 C 
ATOM     13  C11 UNL     1     145.911 150.442 164.035  0.00  0.00    +0.011 A 
ATOM     14  C12 UNL     1     146.122 151.116 162.843  0.00  0.00    +0.011 A 
ATOM     15  C13 UNL     1     147.281 151.881 162.730  0.00  0.00    +0.001 A 
ATOM     16  C14 UNL     1     148.193 151.951 163.798  0.00  0.00    +0.001 A 
ATOM     17  C15 UNL     1     147.957 151.258 164.993  0.00  0.00    +0.012 A 
ATOM     18  C16 UNL     1     146.800 150.501 165.098  0.00  0.00    +0.026 A 
ENDROOT
BRANCH   3  19
ATOM     19  C17 UNL     1     144.303 146.789 166.541  0.00  0.00    -0.030 A 
ATOM     20  C18 UNL     1     145.342 146.243 165.761  0.00  0.00    +0.006 A 
ATOM     21  C19 UNL     1     145.495 144.861 165.626  0.00  0.00    +0.015 A 
ATOM     22  C20 UNL     1     144.611 144.003 166.272  0.00  0.00    +0.018 A 
ATOM     23 BR1  UNL     1     144.817 142.133 166.097  0.00  0.00    -0.050 Br
ATOM     24  C21 UNL     1     143.575 144.516 167.048  0.00  0.00    +0.015 A 
ATOM     25  C22 UNL     1     143.422 145.900 167.181  0.00  0.00    +0.006 A 
ENDBRANCH   3  19
BRANCH   1  26
ATOM     26  O1  UNL     1     146.861 149.569 167.381  0.00  0.00    -0.506 OA
ATOM     27  H1  UNL     1     147.532 148.867 167.331  0.00  0.00    +0.292 HD
ENDBRANCH   1  26
TORSDOF 2
ENDMDL
MODEL 6
REMARK VINA RESULT:    -6.911      1.474      1.814
REMARK INTER + INTRA:          -8.054
REMARK INTER:                  -7.259
REMARK INTRA:                  -0.795
REMARK UNBOUND:                -0.537
REMARK  Name = /home/vital/Documents/PhD_2021/Malaria_codes/data/pdb_ligands_mmv/ligand_247.pdb
REMARK  2 active torsions:
REMARK  status: ('A' for Active; 'I' for Inactive)
REMARK    1  A    between atoms: O1_1  and  C1_2
REMARK    2  A    between atoms: C3_4  and  C17_20
REMARK                            x       y       z     vdW  Elec       q    Type
REMARK                         _______ _______ _______ _____ _____    ______ ____
ROOT
ATOM      1  C1  UNL     1     145.019 143.554 163.838  0.00  0.00    +0.131 C 
ATOM      2  C2  UNL     1     144.134 144.472 164.263  0.00  0.00    +0.038 C 
ATOM      3  C3  UNL     1     143.943 145.840 163.720  0.00  0.00    +0.117 C 
ATOM      4  S1  UNL     1     142.166 146.125 163.386  0.00  0.00    -0.110 S 
ATOM      5  C4  UNL     1     141.604 146.405 165.057  0.00  0.00    +0.034 A 
ATOM      6  C5  UNL     1     140.956 147.633 165.286  0.00  0.00    +0.017 A 
ATOM      7  C6  UNL     1     140.502 147.981 166.556  0.00  0.00    +0.001 A 
ATOM      8  C7  UNL     1     140.683 147.101 167.614  0.00  0.00    +0.002 A 
ATOM      9  C8  UNL     1     141.312 145.875 167.389  0.00  0.00    +0.029 A 
ATOM     10  C9  UNL     1     141.788 145.502 166.120  0.00  0.00    +0.078 A 
ATOM     11  N1  UNL     1     142.336 144.210 166.064  0.00  0.00    -0.246 NA
ATOM     12  C10 UNL     1     143.296 143.822 165.307  0.00  0.00    +0.080 C 
ATOM     13  C11 UNL     1     143.794 142.443 165.416  0.00  0.00    +0.011 A 
ATOM     14  C12 UNL     1     143.355 141.420 166.241  0.00  0.00    +0.011 A 
ATOM     15  C13 UNL     1     144.017 140.196 166.159  0.00  0.00    +0.001 A 
ATOM     16  C14 UNL     1     145.090 140.027 165.267  0.00  0.00    +0.001 A 
ATOM     17  C15 UNL     1     145.516 141.079 164.444  0.00  0.00    +0.012 A 
ATOM     18  C16 UNL     1     144.852 142.293 164.530  0.00  0.00    +0.026 A 
ENDROOT
BRANCH   3  19
ATOM     19  C17 UNL     1     144.614 146.988 164.471  0.00  0.00    -0.030 A 
ATOM     20  C18 UNL     1     144.560 148.285 163.923  0.00  0.00    +0.006 A 
ATOM     21  C19 UNL     1     145.143 149.372 164.578  0.00  0.00    +0.015 A 
ATOM     22  C20 UNL     1     145.789 149.178 165.794  0.00  0.00    +0.018 A 
ATOM     23 BR1  UNL     1     146.575 150.646 166.687  0.00  0.00    -0.050 Br
ATOM     24  C21 UNL     1     145.858 147.908 166.359  0.00  0.00    +0.015 A 
ATOM     25  C22 UNL     1     145.275 146.820 165.701  0.00  0.00    +0.006 A 
ENDBRANCH   3  19
BRANCH   1  26
ATOM     26  O1  UNL     1     145.949 143.734 162.856  0.00  0.00    -0.506 OA
ATOM     27  H1  UNL     1     145.965 144.672 162.603  0.00  0.00    +0.292 HD
ENDBRANCH   1  26
TORSDOF 2
ENDMDL
MODEL 7
REMARK VINA RESULT:    -6.815      2.966      4.732
REMARK INTER + INTRA:          -7.950
REMARK INTER:                  -7.335
REMARK INTRA:                  -0.614
REMARK UNBOUND:                -0.537
REMARK  Name = /home/vital/Documents/PhD_2021/Malaria_codes/data/pdb_ligands_mmv/ligand_247.pdb
REMARK  2 active torsions:
REMARK  status: ('A' for Active; 'I' for Inactive)
REMARK    1  A    between atoms: O1_1  and  C1_2
REMARK    2  A    between atoms: C3_4  and  C17_20
REMARK                            x       y       z     vdW  Elec       q    Type
REMARK                         _______ _______ _______ _____ _____    ______ ____
ROOT
ATOM      1  C1  UNL     1     142.302 143.338 166.202  0.00  0.00    +0.131 C 
ATOM      2  C2  UNL     1     142.988 144.472 165.975  0.00  0.00    +0.038 C 
ATOM      3  C3  UNL     1     142.489 145.860 166.139  0.00  0.00    +0.117 C 
ATOM      4  S1  UNL     1     143.684 146.828 167.131  0.00  0.00    -0.110 S 
ATOM      5  C4  UNL     1     144.922 147.121 165.879  0.00  0.00    +0.034 A 
ATOM      6  C5  UNL     1     145.229 148.472 165.627  0.00  0.00    +0.017 A 
ATOM      7  C6  UNL     1     146.155 148.828 164.648  0.00  0.00    +0.001 A 
ATOM      8  C7  UNL     1     146.792 147.838 163.915  0.00  0.00    +0.002 A 
ATOM      9  C8  UNL     1     146.502 146.496 164.171  0.00  0.00    +0.029 A 
ATOM     10  C9  UNL     1     145.566 146.109 165.145  0.00  0.00    +0.078 A 
ATOM     11  N1  UNL     1     145.447 144.719 165.312  0.00  0.00    -0.246 NA
ATOM     12  C10 UNL     1     144.384 144.080 165.640  0.00  0.00    +0.080 C 
ATOM     13  C11 UNL     1     144.414 142.612 165.712  0.00  0.00    +0.011 A 
ATOM     14  C12 UNL     1     145.475 141.749 165.491  0.00  0.00    +0.011 A 
ATOM     15  C13 UNL     1     145.231 140.382 165.611  0.00  0.00    +0.001 A 
ATOM     16  C14 UNL     1     143.947 139.916 165.943  0.00  0.00    +0.001 A 
ATOM     17  C15 UNL     1     142.890 140.810 166.159  0.00  0.00    +0.012 A 
ATOM     18  C16 UNL     1     143.140 142.168 166.040  0.00  0.00    +0.026 A 
ENDROOT
BRANCH   3  19
ATOM     19  C17 UNL     1     142.014 146.582 164.880  0.00  0.00    -0.030 A 
ATOM     20  C18 UNL     1     141.803 145.834 163.705  0.00  0.00    +0.006 A 
ATOM     21  C19 UNL     1     141.353 146.443 162.530  0.00  0.00    +0.015 A 
ATOM     22  C20 UNL     1     141.105 147.812 162.516  0.00  0.00    +0.018 A 
ATOM     23 BR1  UNL     1     140.491 148.639 160.932  0.00  0.00    -0.050 Br
ATOM     24  C21 UNL     1     141.305 148.575 163.663  0.00  0.00    +0.015 A 
ATOM     25  C22 UNL     1     141.757 147.963 164.837  0.00  0.00    +0.006 A 
ENDBRANCH   3  19
BRANCH   1  26
ATOM     26  O1  UNL     1     140.993 143.256 166.576  0.00  0.00    -0.506 OA
ATOM     27  H1  UNL     1     140.522 142.679 165.952  0.00  0.00    +0.292 HD
ENDBRANCH   1  26
TORSDOF 2
ENDMDL
MODEL 8
REMARK VINA RESULT:    -6.657      3.251      6.267
REMARK INTER + INTRA:          -7.778
REMARK INTER:                  -7.007
REMARK INTRA:                  -0.772
REMARK UNBOUND:                -0.537
REMARK  Name = /home/vital/Documents/PhD_2021/Malaria_codes/data/pdb_ligands_mmv/ligand_247.pdb
REMARK  2 active torsions:
REMARK  status: ('A' for Active; 'I' for Inactive)
REMARK    1  A    between atoms: O1_1  and  C1_2
REMARK    2  A    between atoms: C3_4  and  C17_20
REMARK                            x       y       z     vdW  Elec       q    Type
REMARK                         _______ _______ _______ _____ _____    ______ ____
ROOT
ATOM      1  C1  UNL     1     146.398 148.126 165.110  0.00  0.00    +0.131 C 
ATOM      2  C2  UNL     1     145.245 147.448 164.983  0.00  0.00    +0.038 C 
ATOM      3  C3  UNL     1     144.789 146.305 165.813  0.00  0.00    +0.117 C 
ATOM      4  S1  UNL     1     143.080 146.609 166.390  0.00  0.00    -0.110 S 
ATOM      5  C4  UNL     1     142.199 146.230 164.885  0.00  0.00    +0.034 A 
ATOM      6  C5  UNL     1     141.221 145.223 164.986  0.00  0.00    +0.017 A 
ATOM      7  C6  UNL     1     140.490 144.816 163.871  0.00  0.00    +0.001 A 
ATOM      8  C7  UNL     1     140.723 145.417 162.642  0.00  0.00    +0.002 A 
ATOM      9  C8  UNL     1     141.682 146.426 162.540  0.00  0.00    +0.029 A 
ATOM     10  C9  UNL     1     142.439 146.850 163.646  0.00  0.00    +0.078 A 
ATOM     11  N1  UNL     1     143.311 147.918 163.373  0.00  0.00    -0.246 NA
ATOM     12  C10 UNL     1     144.450 148.130 163.925  0.00  0.00    +0.080 C 
ATOM     13  C11 UNL     1     145.270 149.266 163.481  0.00  0.00    +0.011 A 
ATOM     14  C12 UNL     1     144.990 150.220 162.516  0.00  0.00    +0.011 A 
ATOM     15  C13 UNL     1     145.956 151.195 162.272  0.00  0.00    +0.001 A 
ATOM     16  C14 UNL     1     147.166 151.190 162.988  0.00  0.00    +0.001 A 
ATOM     17  C15 UNL     1     147.426 150.212 163.957  0.00  0.00    +0.012 A 
ATOM     18  C16 UNL     1     146.460 149.247 164.196  0.00  0.00    +0.026 A 
ENDROOT
BRANCH   3  19
ATOM     19  C17 UNL     1     145.001 144.903 165.245  0.00  0.00    -0.030 A 
ATOM     20  C18 UNL     1     144.828 143.792 166.093  0.00  0.00    +0.006 A 
ATOM     21  C19 UNL     1     144.993 142.487 165.620  0.00  0.00    +0.015 A 
ATOM     22  C20 UNL     1     145.333 142.277 164.287  0.00  0.00    +0.018 A 
ATOM     23 BR1  UNL     1     145.553 140.514 163.641  0.00  0.00    -0.050 Br
ATOM     24  C21 UNL     1     145.511 143.356 163.428  0.00  0.00    +0.015 A 
ATOM     25  C22 UNL     1     145.346 144.661 163.904  0.00  0.00    +0.006 A 
ENDBRANCH   3  19
BRANCH   1  26
ATOM     26  O1  UNL     1     147.394 147.850 166.000  0.00  0.00    -0.506 OA
ATOM     27  H1  UNL     1     147.868 148.672 166.209  0.00  0.00    +0.292 HD
ENDBRANCH   1  26
TORSDOF 2
ENDMDL
MODEL 9
REMARK VINA RESULT:    -6.307     12.214     15.102
REMARK INTER + INTRA:          -7.397
REMARK INTER:                  -7.062
REMARK INTRA:                  -0.336
REMARK UNBOUND:                -0.537
REMARK  Name = /home/vital/Documents/PhD_2021/Malaria_codes/data/pdb_ligands_mmv/ligand_247.pdb
REMARK  2 active torsions:
REMARK  status: ('A' for Active; 'I' for Inactive)
REMARK    1  A    between atoms: O1_1  and  C1_2
REMARK    2  A    between atoms: C3_4  and  C17_20
REMARK                            x       y       z     vdW  Elec       q    Type
REMARK                         _______ _______ _______ _____ _____    ______ ____
ROOT
ATOM      1  C1  UNL     1     150.784 161.612 164.164  0.00  0.00    +0.131 C 
ATOM      2  C2  UNL     1     151.217 160.427 164.624  0.00  0.00    +0.038 C 
ATOM      3  C3  UNL     1     152.352 159.629 164.097  0.00  0.00    +0.117 C 
ATOM      4  S1  UNL     1     153.451 159.139 165.475  0.00  0.00    -0.110 S 
ATOM      5  C4  UNL     1     152.473 157.813 166.162  0.00  0.00    +0.034 A 
ATOM      6  C5  UNL     1     153.110 156.561 166.241  0.00  0.00    +0.017 A 
ATOM      7  C6  UNL     1     152.438 155.442 166.728  0.00  0.00    +0.001 A 
ATOM      8  C7  UNL     1     151.121 155.562 167.149  0.00  0.00    +0.002 A 
ATOM      9  C8  UNL     1     150.489 156.805 167.086  0.00  0.00    +0.029 A 
ATOM     10  C9  UNL     1     151.140 157.949 166.591  0.00  0.00    +0.078 A 
ATOM     11  N1  UNL     1     150.374 159.125 166.660  0.00  0.00    -0.246 NA
ATOM     12  C10 UNL     1     150.419 160.111 165.841  0.00  0.00    +0.080 C 
ATOM     13  C11 UNL     1     149.503 161.246 166.022  0.00  0.00    +0.011 A 
ATOM     14  C12 UNL     1     148.551 161.450 167.007  0.00  0.00    +0.011 A 
ATOM     15  C13 UNL     1     147.793 162.618 166.941  0.00  0.00    +0.001 A 
ATOM     16  C14 UNL     1     148.001 163.542 165.902  0.00  0.00    +0.001 A 
ATOM     17  C15 UNL     1     148.970 163.311 164.916  0.00  0.00    +0.012 A 
ATOM     18  C16 UNL     1     149.721 162.148 164.989  0.00  0.00    +0.026 A 
ENDROOT
BRANCH   3  19
ATOM     19  C17 UNL     1     152.015 158.482 163.147  0.00  0.00    -0.030 A 
ATOM     20  C18 UNL     1     150.838 158.559 162.377  0.00  0.00    +0.006 A 
ATOM     21  C19 UNL     1     150.491 157.544 161.481  0.00  0.00    +0.015 A 
ATOM     22  C20 UNL     1     151.321 156.437 161.341  0.00  0.00    +0.018 A 
ATOM     23 BR1  UNL     1     150.860 155.064 160.127  0.00  0.00    -0.050 Br
ATOM     24  C21 UNL     1     152.490 156.335 162.089  0.00  0.00    +0.015 A 
ATOM     25  C22 UNL     1     152.834 157.351 162.987  0.00  0.00    +0.006 A 
ENDBRANCH   3  19
BRANCH   1  26
ATOM     26  O1  UNL     1     151.280 162.281 163.083  0.00  0.00    -0.506 OA
ATOM     27  H1  UNL     1     151.781 161.659 162.530  0.00  0.00    +0.292 HD
ENDBRANCH   1  26
TORSDOF 2
ENDMDL
