MODEL 1
REMARK VINA RESULT:    -4.643      0.000      0.000
REMARK INTER + INTRA:          -7.756
REMARK INTER:                  -6.136
REMARK INTRA:                  -1.620
REMARK UNBOUND:                -1.620
REMARK  Name = /home/vital/Documents/PhD_2021/Malaria_codes/data/pdb_ligands_mmv/ligand_325.pdb
REMARK  8 active torsions:
REMARK  status: ('A' for Active; 'I' for Inactive)
REMARK    1  A    between atoms: C1_1  and  C2_2
REMARK    2  A    between atoms: C2_2  and  O1_3
REMARK    3  A    between atoms: O1_3  and  C3_4
REMARK    4  A    between atoms: C8_10  and  C9_11
REMARK    5  A    between atoms: C14_17  and  O2_18
REMARK    6  A    between atoms: C17_21  and  O3_22
REMARK    7  A    between atoms: O3_22  and  C18_23
REMARK    8  A    between atoms: C18_23  and  C19_24
REMARK                            x       y       z     vdW  Elec       q    Type
REMARK                         _______ _______ _______ _____ _____    ______ ____
ROOT
ATOM      1  C3  UNL     1     152.489 157.745 164.757  0.00  0.00    +0.162 A 
ATOM      2  C4  UNL     1     152.594 159.125 164.952  0.00  0.00    +0.053 A 
ATOM      3  C5  UNL     1     152.046 160.026 164.024  0.00  0.00    -0.037 A 
ATOM      4  C6  UNL     1     152.133 161.508 164.285  0.00  0.00    +0.050 C 
ATOM      5  C7  UNL     1     151.071 162.270 163.491  0.00  0.00    +0.086 C 
ATOM      6  N1  UNL     1     151.143 161.939 162.066  0.00  0.00    -0.305 NA
ATOM      7  C8  UNL     1     150.819 160.513 161.833  0.00  0.00    +0.118 C 
ATOM      8  C15 UNL     1     151.425 159.549 162.859  0.00  0.00    -0.019 A 
ATOM      9  C16 UNL     1     151.277 158.158 162.698  0.00  0.00    +0.055 A 
ATOM     10  C17 UNL     1     151.818 157.256 163.622  0.00  0.00    +0.162 A 
ATOM     11  H11 UNL     1     152.106 162.083 161.755  0.00  0.00    +0.123 HD
ENDROOT
BRANCH   7  12
ATOM     12  C9  UNL     1     151.122 160.224 160.362  0.00  0.00    +0.017 A 
ATOM     13  C10 UNL     1     150.240 159.503 159.535  0.00  0.00    +0.029 A 
ATOM     14  C11 UNL     1     150.540 159.292 158.187  0.00  0.00    +0.042 A 
ATOM     15 CL1  UNL     1     149.425 158.437 157.192  0.00  0.00    -0.084 Cl
ATOM     16  C12 UNL     1     151.728 159.768 157.639  0.00  0.00    +0.023 A 
ATOM     17  C13 UNL     1     152.639 160.435 158.453  0.00  0.00    +0.047 A 
ATOM     18  C14 UNL     1     152.345 160.633 159.801  0.00  0.00    +0.122 A 
BRANCH  18  19
ATOM     19  O2  UNL     1     153.324 161.202 160.566  0.00  0.00    -0.506 OA
ATOM     20  H16 UNL     1     153.722 161.918 160.031  0.00  0.00    +0.292 HD
ENDBRANCH  18  19
ENDBRANCH   7  12
BRANCH   1  21
ATOM     21  O1  UNL     1     152.994 156.798 165.613  0.00  0.00    -0.489 OA
BRANCH  21  23
ATOM     22  C1  UNL     1     153.128 155.576 167.651  0.00  0.00    +0.048 C 
ATOM     23  C2  UNL     1     152.432 156.709 166.919  0.00  0.00    +0.226 C 
ENDBRANCH  21  23
ENDBRANCH   1  21
BRANCH  10  24
ATOM     24  O3  UNL     1     151.734 155.890 163.511  0.00  0.00    -0.489 OA
BRANCH  24  25
ATOM     25  C18 UNL     1     150.445 155.316 163.312  0.00  0.00    +0.226 C 
ATOM     26  C19 UNL     1     150.012 154.675 164.617  0.00  0.00    +0.048 C 
ENDBRANCH  24  25
ENDBRANCH  10  24
TORSDOF 6
ENDMDL
MODEL 2
REMARK VINA RESULT:    -3.970      3.425      7.359
REMARK INTER + INTRA:          -6.866
REMARK INTER:                  -5.479
REMARK INTRA:                  -1.387
REMARK UNBOUND:                -1.620
REMARK  Name = /home/vital/Documents/PhD_2021/Malaria_codes/data/pdb_ligands_mmv/ligand_325.pdb
REMARK  8 active torsions:
REMARK  status: ('A' for Active; 'I' for Inactive)
REMARK    1  A    between atoms: C1_1  and  C2_2
REMARK    2  A    between atoms: C2_2  and  O1_3
REMARK    3  A    between atoms: O1_3  and  C3_4
REMARK    4  A    between atoms: C8_10  and  C9_11
REMARK    5  A    between atoms: C14_17  and  O2_18
REMARK    6  A    between atoms: C17_21  and  O3_22
REMARK    7  A    between atoms: O3_22  and  C18_23
REMARK    8  A    between atoms: C18_23  and  C19_24
REMARK                            x       y       z     vdW  Elec       q    Type
REMARK                         _______ _______ _______ _____ _____    ______ ____
ROOT
ATOM      1  C3  UNL     1     151.393 157.003 157.369  0.00  0.00    +0.162 A 
ATOM      2  C4  UNL     1     150.932 155.820 157.953  0.00  0.00    +0.053 A 
ATOM      3  C5  UNL     1     150.562 155.783 159.307  0.00  0.00    -0.037 A 
ATOM      4  C6  UNL     1     150.023 154.504 159.897  0.00  0.00    +0.050 C 
ATOM      5  C7  UNL     1     149.211 154.783 161.164  0.00  0.00    +0.086 C 
ATOM      6  N1  UNL     1     149.990 155.566 162.125  0.00  0.00    -0.305 NA
ATOM      7  C8  UNL     1     150.300 156.911 161.588  0.00  0.00    +0.118 C 
ATOM      8  C15 UNL     1     150.697 156.928 160.109  0.00  0.00    -0.019 A 
ATOM      9  C16 UNL     1     151.113 158.128 159.499  0.00  0.00    +0.055 A 
ATOM     10  C17 UNL     1     151.478 158.171 158.149  0.00  0.00    +0.162 A 
ATOM     11  H11 UNL     1     150.882 155.090 162.274  0.00  0.00    +0.123 HD
ENDROOT
BRANCH   7  12
ATOM     12  C9  UNL     1     151.278 157.565 162.565  0.00  0.00    +0.017 A 
ATOM     13  C10 UNL     1     151.162 158.909 162.968  0.00  0.00    +0.029 A 
ATOM     14  C11 UNL     1     152.057 159.456 163.891  0.00  0.00    +0.042 A 
ATOM     15 CL1  UNL     1     151.869 161.092 164.390  0.00  0.00    -0.084 Cl
ATOM     16  C12 UNL     1     153.096 158.691 164.413  0.00  0.00    +0.023 A 
ATOM     17  C13 UNL     1     153.262 157.376 163.987  0.00  0.00    +0.047 A 
ATOM     18  C14 UNL     1     152.376 156.836 163.055  0.00  0.00    +0.122 A 
BRANCH  18  19
ATOM     19  O2  UNL     1     152.655 155.577 162.602  0.00  0.00    -0.506 OA
ATOM     20  H16 UNL     1     153.626 155.465 162.655  0.00  0.00    +0.292 HD
ENDBRANCH  18  19
ENDBRANCH   7  12
BRANCH   1  21
ATOM     21  O1  UNL     1     151.773 157.126 156.055  0.00  0.00    -0.489 OA
BRANCH  21  23
ATOM     22  C1  UNL     1     152.838 156.446 154.039  0.00  0.00    +0.048 C 
ATOM     23  C2  UNL     1     152.607 156.113 155.502  0.00  0.00    +0.226 C 
ENDBRANCH  21  23
ENDBRANCH   1  21
BRANCH  10  24
ATOM     24  O3  UNL     1     151.917 159.300 157.500  0.00  0.00    -0.489 OA
BRANCH  24  25
ATOM     25  C18 UNL     1     152.211 160.449 158.289  0.00  0.00    +0.226 C 
ATOM     26  C19 UNL     1     151.692 161.668 157.551  0.00  0.00    +0.048 C 
ENDBRANCH  24  25
ENDBRANCH  10  24
TORSDOF 6
ENDMDL
MODEL 3
REMARK VINA RESULT:    -3.912      2.548      4.930
REMARK INTER + INTRA:          -6.790
REMARK INTER:                  -5.559
REMARK INTRA:                  -1.231
REMARK UNBOUND:                -1.620
REMARK  Name = /home/vital/Documents/PhD_2021/Malaria_codes/data/pdb_ligands_mmv/ligand_325.pdb
REMARK  8 active torsions:
REMARK  status: ('A' for Active; 'I' for Inactive)
REMARK    1  A    between atoms: C1_1  and  C2_2
REMARK    2  A    between atoms: C2_2  and  O1_3
REMARK    3  A    between atoms: O1_3  and  C3_4
REMARK    4  A    between atoms: C8_10  and  C9_11
REMARK    5  A    between atoms: C14_17  and  O2_18
REMARK    6  A    between atoms: C17_21  and  O3_22
REMARK    7  A    between atoms: O3_22  and  C18_23
REMARK    8  A    between atoms: C18_23  and  C19_24
REMARK                            x       y       z     vdW  Elec       q    Type
REMARK                         _______ _______ _______ _____ _____    ______ ____
ROOT
ATOM      1  C3  UNL     1     150.424 156.191 161.820  0.00  0.00    +0.162 A 
ATOM      2  C4  UNL     1     150.125 157.040 160.750  0.00  0.00    +0.053 A 
ATOM      3  C5  UNL     1     150.493 158.395 160.783  0.00  0.00    -0.037 A 
ATOM      4  C6  UNL     1     150.201 159.276 159.595  0.00  0.00    +0.050 C 
ATOM      5  C7  UNL     1     151.103 160.510 159.590  0.00  0.00    +0.086 C 
ATOM      6  N1  UNL     1     151.017 161.229 160.863  0.00  0.00    -0.305 NA
ATOM      7  C8  UNL     1     151.536 160.403 161.977  0.00  0.00    +0.118 C 
ATOM      8  C15 UNL     1     151.125 158.928 161.918  0.00  0.00    -0.019 A 
ATOM      9  C16 UNL     1     151.469 158.054 162.968  0.00  0.00    +0.055 A 
ATOM     10  C17 UNL     1     151.108 156.702 162.937  0.00  0.00    +0.162 A 
ATOM     11  H11 UNL     1     150.030 161.411 161.058  0.00  0.00    +0.123 HD
ENDROOT
BRANCH   7  12
ATOM     12  C9  UNL     1     151.214 161.151 163.271  0.00  0.00    +0.017 A 
ATOM     13  C10 UNL     1     149.963 161.751 163.508  0.00  0.00    +0.029 A 
ATOM     14  C11 UNL     1     149.700 162.394 164.720  0.00  0.00    +0.042 A 
ATOM     15 CL1  UNL     1     148.149 163.089 164.994  0.00  0.00    -0.084 Cl
ATOM     16  C12 UNL     1     150.677 162.477 165.709  0.00  0.00    +0.023 A 
ATOM     17  C13 UNL     1     151.939 161.937 165.473  0.00  0.00    +0.047 A 
ATOM     18  C14 UNL     1     152.204 161.308 164.258  0.00  0.00    +0.122 A 
BRANCH  18  19
ATOM     19  O2  UNL     1     153.490 160.893 164.050  0.00  0.00    -0.506 OA
ATOM     20  H16 UNL     1     153.451 160.168 163.394  0.00  0.00    +0.292 HD
ENDBRANCH  18  19
ENDBRANCH   7  12
BRANCH   1  21
ATOM     21  O1  UNL     1     150.102 154.857 161.867  0.00  0.00    -0.489 OA
BRANCH  21  23
ATOM     22  C1  UNL     1     148.128 153.530 161.919  0.00  0.00    +0.048 C 
ATOM     23  C2  UNL     1     149.025 154.399 161.056  0.00  0.00    +0.226 C 
ENDBRANCH  21  23
ENDBRANCH   1  21
BRANCH  10  24
ATOM     24  O3  UNL     1     151.388 155.803 163.937  0.00  0.00    -0.489 OA
BRANCH  24  25
ATOM     25  C18 UNL     1     150.707 155.956 165.179  0.00  0.00    +0.226 C 
ATOM     26  C19 UNL     1     149.897 154.697 165.427  0.00  0.00    +0.048 C 
ENDBRANCH  24  25
ENDBRANCH  10  24
TORSDOF 6
ENDMDL
MODEL 4
REMARK VINA RESULT:    -3.839      3.554      5.619
REMARK INTER + INTRA:          -6.693
REMARK INTER:                  -5.125
REMARK INTRA:                  -1.569
REMARK UNBOUND:                -1.620
REMARK  Name = /home/vital/Documents/PhD_2021/Malaria_codes/data/pdb_ligands_mmv/ligand_325.pdb
REMARK  8 active torsions:
REMARK  status: ('A' for Active; 'I' for Inactive)
REMARK    1  A    between atoms: C1_1  and  C2_2
REMARK    2  A    between atoms: C2_2  and  O1_3
REMARK    3  A    between atoms: O1_3  and  C3_4
REMARK    4  A    between atoms: C8_10  and  C9_11
REMARK    5  A    between atoms: C14_17  and  O2_18
REMARK    6  A    between atoms: C17_21  and  O3_22
REMARK    7  A    between atoms: O3_22  and  C18_23
REMARK    8  A    between atoms: C18_23  and  C19_24
REMARK                            x       y       z     vdW  Elec       q    Type
REMARK                         _______ _______ _______ _____ _____    ______ ____
ROOT
ATOM      1  C3  UNL     1     150.484 154.879 165.249  0.00  0.00    +0.162 A 
ATOM      2  C4  UNL     1     150.341 155.259 163.912  0.00  0.00    +0.053 A 
ATOM      3  C5  UNL     1     151.015 156.383 163.407  0.00  0.00    -0.037 A 
ATOM      4  C6  UNL     1     150.879 156.741 161.949  0.00  0.00    +0.050 C 
ATOM      5  C7  UNL     1     152.043 157.619 161.487  0.00  0.00    +0.086 C 
ATOM      6  N1  UNL     1     152.188 158.795 162.348  0.00  0.00    -0.305 NA
ATOM      7  C8  UNL     1     152.553 158.402 163.728  0.00  0.00    +0.118 C 
ATOM      8  C15 UNL     1     151.808 157.172 164.256  0.00  0.00    -0.019 A 
ATOM      9  C16 UNL     1     151.988 156.751 165.588  0.00  0.00    +0.055 A 
ATOM     10  C17 UNL     1     151.322 155.629 166.095  0.00  0.00    +0.162 A 
ATOM     11  H11 UNL     1     151.281 159.264 162.399  0.00  0.00    +0.123 HD
ENDROOT
BRANCH   7  12
ATOM     12  C9  UNL     1     152.477 159.666 164.584  0.00  0.00    +0.017 A 
ATOM     13  C10 UNL     1     153.500 160.040 165.476  0.00  0.00    +0.029 A 
ATOM     14  C11 UNL     1     153.406 161.223 166.214  0.00  0.00    +0.042 A 
ATOM     15 CL1  UNL     1     154.689 161.671 167.271  0.00  0.00    -0.084 Cl
ATOM     16  C12 UNL     1     152.287 162.044 166.101  0.00  0.00    +0.023 A 
ATOM     17  C13 UNL     1     151.240 161.665 165.266  0.00  0.00    +0.047 A 
ATOM     18  C14 UNL     1     151.330 160.478 164.541  0.00  0.00    +0.122 A 
BRANCH  18  19
ATOM     19  O2  UNL     1     150.226 160.113 163.823  0.00  0.00    -0.506 OA
ATOM     20  H16 UNL     1     149.878 159.295 164.232  0.00  0.00    +0.292 HD
ENDBRANCH  18  19
ENDBRANCH   7  12
BRANCH   1  21
ATOM     21  O1  UNL     1     149.864 153.796 165.821  0.00  0.00    -0.489 OA
BRANCH  21  23
ATOM     22  C1  UNL     1     148.448 152.007 165.144  0.00  0.00    +0.048 C 
ATOM     23  C2  UNL     1     149.857 152.570 165.096  0.00  0.00    +0.226 C 
ENDBRANCH  21  23
ENDBRANCH   1  21
BRANCH  10  24
ATOM     24  O3  UNL     1     151.432 155.181 167.388  0.00  0.00    -0.489 OA
BRANCH  24  25
ATOM     25  C18 UNL     1     152.720 154.781 167.847  0.00  0.00    +0.226 C 
ATOM     26  C19 UNL     1     152.722 153.269 167.975  0.00  0.00    +0.048 C 
ENDBRANCH  24  25
ENDBRANCH  10  24
TORSDOF 6
ENDMDL
MODEL 5
REMARK VINA RESULT:    -3.569      3.445      5.808
REMARK INTER + INTRA:          -6.337
REMARK INTER:                  -4.808
REMARK INTRA:                  -1.529
REMARK UNBOUND:                -1.620
REMARK  Name = /home/vital/Documents/PhD_2021/Malaria_codes/data/pdb_ligands_mmv/ligand_325.pdb
REMARK  8 active torsions:
REMARK  status: ('A' for Active; 'I' for Inactive)
REMARK    1  A    between atoms: C1_1  and  C2_2
REMARK    2  A    between atoms: C2_2  and  O1_3
REMARK    3  A    between atoms: O1_3  and  C3_4
REMARK    4  A    between atoms: C8_10  and  C9_11
REMARK    5  A    between atoms: C14_17  and  O2_18
REMARK    6  A    between atoms: C17_21  and  O3_22
REMARK    7  A    between atoms: O3_22  and  C18_23
REMARK    8  A    between atoms: C18_23  and  C19_24
REMARK                            x       y       z     vdW  Elec       q    Type
REMARK                         _______ _______ _______ _____ _____    ______ ____
ROOT
ATOM      1  C3  UNL     1     148.604 153.580 163.272  0.00  0.00    +0.162 A 
ATOM      2  C4  UNL     1     148.793 153.701 161.892  0.00  0.00    +0.053 A 
ATOM      3  C5  UNL     1     149.719 154.618 161.371  0.00  0.00    -0.037 A 
ATOM      4  C6  UNL     1     149.938 154.692 159.881  0.00  0.00    +0.050 C 
ATOM      5  C7  UNL     1     151.291 155.324 159.554  0.00  0.00    +0.086 C 
ATOM      6  N1  UNL     1     151.437 156.624 160.213  0.00  0.00    -0.305 NA
ATOM      7  C8  UNL     1     151.452 156.474 161.687  0.00  0.00    +0.118 C 
ATOM      8  C15 UNL     1     150.436 155.466 162.232  0.00  0.00    -0.019 A 
ATOM      9  C16 UNL     1     150.277 155.300 163.622  0.00  0.00    +0.055 A 
ATOM     10  C17 UNL     1     149.358 154.383 164.146  0.00  0.00    +0.162 A 
ATOM     11  H11 UNL     1     150.622 157.193 159.977  0.00  0.00    +0.123 HD
ENDROOT
BRANCH   7  12
ATOM     12  C9  UNL     1     151.399 157.884 162.276  0.00  0.00    +0.017 A 
ATOM     13  C10 UNL     1     152.199 158.281 163.364  0.00  0.00    +0.029 A 
ATOM     14  C11 UNL     1     152.145 159.590 163.849  0.00  0.00    +0.042 A 
ATOM     15 CL1  UNL     1     153.161 160.055 165.158  0.00  0.00    -0.084 Cl
ATOM     16  C12 UNL     1     151.279 160.523 163.283  0.00  0.00    +0.023 A 
ATOM     17  C13 UNL     1     150.440 160.136 162.242  0.00  0.00    +0.047 A 
ATOM     18  C14 UNL     1     150.486 158.825 161.769  0.00  0.00    +0.122 A 
BRANCH  18  19
ATOM     19  O2  UNL     1     149.564 158.484 160.819  0.00  0.00    -0.506 OA
ATOM     20  H16 UNL     1     149.045 157.738 161.182  0.00  0.00    +0.292 HD
ENDBRANCH  18  19
ENDBRANCH   7  12
BRANCH   1  21
ATOM     21  O1  UNL     1     147.722 152.709 163.863  0.00  0.00    -0.489 OA
BRANCH  21  23
ATOM     22  C1  UNL     1     147.089 150.415 163.836  0.00  0.00    +0.048 C 
ATOM     23  C2  UNL     1     147.119 151.711 163.046  0.00  0.00    +0.226 C 
ENDBRANCH  21  23
ENDBRANCH   1  21
BRANCH  10  24
ATOM     24  O3  UNL     1     149.134 154.192 165.487  0.00  0.00    -0.489 OA
BRANCH  24  25
ATOM     25  C18 UNL     1     150.253 153.875 166.310  0.00  0.00    +0.226 C 
ATOM     26  C19 UNL     1     150.427 152.368 166.305  0.00  0.00    +0.048 C 
ENDBRANCH  24  25
ENDBRANCH  10  24
TORSDOF 6
ENDMDL
MODEL 6
REMARK VINA RESULT:    -3.512      2.847      5.126
REMARK INTER + INTRA:          -6.261
REMARK INTER:                  -4.783
REMARK INTRA:                  -1.478
REMARK UNBOUND:                -1.620
REMARK  Name = /home/vital/Documents/PhD_2021/Malaria_codes/data/pdb_ligands_mmv/ligand_325.pdb
REMARK  8 active torsions:
REMARK  status: ('A' for Active; 'I' for Inactive)
REMARK    1  A    between atoms: C1_1  and  C2_2
REMARK    2  A    between atoms: C2_2  and  O1_3
REMARK    3  A    between atoms: O1_3  and  C3_4
REMARK    4  A    between atoms: C8_10  and  C9_11
REMARK    5  A    between atoms: C14_17  and  O2_18
REMARK    6  A    between atoms: C17_21  and  O3_22
REMARK    7  A    between atoms: O3_22  and  C18_23
REMARK    8  A    between atoms: C18_23  and  C19_24
REMARK                            x       y       z     vdW  Elec       q    Type
REMARK                         _______ _______ _______ _____ _____    ______ ____
ROOT
ATOM      1  C3  UNL     1     150.542 156.217 161.373  0.00  0.00    +0.162 A 
ATOM      2  C4  UNL     1     150.265 157.112 160.335  0.00  0.00    +0.053 A 
ATOM      3  C5  UNL     1     150.688 158.449 160.406  0.00  0.00    -0.037 A 
ATOM      4  C6  UNL     1     150.417 159.378 159.250  0.00  0.00    +0.050 C 
ATOM      5  C7  UNL     1     151.369 160.575 159.272  0.00  0.00    +0.086 C 
ATOM      6  N1  UNL     1     151.327 161.255 160.568  0.00  0.00    -0.305 NA
ATOM      7  C8  UNL     1     151.826 160.374 161.648  0.00  0.00    +0.118 C 
ATOM      8  C15 UNL     1     151.355 158.919 161.549  0.00  0.00    -0.019 A 
ATOM      9  C16 UNL     1     151.675 157.999 162.566  0.00  0.00    +0.055 A 
ATOM     10  C17 UNL     1     151.260 156.664 162.497  0.00  0.00    +0.162 A 
ATOM     11  H11 UNL     1     150.352 161.470 160.782  0.00  0.00    +0.123 HD
ENDROOT
BRANCH   7  12
ATOM     12  C9  UNL     1     151.551 161.092 162.970  0.00  0.00    +0.017 A 
ATOM     13  C10 UNL     1     152.443 161.044 164.058  0.00  0.00    +0.029 A 
ATOM     14  C11 UNL     1     152.168 161.745 165.235  0.00  0.00    +0.042 A 
ATOM     15 CL1  UNL     1     153.294 161.695 166.536  0.00  0.00    -0.084 Cl
ATOM     16  C12 UNL     1     150.996 162.484 165.366  0.00  0.00    +0.023 A 
ATOM     17  C13 UNL     1     150.075 162.500 164.322  0.00  0.00    +0.047 A 
ATOM     18  C14 UNL     1     150.344 161.789 163.154  0.00  0.00    +0.122 A 
BRANCH  18  19
ATOM     19  O2  UNL     1     149.354 161.762 162.211  0.00  0.00    -0.506 OA
ATOM     20  H16 UNL     1     148.606 162.279 162.570  0.00  0.00    +0.292 HD
ENDBRANCH  18  19
ENDBRANCH   7  12
BRANCH   1  21
ATOM     21  O1  UNL     1     150.167 154.897 161.383  0.00  0.00    -0.489 OA
BRANCH  21  23
ATOM     22  C1  UNL     1     148.270 153.518 161.791  0.00  0.00    +0.048 C 
ATOM     23  C2  UNL     1     148.880 154.563 160.873  0.00  0.00    +0.226 C 
ENDBRANCH  21  23
ENDBRANCH   1  21
BRANCH  10  24
ATOM     24  O3  UNL     1     151.514 155.723 163.464  0.00  0.00    -0.489 OA
BRANCH  24  25
ATOM     25  C18 UNL     1     150.833 155.847 164.709  0.00  0.00    +0.226 C 
ATOM     26  C19 UNL     1     150.307 154.476 165.092  0.00  0.00    +0.048 C 
ENDBRANCH  24  25
ENDBRANCH  10  24
TORSDOF 6
ENDMDL
MODEL 7
REMARK VINA RESULT:    -3.394      2.598      4.309
REMARK INTER + INTRA:          -6.106
REMARK INTER:                  -5.031
REMARK INTRA:                  -1.075
REMARK UNBOUND:                -1.620
REMARK  Name = /home/vital/Documents/PhD_2021/Malaria_codes/data/pdb_ligands_mmv/ligand_325.pdb
REMARK  8 active torsions:
REMARK  status: ('A' for Active; 'I' for Inactive)
REMARK    1  A    between atoms: C1_1  and  C2_2
REMARK    2  A    between atoms: C2_2  and  O1_3
REMARK    3  A    between atoms: O1_3  and  C3_4
REMARK    4  A    between atoms: C8_10  and  C9_11
REMARK    5  A    between atoms: C14_17  and  O2_18
REMARK    6  A    between atoms: C17_21  and  O3_22
REMARK    7  A    between atoms: O3_22  and  C18_23
REMARK    8  A    between atoms: C18_23  and  C19_24
REMARK                            x       y       z     vdW  Elec       q    Type
REMARK                         _______ _______ _______ _____ _____    ______ ____
ROOT
ATOM      1  C3  UNL     1     150.480 154.977 164.573  0.00  0.00    +0.162 A 
ATOM      2  C4  UNL     1     149.967 154.606 163.327  0.00  0.00    +0.053 A 
ATOM      3  C5  UNL     1     150.332 155.302 162.163  0.00  0.00    -0.037 A 
ATOM      4  C6  UNL     1     149.800 154.850 160.827  0.00  0.00    +0.050 C 
ATOM      5  C7  UNL     1     150.680 155.358 159.684  0.00  0.00    +0.086 C 
ATOM      6  N1  UNL     1     150.856 156.810 159.762  0.00  0.00    -0.305 NA
ATOM      7  C8  UNL     1     151.595 157.191 160.988  0.00  0.00    +0.118 C 
ATOM      8  C15 UNL     1     151.183 156.416 162.244  0.00  0.00    -0.019 A 
ATOM      9  C16 UNL     1     151.736 156.749 163.496  0.00  0.00    +0.055 A 
ATOM     10  C17 UNL     1     151.379 156.055 164.658  0.00  0.00    +0.162 A 
ATOM     11  H11 UNL     1     149.931 157.239 159.824  0.00  0.00    +0.123 HD
ENDROOT
BRANCH   7  12
ATOM     12  C9  UNL     1     151.545 158.717 161.080  0.00  0.00    +0.017 A 
ATOM     13  C10 UNL     1     150.823 159.392 162.082  0.00  0.00    +0.029 A 
ATOM     14  C11 UNL     1     150.833 160.788 162.149  0.00  0.00    +0.042 A 
ATOM     15 CL1  UNL     1     149.968 161.584 163.406  0.00  0.00    -0.084 Cl
ATOM     16  C12 UNL     1     151.537 161.540 161.213  0.00  0.00    +0.023 A 
ATOM     17  C13 UNL     1     152.213 160.894 160.182  0.00  0.00    +0.047 A 
ATOM     18  C14 UNL     1     152.190 159.502 160.108  0.00  0.00    +0.122 A 
BRANCH  18  19
ATOM     19  O2  UNL     1     152.785 158.936 159.015  0.00  0.00    -0.506 OA
ATOM     20  H16 UNL     1     153.751 159.043 159.130  0.00  0.00    +0.292 HD
ENDBRANCH  18  19
ENDBRANCH   7  12
BRANCH   1  21
ATOM     21  O1  UNL     1     150.178 154.350 165.757  0.00  0.00    -0.489 OA
BRANCH  21  23
ATOM     22  C1  UNL     1     151.461 152.593 166.722  0.00  0.00    +0.048 C 
ATOM     23  C2  UNL     1     150.294 152.931 165.811  0.00  0.00    +0.226 C 
ENDBRANCH  21  23
ENDBRANCH   1  21
BRANCH  10  24
ATOM     24  O3  UNL     1     151.859 156.344 165.912  0.00  0.00    -0.489 OA
BRANCH  24  25
ATOM     25  C18 UNL     1     151.798 157.698 166.352  0.00  0.00    +0.226 C 
ATOM     26  C19 UNL     1     150.492 157.887 167.100  0.00  0.00    +0.048 C 
ENDBRANCH  24  25
ENDBRANCH  10  24
TORSDOF 6
ENDMDL
MODEL 8
REMARK VINA RESULT:    -3.224      3.204      5.474
REMARK INTER + INTRA:          -5.881
REMARK INTER:                  -4.272
REMARK INTRA:                  -1.608
REMARK UNBOUND:                -1.620
REMARK  Name = /home/vital/Documents/PhD_2021/Malaria_codes/data/pdb_ligands_mmv/ligand_325.pdb
REMARK  8 active torsions:
REMARK  status: ('A' for Active; 'I' for Inactive)
REMARK    1  A    between atoms: C1_1  and  C2_2
REMARK    2  A    between atoms: C2_2  and  O1_3
REMARK    3  A    between atoms: O1_3  and  C3_4
REMARK    4  A    between atoms: C8_10  and  C9_11
REMARK    5  A    between atoms: C14_17  and  O2_18
REMARK    6  A    between atoms: C17_21  and  O3_22
REMARK    7  A    between atoms: O3_22  and  C18_23
REMARK    8  A    between atoms: C18_23  and  C19_24
REMARK                            x       y       z     vdW  Elec       q    Type
REMARK                         _______ _______ _______ _____ _____    ______ ____
ROOT
ATOM      1  C3  UNL     1     151.728 157.195 163.542  0.00  0.00    +0.162 A 
ATOM      2  C4  UNL     1     151.409 157.952 162.411  0.00  0.00    +0.053 A 
ATOM      3  C5  UNL     1     151.491 159.354 162.438  0.00  0.00    -0.037 A 
ATOM      4  C6  UNL     1     151.186 160.142 161.189  0.00  0.00    +0.050 C 
ATOM      5  C7  UNL     1     151.816 161.534 161.250  0.00  0.00    +0.086 C 
ATOM      6  N1  UNL     1     151.421 162.236 162.472  0.00  0.00    -0.305 NA
ATOM      7  C8  UNL     1     151.945 161.547 163.674  0.00  0.00    +0.118 C 
ATOM      8  C15 UNL     1     151.849 160.019 163.622  0.00  0.00    -0.019 A 
ATOM      9  C16 UNL     1     152.220 159.245 164.739  0.00  0.00    +0.055 A 
ATOM     10  C17 UNL     1     152.144 157.848 164.716  0.00  0.00    +0.162 A 
ATOM     11  H11 UNL     1     150.402 162.215 162.535  0.00  0.00    +0.123 HD
ENDROOT
BRANCH   7  12
ATOM     12  C9  UNL     1     151.313 162.229 164.888  0.00  0.00    +0.017 A 
ATOM     13  C10 UNL     1     152.039 162.516 166.059  0.00  0.00    +0.029 A 
ATOM     14  C11 UNL     1     151.431 163.173 167.132  0.00  0.00    +0.042 A 
ATOM     15 CL1  UNL     1     152.354 163.541 168.537  0.00  0.00    -0.084 Cl
ATOM     16  C12 UNL     1     150.088 163.536 167.075  0.00  0.00    +0.023 A 
ATOM     17  C13 UNL     1     149.338 163.213 165.947  0.00  0.00    +0.047 A 
ATOM     18  C14 UNL     1     149.943 162.545 164.884  0.00  0.00    +0.122 A 
BRANCH  18  19
ATOM     19  O2  UNL     1     149.127 162.166 163.854  0.00  0.00    -0.506 OA
ATOM     20  H16 UNL     1     149.219 161.196 163.762  0.00  0.00    +0.292 HD
ENDBRANCH  18  19
ENDBRANCH   7  12
BRANCH   1  21
ATOM     21  O1  UNL     1     151.677 155.824 163.600  0.00  0.00    -0.489 OA
BRANCH  21  23
ATOM     22  C1  UNL     1     149.834 154.512 164.338  0.00  0.00    +0.048 C 
ATOM     23  C2  UNL     1     150.493 155.179 163.144  0.00  0.00    +0.226 C 
ENDBRANCH  21  23
ENDBRANCH   1  21
BRANCH  10  24
ATOM     24  O3  UNL     1     152.464 157.037 165.777  0.00  0.00    -0.489 OA
BRANCH  24  25
ATOM     25  C18 UNL     1     151.558 156.990 166.876  0.00  0.00    +0.226 C 
ATOM     26  C19 UNL     1     151.789 155.686 167.616  0.00  0.00    +0.048 C 
ENDBRANCH  24  25
ENDBRANCH  10  24
TORSDOF 6
ENDMDL
